unknown system                          
   1.00000000000000     
     0.000000    2.715000    2.715000
     2.715000    0.000000    2.715000
     2.715000    2.715000    0.000000
   Si
     2
Direct
  0.500000  0.500000  0.500000
  0.750000  0.750000  0.750000
 
   24   24   24
 0.87135     0.90877      1.0261      1.2376      1.5647      2.0298      2.6485      3.4158      4.2925      5.1943    
  5.9950      6.5528      6.7534      6.5528      5.9950      5.1943      4.2926      3.4158      2.6485      2.0299    
  1.5647      1.2376      1.0261     0.90877     0.90877     0.96969      1.0993      1.3115      1.6230      2.0474    
  2.5871      3.2239      3.9095      4.5638      5.0849      5.3755      5.3755      5.0849      4.5638      3.9096    
  3.2239      2.5871      2.0474      1.6230      1.3115      1.0993     0.96971     0.90878      1.0261      1.0993    
  1.2312      1.4338      1.7185      2.0904      2.5424      3.0487      3.5604      4.0088      4.3185      4.4294    
  4.3185      4.0089      3.5604      3.0487      2.5424      2.0903      1.7184      1.4338      1.2312      1.0993    
  1.0261      1.0027      1.2376      1.3115      1.4338      1.6141      1.8588      2.1670      2.5261      2.9081    
  3.2691      3.5547      3.7134      3.7134      3.5547      3.2691      2.9080      2.5260      2.1669      1.8588    
  1.6141      1.4338      1.3115      1.2376      1.2033      1.2033      1.5647      1.6230      1.7185      1.8588    
  2.0473      2.2800      2.5424      2.8084      3.0416      3.2027      3.2604      3.2027      3.0416      2.8083    
  2.5424      2.2800      2.0474      1.8588      1.7185      1.6230      1.5647      1.5344      1.5252      1.5344    
  2.0298      2.0474      2.0904      2.1670      2.2800      2.4246      2.5871      2.7455      2.8728      2.9441    
  2.9441      2.8728      2.7455      2.5872      2.4247      2.2801      2.1670      2.0903      2.0474      2.0298    
  2.0269      2.0284      2.0284      2.0268      2.6485      2.5871      2.5424      2.5261      2.5424      2.5871    
  2.6484      2.7100      2.7552      2.7718      2.7552      2.7100      2.6485      2.5872      2.5424      2.5260    
  2.5424      2.5871      2.6484      2.7100      2.7552      2.7718      2.7552      2.7100      3.4158      3.2239    
  3.0487      2.9081      2.8084      2.7455      2.7100      2.6920      2.6847      2.6847      2.6921      2.7100    
  2.7455      2.8083      2.9080      3.0486      3.2239      3.4158      3.5976      3.7400      3.8181      3.8181    
  3.7400      3.5976      4.2925      3.9095      3.5604      3.2691      3.0416      2.8728      2.7552      2.6847    
  2.6610      2.6847      2.7552      2.8728      3.0416      3.2691      3.5604      3.9095      4.2926      4.6684    
  4.9867      5.2000      5.2750      5.1999      4.9867      4.6684      5.1943      4.5638      4.0088      3.5547    
  3.2027      2.9441      2.7718      2.6847      2.6847      2.7717      2.9441      3.2027      3.5547      4.0089    
  4.5638      5.1943      5.8457      6.4404      6.8955      7.1423      7.1423      6.8955      6.4404      5.8457    
  5.9950      5.0849      4.3185      3.7134      3.2604      2.9441      2.7552      2.6921      2.7552      2.9441    
  3.2604      3.7134      4.3185      5.0849      5.9951      6.9890      7.9637      8.7910      9.3473      9.5435    
  9.3473      8.7911      7.9637      6.9890      6.5528      5.3755      4.4294      3.7134      3.2027      2.8728    
  2.7100      2.7100      2.8728      3.2027      3.7134      4.4293      5.3755      6.5528      7.9116      9.3371    
  10.659      11.686      12.248      12.248      11.686      10.659      9.3372      7.9116      6.7534      5.3755    
  4.3185      3.5547      3.0416      2.7455      2.6485      2.7455      3.0416      3.5547      4.3185      5.3755    
  6.7534      8.4303      10.304      12.185      13.817      14.934      15.331      14.934      13.817      12.185    
  10.304      8.4303      6.5528      5.0849      4.0089      3.2691      2.8083      2.5872      2.5872      2.8083    
  3.2691      4.0089      5.0849      6.5528      8.4303      10.654      13.049      15.330      17.123      18.099    
  18.099      17.124      15.330      13.049      10.654      8.4303      5.9950      4.5638      3.5604      2.9080    
  2.5424      2.4247      2.5424      2.9080      3.5604      4.5638      5.9951      7.9116      10.304      13.049    
  15.878      18.346      19.994      20.569      19.994      18.346      15.878      13.049      10.304      7.9115    
  5.1943      3.9096      3.0487      2.5260      2.2800      2.2801      2.5260      3.0486      3.9095      5.1943    
  6.9890      9.3371      12.185      15.330      18.346      20.665      21.905      21.905      20.665      18.346    
  15.330      12.185      9.3371      6.9889      4.2926      3.2239      2.5424      2.1669      2.0474      2.1670    
  2.5424      3.2239      4.2926      5.8457      7.9637      10.659      13.817      17.123      19.994      21.905    
  22.570      21.905      19.994      17.123      13.817      10.659      7.9637      5.8456      3.4158      2.5871    
  2.0903      1.8588      1.8588      2.0903      2.5871      3.4158      4.6684      6.4404      8.7910      11.686    
  14.934      18.099      20.569      21.905      21.905      20.569      18.099      14.934      11.686      8.7911    
  6.4404      4.6683      2.6485      2.0474      1.7184      1.6141      1.7185      2.0474      2.6484      3.5976    
  4.9867      6.8955      9.3473      12.248      15.331      18.099      19.994      20.665      19.994      18.099    
  15.331      12.248      9.3473      6.8955      4.9866      3.5977      2.0299      1.6230      1.4338      1.4338    
  1.6230      2.0298      2.7100      3.7400      5.2000      7.1423      9.5435      12.248      14.934      17.124    
  18.346      18.346      17.123      14.934      12.248      9.5436      7.1424      5.1999      3.7400      2.7101    
  1.5647      1.3115      1.2312      1.3115      1.5647      2.0269      2.7552      3.8181      5.2750      7.1423    
  9.3473      11.686      13.817      15.330      15.878      15.330      13.817      11.686      9.3473      7.1424    
  5.2750      3.8181      2.7552      2.0269      1.2376      1.0993      1.0993      1.2376      1.5344      2.0284    
  2.7718      3.8181      5.1999      6.8955      8.7911      10.659      12.185      13.049      13.049      12.185    
  10.659      8.7911      6.8955      5.1999      3.8181      2.7717      2.0284      1.5344      1.0261     0.96971    
  1.0261      1.2033      1.5252      2.0284      2.7552      3.7400      4.9867      6.4404      7.9637      9.3372    
  10.304      10.654      10.304      9.3371      7.9637      6.4404      4.9866      3.7400      2.7552      2.0284    
  1.5252      1.2033     0.90877     0.90878      1.0027      1.2033      1.5344      2.0268      2.7100      3.5976    
  4.6684      5.8457      6.9890      7.9116      8.4303      8.4303      7.9115      6.9889      5.8456      4.6683    
  3.5977      2.7101      2.0269      1.5344      1.2033      1.0027     0.90877     0.96969      1.0993      1.3115    
  1.6230      2.0474      2.5871      3.2239      3.9095      4.5638      5.0849      5.3755      5.3754      5.0848    
  4.5638      3.9096      3.2239      2.5871      2.0474      1.6230      1.3115      1.0993     0.96971     0.90878    
 0.96969      1.0381      1.1624      1.3552      1.6283      1.9871      2.4246      2.9151      3.4105      3.8440    
  4.1429      4.2498      4.1429      3.8440      3.4106      2.9151      2.4246      1.9871      1.6282      1.3551    
  1.1624      1.0381     0.96970     0.94802      1.0993      1.1624      1.2699      1.4325      1.6573      1.9440    
  2.2800      2.6381      2.9762      3.2432      3.3914      3.3914      3.2433      2.9763      2.6381      2.2800    
  1.9440      1.6573      1.4324      1.2699      1.1624      1.0993      1.0707      1.0707      1.3115      1.3552    
  1.4325      1.5524      1.7189      1.9284      2.1670      2.4097      2.6230      2.7703      2.8230      2.7703    
  2.6230      2.4097      2.1669      1.9284      1.7189      1.5524      1.4325      1.3552      1.3115      1.2909    
  1.2851      1.2909      1.6230      1.6283      1.6573      1.7189      1.8160      1.9440      2.0904      2.2346    
  2.3516      2.4174      2.4174      2.3516      2.2346      2.0903      1.9440      1.8160      1.7190      1.6574    
  1.6283      1.6230      1.6296      1.6365      1.6365      1.6296      2.0474      1.9871      1.9440      1.9284    
  1.9440      1.9871      2.0474      2.1093      2.1557      2.1728      2.1557      2.1093      2.0474      1.9871    
  1.9440      1.9284      1.9440      1.9871      2.0474      2.1093      2.1557      2.1728      2.1557      2.1093    
  2.5871      2.4246      2.2800      2.1670      2.0904      2.0474      2.0298      2.0268      2.0284      2.0284    
  2.0269      2.0299      2.0474      2.0903      2.1670      2.2800      2.4247      2.5871      2.7454      2.8728    
  2.9441      2.9441      2.8728      2.7455      3.2239      2.9151      2.6381      2.4097      2.2346      2.1093    
  2.0268      1.9804      1.9655      1.9805      2.0269      2.1093      2.2345      2.4097      2.6381      2.9152    
  3.2239      3.5339      3.8035      3.9885      4.0546      3.9886      3.8036      3.5339      3.9095      3.4105    
  2.9762      2.6230      2.3516      2.1557      2.0284      1.9655      1.9655      2.0283      2.1556      2.3515    
  2.6229      2.9762      3.4106      3.9096      4.4354      4.9283      5.3156      5.5299      5.5299      5.3157    
  4.9284      4.4354      4.5638      3.8440      3.2432      2.7703      2.4174      2.1728      2.0284      1.9805    
  2.0283      2.1727      2.4173      2.7703      3.2433      3.8441      4.5639      5.3642      6.1698      6.8735    
  7.3584      7.5318      7.3584      6.8736      6.1698      5.3642      5.0849      4.1429      3.3914      2.8230    
  2.4174      2.1557      2.0269      2.0269      2.1556      2.4173      2.8230      3.3915      4.1431      5.0850    
  6.1906      7.3810      8.5188      9.4271      9.9345      9.9344      9.4271      8.5189      7.3811      6.1907    
  5.3755      4.2498      3.3914      2.7703      2.3516      2.1093      2.0299      2.1093      2.3515      2.7703    
  3.3915      4.2500      5.3756      6.7673      8.3625      10.013      11.489      12.523      12.897      12.523    
  11.489      10.013      8.3627      6.7673      5.3754      4.1429      3.2433      2.6230      2.2346      2.0474    
  2.0474      2.2345      2.6229      3.2433      4.1431      5.3756      6.9748      8.9159      11.072      13.189    
  14.914      15.891      15.891      14.914      13.189      11.072      8.9160      6.9749      5.0848      3.8440    
  2.9763      2.4097      2.0903      1.9871      2.0903      2.4097      2.9762      3.8441      5.0850      6.7673    
  8.9159      11.455      14.157      16.627      18.385      19.025      18.385      16.627      14.157      11.456    
  8.9160      6.7672      4.5638      3.4106      2.6381      2.1669      1.9440      1.9440      2.1670      2.6381    
  3.4106      4.5639      6.1906      8.3625      11.072      14.157      17.252      19.816      21.278      21.278    
  19.816      17.252      14.157      11.072      8.3625      6.1906      3.9096      2.9151      2.2800      1.9284    
  1.8160      1.9284      2.2800      2.9152      3.9096      5.3642      7.3810      10.013      13.189      16.627    
  19.816      22.099      22.928      22.099      19.816      16.627      13.189      10.013      7.3810      5.3642    
  3.2239      2.4246      1.9440      1.7189      1.7190      1.9440      2.4247      3.2239      4.4354      6.1698    
  8.5188      11.489      14.914      18.385      21.278      22.928      22.928      21.278      18.385      14.914    
  11.489      8.5189      6.1699      4.4355      2.5871      1.9871      1.6573      1.5524      1.6574      1.9871    
  2.5871      3.5339      4.9283      6.8735      9.4271      12.523      15.891      19.025      21.278      22.099    
  21.278      19.025      15.891      12.523      9.4270      6.8737      4.9284      3.5340      2.0474      1.6282    
  1.4324      1.4325      1.6283      2.0474      2.7454      3.8035      5.3156      7.3584      9.9345      12.897    
  15.891      18.385      19.816      19.816      18.385      15.891      12.896      9.9344      7.3585      5.3158    
  3.8036      2.7455      1.6230      1.3551      1.2699      1.3552      1.6230      2.1093      2.8728      3.9885    
  5.5299      7.5318      9.9344      12.523      14.914      16.627      17.252      16.627      14.914      12.523    
  9.9344      7.5319      5.5300      3.9886      2.8728      2.1093      1.3115      1.1624      1.1624      1.3115    
  1.6296      2.1557      2.9441      4.0546      5.5299      7.3584      9.4271      11.489      13.189      14.157    
  14.157      13.189      11.489      9.4270      7.3585      5.5300      4.0547      2.9441      2.1556      1.6296    
  1.0993      1.0381      1.0993      1.2909      1.6365      2.1728      2.9441      3.9886      5.3157      6.8736    
  8.5189      10.013      11.072      11.456      11.072      10.013      8.5189      6.8737      5.3158      3.9886    
  2.9441      2.1728      1.6364      1.2909     0.96971     0.96970      1.0707      1.2851      1.6365      2.1557    
  2.8728      3.8036      4.9284      6.1698      7.3811      8.3627      8.9160      8.9160      8.3625      7.3810    
  6.1699      4.9284      3.8036      2.8728      2.1556      1.6364      1.2851      1.0707     0.90878     0.94802    
  1.0707      1.2909      1.6296      2.1093      2.7455      3.5339      4.4354      5.3642      6.1907      6.7673    
  6.9749      6.7672      6.1906      5.3642      4.4355      3.5340      2.7455      2.1093      1.6296      1.2909    
  1.0707     0.94806      1.0261      1.0993      1.2312      1.4338      1.7185      2.0904      2.5424      3.0487    
  3.5604      4.0088      4.3185      4.4293      4.3185      4.0088      3.5604      3.0487      2.5424      2.0904    
  1.7185      1.4338      1.2312      1.0993      1.0261      1.0027      1.0993      1.1624      1.2699      1.4325    
  1.6573      1.9440      2.2800      2.6381      2.9762      3.2432      3.3913      3.3914      3.2432      2.9762    
  2.6381      2.2800      1.9440      1.6573      1.4324      1.2699      1.1624      1.0993      1.0707      1.0707    
  1.2312      1.2699      1.3410      1.4541      1.6136      1.8160      2.0473      2.2831      2.4902      2.6332    
  2.6844      2.6332      2.4902      2.2832      2.0473      1.8160      1.6136      1.4541      1.3410      1.2698    
  1.2312      1.2139      1.2092      1.2139      1.4338      1.4325      1.4541      1.5081      1.5979      1.7189    
  1.8588      1.9971      2.1095      2.1727      2.1727      2.1095      1.9971      1.8587      1.7189      1.5979    
  1.5081      1.4541      1.4325      1.4338      1.4454      1.4550      1.4550      1.4454      1.7185      1.6573    
  1.6136      1.5979      1.6136      1.6574      1.7185      1.7812      1.8282      1.8457      1.8282      1.7812    
  1.7184      1.6573      1.6136      1.5979      1.6137      1.6574      1.7185      1.7812      1.8282      1.8457    
  1.8282      1.7812      2.0904      1.9440      1.8160      1.7189      1.6574      1.6283      1.6230      1.6296    
  1.6365      1.6365      1.6296      1.6230      1.6283      1.6574      1.7190      1.8160      1.9440      2.0904    
  2.2346      2.3516      2.4174      2.4174      2.3516      2.2346      2.5424      2.2800      2.0473      1.8588    
  1.7185      1.6230      1.5647      1.5344      1.5252      1.5344      1.5647      1.6230      1.7185      1.8588    
  2.0473      2.2800      2.5424      2.8083      3.0416      3.2027      3.2604      3.2027      3.0416      2.8084    
  3.0487      2.6381      2.2831      1.9971      1.7812      1.6296      1.5344      1.4887      1.4887      1.5344    
  1.6296      1.7812      1.9971      2.2831      2.6381      3.0487      3.4843      3.8957      4.2214      4.4025    
  4.4025      4.2215      3.8958      3.4843      3.5604      2.9762      2.4902      2.1095      1.8282      1.6365    
  1.5252      1.4887      1.5252      1.6365      1.8282      2.1094      2.4902      2.9762      3.5604      4.2132    
  4.8750      5.4576      5.8617      6.0067      5.8616      5.4576      4.8750      4.2132      4.0088      3.2432    
  2.6332      2.1727      1.8457      1.6365      1.5344      1.5344      1.6365      1.8456      2.1727      2.6332    
  3.2432      4.0088      4.9110      5.8888      6.8314      7.5898      8.0157      8.0157      7.5897      6.8314    
  5.8888      4.9110      4.3185      3.3913      2.6844      2.1727      1.8282      1.6296      1.5647      1.6296    
  1.8282      2.1727      2.6844      3.3914      4.3185      5.4685      6.7959      8.1822      9.4329      10.315    
  10.635      10.315      9.4329      8.1821      6.7959      5.4685      4.4293      3.3914      2.6332      2.1095    
  1.7812      1.6230      1.6230      1.7812      2.1094      2.6332      3.3914      4.4293      5.7802      7.4317    
  9.2842      11.122      12.633      13.493      13.493      12.633      11.122      9.2842      7.4317      5.7802    
  4.3185      3.2432      2.4902      1.9971      1.7184      1.6283      1.7185      1.9971      2.4902      3.2432    
  4.3185      5.7802      7.6611      9.9083      12.326      14.559      16.159      16.743      16.159      14.559    
  12.326      9.9083      7.6612      5.7802      4.0088      2.9762      2.2832      1.8587      1.6573      1.6574    
  1.8588      2.2831      2.9762      4.0088      5.4685      7.4317      9.9083      12.765      15.662      18.082    
  19.473      19.473      18.082      15.662      12.764      9.9084      7.4317      5.4685      3.5604      2.6381    
  2.0473      1.7189      1.6136      1.7190      2.0473      2.6381      3.5604      4.9110      6.7959      9.2842    
  12.326      15.662      18.787      21.047      21.876      21.047      18.787      15.662      12.326      9.2842    
  6.7959      4.9109      3.0487      2.2800      1.8160      1.5979      1.5979      1.8160      2.2800      3.0487    
  4.2132      5.8888      8.1822      11.122      14.559      18.082      21.047      22.758      22.758      21.047    
  18.082      14.559      11.122      8.1822      5.8888      4.2132      2.5424      1.9440      1.6136      1.5081    
  1.6137      1.9440      2.5424      3.4843      4.8750      6.8314      9.4329      12.633      16.159      19.473    
  21.876      22.758      21.876      19.473      16.159      12.633      9.4329      6.8315      4.8750      3.4843    
  2.0904      1.6573      1.4541      1.4541      1.6574      2.0904      2.8083      3.8957      5.4576      7.5898    
  10.315      13.493      16.743      19.473      21.047      21.047      19.473      16.743      13.493      10.315    
  7.5897      5.4576      3.8957      2.8084      1.7185      1.4324      1.3410      1.4325      1.7185      2.2346    
  3.0416      4.2214      5.8617      8.0157      10.635      13.493      16.159      18.082      18.787      18.082    
  16.159      13.493      10.635      8.0157      5.8617      4.2214      3.0416      2.2346      1.4338      1.2699    
  1.2698      1.4338      1.7812      2.3516      3.2027      4.4025      6.0067      8.0157      10.315      12.633    
  14.559      15.662      15.662      14.559      12.633      10.315      8.0157      6.0067      4.4025      3.2027    
  2.3516      1.7812      1.2312      1.1624      1.2312      1.4454      1.8282      2.4174      3.2604      4.4025    
  5.8616      7.5897      9.4329      11.122      12.326      12.764      12.326      11.122      9.4329      7.5897    
  5.8617      4.4025      3.2604      2.4174      1.8282      1.4454      1.0993      1.0993      1.2139      1.4550    
  1.8457      2.4174      3.2027      4.2215      5.4576      6.8314      8.1821      9.2842      9.9083      9.9084    
  9.2842      8.1822      6.8315      5.4576      4.2214      3.2027      2.4174      1.8457      1.4550      1.2139    
  1.0261      1.0707      1.2092      1.4550      1.8282      2.3516      3.0416      3.8958      4.8750      5.8888    
  6.7959      7.4317      7.6612      7.4317      6.7959      5.8888      4.8750      3.8957      3.0416      2.3516    
  1.8282      1.4550      1.2092      1.0707      1.0027      1.0707      1.2139      1.4454      1.7812      2.2346    
  2.8084      3.4843      4.2132      4.9110      5.4685      5.7802      5.7802      5.4685      4.9109      4.2132    
  3.4843      2.8084      2.2346      1.7812      1.4454      1.2139      1.0707      1.0027      1.2376      1.3115    
  1.4338      1.6141      1.8588      2.1670      2.5261      2.9081      3.2691      3.5547      3.7134      3.7134    
  3.5547      3.2691      2.9080      2.5260      2.1670      1.8588      1.6142      1.4339      1.3115      1.2376    
  1.2033      1.2033      1.3115      1.3552      1.4325      1.5524      1.7189      1.9284      2.1670      2.4097    
  2.6230      2.7703      2.8230      2.7703      2.6230      2.4097      2.1669      1.9284      1.7190      1.5524    
  1.4325      1.3552      1.3115      1.2909      1.2851      1.2909      1.4338      1.4325      1.4541      1.5081    
  1.5979      1.7189      1.8588      1.9971      2.1094      2.1727      2.1727      2.1095      1.9971      1.8588    
  1.7190      1.5979      1.5082      1.4541      1.4324      1.4338      1.4454      1.4550      1.4550      1.4454    
  1.6141      1.5524      1.5081      1.4921      1.5081      1.5524      1.6141      1.6774      1.7247      1.7422    
  1.7247      1.6773      1.6140      1.5523      1.5081      1.4922      1.5081      1.5523      1.6140      1.6773    
  1.7247      1.7422      1.7247      1.6774      1.8588      1.7189      1.5979      1.5081      1.4541      1.4325    
  1.4338      1.4454      1.4550      1.4550      1.4454      1.4338      1.4324      1.4541      1.5082      1.5979    
  1.7190      1.8588      1.9971      2.1095      2.1727      2.1727      2.1094      1.9971      2.1670      1.9284    
  1.7189      1.5524      1.4325      1.3552      1.3115      1.2909      1.2851      1.2909      1.3115      1.3552    
  1.4325      1.5524      1.7190      1.9284      2.1669      2.4097      2.6230      2.7703      2.8230      2.7703    
  2.6230      2.4097      2.5261      2.1670      1.8588      1.6141      1.4338      1.3115      1.2376      1.2033    
  1.2033      1.2376      1.3115      1.4339      1.6142      1.8588      2.1670      2.5260      2.9080      3.2691    
  3.5547      3.7134      3.7134      3.5547      3.2691      2.9081      2.9081      2.4097      1.9971      1.6774    
  1.4454      1.2909      1.2033      1.1750      1.2033      1.2909      1.4454      1.6774      1.9972      2.4097    
  2.9080      3.4654      4.0300      4.5263      4.8700      4.9933      4.8700      4.5263      4.0300      3.4655    
  3.2691      2.6230      2.1094      1.7247      1.4550      1.2851      1.2033      1.2033      1.2851      1.4550    
  1.7248      2.1095      2.6229      3.2690      4.0299      4.8532      5.6451      6.2809      6.6375      6.6375    
  6.2808      5.6450      4.8532      4.0300      3.5547      2.7703      2.1727      1.7422      1.4550      1.2909    
  1.2376      1.2909      1.4550      1.7423      2.1727      2.7702      3.5545      4.5261      5.6450      6.8107    
  7.8602      8.5994      8.8668      8.5993      7.8600      6.8105      5.6450      4.5263      3.7134      2.8230    
  2.1727      1.7247      1.4454      1.3115      1.3115      1.4454      1.7248      2.1727      2.8230      3.7132    
  4.8699      6.2808      7.8602      9.4243      10.708      11.438      11.438      10.708      9.4242      7.8600    
  6.2808      4.8700      3.7134      2.7703      2.1095      1.6773      1.4338      1.3552      1.4339      1.6774    
  2.1095      2.7702      3.7132      4.9932      6.6374      8.5994      10.708      12.654      14.048      14.557    
  14.048      12.654      10.708      8.5993      6.6375      4.9933      3.5547      2.6230      1.9971      1.6140    
  1.4324      1.4325      1.6142      1.9972      2.6229      3.5545      4.8699      6.6374      8.8669      11.439    
  14.048      16.228      17.481      17.481      16.228      14.048      11.438      8.8668      6.6375      4.8700    
  3.2691      2.4097      1.8588      1.5523      1.4541      1.5524      1.8588      2.4097      3.2690      4.5261    
  6.2808      8.5994      11.439      14.557      17.481      19.598      20.374      19.598      17.481      14.557    
  11.438      8.5994      6.2809      4.5263      2.9080      2.1669      1.7190      1.5081      1.5082      1.7190    
  2.1670      2.9080      4.0299      5.6450      7.8602      10.708      14.048      17.481      20.374      22.046    
  22.046      20.374      17.481      14.048      10.708      7.8602      5.6451      4.0300      2.5260      1.9284    
  1.5979      1.4922      1.5979      1.9284      2.5260      3.4654      4.8532      6.8107      9.4243      12.654    
  16.228      19.598      22.046      22.945      22.046      19.598      16.228      12.654      9.4243      6.8107    
  4.8532      3.4654      2.1670      1.7190      1.5082      1.5081      1.7190      2.1669      2.9080      4.0300    
  5.6451      7.8602      10.708      14.048      17.481      20.374      22.046      22.046      20.374      17.481    
  14.048      10.708      7.8602      5.6450      4.0299      2.9080      1.8588      1.5524      1.4541      1.5523    
  1.8588      2.4097      3.2691      4.5263      6.2809      8.5994      11.438      14.557      17.481      19.598    
  20.374      19.598      17.481      14.557      11.439      8.5994      6.2808      4.5261      3.2690      2.4097    
  1.6142      1.4325      1.4324      1.6140      1.9971      2.6230      3.5547      4.8700      6.6375      8.8668    
  11.438      14.048      16.228      17.481      17.481      16.228      14.048      11.439      8.8669      6.6374    
  4.8699      3.5545      2.6229      1.9972      1.4339      1.3552      1.4338      1.6773      2.1095      2.7703    
  3.7134      4.9933      6.6375      8.5993      10.708      12.654      14.048      14.557      14.048      12.654    
  10.708      8.5994      6.6374      4.9932      3.7132      2.7702      2.1095      1.6774      1.3115      1.3115    
  1.4454      1.7247      2.1727      2.8230      3.7134      4.8700      6.2808      7.8600      9.4242      10.708    
  11.438      11.438      10.708      9.4243      7.8602      6.2808      4.8699      3.7132      2.8230      2.1727    
  1.7248      1.4454      1.2376      1.2909      1.4550      1.7422      2.1727      2.7703      3.5547      4.5263    
  5.6450      6.8105      7.8600      8.5993      8.8668      8.5994      7.8602      6.8107      5.6450      4.5261    
  3.5545      2.7702      2.1727      1.7423      1.4550      1.2909      1.2033      1.2851      1.4550      1.7247    
  2.1094      2.6230      3.2691      4.0300      4.8532      5.6450      6.2808      6.6375      6.6375      6.2809    
  5.6451      4.8532      4.0299      3.2690      2.6229      2.1095      1.7248      1.4550      1.2851      1.2033    
  1.2033      1.2909      1.4454      1.6774      1.9971      2.4097      2.9081      3.4655      4.0300      4.5263    
  4.8700      4.9933      4.8700      4.5263      4.0300      3.4654      2.9080      2.4097      1.9972      1.6774    
  1.4454      1.2909      1.2033      1.1750      1.5647      1.6230      1.7185      1.8588      2.0473      2.2800    
  2.5424      2.8084      3.0416      3.2027      3.2604      3.2027      3.0416      2.8083      2.5424      2.2800    
  2.0473      1.8588      1.7185      1.6230      1.5647      1.5344      1.5252      1.5344      1.6230      1.6283    
  1.6574      1.7189      1.8160      1.9440      2.0904      2.2346      2.3516      2.4174      2.4174      2.3516    
  2.2346      2.0904      1.9440      1.8160      1.7190      1.6574      1.6283      1.6230      1.6296      1.6365    
  1.6365      1.6296      1.7185      1.6574      1.6136      1.5979      1.6136      1.6573      1.7185      1.7812    
  1.8282      1.8457      1.8282      1.7812      1.7185      1.6574      1.6137      1.5979      1.6136      1.6573    
  1.7184      1.7812      1.8282      1.8457      1.8282      1.7812      1.8588      1.7189      1.5979      1.5081    
  1.4541      1.4325      1.4338      1.4454      1.4550      1.4550      1.4454      1.4338      1.4325      1.4541    
  1.5081      1.5979      1.7189      1.8587      1.9971      2.1095      2.1727      2.1727      2.1095      1.9971    
  2.0473      1.8160      1.6136      1.4541      1.3410      1.2699      1.2312      1.2139      1.2092      1.2139    
  1.2312      1.2698      1.3410      1.4541      1.6136      1.8160      2.0473      2.2832      2.4902      2.6332    
  2.6844      2.6332      2.4902      2.2831      2.2800      1.9440      1.6573      1.4325      1.2699      1.1624    
  1.0993      1.0707      1.0707      1.0993      1.1624      1.2699      1.4324      1.6573      1.9440      2.2800    
  2.6381      2.9762      3.2432      3.3914      3.3913      3.2432      2.9762      2.6381      2.5424      2.0904    