unknown system                          
   1.00000000000000     
    -2.450000    2.450000    1.274000
     2.450000   -2.450000    1.274000
     2.450000    2.450000   -1.274000
   Si
     2
Direct
  0.250000  0.750000  0.500000
  0.000000  0.000000  0.000000
 
   28   28   28
 -5.5783     -4.0451     -.49983E-01  4.8957      9.1015      11.436      11.698      10.500      8.7929      7.1753    
  5.8249      4.8016      4.1014      3.6974      3.5656      3.6973      4.1015      4.8017      5.8250      7.1753    
  8.7930      10.500      11.698      11.436      9.1015      4.8957     -.50003E-01 -4.0451     -4.0451     -4.8379    
 -2.6880      1.5513      6.2898      9.9559      11.658      11.429      10.006      8.3007      6.7513      5.4926    
  4.5631      3.9495      3.6239      3.5656      3.7696      4.2483      5.0272      6.1305      7.5514      9.2098    
  10.879      11.847      11.199      8.4850      4.1172     -.62036     -.50003E-01 -2.6880     -2.7511     -.22208    
  3.8809      8.0149      10.838      11.753      11.014      9.4253      7.7618      6.3047      5.1528      4.3248    
  3.8006      3.5533      3.5656      3.8367      4.3817      5.2264      6.3906      7.8565      9.5266      11.131    
  11.913      11.050      8.2607      4.1172      4.8957      1.5513     -.22208     0.30979      2.9146      6.5156    
  9.7355      11.540      11.637      10.457      8.7974      7.2068      5.8605      4.8239      4.0992      3.6624    
  3.4889      3.5657      3.8951      4.4940      5.3873      6.5891      8.0712      9.7245      11.257      11.931    
  11.050      8.4850      9.1015      6.2898      3.8809      2.9146      3.8214      6.1956      9.0111      11.146    
  11.908      11.278      9.7999      8.1574      6.6656      5.4417      4.5223      3.8972      3.5415      3.4339    
  3.5657      3.9417      4.5791      5.5003      6.7135      8.1822      9.7917      11.257      11.913      11.199    
  11.436      9.9559      8.0149      6.5157      6.1956      7.2277      9.1236      11.000      12.040      11.879    
  10.713      9.1131      7.5391      6.1650      5.0677      4.2609      3.7272      3.4427      3.3908      3.5658    
  3.9741      4.6321      5.5585      6.7558      8.1822      9.7245      11.131      11.847      11.698      11.658    
  10.838      9.7355      9.0112      9.1236      10.059      11.333      12.265      12.349      11.495      10.035    
  8.4478      6.9739      5.7278      4.7536      4.0495      3.5952      3.3699      3.3611      3.5658      3.9907    
  4.6500      5.5585      6.7135      8.0712      9.5266      10.879      10.500      11.429      11.753      11.540    
  11.146      11.000      11.333      12.021      12.652      12.772      12.145      10.884      9.3555      7.8426    
  6.4891      5.3714      4.5101      3.8948      3.5053      3.3254      3.3461      3.5659      3.9907      4.6321    
  5.5003      6.5891      7.8565      9.2098      8.7930      10.006      11.014      11.637      11.908      12.040    
  12.266      12.652      13.036      13.117      12.649      11.609      10.217      8.7378      7.3324      6.1066    
  5.1086      4.3445      3.8005      3.4599      3.3104      3.3461      3.5658      3.9741      4.5791      5.3873    
  6.3906      7.5514      7.1753      8.3007      9.4253      10.457      11.278      11.879      12.349      12.772    
  13.117      13.231      12.932      12.143      10.971      9.6123      8.2284      6.9462      5.8427      4.9478    
  4.2607      3.7689      3.4599      3.3254      3.3611      3.5658      3.9417      4.4940      5.2264      6.1305    
  5.8250      6.7513      7.7618      8.7974      9.7999      10.713      11.495      12.145      12.649      12.932    
  12.875      12.399      11.535      10.400      9.1314      7.8659      6.7055      5.7081      4.8937      4.2607    
  3.8005      3.5053      3.3699      3.3908      3.5657      3.8951      4.3817      5.0272      4.8017      5.4926    
  6.3047      7.2068      8.1574      9.1131      10.035      10.884      11.609      12.143      12.399      12.300    
  11.825      11.017      9.9742      8.8224      7.6775      6.6238      5.7081      4.9478      4.3445      3.8948    
  3.5952      3.4427      3.4339      3.5657      3.8367      4.2483      4.1015      4.5631      5.1528      5.8605    
  6.6656      7.5391      8.4478      9.3555      10.217      10.971      11.535      11.825      11.777      11.378    
  10.671      9.7474      8.7159      7.6775      6.7055      5.8427      5.1086      4.5101      4.0495      3.7272    
  3.5415      3.4889      3.5656      3.7696      3.6973      3.9495      4.3248      4.8239      5.4417      6.1650    
  6.9739      7.8426      8.7378      9.6123      10.400      11.017      11.378      11.423      11.135      10.550    
  9.7474      8.8224      7.8659      6.9462      6.1066      5.3714      4.7536      4.2609      3.8972      3.6624    
  3.5533      3.5656      3.5656      3.6239      3.8006      4.0992      4.5222      5.0677      5.7278      6.4891    
  7.3324      8.2284      9.1314      9.9742      10.671      11.135      11.298      11.135      10.671      9.9742    
  9.1314      8.2284      7.3324      6.4891      5.7278      5.0677      4.5223      4.0992      3.8006      3.6239    
  3.6974      3.5656      3.5532      3.6624      3.8972      4.2609      4.7535      5.3714      6.1066      6.9462    
  7.8659      8.8224      9.7474      10.550      11.135      11.423      11.378      11.017      10.400      9.6123    
  8.7378      7.8426      6.9739      6.1650      5.4417      4.8239      4.3248      3.9495      4.1014      3.7696    
  3.5656      3.4889      3.5414      3.7271      4.0495      4.5101      5.1086      5.8427      6.7055      7.6775    
  8.7159      9.7474      10.671      11.378      11.777      11.825      11.535      10.971      10.217      9.3555    
  8.4478      7.5391      6.6656      5.8605      5.1528      4.5631      4.8016      4.2482      3.8367      3.5657    
  3.4339      3.4427      3.5951      3.8947      4.3444      4.9478      5.7081      6.6238      7.6775      8.8224    
  9.9742      11.017      11.825      12.300      12.399      12.143      11.609      10.884      10.035      9.1131    
  8.1574      7.2068      6.3047      5.4926      5.8249      5.0271      4.3816      3.8951      3.5657      3.3907    
  3.3699      3.5053      3.8004      4.2607      4.8936      5.7081      6.7055      7.8659      9.1314      10.400    
  11.535      12.399      12.875      12.932      12.649      12.145      11.495      10.713      9.7999      8.7974    
  7.7618      6.7513      7.1753      6.1305      5.2263      4.4940      3.9416      3.5657      3.3611      3.3254    
  3.4598      3.7688      4.2607      4.9478      5.8427      6.9462      8.2284      9.6123      10.971      12.143    
  12.932      13.231      13.117      12.772      12.349      11.879      11.278      10.457      9.4253      8.3007    
  8.7929      7.5514      6.3906      5.3872      4.5790      3.9740      3.5658      3.3460      3.3104      3.4598    
  3.8004      4.3444      5.1086      6.1066      7.3324      8.7378      10.217      11.609      12.649      13.117    
  13.036      12.652      12.265      12.040      11.908      11.637      11.014      10.006      10.500      9.2098    
  7.8564      6.5891      5.5002      4.6320      3.9906      3.5658      3.3460      3.3254      3.5053      3.8947    
  4.5101      5.3714      6.4891      7.8426      9.3555      10.884      12.145      12.772      12.652      12.021    
  11.333      11.000      11.146      11.540      11.753      11.429      11.698      10.879      9.5266      8.0712    
  6.7134      5.5585      4.6500      3.9906      3.5658      3.3611      3.3699      3.5951      4.0495      4.7535    
  5.7278      6.9739      8.4478      10.035      11.495      12.349      12.266      11.333      10.059      9.1236    
  9.0111      9.7355      10.838      11.658      11.436      11.847      11.131      9.7244      8.1821      6.7558    
  5.5585      4.6320      3.9740      3.5657      3.3907      3.4427      3.7271      4.2609      5.0677      6.1650    
  7.5391      9.1131      10.713      11.879      12.040      11.000      9.1236      7.2277      6.1956      6.5156    
  8.0149      9.9559      9.1015      11.199      11.913      11.257      9.7917      8.1821      6.7134      5.5002    
  4.5790      3.9416      3.5657      3.4339      3.5414      3.8972      4.5222      5.4417      6.6656      8.1574    
  9.7999      11.278      11.908      11.146      9.0112      6.1956      3.8214      2.9146      3.8809      6.2898    
  4.8957      8.4851      11.050      11.931      11.257      9.7244      8.0712      6.5891      5.3872      4.4940    
  3.8951      3.5657      3.4889      3.6624      4.0992      4.8239      5.8605      7.2068      8.7974      10.457    
  11.637      11.540      9.7355      6.5157      2.9146     0.30979     -.22208      1.5513     -.49983E-01  4.1172    
  8.2607      11.050      11.913      11.131      9.5266      7.8564      6.3906      5.2263      4.3816      3.8367    
  3.5656      3.5532      3.8006      4.3248      5.1528      6.3047      7.7618      9.4253      11.014      11.753    
  10.838      8.0149      3.8809     -.22208     -2.7511     -2.6880     -4.0451     -.62034      4.1172      8.4851    
  11.199      11.847      10.879      9.2098      7.5514      6.1305      5.0271      4.2482      3.7696      3.5656    
  3.6239      3.9495      4.5631      5.4926      6.7513      8.3007      10.006      11.429      11.658      9.9559    
  6.2898      1.5513     -2.6880     -4.8379     -4.0450     -2.9337     0.55919      5.0836      9.0381      11.288    
  11.565      10.402      8.7055      7.0825      5.7171      4.6726      3.9469      3.5131      3.3459      3.4343    
  3.7850      4.4204      5.3685      6.6406      8.1931      9.8843      11.243      11.371      9.6040      5.9992    
  1.5042     -2.3352     -2.9337     -4.0450     -2.3352      1.5042      5.9992      9.6040      11.371      11.243    
  9.8843      8.1931      6.6405      5.3685      4.4203      3.7850      3.4343      3.3460      3.5132      3.9470    
  4.6727      5.7172      7.0826      8.7055      10.402      11.565      11.288      9.0381      5.0836     0.55919    
 0.65798     -2.2300     -2.6880     -.54969      3.3023      7.3836      10.317      11.409      10.818      9.2964    
  7.6467      6.1866      5.0228      4.1795      3.6383      3.3716      3.3611      3.6044      4.1162      4.9235    
  6.0503      7.4882      9.1559      10.827      11.809      11.255      8.7850      4.8426      5.3405      1.7883    
 -.35234     -.22206      2.0922      5.6065      8.9418      10.979      11.312      10.284      8.6742      7.0946    
  5.7442      4.6975      3.9617      3.5136      3.3280      3.3908      3.7038      4.2844      5.1596      6.3490    
  7.8337      9.5178      11.143      11.999      11.338      8.9319      9.4617      6.4824      3.7377      2.3583    
  2.9146      5.1222      7.9973      10.365      11.417      11.023      9.6629      8.0496      6.5634      5.3344    
  4.4076      3.7766      3.4167      3.3056      3.4340      3.8069      4.4431      5.3679      6.5954      8.0974    
  9.7682      11.340      12.143      11.551      11.848      10.257      8.0382      6.1443      5.4283      6.1956    
  8.0427      10.080      11.403      11.523      10.545      9.0089      7.4513      6.0774      4.9751      4.1651    
  3.6320      3.3514      3.3057      3.4890      3.9089      4.5839      5.5363      6.7739      8.2613      9.8892    
  11.406      12.227      12.214      12.136      11.130      9.7000      8.5837      8.3599      9.1236      10.435    
  11.572      11.922      11.288      9.9366      8.3751      6.9064      5.6570      4.6803      3.9789      3.5329    
  3.3204      3.3280      3.5534      4.0048      4.6990      5.6543      6.8724      8.3131      9.8699      11.329    
  11.097      12.062      12.307      11.877      11.158      10.666      10.739      11.333      12.043      12.352    
  11.926      10.792      9.2998      7.7951      6.4394      5.3186      4.4599      3.8548      3.4822      3.3242    
  3.3717      3.6241      4.0894      4.7816      5.7140      6.8832      8.2475      9.7085      9.4130      10.712    
  11.738      12.267      12.326      12.171      12.117      12.316      12.652      12.808      12.471      11.537    
  10.182      8.7087      7.3005      6.0706      5.0741      4.3205      3.7957      3.4808      3.3623      3.4344    
  3.6975      4.1580      4.8263      5.7110      6.8047      8.0673      7.7840      9.0019      10.195      11.235    
  11.967      12.384      12.621      12.830      13.039      13.117      12.854      12.116      10.960      9.5980    
  8.2074      6.9192      5.8162      4.9318      4.2655      3.8025      3.5279      3.4327      3.5131      3.7697    
  4.2063      4.8299      5.6446      6.6412      6.4036      7.4165      8.5017      9.5841      10.586      11.424    
  12.059      12.528      12.868      13.040      12.932      12.436      11.549      10.394      9.1101      7.8351    
  6.6742      5.6879      4.8964      4.2959      3.8743      3.6217      3.5325      3.6043      3.8367      4.2313    
  4.7916      5.5187      5.3417      6.1079      6.9894      7.9451      8.9200      9.8582      10.714      11.448    
  12.031      12.430      12.578      12.399      11.861      11.009      9.9379      8.7702      7.6230      6.5817    
  5.6924      4.9696      4.4108      4.0090      3.7589      3.6577      3.7036      3.8950      4.2313      4.7136    
  4.6009      5.1251      5.7736      6.5305      7.3666      8.2431      9.1184      9.9541      10.712      11.343    
  11.783      11.962      11.825      11.358      10.605      9.6545      8.6170      7.5918      6.6504      5.8317    
  5.1501      4.6075      4.2028      3.9351      3.8037      3.8067      3.9415      4.2063      4.1579      4.4607    
  4.8829      5.4218      6.0673      6.7997      7.5920      8.4133      9.2301      10.001      10.671      11.169    
  11.423      11.378      11.024      10.400      9.5842      8.6716      7.7494      6.8808      6.1029      5.4337    
  4.8812      4.4504      4.1446      3.9646      3.9087      3.9739      3.9905      4.0893      4.3017      4.6297    
  5.0727      5.6249      6.2737      7.0009      7.7839      8.5944      9.3916      10.117      10.698      11.056    
  11.135      10.917      10.431      9.7424      8.9359      8.0901      7.2644      6.4975      5.8123      5.2242    
  4.7440      4.3794      4.1333      4.0046      4.0893      3.9905      4.0046      4.1334      4.3795      4.7441    
  5.2242      5.8124      6.4975      7.2644      8.0900      8.9359      9.7424      10.431      10.917      11.135    
  11.056      10.698      10.117      9.3916      8.5944      7.7839      7.0008      6.2737      5.6249      5.0726    
  4.6296      4.3017      4.4607      4.1579      3.9739      3.9088      3.9647      4.1446      4.4505      4.8812    
  5.4337      6.1030      6.8808      7.7494      8.6716      9.5842      10.400      11.024      11.378      11.423    
  11.169      10.671      10.001      9.2301      8.4133      7.5920      6.7997      6.0673      5.4218      4.8829    
  5.1251      4.6009      4.2063      3.9416      3.8068      3.8038      3.9352      4.2028      4.6075      5.1501    
  5.8317      6.6504      7.5918      8.6170      9.6545      10.605      11.358      11.825      11.962      11.783    
  11.343      10.712      9.9541      9.1184      8.2431      7.3667      6.5305      5.7736      6.1079      5.3417    
  4.7137      4.2314      3.8951      3.7037      3.6578      3.7589      4.0090      4.4108      4.9696      5.6924    
  6.5817      7.6230      8.7702      9.9379      11.009      11.861      12.399      12.578      12.430      12.031    
  11.448      10.714      9.8582      8.9200      7.9451      6.9895      7.4165      6.4037      5.5188      4.7917    
  4.2314      3.8367      3.6043      3.5325      3.6217      3.8743      4.2959      4.8964      5.6879      6.6742    
  7.8351      9.1101      10.393      11.549      12.436      12.932      13.040      12.868      12.528      12.059    
  11.424      10.586      9.5841      8.5018      9.0019      7.7841      6.6413      5.6446      4.8299      4.2064    
  3.7697      3.5131      3.4327      3.5279      3.8024      4.2655      4.9318      5.8162      6.9192      8.2074    
  9.5980      10.960      12.116      12.853      13.117      13.039      12.830      12.621      12.384      11.967    
  11.235      10.195      10.712      9.4131      8.0674      6.8047      5.7110      4.8264      4.1580      3.6975    
  3.4344      3.3623      3.4807      3.7956      4.3205      5.0741      6.0706      7.3005      8.7087      10.182    
  11.537      12.471      12.807      12.652      12.316      12.117      12.171      12.326      12.267      11.738    
  12.062      11.097      9.7085      8.2475      6.8833      5.7140      4.7816      4.0893      3.6241      3.3716    
  3.3242      3.4821      3.8547      4.4599      5.3185      6.4393      7.7951      9.2998      10.792      11.926    
  12.352      12.043      11.333      10.739      10.665      11.158      11.877      12.307      12.136      12.214    
  11.329      9.8699      8.3131      6.8724      5.6543      4.6990      4.0047      3.5534      3.3280      3.3203    
  3.5328      3.9788      4.6802      5.6570      6.9064      8.3751      9.9366      11.288      11.922      11.572    
  10.435      9.1236      8.3599      8.5837      9.7000      11.130      10.257      11.848      12.227      11.406    
  9.8892      8.2612      6.7739      5.5362      4.5838      3.9088      3.4889      3.3056      3.3513      3.6319    
  4.1650      4.9751      6.0774      7.4513      9.0089      10.545      11.523      11.403      10.080      8.0427    
  6.1956      5.4283      6.1443      8.0382      6.4824      9.4617      11.551      12.144      11.340      9.7682    
  8.0973      6.5953      5.3679      4.4430      3.8068      3.4339      3.3055      3.4165      3.7765      4.4075    
  5.3344      6.5634      8.0496      9.6629      11.023      11.417      10.365      7.9973      5.1223      2.9146    
  2.3583      3.7377      1.7884      5.3405      8.9319      11.338      11.999      11.143      9.5178      7.8337    
  6.3489      5.1595      4.2843      3.7037      3.3907      3.3279      3.5135      3.9616      4.6975      5.7442    
  7.0946      8.6742      10.284      11.311      10.979      8.9417      5.6066      2.0922     -.22200     -.35228    
 -2.2299     0.65801      4.8426      8.7850      11.255      11.809      10.827      9.1559      7.4882      6.0502    
  4.9234      4.1161      3.6043      3.3610      3.3716      3.6383      4.1795      5.0229      6.1866      7.6468    
  9.2964      10.818      11.409      10.317      7.3836      3.3024     -.54964     -2.6879     -.49809E-01 0.65811    
  3.3537      6.9457      10.075      11.750      11.724      10.462      8.7665      7.1554      5.7937      4.7412    
  3.9962      3.5326      3.3254      3.3624      3.6471      4.1981      5.0420      6.1953      7.6327      9.2499    
  10.753      11.411      10.552      8.0723      4.6393      1.5043     0.55930     -.62017     0.55930      3.6017    
  7.2748      10.223      11.582      11.274      9.8822      8.2111      6.6762      5.4112      4.4584      3.8080    
  3.4328      3.3104      3.4328      3.8081      4.4585      5.4112      6.6762      8.2111      9.8822      11.274    
  11.582      10.223      7.2748      3.6017      3.3537     0.65809     -.49831E-01  1.5043      4.6393      8.0723    
  10.553      11.411      10.754      9.2499      7.6327      6.1953      5.0420      4.1981      3.6471      3.3624    
  3.3254      3.5326      3.9962      4.7413      5.7937      7.1554      8.7665      10.462      11.724      11.750    
  10.075      6.9457      7.1882      3.9619      1.7884      1.5514      3.3024      6.2403      9.1319      10.919    
  11.171      10.162      8.5998      7.0599      5.7357      4.7031      3.9715      3.5201      3.3243      3.3699    
  3.6579      4.2037      5.0336      6.1706      7.6073      9.2683      10.960      12.108      11.967      10.202    
  10.616      7.9735      5.3163      3.7377      3.8810      5.6066      8.0765      10.200      11.173      10.809    
  9.5165      7.9614      6.5183      5.3179      4.4088      3.7880      3.4322      3.3204      3.4427      3.8038    
  4.4214      5.3212      6.5216      8.0055      9.6854      11.350      12.423      12.250      12.568      11.245    
  9.1469      7.1565      6.1444      6.5157      7.9973      9.7986      11.042      11.202      10.313      8.8582    
  7.3605      6.0302      4.9585      4.1708      3.6548      3.3873      3.3514      3.5414      3.9647      4.6394    
  5.5889      6.8258      8.3242      9.9884      11.607      12.650      12.753      12.850      11.945      10.467    
  9.1357      8.5838      9.0112      10.080      11.119      11.501      10.967      9.7183      8.2315      6.8205    
  5.6141      4.6707      3.9975      3.5766      3.3873      3.4166      3.6624      4.1334      4.8465      5.8212    
  7.0634      8.5402      10.153      11.707      11.630      12.692      13.003      12.545      11.667      10.904    
  10.666      11.000      11.572      11.874      11.531      10.507      9.1006      7.6639      6.3620      5.2846    
  4.4637      3.8941      3.5561      3.4321      3.5135      3.8006      4.3017      5.0312      6.0033      7.2176    
  8.6359      10.162      10.012      11.369      12.434      12.946      12.892      12.521      12.187      12.117    
  12.265      12.352      12.049      11.202      9.9308      8.5277      7.1807      6.0027      5.0525      4.3435    
  3.8632      3.5931      3.5199      3.6382      3.9495      4.4607      5.1822      6.1227      7.2759      8.6020    
  8.4389      9.7113      10.938      11.972      12.631      12.889      12.894      12.843      12.830      12.772    
  12.471      11.766      10.668      9.3659      8.0368      6.8059      5.7567      4.9251      4.3127      3.9048    
  3.6859      3.6469      3.7849      4.1015      4.6009      5.2893      6.1701      7.2328      7.0905      8.1580    
  9.2803      10.369      11.332      12.066      12.525      12.770      12.881      12.868      12.649      12.116    
  11.237      10.113      8.8804      7.6623      6.5602      5.6346      4.9065      4.3716      4.0168      3.8307    
  3.8078      3.9468      4.2482      4.7136      5.3450      6.1414      6.0383      6.8594      7.7800      8.7507    
  9.7058      10.578      11.314      11.872      12.248      12.445      12.430      12.143      11.549      10.688    
  9.6431      8.5224      7.4343      6.4598      5.6434      4.9978      4.5184      4.1954      4.0222      3.9960    
  4.1160      4.3816      4.7916      5.3450      5.2894      5.8683      6.5564      7.3323      8.1599      8.9919    
  9.7798      10.483      11.069      11.508      11.761      11.783      11.535      11.009      10.244      9.3184    
  8.3317      7.3754      6.5152      5.7858      5.1978      4.7492      4.4353      4.2536      4.2035      4.2843    
  4.4940      4.8299      4.8264      5.1823      5.6436      6.2030      6.8457      7.5466      8.2732      8.9906    
  9.6655      10.265      10.748      11.067      11.169      11.017      10.605      9.9703      9.1855      8.3357    
  7.4987      6.7303      6.0608      5.5025      5.0582      4.7291      4.5165      4.4213      4.4430      4.5790    
  4.6320      4.7817      5.0314      5.3796      5.8225      6.3504      6.9470      7.5906      8.2568      8.9183    
  9.5421      10.084      10.488      10.698      10.671      10.400      9.9131      9.2705      8.5456      7.8060    
  7.1015      6.4622      5.9043      5.4371      5.0674      4.8005      4.6394      4.5838      4.6990      4.6500    
  4.6990      4.8466      5.0932      5.4373      5.8735      6.3916      6.9783      7.6171      8.2868      8.9557    
  9.5768      10.090      10.431      10.550      10.431      10.090      9.5768      8.9557      8.2868      7.6171    
  6.9783      6.3916      5.8734      5.4373      5.0931      4.8466      5.0313      4.7817      4.6320      4.5839    
  4.6394      4.8006      5.0674      5.4371      5.9043      6.4622      7.1015      7.8060      8.5456      9.2705    
  9.9132      10.400      10.671      10.698      10.488      10.084      9.5421      8.9183      8.2568      7.5906    
  6.9470      6.3504      5.8224      5.3796      5.6436      5.1824      4.8264      4.5791      4.4430      4.4214    
  4.5166      4.7292      5.0583      5.5025      6.0608      6.7303      7.4987      8.3357      9.1855      9.9703    
  10.605      11.017      11.169      11.067      10.748      10.265      9.6656      8.9906      8.2732      7.5466    
  6.8457      6.2030      6.5565      5.8683      5.2895      4.8300      4.4940      4.2843      4.2036      4.2537    
  4.4353      4.7492      5.1979      5.7859      6.5152      7.3754      8.3317      9.3184      10.244      11.009    
  11.535      11.783      11.761      11.508      11.069      10.483      9.7798      8.9919      8.1599      7.3324    
  7.7800      6.8595      6.0384      5.3451      4.7917      4.3816      4.1161      3.9961      4.0222      4.1954    
  4.5184      4.9978      5.6434      6.4598      7.4343      8.5224      9.6431      10.688      11.549      12.143    
  12.430      12.445      12.248      11.872      11.314      10.578      9.7058      8.7507      9.2803      8.1581    
  7.0906      6.1415      5.3451      4.7137      4.2483      3.9469      3.8079      3.8307      4.0168      4.3716    
  4.9065      5.6346      6.5602      7.6623      8.8805      10.113      11.237      12.116      12.649      12.868    
  12.881      12.770      12.525      12.065      11.332      10.369      10.938      9.7113      8.4390      7.2328    
  6.1702      5.2894      4.6009      4.1015      3.7850      3.6469      3.6859      3.9048      4.3127      4.9251    
  5.7567      6.8059      8.0368      9.3660      10.668      11.766      12.471      12.772      12.830      12.843    
  12.894      12.889      12.631      11.972      12.434      11.369      10.012      8.6020      7.2759      6.1227    
  5.1822      4.4607      3.9495      3.6382      3.5199      3.5931      3.8632      4.3435      5.0525      6.0026    
  7.1807      8.5277      9.9308      11.202      12.049      12.352      12.265      12.117      12.187      12.521    
  12.892      12.946      13.003      12.692      11.630      10.162      8.6360      7.2176      6.0034      5.0312    
  4.3017      3.8006      3.5135      3.4321      3.5560      3.8941      4.4637      5.2846      6.3620      7.6639    
  9.1006      10.507      11.531      11.874      11.572      11.000      10.665      10.904      11.667      12.545    
  11.945      12.850      12.753      11.707      10.153      8.5402      7.0634      5.8212      4.8465      4.1334    
  3.6624      3.4165      3.3873      3.5766      3.9975      4.6707      5.6141      6.8205      8.2315      9.7182    
  10.967      11.501      11.119      10.080      9.0111      8.5837      9.1357      10.467      9.1469      11.245    
  12.568      12.650      11.607      9.9884      8.3242      6.8257      5.5888      4.6393      3.9647      3.5414    
  3.3513      3.3873      3.6547      4.1708      4.9585      6.0302      7.3605      8.8582      10.313      11.202    
  11.042      9.7985      7.9973      6.5157      6.1444      7.1564      5.3163      7.9735      10.616      12.250    
  12.423      11.350      9.6854      8.0055      6.5215      5.3211      4.4214      3.8038      3.4427      3.3203    
  3.4322      3.7879      4.4088      5.3179      6.5183      7.9614      9.5165      10.809      11.173      10.200    
  8.0765      5.6066      3.8810      3.7378      1.7885      3.9619      7.1882      10.202      11.967      12.108    
  10.960      9.2683      7.6073      6.1706      5.0335      4.2036      3.6578      3.3699      3.3242      3.5200    
  3.9715      4.7031      5.7357      7.0599      8.5998      10.162      11.171      10.919      9.1319      6.2403    
  3.3024      1.5515      4.8958      5.3406      7.1882      9.6412      11.669      12.519      12.036      10.631    
  8.9610      7.3905      6.0569      5.0120      4.2537      3.7589      3.5053      3.4807      3.6860      4.1344    
  4.8479      5.8454      7.1172      8.5935      10.112      11.216      11.301      10.132      8.0723      5.9993    
  5.0837      4.1174      4.8427      6.9457      9.4989      11.445      12.109      11.453      9.9838      8.3529    
  6.8612      5.6251      4.6819      4.0223      3.6217      3.4598      3.5280      3.8309      4.3856      5.2164    
  6.3381      7.7279      9.2922      10.805      11.682      11.347      9.6972      7.2748      6.9457      4.8427    
  4.1174      5.0837      7.2748      9.6972      11.347      11.682      10.805      9.2922      7.7279      6.3381    
  5.2164      4.3856      3.8309      3.5280      3.4598      3.6217      4.0223      4.6820      5.6251      6.8612    
  8.3529      9.9838      11.453      12.109      11.445      9.4989      9.6412      7.1882      5.3406      4.8959    
  5.9993      8.0723      10.132      11.301      11.216      10.112      8.5935      7.1172      5.8454      4.8479    