unknown system                          
   1.00000000000000     
    -2.450000    2.450000    1.274000
     2.450000   -2.450000    1.274000
     2.450000    2.450000   -1.274000
   Si
     2
Direct
  0.250000  0.750000  0.500000
  0.000000  0.000000  0.000000
 
   28   28   28
 -.55783245847E+01 -.40450825993E+01 -.49982732101E-01 0.48956909666E+01 0.91015309630E+01
 0.11435994106E+02 0.11698440662E+02 0.10500123757E+02 0.87929484510E+01 0.71752700776E+01
 0.58249277136E+01 0.48016466819E+01 0.41014403743E+01 0.36973521232E+01 0.35656075736E+01
 0.36973481345E+01 0.41014545021E+01 0.48016793321E+01 0.58249529151E+01 0.71752780427E+01
 0.87929537663E+01 0.10500131426E+02 0.11698438405E+02 0.11435981011E+02 0.91015199783E+01
 0.48956810123E+01 -.50003405329E-01 -.40451049252E+01 -.40451049252E+01 -.48378579169E+01
 -.26879840869E+01 0.15513101831E+01 0.62897979527E+01 0.99559171556E+01 0.11657925049E+02
 0.11429093508E+02 0.10006125816E+02 0.83006582362E+01 0.67512812692E+01 0.54925786545E+01
 0.45630547243E+01 0.39494843337E+01 0.36239491218E+01 0.35656175668E+01 0.37695747069E+01
 0.42482610073E+01 0.50271835926E+01 0.61304927526E+01 0.75514071694E+01 0.92098468302E+01
 0.10878998454E+02 0.11846696609E+02 0.11199068304E+02 0.84850438452E+01 0.41171779319E+01
 -.62036082402E+00 -.50003405329E-01 -.26879976070E+01 -.27510795086E+01 -.22208279513E+00
 0.38808584143E+01 0.80149038992E+01 0.10838480409E+02 0.11753134814E+02 0.11013524071E+02
 0.94253093380E+01 0.77617599777E+01 0.63046555765E+01 0.51527545120E+01 0.43247592428E+01
 0.38006127459E+01 0.35532647476E+01 0.35656406948E+01 0.38366950947E+01 0.43816510658E+01
 0.52263659341E+01 0.63906238917E+01 0.78564570548E+01 0.95266176591E+01 0.11131435617E+02
 0.11912840659E+02 0.11050031500E+02 0.82606890534E+01 0.41171779319E+01 0.48956810123E+01
 0.15513016889E+01 -.22208210601E+00 0.30979186899E+00 0.29145808590E+01 0.65156368069E+01
 0.97355167750E+01 0.11540284729E+02 0.11636736563E+02 0.10456511405E+02 0.87973859853E+01
 0.72067991693E+01 0.58604786191E+01 0.48239126659E+01 0.40992447693E+01 0.36624402686E+01
 0.34889060853E+01 0.35656798713E+01 0.38950893591E+01 0.44940486930E+01 0.53872957944E+01
 0.65891216224E+01 0.80712424143E+01 0.97244750716E+01 0.11256621895E+02 0.11930511119E+02
 0.11050031500E+02 0.84850438452E+01 0.91015199783E+01 0.62897926877E+01 0.38808646692E+01
 0.29145959463E+01 0.38214223236E+01 0.61956235807E+01 0.90111362255E+01 0.11146097935E+02
 0.11907510968E+02 0.11278367022E+02 0.97999111955E+01 0.81573612554E+01 0.66655856290E+01
 0.54416985914E+01 0.45222610192E+01 0.38972288727E+01 0.35414527302E+01 0.34339468908E+01
 0.35657364031E+01 0.39416766990E+01 0.45791005471E+01 0.55002713543E+01 0.67134701058E+01
 0.81821535612E+01 0.97917443781E+01 0.11256621895E+02 0.11912840659E+02 0.11199068304E+02
 0.11435981011E+02 0.99559081769E+01 0.80149029480E+01 0.65156553524E+01 0.61956484764E+01
 0.72276622521E+01 0.91235972171E+01 0.11000057242E+02 0.12040004498E+02 0.11878638732E+02
 0.10713459604E+02 0.91130706473E+01 0.75390631002E+01 0.61650462948E+01 0.50676919747E+01
 0.42609006545E+01 0.37271753039E+01 0.34427358726E+01 0.33907902741E+01 0.35657989786E+01
 0.39740722918E+01 0.46320681824E+01 0.55585007044E+01 0.67558109763E+01 0.81821535612E+01
 0.97244750716E+01 0.11131435617E+02 0.11846696609E+02 0.11698438405E+02 0.11657922740E+02
 0.10838473526E+02 0.97355191134E+01 0.90111608989E+01 0.91236242587E+01 0.10058618570E+02
 0.11332699172E+02 0.12265486809E+02 0.12349002377E+02 0.11495082956E+02 0.10035192119E+02
 0.84477926010E+01 0.69739209516E+01 0.57277696068E+01 0.47535585050E+01 0.40495454472E+01
 0.35952009139E+01 0.33699337027E+01 0.33611392978E+01 0.35658471079E+01 0.39906698097E+01
 0.46500486433E+01 0.55585007044E+01 0.67134701058E+01 0.80712424143E+01 0.95266176591E+01
 0.10878998454E+02 0.10500131426E+02 0.11429105881E+02 0.11753141976E+02 0.11540281120E+02
 0.11146102373E+02 0.11000080343E+02 0.11332720344E+02 0.12020502142E+02 0.12651998523E+02
 0.12771790889E+02 0.12145262621E+02 0.10884151666E+02 0.93555264144E+01 0.78426036910E+01
 0.64891351395E+01 0.53713699400E+01 0.45101245023E+01 0.38947565662E+01 0.35053178811E+01
 0.33253978725E+01 0.33460597842E+01 0.35658653089E+01 0.39906698097E+01 0.46320681824E+01
 0.55002713543E+01 0.65891216224E+01 0.78564570548E+01 0.92098468302E+01 0.87929537663E+01
 0.10006137200E+02 0.11013546326E+02 0.11636750578E+02 0.11907511820E+02 0.12040009644E+02
 0.12265501808E+02 0.12652008428E+02 0.13036100858E+02 0.13116893784E+02 0.12649425625E+02
 0.11608815379E+02 0.10217239991E+02 0.87377593012E+01 0.73323924977E+01 0.61066295798E+01
 0.51085765083E+01 0.43444719084E+01 0.38005186022E+01 0.34598532590E+01 0.33104161411E+01
 0.33460597842E+01 0.35658471079E+01 0.39740722918E+01 0.45791005471E+01 0.53872957944E+01
 0.63906238917E+01 0.75514071694E+01 0.71752780427E+01 0.83006561238E+01 0.94253220808E+01
 0.10456536617E+02 0.11278384213E+02 0.11878644428E+02 0.12349007217E+02 0.12771794828E+02
 0.13116891414E+02 0.13230909034E+02 0.12931680633E+02 0.12142662103E+02 0.10970636297E+02
 0.96123213466E+01 0.82283795538E+01 0.69461587695E+01 0.58427010489E+01 0.49477769401E+01
 0.42607163038E+01 0.37688966154E+01 0.34598532590E+01 0.33253978725E+01 0.33611392978E+01
 0.35657989786E+01 0.39416766990E+01 0.44940486930E+01 0.52263659341E+01 0.61304927526E+01
 0.58249529151E+01 0.67512809823E+01 0.77617547806E+01 0.87973964838E+01 0.97999322687E+01
 0.10713476455E+02 0.11495093003E+02 0.12145266896E+02 0.12649419691E+02 0.12931669054E+02
 0.12874872880E+02 0.12398549004E+02 0.11534882365E+02 0.10399742057E+02 0.91314033492E+01
 0.78658571021E+01 0.67055197846E+01 0.57080790101E+01 0.48936734165E+01 0.42607163038E+01
 0.38005186022E+01 0.35053178811E+01 0.33699337027E+01 0.33907902741E+01 0.35657364031E+01
 0.38950893591E+01 0.43816510658E+01 0.50271835926E+01 0.48016793321E+01 0.54925949726E+01
 0.63046523294E+01 0.72067935483E+01 0.81573665575E+01 0.91130834755E+01 0.10035206275E+02
 0.10884164316E+02 0.11608818928E+02 0.12142650280E+02 0.12398533416E+02 0.12299695876E+02
 0.11824704936E+02 0.11016588681E+02 0.99741946252E+01 0.88224209801E+01 0.76775118045E+01
 0.66238053803E+01 0.57080790101E+01 0.49477769401E+01 0.43444719084E+01 0.38947565662E+01
 0.35952009139E+01 0.34427358726E+01 0.34339468908E+01 0.35656798713E+01 0.38366950947E+01
 0.42482610073E+01 0.41014545021E+01 0.45630704002E+01 0.51527607979E+01 0.58604745640E+01
 0.66655805237E+01 0.75390626214E+01 0.84477968292E+01 0.93555361893E+01 0.10217251984E+02
 0.10970638657E+02 0.11534869464E+02 0.11824690304E+02 0.11777261924E+02 0.11378171419E+02
 0.10671412024E+02 0.97474176870E+01 0.87159320803E+01 0.76775118045E+01 0.67055197846E+01
 0.58427010489E+01 0.51085765083E+01 0.45101245023E+01 0.40495454472E+01 0.37271753039E+01
 0.35414527302E+01 0.34889060853E+01 0.35656406948E+01 0.37695747069E+01 0.36973481345E+01
 0.39494781886E+01 0.43247545601E+01 0.48239077693E+01 0.54416931119E+01 0.61650408679E+01
 0.69739157659E+01 0.78426009683E+01 0.87377633541E+01 0.96123293461E+01 0.10399743191E+02
 0.11016578454E+02 0.11378160491E+02 0.11423094804E+02 0.11135094849E+02 0.10550491375E+02
 0.97474176870E+01 0.88224209801E+01 0.78658571021E+01 0.69461587695E+01 0.61066295798E+01
 0.53713699400E+01 0.47535585050E+01 0.42609006545E+01 0.38972288727E+01 0.36624402686E+01
 0.35532647476E+01 0.35656175668E+01 0.35656075736E+01 0.36239320736E+01 0.38005871223E+01
 0.40992206634E+01 0.45222439446E+01 0.50676809430E+01 0.57277610860E+01 0.64891266563E+01
 0.73323855411E+01 0.82283778868E+01 0.91314063128E+01 0.99741952399E+01 0.10671405606E+02
 0.11135087001E+02 0.11298062069E+02 0.11135094849E+02 0.10671412024E+02 0.99741946252E+01
 0.91314033492E+01 0.82283795538E+01 0.73323924977E+01 0.64891351395E+01 0.57277696068E+01
 0.50676919747E+01 0.45222610192E+01 0.40992447693E+01 0.38006127459E+01 0.36239491218E+01
 0.36973521232E+01 0.35656088108E+01 0.35532370720E+01 0.36624004014E+01 0.38971895006E+01
 0.42608690009E+01 0.47535358185E+01 0.53713551798E+01 0.61066200178E+01 0.69461509530E+01
 0.78658517019E+01 0.88224203568E+01 0.97474184428E+01 0.10550486722E+02 0.11135087001E+02
 0.11423094804E+02 0.11378171419E+02 0.11016588681E+02 0.10399742057E+02 0.96123213466E+01
 0.87377593012E+01 0.78426036910E+01 0.69739209516E+01 0.61650462948E+01 0.54416985914E+01
 0.48239126659E+01 0.43247592428E+01 0.39494843337E+01 0.41014403743E+01 0.37695645865E+01
 0.35656229031E+01 0.34888717062E+01 0.35414062359E+01 0.37271252213E+01 0.40494977796E+01
 0.45100864820E+01 0.51085552311E+01 0.58426929607E+01 0.67055135696E+01 0.76775049964E+01
 0.87159302565E+01 0.97474184428E+01 0.10671405606E+02 0.11378160491E+02 0.11777261924E+02
 0.11824704936E+02 0.11534882365E+02 0.10970636297E+02 0.10217239991E+02 0.93555264144E+01
 0.84477926010E+01 0.75390631002E+01 0.66655856290E+01 0.58604786191E+01 0.51527545120E+01
 0.45630547243E+01 0.48016466819E+01 0.42482300912E+01 0.38366714813E+01 0.35656524766E+01
 0.34339086229E+01 0.34426887430E+01 0.35951451437E+01 0.38946950995E+01 0.43444207241E+01
 0.49477516999E+01 0.57080730523E+01 0.66238002899E+01 0.76775049964E+01 0.88224203568E+01
 0.99741952399E+01 0.11016578454E+02 0.11824690304E+02 0.12299695876E+02 0.12398549004E+02
 0.12142662103E+02 0.11608815379E+02 0.10884151666E+02 0.10035192119E+02 0.91130706473E+01
 0.81573612554E+01 0.72067991693E+01 0.63046555765E+01 0.54925786545E+01 0.58249277136E+01
 0.50271398842E+01 0.43816090172E+01 0.38950524611E+01 0.35656975140E+01 0.33907497940E+01
 0.33698905383E+01 0.35052611248E+01 0.38004488542E+01 0.42606581438E+01 0.48936470357E+01
 0.57080730523E+01 0.67055135696E+01 0.78658517019E+01 0.91314063128E+01 0.10399743191E+02
 0.11534869464E+02 0.12398533416E+02 0.12874872880E+02 0.12931680633E+02 0.12649425625E+02
 0.12145262621E+02 0.11495082956E+02 0.10713459604E+02 0.97999111955E+01 0.87973859853E+01
 0.77617599777E+01 0.67512812692E+01 0.71752700776E+01 0.61304579185E+01 0.52263163944E+01
 0.44939998617E+01 0.39416271615E+01 0.35657495918E+01 0.33610991318E+01 0.33253604855E+01
 0.34597976700E+01 0.37688243324E+01 0.42606581438E+01 0.49477516999E+01 0.58426929607E+01
 0.69461509530E+01 0.82283778868E+01 0.96123293461E+01 0.10970638657E+02 0.12142650280E+02
 0.12931669054E+02 0.13230909034E+02 0.13116893784E+02 0.12771790889E+02 0.12349002377E+02
 0.11878638732E+02 0.11278367022E+02 0.10456511405E+02 0.94253093380E+01 0.83006582362E+01
 0.87929484510E+01 0.75513843041E+01 0.63905787902E+01 0.53872450375E+01 0.45790491092E+01
 0.39740139608E+01 0.35657914369E+01 0.33460211664E+01 0.33103815706E+01 0.34597976700E+01
 0.38004488542E+01 0.43444207241E+01 0.51085552311E+01 0.61066200178E+01 0.73323855411E+01
 0.87377633541E+01 0.10217251984E+02 0.11608818928E+02 0.12649419691E+02 0.13116891414E+02
 0.13036100858E+02 0.12651998523E+02 0.12265486809E+02 0.12040004498E+02 0.11907510968E+02
 0.11636736563E+02 0.11013524071E+02 0.10006125816E+02 0.10500123757E+02 0.92098299935E+01
 0.78564157449E+01 0.65890681308E+01 0.55002229008E+01 0.46320174007E+01 0.39906076864E+01
 0.35658077821E+01 0.33460211664E+01 0.33253604855E+01 0.35052611248E+01 0.38946950995E+01
 0.45100864820E+01 0.53713551798E+01 0.64891266563E+01 0.78426009683E+01 0.93555361893E+01
 0.10884164316E+02 0.12145266896E+02 0.12771794828E+02 0.12652008428E+02 0.12020502142E+02
 0.11332699172E+02 0.11000057242E+02 0.11146097935E+02 0.11540284729E+02 0.11753134814E+02
 0.11429093508E+02 0.11698440662E+02 0.10878996105E+02 0.95265891215E+01 0.80711855432E+01
 0.67134122043E+01 0.55584551304E+01 0.46499987368E+01 0.39906076864E+01 0.35657914369E+01
 0.33610991318E+01 0.33698905383E+01 0.35951451437E+01 0.40494977796E+01 0.47535358185E+01
 0.57277610860E+01 0.69739157659E+01 0.84477968292E+01 0.10035206275E+02 0.11495093003E+02
 0.12349007217E+02 0.12265501808E+02 0.11332720344E+02 0.10058618570E+02 0.91235972171E+01
 0.90111362255E+01 0.97355167750E+01 0.10838480409E+02 0.11657925049E+02 0.11435994106E+02
 0.11846715168E+02 0.11131439431E+02 0.97244387475E+01 0.81820884214E+01 0.67557519469E+01
 0.55584551304E+01 0.46320174007E+01 0.39740139608E+01 0.35657495918E+01 0.33907497940E+01
 0.34426887430E+01 0.37271252213E+01 0.42608690009E+01 0.50676809430E+01 0.61650408679E+01
 0.75390626214E+01 0.91130834755E+01 0.10713476455E+02 0.11878644428E+02 0.12040009644E+02
 0.11000080343E+02 0.91236242587E+01 0.72276622521E+01 0.61956235807E+01 0.65156368069E+01
 0.80149038992E+01 0.99559171556E+01 0.91015309630E+01 0.11199091851E+02 0.11912872786E+02
 0.11256630271E+02 0.97917055023E+01 0.81820884214E+01 0.67134122043E+01 0.55002229008E+01
 0.45790491092E+01 0.39416271615E+01 0.35656975140E+01 0.34339086229E+01 0.35414062359E+01
 0.38971895006E+01 0.45222439446E+01 0.54416931119E+01 0.66655805237E+01 0.81573665575E+01
 0.97999322687E+01 0.11278384213E+02 0.11907511820E+02 0.11146102373E+02 0.90111608989E+01
 0.61956484764E+01 0.38214223236E+01 0.29145808590E+01 0.38808584143E+01 0.62897979527E+01
 0.48956909666E+01 0.84850569795E+01 0.11050061876E+02 0.11930548659E+02 0.11256630271E+02
 0.97244387475E+01 0.80711855432E+01 0.65890681308E+01 0.53872450375E+01 0.44939998617E+01
 0.38950524611E+01 0.35656524766E+01 0.34888717062E+01 0.36624004014E+01 0.40992206634E+01
 0.48239077693E+01 0.58604745640E+01 0.72067935483E+01 0.87973964838E+01 0.10456536617E+02
 0.11636750578E+02 0.11540281120E+02 0.97355191134E+01 0.65156553524E+01 0.29145959463E+01
 0.30979186899E+00 -.22208279513E+00 0.15513101831E+01 -.49982732101E-01 0.41171912123E+01
 0.82607032054E+01 0.11050061876E+02 0.11912872786E+02 0.11131439431E+02 0.95265891215E+01
 0.78564157449E+01 0.63905787902E+01 0.52263163944E+01 0.43816090172E+01 0.38366714813E+01
 0.35656229031E+01 0.35532370720E+01 0.38005871223E+01 0.43247545601E+01 0.51527607979E+01
 0.63046523294E+01 0.77617547806E+01 0.94253220808E+01 0.11013546326E+02 0.11753141976E+02
 0.10838473526E+02 0.80149029480E+01 0.38808646692E+01 -.22208210601E+00 -.27510795086E+01
 -.26879840869E+01 -.40450825993E+01 -.62033539374E+00 0.41171912123E+01 0.84850569795E+01
 0.11199091851E+02 0.11846715168E+02 0.10878996105E+02 0.92098299935E+01 0.75513843041E+01
 0.61304579185E+01 0.50271398842E+01 0.42482300912E+01 0.37695645865E+01 0.35656088108E+01
 0.36239320736E+01 0.39494781886E+01 0.45630704002E+01 0.54925949726E+01 0.67512809823E+01
 0.83006561238E+01 0.10006137200E+02 0.11429105881E+02 0.11657922740E+02 0.99559081769E+01
 0.62897926877E+01 0.15513016889E+01 -.26879976070E+01 -.48378579169E+01 -.40450151418E+01
 -.29336577960E+01 0.55919081896E+00 0.50835529243E+01 0.90380981165E+01 0.11287800270E+02
 0.11565097176E+02 0.10402396362E+02 0.87055036123E+01 0.70825088523E+01 0.57171332115E+01
 0.46725785830E+01 0.39469074703E+01 0.35131197378E+01 0.33459291759E+01 0.34343343769E+01
 0.37850336204E+01 0.44203687461E+01 0.53685148820E+01 0.66405567882E+01 0.81931299438E+01
 0.98842718883E+01 0.11242586174E+02 0.11370737661E+02 0.96039776035E+01 0.59992396043E+01
 0.15042409683E+01 -.23352012428E+01 -.29336754000E+01 -.40450355458E+01 -.23352216771E+01
 0.15042208869E+01 0.59992381628E+01 0.96040106488E+01 0.11370785721E+02 0.11242615889E+02
 0.98842746168E+01 0.81931166393E+01 0.66405272536E+01 0.53684666296E+01 0.44203237951E+01
 0.37850190705E+01 0.34343472131E+01 0.33459507093E+01 0.35131538259E+01 0.39469713387E+01
 0.46726624036E+01 0.57172047556E+01 0.70825528777E+01 0.87055248098E+01 0.10402393158E+02
 0.11565067193E+02 0.11287763560E+02 0.90380816367E+01 0.50835545908E+01 0.55918631710E+00
 0.65797992599E+00 -.22299902567E+01 -.26879544613E+01 -.54969133235E+00 0.33023281804E+01
 0.73835785119E+01 0.10316949673E+02 0.11409017334E+02 0.10817791124E+02 0.92963991092E+01
 0.76467483493E+01 0.61866090663E+01 0.50228325486E+01 0.41794784612E+01 0.36382922470E+01
 0.33716434866E+01 0.33610727896E+01 0.36043589579E+01 0.41162256275E+01 0.49235278727E+01
 0.60502981069E+01 0.74882230419E+01 0.91558827025E+01 0.10826700885E+02 0.11809279176E+02
 0.11254982718E+02 0.87850229524E+01 0.48425720005E+01 0.53404622336E+01 0.17883448191E+01
 -.35233964868E+00 -.22206284478E+00 0.20921841184E+01 0.56065320570E+01 0.89417771826E+01
 0.10979387157E+02 0.11311512607E+02 0.10283720981E+02 0.86741977980E+01 0.70945755057E+01
 0.57441876633E+01 0.46975309015E+01 0.39616525246E+01 0.35136318782E+01 0.33280225941E+01
 0.33907815927E+01 0.37037853349E+01 0.42844401598E+01 0.51596494061E+01 0.63489740293E+01
 0.78337260764E+01 0.95178076458E+01 0.11142888508E+02 0.11999258186E+02 0.11338303082E+02
 0.89319136417E+01 0.94617019063E+01 0.64824017590E+01 0.37376535064E+01 0.23582804389E+01
 0.29145988856E+01 0.51222189259E+01 0.79973142582E+01 0.10364561784E+02 0.11416696766E+02
 0.11023060676E+02 0.96629147962E+01 0.80495840004E+01 0.65634125933E+01 0.53344041625E+01
 0.44075841640E+01 0.37766347781E+01 0.34166577105E+01 0.33056485012E+01 0.34340032398E+01
 0.38069067797E+01 0.44431076956E+01 0.53679461517E+01 0.65953961618E+01 0.80973709619E+01
 0.97682222670E+01 0.11340111104E+02 0.12143489341E+02 0.11551077169E+02 0.11847707906E+02
 0.10256759406E+02 0.80382197239E+01 0.61443197091E+01 0.54282862552E+01 0.61956437321E+01
 0.80427072352E+01 0.10080337853E+02 0.11402823830E+02 0.11523430393E+02 0.10544694629E+02
 0.90089056241E+01 0.74512771611E+01 0.60773964448E+01 0.49750990903E+01 0.41650806916E+01
 0.36319823720E+01 0.33514396651E+01 0.33056572808E+01 0.34890219301E+01 0.39089053195E+01
 0.45838998360E+01 0.55362961803E+01 0.67739306946E+01 0.82612827795E+01 0.98891955626E+01
 0.11406434655E+02 0.12227036182E+02 0.12214412727E+02 0.12136469104E+02 0.11130374006E+02
 0.97000096897E+01 0.85837398107E+01 0.83599091465E+01 0.91236188400E+01 0.10435335726E+02
 0.11572122596E+02 0.11922434155E+02 0.11288363865E+02 0.99366166285E+01 0.83750651355E+01
 0.69064290900E+01 0.56570105476E+01 0.46802574159E+01 0.39788924387E+01 0.35328643266E+01
 0.33203753268E+01 0.33280464084E+01 0.35534222917E+01 0.40047548291E+01 0.46990171828E+01
 0.56542881454E+01 0.68723892600E+01 0.83130909060E+01 0.98699062571E+01 0.11328639485E+02
 0.11096892475E+02 0.12062324796E+02 0.12307473524E+02 0.11876833675E+02 0.11157566143E+02
 0.10665551815E+02 0.10739165782E+02 0.11332718072E+02 0.12043256960E+02 0.12352163249E+02
 0.11925804710E+02 0.10792440676E+02 0.92998006075E+01 0.77951162739E+01 0.64393577187E+01
 0.53185617210E+01 0.44599267518E+01 0.38547600017E+01 0.34821584574E+01 0.33242279811E+01
 0.33716758778E+01 0.36241203141E+01 0.40893887178E+01 0.47816158753E+01 0.57140250854E+01
 0.68832453367E+01 0.82474859194E+01 0.97084573500E+01 0.94130330670E+01 0.10712480066E+02
 0.11737800760E+02 0.12266990693E+02 0.12325581582E+02 0.12170992065E+02 0.12116688505E+02
 0.12316096051E+02 0.12652008526E+02 0.12807564964E+02 0.12470843101E+02 0.11537252739E+02
 0.10181972153E+02 0.87087192903E+01 0.73004678529E+01 0.60705783416E+01 0.50741236100E+01
 0.43205435691E+01 0.37956862407E+01 0.34807532557E+01 0.33623052760E+01 0.34343787571E+01
 0.36975018836E+01 0.41579814677E+01 0.48263370788E+01 0.57109506030E+01 0.68046843091E+01
 0.80673421131E+01 0.77840077003E+01 0.90018639621E+01 0.10195217602E+02 0.11235265964E+02
 0.11967485556E+02 0.12384194611E+02 0.12621459497E+02 0.12829911932E+02 0.13039237217E+02
 0.13116887798E+02 0.12853502015E+02 0.12115668233E+02 0.10959527615E+02 0.95979762547E+01
 0.82073902762E+01 0.69191956908E+01 0.58162360355E+01 0.49318494981E+01 0.42655253142E+01
 0.38024931453E+01 0.35279298421E+01 0.34326930204E+01 0.35131353970E+01 0.37696592347E+01
 0.42063374779E+01 0.48298951019E+01 0.56445546298E+01 0.66412226282E+01 0.64036103334E+01
 0.74164752439E+01 0.85017199782E+01 0.95840899165E+01 0.10586396540E+02 0.11424318092E+02
 0.12058814573E+02 0.12528297091E+02 0.12868421579E+02 0.13040260123E+02 0.12931661959E+02
 0.12435727603E+02 0.11549195897E+02 0.10393500742E+02 0.91100777827E+01 0.78350514187E+01
 0.66741699148E+01 0.56878806938E+01 0.48964495946E+01 0.42959133921E+01 0.38743318550E+01
 0.36216830468E+01 0.35324517427E+01 0.36042737798E+01 0.38366907609E+01 0.42313367365E+01
 0.47915951753E+01 0.55187467838E+01 0.53417002493E+01 0.61078763198E+01 0.69894285454E+01
 0.79450903274E+01 0.89199721746E+01 0.98582089835E+01 0.10714377097E+02 0.11447742620E+02
 0.12030782298E+02 0.12429865085E+02 0.12578378287E+02 0.12398527644E+02 0.11860559438E+02
 0.11008961901E+02 0.99378682725E+01 0.87702102890E+01 0.76230090310E+01 0.65816874012E+01
 0.56923697558E+01 0.49696020295E+01 0.44108206211E+01 0.40089788626E+01 0.37588692172E+01
 0.36577251524E+01 0.37036434857E+01 0.38949971216E+01 0.42313138571E+01 0.47136086444E+01
 0.46008865487E+01 0.51250957751E+01 0.57736107621E+01 0.65304952609E+01 0.73666371603E+01
 0.82430668155E+01 0.91184108275E+01 0.99541234248E+01 0.10711600023E+02 0.11342632190E+02
 0.11783328558E+02 0.11962402358E+02 0.11824689868E+02 0.11357698682E+02 0.10604517329E+02
 0.96545059534E+01 0.86169648321E+01 0.75918232999E+01 0.66504479857E+01 0.58317362711E+01
 0.51501024382E+01 0.46075365353E+01 0.42028131462E+01 0.39351318166E+01 0.38037264840E+01
 0.38067313876E+01 0.39415154325E+01 0.42062716251E+01 0.41578812544E+01 0.44606777951E+01
 0.48828618955E+01 0.54217982003E+01 0.60672912329E+01 0.67997173248E+01 0.75919979661E+01
 0.84133416576E+01 0.92301331145E+01 0.10001240735E+02 0.10671139990E+02 0.11169352051E+02
 0.11422729033E+02 0.11378162791E+02 0.11024367340E+02 0.10400159982E+02 0.95841948453E+01
 0.86716233799E+01 0.77494084323E+01 0.68808211144E+01 0.61029391614E+01 0.54336653174E+01
 0.48812129289E+01 0.44504384364E+01 0.41445957556E+01 0.39646085699E+01 0.39087257801E+01
 0.39738713752E+01 0.39904601027E+01 0.40892675089E+01 0.43017348470E+01 0.46296668735E+01
 0.50726772960E+01 0.56248917395E+01 0.62736885349E+01 0.70008577407E+01 0.77839377424E+01
 0.85943575165E+01 0.93915622194E+01 0.10117347964E+02 0.10697636853E+02 0.11055942533E+02
 0.11135088192E+02 0.10917074863E+02 0.10430639141E+02 0.97423546540E+01 0.89359307587E+01
 0.80900519109E+01 0.72644160754E+01 0.64974759580E+01 0.58123476759E+01 0.52241517286E+01
 0.47440315138E+01 0.43794493985E+01 0.41333373583E+01 0.40045979215E+01 0.40892743131E+01
 0.39904784730E+01 0.40046259576E+01 0.41333815112E+01 0.43795018244E+01 0.47440747342E+01
 0.52241833600E+01 0.58123749223E+01 0.64974939346E+01 0.72644159416E+01 0.80900443733E+01
 0.89359352754E+01 0.97423688770E+01 0.10430645351E+02 0.10917071249E+02 0.11135087150E+02
 0.11055942704E+02 0.10697625987E+02 0.10117331175E+02 0.93915579095E+01 0.85943660606E+01
 0.77839401225E+01 0.70008451465E+01 0.62736680060E+01 0.56248654085E+01 0.50726411880E+01
 0.46296311341E+01 0.43017189457E+01 0.44606939182E+01 0.41579212217E+01 0.39739202485E+01
 0.39087800998E+01 0.39646691035E+01 0.41446491338E+01 0.44504714625E+01 0.48812340980E+01
 0.54336884870E+01 0.61029577272E+01 0.68808230667E+01 0.77494026698E+01 0.86716261735E+01
 0.95842009097E+01 0.10400154973E+02 0.11024356706E+02 0.11378161004E+02 0.11422730694E+02
 0.11169341728E+02 0.10671122447E+02 0.10001233311E+02 0.92301358770E+01 0.84133410409E+01
 0.75919920293E+01 0.67997125826E+01 0.60672838719E+01 0.54217829453E+01 0.48828525593E+01
 0.51251157679E+01 0.46009312080E+01 0.42063334104E+01 0.39415793524E+01 0.38067952224E+01
 0.38037867072E+01 0.39351706656E+01 0.42028223930E+01 0.46075367864E+01 0.51501131669E+01
 0.58317486837E+01 0.66504477440E+01 0.75918176466E+01 0.86169650531E+01 0.96545027635E+01
 0.10604500576E+02 0.11357681417E+02 0.11824686717E+02 0.11962402114E+02 0.11783313160E+02
 0.11342606532E+02 0.10711580041E+02 0.99541100578E+01 0.91183996544E+01 0.82430658926E+01
 0.73666520022E+01 0.65305133403E+01 0.57736225238E+01 0.61079126587E+01 0.53417455612E+01
 0.47136707891E+01 0.42313791873E+01 0.38950547151E+01 0.37036977089E+01 0.36577707795E+01
 0.37588846359E+01 0.40089612800E+01 0.44107992380E+01 0.49695972013E+01 0.56923703322E+01
 0.65816811444E+01 0.76230043321E+01 0.87702119099E+01 0.99378603589E+01 0.11008936481E+02
 0.11860533541E+02 0.12398513202E+02 0.12578359865E+02 0.12429828571E+02 0.12030737122E+02
 0.11447702247E+02 0.10714341653E+02 0.98581831946E+01 0.89199734143E+01 0.79451216361E+01
 0.69894688087E+01 0.74165265519E+01 0.64036613700E+01 0.55188058921E+01 0.47916583667E+01
 0.42313860055E+01 0.38367243950E+01 0.36043055780E+01 0.35324754921E+01 0.36216748166E+01
 0.38742932552E+01 0.42958762395E+01 0.48964301502E+01 0.56878676655E+01 0.66741585501E+01
 0.78350521573E+01 0.91100855328E+01 0.10393490409E+02 0.11549160125E+02 0.12435683766E+02
 0.12931619154E+02 0.13040206274E+02 0.12868353286E+02 0.12528229924E+02 0.12058755651E+02
 0.11424263402E+02 0.10586357785E+02 0.95840905782E+01 0.85017591691E+01 0.90019002042E+01
 0.77840553057E+01 0.66412735031E+01 0.56446116345E+01 0.48299430725E+01 0.42063575631E+01
 0.37696617652E+01 0.35131413253E+01 0.34326935411E+01 0.35279007413E+01 0.38024408749E+01
 0.42654794620E+01 0.49318198795E+01 0.58162138785E+01 0.69191848908E+01 0.82073991939E+01
 0.95979865408E+01 0.10959507606E+02 0.12115613664E+02 0.12853432499E+02 0.13116808340E+02
 0.13039144156E+02 0.12829817574E+02 0.12621380834E+02 0.12384127209E+02 0.11967419855E+02
 0.11235219420E+02 0.10195215527E+02 0.10712475134E+02 0.94130567045E+01 0.80673717162E+01
 0.68047188766E+01 0.57109897556E+01 0.48263581089E+01 0.41579693434E+01 0.36974760893E+01
 0.34343599653E+01 0.33622800025E+01 0.34807027714E+01 0.37956243946E+01 0.43204956165E+01
 0.50740916777E+01 0.60705558949E+01 0.73004622240E+01 0.87087304720E+01 0.10181970526E+02
 0.11537210538E+02 0.12470767130E+02 0.12807473907E+02 0.12651906922E+02 0.12315987179E+02
 0.12116592444E+02 0.12170920386E+02 0.12325517653E+02 0.12266924161E+02 0.11737754058E+02
 0.12062286901E+02 0.11096886436E+02 0.97084627553E+01 0.82474878047E+01 0.68832520037E+01
 0.57140349973E+01 0.47816047608E+01 0.40893478834E+01 0.36240717817E+01 0.33716316979E+01
 0.33241722675E+01 0.34820850647E+01 0.38546922389E+01 0.44598831137E+01 0.53185357273E+01
 0.64393416144E+01 0.77951143347E+01 0.92998010040E+01 0.10792412355E+02 0.11925737029E+02
 0.12352077047E+02 0.12043170349E+02 0.11332626383E+02 0.10739072853E+02 0.10665478364E+02
 0.11157514048E+02 0.11876780608E+02 0.12307415229E+02 0.12136426117E+02 0.12214390561E+02
 0.11328634673E+02 0.98698926386E+01 0.83130632555E+01 0.68723634106E+01 0.56542627792E+01
 0.46989722233E+01 0.40046896491E+01 0.35533544232E+01 0.33279759180E+01 0.33202887441E+01
 0.35327723641E+01 0.39788245841E+01 0.46802230154E+01 0.56569941249E+01 0.69064207421E+01
 0.83750615147E+01 0.99365967315E+01 0.11288306253E+02 0.11922352012E+02 0.11572050499E+02
 0.10435280614E+02 0.91235648127E+01 0.83598573020E+01 0.85837036811E+01 0.96999816347E+01
 0.11130334565E+02 0.10256733940E+02 0.11847684027E+02 0.12227032571E+02 0.11406432394E+02
 0.98891668710E+01 0.82612308135E+01 0.67738742822E+01 0.55362345191E+01 0.45838230391E+01
 0.39088210877E+01 0.34889395894E+01 0.33055656652E+01 0.33513323287E+01 0.36318841617E+01
 0.41650209542E+01 0.49750759167E+01 0.60773891419E+01 0.74512752598E+01 0.90088971468E+01
 0.10544654778E+02 0.11523353499E+02 0.11402747005E+02 0.10080297747E+02 0.80426979336E+01
 0.61956409095E+01 0.54282850490E+01 0.61443230875E+01 0.80382131873E+01 0.64824086198E+01
 0.94616885656E+01 0.11551072635E+02 0.12143502046E+02 0.11340111232E+02 0.97681849661E+01
 0.80973045845E+01 0.65953166113E+01 0.53678544011E+01 0.44430075247E+01 0.38068130075E+01
 0.34339156282E+01 0.33055490670E+01 0.34165489015E+01 0.37765488412E+01 0.44075423689E+01
 0.53343932827E+01 0.65634130351E+01 0.80495864241E+01 0.96629009503E+01 0.11023006948E+02
 0.11416616109E+02 0.10364504238E+02 0.79973102926E+01 0.51222518703E+01 0.29146397416E+01
 0.23583203559E+01 0.37376848655E+01 0.17883846008E+01 0.53404720216E+01 0.89319100393E+01
 0.11338315078E+02 0.11999281513E+02 0.11142889798E+02 0.95177695111E+01 0.78336577138E+01
 0.63488840430E+01 0.51595419049E+01 0.42843324852E+01 0.37036958450E+01 0.33907016292E+01
 0.33279339407E+01 0.35135458842E+01 0.39615998521E+01 0.46975166325E+01 0.57441905702E+01
 0.70945816336E+01 0.86742011187E+01 0.10283700829E+02 0.11311453193E+02 0.10979315956E+02
 0.89417444064E+01 0.56065556288E+01 0.20922390737E+01 -.22200164236E+00 -.35228200177E+00
 -.22299421059E+01 0.65800841828E+00 0.48425767886E+01 0.87850281814E+01 0.11255007812E+02
 0.11809307396E+02 0.10826702928E+02 0.91558511835E+01 0.74881639739E+01 0.60502116871E+01
 0.49234228469E+01 0.41161297320E+01 0.36042893623E+01 0.33610152803E+01 0.33715852725E+01
 0.36382513371E+01 0.41794737094E+01 0.50228506416E+01 0.61866256082E+01 0.76467577660E+01
 0.92963995410E+01 0.10817764710E+02 0.11408960379E+02 0.10316896292E+02 0.73835678101E+01
 0.33023603023E+01 -.54964209914E+00 -.26879020153E+01 -.49809040823E-01 0.65810905259E+00
 0.33536559567E+01 0.69457331393E+01 0.10075099327E+02 0.11749791740E+02 0.11723873234E+02
 0.10462107984E+02 0.87665159596E+01 0.71553503159E+01 0.57937128510E+01 0.47412283529E+01
 0.39961644453E+01 0.35325505791E+01 0.33253834964E+01 0.33623563328E+01 0.36470851147E+01
 0.41980990852E+01 0.50419862403E+01 0.61952677041E+01 0.76327159932E+01 0.92498932171E+01
 0.10753461744E+02 0.11411230254E+02 0.10552499203E+02 0.80723122937E+01 0.46393182996E+01
 0.15043482127E+01 0.55930284813E+00 -.62016838084E+00 0.55929572869E+00 0.36016936016E+01
 0.72748354328E+01 0.10223177713E+02 0.11582247953E+02 0.11274120581E+02 0.98822114803E+01
 0.82111258735E+01 0.66762045214E+01 0.54111698391E+01 0.44584316030E+01 0.38080225511E+01
 0.34327891580E+01 0.33104203823E+01 0.34327963984E+01 0.38080507466E+01 0.44584738969E+01
 0.54111990991E+01 0.66762090731E+01 0.82111153047E+01 0.98821867786E+01 0.11274071337E+02
 0.11582184690E+02 0.10223133105E+02 0.72748240838E+01 0.36017013787E+01 0.33536536819E+01
 0.65809436375E+00 -.49831492767E-01 0.15043234648E+01 0.46393083238E+01 0.80723440107E+01