   2   2   0   0
  0.1529437E+02  0.3691622E-09  0.3691622E-09  0.3691622E-09  0.5000000E-15
  1.000000000000000E-004
  CAR 
 unknown system                          
     22.89960650     -6.52281066  301      9.08434164      1.00000000
     -6.523  0.0000E+00  0.0000E+00
     -6.425  0.0000E+00  0.0000E+00
     -6.327  0.0000E+00  0.0000E+00
     -6.229  0.0000E+00  0.0000E+00
     -6.131  0.0000E+00  0.0000E+00
     -6.032  0.0000E+00  0.0000E+00
     -5.934  0.0000E+00  0.0000E+00
     -5.836  0.0000E+00  0.0000E+00
     -5.738  0.0000E+00  0.0000E+00
     -5.640  0.1474E-16  0.1446E-17
     -5.542  0.3018E-14  0.2974E-15
     -5.444  0.3863E-12  0.3819E-13
     -5.346  0.3082E-10  0.3061E-11
     -5.248  0.1534E-08  0.1536E-09
     -5.150  0.4773E-07  0.4835E-08
     -5.052  0.9290E-06  0.9595E-07
     -4.954  0.1133E-04  0.1207E-05
     -4.856  0.8675E-04  0.9715E-05
     -4.757  0.4180E-03  0.5071E-04
     -4.659  0.1276E-02  0.1759E-03
     -4.561  0.2525E-02  0.4236E-03
     -4.463  0.3534E-02  0.7702E-03
     -4.365  0.4539E-02  0.1215E-02
     -4.267  0.7021E-02  0.1904E-02
     -4.169  0.1104E-01  0.2987E-02
     -4.071  0.1403E-01  0.4363E-02
     -3.973  0.1417E-01  0.5752E-02
     -3.875  0.1248E-01  0.6976E-02
     -3.777  0.1030E-01  0.7987E-02
     -3.679  0.8953E-02  0.8865E-02
     -3.581  0.1061E-01  0.9905E-02
     -3.482  0.1570E-01  0.1144E-01
     -3.384  0.2083E-01  0.1349E-01
     -3.286  0.2196E-01  0.1564E-01
     -3.188  0.1941E-01  0.1754E-01
     -3.090  0.1658E-01  0.1917E-01
     -2.992  0.1519E-01  0.2066E-01
     -2.894  0.1630E-01  0.2226E-01
     -2.796  0.1996E-01  0.2422E-01
     -2.698  0.2260E-01  0.2643E-01
     -2.600  0.2267E-01  0.2866E-01
     -2.502  0.2391E-01  0.3100E-01
     -2.404  0.2697E-01  0.3365E-01
     -2.306  0.2671E-01  0.3627E-01
     -2.208  0.2226E-01  0.3845E-01
     -2.109  0.2032E-01  0.4044E-01
     -2.011  0.2409E-01  0.4280E-01
     -1.913  0.2799E-01  0.4555E-01
     -1.815  0.2686E-01  0.4818E-01
     -1.717  0.2251E-01  0.5039E-01
     -1.619  0.1823E-01  0.5218E-01
     -1.521  0.1531E-01  0.5368E-01
     -1.423  0.1633E-01  0.5528E-01
     -1.325  0.2279E-01  0.5752E-01
     -1.227  0.3105E-01  0.6056E-01
     -1.129  0.3668E-01  0.6416E-01
     -1.031  0.3930E-01  0.6801E-01
     -0.933  0.4014E-01  0.7195E-01
     -0.834  0.3948E-01  0.7582E-01
     -0.736  0.4018E-01  0.7976E-01
     -0.638  0.4408E-01  0.8409E-01
     -0.540  0.4385E-01  0.8839E-01
     -0.442  0.3306E-01  0.9163E-01
     -0.344  0.1854E-01  0.9345E-01
     -0.246  0.1017E-01  0.9445E-01
     -0.148  0.1017E-01  0.9544E-01
     -0.050  0.1747E-01  0.9716E-01
      0.048  0.3059E-01  0.1002E+00
      0.146  0.4353E-01  0.1044E+00
      0.244  0.4880E-01  0.1092E+00
      0.342  0.4659E-01  0.1138E+00
      0.440  0.4207E-01  0.1179E+00
      0.539  0.3640E-01  0.1215E+00
      0.637  0.3096E-01  0.1245E+00
      0.735  0.3308E-01  0.1278E+00
      0.833  0.4387E-01  0.1321E+00
      0.931  0.5084E-01  0.1370E+00
      1.029  0.4631E-01  0.1416E+00
      1.127  0.3875E-01  0.1454E+00
      1.225  0.3697E-01  0.1490E+00
      1.323  0.3925E-01  0.1529E+00
      1.421  0.4081E-01  0.1569E+00
      1.519  0.3959E-01  0.1607E+00
      1.617  0.3494E-01  0.1642E+00
      1.715  0.2792E-01  0.1669E+00
      1.814  0.2332E-01  0.1692E+00
      1.912  0.2594E-01  0.1717E+00
      2.010  0.3387E-01  0.1751E+00
      2.108  0.4125E-01  0.1791E+00
      2.206  0.4603E-01  0.1836E+00
      2.304  0.4750E-01  0.1883E+00
      2.402  0.4380E-01  0.1926E+00
      2.500  0.3822E-01  0.1963E+00
      2.598  0.3629E-01  0.1999E+00
      2.696  0.3743E-01  0.2036E+00
      2.794  0.3899E-01  0.2074E+00
      2.892  0.4100E-01  0.2114E+00
      2.990  0.4299E-01  0.2156E+00
      3.089  0.4247E-01  0.2198E+00
      3.187  0.3791E-01  0.2235E+00
      3.285  0.3226E-01  0.2267E+00
      3.383  0.3287E-01  0.2299E+00
      3.481  0.4207E-01  0.2340E+00
      3.579  0.4976E-01  0.2389E+00
      3.677  0.4500E-01  0.2433E+00
      3.775  0.3111E-01  0.2464E+00
      3.873  0.2060E-01  0.2484E+00
      3.971  0.2129E-01  0.2505E+00
      4.069  0.3238E-01  0.2536E+00
      4.167  0.4833E-01  0.2584E+00
      4.265  0.6164E-01  0.2644E+00
      4.363  0.6510E-01  0.2708E+00
      4.462  0.5768E-01  0.2765E+00
      4.560  0.4763E-01  0.2811E+00
      4.658  0.4694E-01  0.2857E+00
      4.756  0.5961E-01  0.2916E+00
      4.854  0.7276E-01  0.2987E+00
      4.952  0.6922E-01  0.3055E+00
      5.050  0.5058E-01  0.3105E+00
      5.148  0.3264E-01  0.3137E+00
      5.246  0.2627E-01  0.3163E+00
      5.344  0.3538E-01  0.3197E+00
      5.442  0.5568E-01  0.3252E+00
      5.540  0.7091E-01  0.3321E+00
      5.638  0.6844E-01  0.3389E+00
      5.737  0.5407E-01  0.3442E+00
      5.835  0.4122E-01  0.3482E+00
      5.933  0.3754E-01  0.3519E+00
      6.031  0.4491E-01  0.3563E+00
      6.129  0.5810E-01  0.3620E+00
      6.227  0.6540E-01  0.3684E+00
      6.325  0.6307E-01  0.3746E+00
      6.423  0.5881E-01  0.3804E+00
      6.521  0.5709E-01  0.3860E+00
      6.619  0.5888E-01  0.3917E+00
      6.717  0.6521E-01  0.3981E+00
      6.815  0.6953E-01  0.4049E+00
      6.913  0.6403E-01  0.4112E+00
      7.012  0.5314E-01  0.4164E+00
      7.110  0.4664E-01  0.4210E+00
      7.208  0.4567E-01  0.4255E+00
      7.306  0.4364E-01  0.4298E+00
      7.404  0.3991E-01  0.4337E+00
      7.502  0.4525E-01  0.4381E+00
      7.600  0.6530E-01  0.4445E+00
      7.698  0.8843E-01  0.4532E+00
      7.796  0.1003E+00  0.4630E+00
      7.894  0.9937E-01  0.4728E+00
      7.992  0.8990E-01  0.4816E+00
      8.090  0.7214E-01  0.4887E+00
      8.188  0.4772E-01  0.4934E+00
      8.286  0.2629E-01  0.4959E+00
      8.385  0.1615E-01  0.4975E+00
      8.483  0.1660E-01  0.4991E+00
      8.581  0.2537E-01  0.5016E+00
      8.679  0.4190E-01  0.5057E+00
      8.777  0.5957E-01  0.5116E+00
      8.875  0.6887E-01  0.5183E+00
      8.973  0.7078E-01  0.5253E+00
      9.071  0.7227E-01  0.5324E+00
      9.169  0.7175E-01  0.5394E+00
      9.267  0.6518E-01  0.5458E+00
      9.365  0.5744E-01  0.5514E+00
      9.463  0.5466E-01  0.5568E+00
      9.561  0.5524E-01  0.5622E+00
      9.660  0.5355E-01  0.5675E+00
      9.758  0.4732E-01  0.5721E+00
      9.856  0.4049E-01  0.5761E+00
      9.954  0.3607E-01  0.5796E+00
     10.052  0.3169E-01  0.5827E+00
     10.150  0.2658E-01  0.5853E+00
     10.248  0.2441E-01  0.5877E+00
     10.346  0.2552E-01  0.5902E+00
     10.444  0.2609E-01  0.5928E+00
     10.542  0.2705E-01  0.5954E+00
     10.640  0.3325E-01  0.5987E+00
     10.738  0.4524E-01  0.6031E+00
     10.836  0.5945E-01  0.6090E+00
     10.934  0.7155E-01  0.6160E+00
     11.033  0.7772E-01  0.6236E+00
     11.131  0.7438E-01  0.6309E+00
     11.229  0.6095E-01  0.6369E+00
     11.327  0.4456E-01  0.6412E+00
     11.425  0.3374E-01  0.6446E+00
     11.523  0.3035E-01  0.6475E+00
     11.621  0.3368E-01  0.6508E+00
     11.719  0.4459E-01  0.6552E+00
     11.817  0.6317E-01  0.6614E+00
     11.915  0.8596E-01  0.6698E+00
     12.013  0.1044E+00  0.6801E+00
     12.111  0.1095E+00  0.6908E+00
     12.209  0.1039E+00  0.7010E+00
     12.308  0.1002E+00  0.7108E+00
     12.406  0.9979E-01  0.7206E+00
     12.504  0.9224E-01  0.7297E+00
     12.602  0.7843E-01  0.7374E+00
     12.700  0.6561E-01  0.7438E+00
     12.798  0.5380E-01  0.7491E+00
     12.896  0.4554E-01  0.7535E+00
     12.994  0.4552E-01  0.7580E+00
     13.092  0.4784E-01  0.7627E+00
     13.190  0.4486E-01  0.7671E+00
     13.288  0.3982E-01  0.7710E+00
     13.386  0.3850E-01  0.7748E+00
     13.484  0.4279E-01  0.7790E+00
     13.583  0.5393E-01  0.7843E+00
     13.681  0.6767E-01  0.7909E+00
     13.779  0.7617E-01  0.7984E+00
     13.877  0.8027E-01  0.8062E+00
     13.975  0.8591E-01  0.8147E+00
     14.073  0.9322E-01  0.8238E+00
     14.171  0.9388E-01  0.8330E+00
     14.269  0.8196E-01  0.8410E+00
     14.367  0.6612E-01  0.8475E+00
     14.465  0.5739E-01  0.8532E+00
     14.563  0.5479E-01  0.8585E+00
     14.661  0.5397E-01  0.8638E+00
     14.759  0.5665E-01  0.8694E+00
     14.857  0.6686E-01  0.8759E+00
     14.956  0.8350E-01  0.8841E+00
     15.054  0.9733E-01  0.8937E+00
     15.152  0.9686E-01  0.9032E+00
     15.250  0.8181E-01  0.9112E+00
     15.348  0.6423E-01  0.9175E+00
     15.446  0.5160E-01  0.9226E+00
     15.544  0.4236E-01  0.9267E+00
     15.642  0.3629E-01  0.9303E+00
     15.740  0.3456E-01  0.9337E+00
     15.838  0.3585E-01  0.9372E+00
     15.936  0.3734E-01  0.9408E+00
     16.034  0.3802E-01  0.9446E+00
     16.132  0.4172E-01  0.9487E+00
     16.231  0.5238E-01  0.9538E+00
     16.329  0.6472E-01  0.9601E+00
     16.427  0.6921E-01  0.9669E+00
     16.525  0.6589E-01  0.9734E+00
     16.623  0.5958E-01  0.9792E+00
     16.721  0.5111E-01  0.9843E+00
     16.819  0.4233E-01  0.9884E+00
     16.917  0.3607E-01  0.9919E+00
     17.015  0.3113E-01  0.9950E+00
     17.113  0.2498E-01  0.9974E+00
     17.211  0.1830E-01  0.9992E+00
     17.309  0.1435E-01  0.1001E+01
     17.407  0.1499E-01  0.1002E+01
     17.505  0.1790E-01  0.1004E+01
     17.604  0.2144E-01  0.1006E+01
     17.702  0.2913E-01  0.1009E+01
     17.800  0.4123E-01  0.1013E+01
     17.898  0.5084E-01  0.1018E+01
     17.996  0.5429E-01  0.1023E+01
     18.094  0.5288E-01  0.1028E+01
     18.192  0.4678E-01  0.1033E+01
     18.290  0.3650E-01  0.1037E+01
     18.388  0.2553E-01  0.1039E+01
     18.486  0.1801E-01  0.1041E+01
     18.584  0.1519E-01  0.1042E+01
     18.682  0.1575E-01  0.1044E+01
     18.780  0.1848E-01  0.1046E+01
     18.879  0.2196E-01  0.1048E+01
     18.977  0.2400E-01  0.1050E+01
     19.075  0.2370E-01  0.1052E+01
     19.173  0.2114E-01  0.1055E+01
     19.271  0.1661E-01  0.1056E+01
     19.369  0.1212E-01  0.1057E+01
     19.467  0.9564E-02  0.1058E+01
     19.565  0.9397E-02  0.1059E+01
     19.663  0.1126E-01  0.1060E+01
     19.761  0.1262E-01  0.1062E+01
     19.859  0.1106E-01  0.1063E+01
     19.957  0.7833E-02  0.1063E+01
     20.055  0.5153E-02  0.1064E+01
     20.154  0.3343E-02  0.1064E+01
     20.252  0.1960E-02  0.1064E+01
     20.350  0.9377E-03  0.1065E+01
     20.448  0.4967E-03  0.1065E+01
     20.546  0.8661E-03  0.1065E+01
     20.644  0.2136E-02  0.1065E+01
     20.742  0.3837E-02  0.1065E+01
     20.840  0.4887E-02  0.1066E+01
     20.938  0.4505E-02  0.1066E+01
     21.036  0.2979E-02  0.1066E+01
     21.134  0.1365E-02  0.1067E+01
     21.232  0.4170E-03  0.1067E+01
     21.330  0.8271E-04  0.1067E+01
     21.428  0.1047E-04  0.1067E+01
     21.527  0.8382E-06  0.1067E+01
     21.625  0.4220E-07  0.1067E+01
     21.723  0.1332E-08  0.1067E+01
     21.821  0.2630E-10  0.1067E+01
     21.919  0.3243E-12  0.1067E+01
     22.017  0.2493E-14  0.1067E+01
     22.115  0.1179E-16  0.1067E+01
     22.213  0.0000E+00  0.1067E+01
     22.311  0.0000E+00  0.1067E+01
     22.409  0.0000E+00  0.1067E+01
     22.507  0.0000E+00  0.1067E+01
     22.605  0.0000E+00  0.1067E+01
     22.703  0.0000E+00  0.1067E+01
     22.802  0.0000E+00  0.1067E+01
     22.900  0.0000E+00  0.1067E+01
