    2    2   15    1
  0.1529437E+02  0.3691622E-09  0.3691622E-09  0.3691622E-09  0.5000000E-15
  1.000000000000000E-004
  CAR 
 unknown system                          
      8     56      8
 
  0.6250000E-01  0.6250000E-01  0.6250000E-01  0.1562500E-01
    1       -4.081986   1.000000
    2        4.401772   1.000000
    3        6.772026   1.000000
    4        8.087918   1.000000
    5       12.039258   0.000000
    6       14.573065   0.000000
    7       15.388359   0.000000
    8       16.585899   0.000000
 
  0.1875000E+00  0.6250000E-01  0.6250000E-01  0.3125000E-01
    1       -2.766304   1.000000
    2        4.287369   1.000000
    3        7.216873   1.000000
    4        9.610236   0.000100
    5       11.404649   0.000000
    6       11.894857   0.000000
    7       14.196904   0.000000
    8       14.799458   0.000000
 
  0.3125000E+00  0.6250000E-01  0.6250000E-01  0.3125000E-01
    1       -0.598049   1.000000
    2        4.921921   1.000000
    3        6.190626   1.000000
    4        7.702481   1.000000
    5        9.198902   0.208951
    6       12.420905   0.000000
    7       13.658971   0.000000
    8       13.915170   0.000000
 
  0.4375000E+00  0.6250000E-01  0.6250000E-01  0.1562500E-01
    1        2.125810   1.000000
    2        2.673744   1.000000
    3        6.381484   1.000000
    4        6.426949   1.000000
    5        9.102362   0.449304
    6       10.999043   0.000000
    7       13.598429   0.000000
    8       14.574570   0.000000
 
 -0.6250000E-01  0.6250000E-01  0.6250000E-01  0.7812500E-02
    1       -4.522811   1.000000
    2        4.920525   1.000000
    3        5.935558   1.000000
    4        7.733889   1.000000
    5       11.139692   0.000000
    6       15.109614   0.000000
    7       17.451209   0.000000
    8       18.210759   0.000000
 
  0.1875000E+00  0.1875000E+00  0.6250000E-01  0.1562500E-01
    1       -0.778601   1.000000
    2        4.834447   1.000000
    3        7.201491   1.000000
    4        7.273609   1.000000
    5        9.939827   0.000000
    6       11.906294   0.000000
    7       13.625868   0.000000
    8       13.658528   0.000000
 
  0.3125000E+00  0.1875000E+00  0.6250000E-01  0.3125000E-01
    1        1.988835   1.000000
    2        3.499096   1.000000
    3        4.838544   1.000000
    4        6.163048   1.000000
    5       10.391444   0.000000
    6       12.075291   0.000000
    7       13.023171   0.000000
    8       15.002625   0.000000
 
  0.4375000E+00  0.1875000E+00  0.6250000E-01  0.3125000E-01
    1        0.304773   1.000000
    2        3.118895   1.000000
    3        5.674674   1.000000
    4        7.857395   1.000000
    5        9.480513   0.002544
    6       12.060981   0.000000
    7       14.122943   0.000000
    8       15.088331   0.000000
 
 -0.4375000E+00  0.1875000E+00  0.6250000E-01  0.3125000E-01
    1       -2.031262   1.000000
    2        2.267479   1.000000
    3        7.834839   1.000000
    4        9.640065   0.000043
    5       11.117935   0.000000
    6       11.672045   0.000000
    7       13.034339   0.000000
    8       15.291539   0.000000
 
 -0.3125000E+00  0.1875000E+00  0.6250000E-01  0.1562500E-01
    1       -3.525807   1.000000
    2        2.228958   1.000000
    3        7.286417   1.000000
    4        9.034497   0.637752
    5       12.609036   0.000000
    6       14.241653   0.000000
    7       14.524309   0.000000
    8       15.628179   0.000000
 
 -0.1875000E+00  0.1875000E+00  0.6250000E-01  0.1562500E-01
    1       -4.151151   1.000000
    2        2.976244   1.000000
    3        6.029166   1.000000
    4        8.988840   0.750257
    5       12.883587   0.000000
    6       13.048628   0.000000
    7       15.935710   0.000000
    8       19.162596   0.000000
 
 -0.6250000E-01  0.1875000E+00  0.6250000E-01  0.1562500E-01
    1       -3.896597   1.000000
    2        4.082081   1.000000
    3        5.480659   1.000000
    4        9.605160   0.000115
    5       12.757331   0.000000
    6       13.057581   0.000000
    7       14.910732   0.000000
    8       17.008898   0.000000
 
  0.3125000E+00  0.3125000E+00  0.6250000E-01  0.1562500E-01
    1        1.541742   1.000000
    2        1.564000   1.000000
    3        5.504249   1.000000
    4        7.861306   1.000000
    5       10.082325   0.000000
    6       11.029739   0.000000
    7       14.998890   0.000000
    8       16.033215   0.000000
 
  0.4375000E+00  0.3125000E+00  0.6250000E-01  0.3125000E-01
    1       -0.936231   1.000000
    2        0.504901   1.000000
    3        8.701472   0.996608
    4        9.387836   0.015935
    5       10.292690   0.000000
    6       11.976972   0.000000
    7       12.671589   0.000000
    8       14.020427   0.000000
 
 -0.4375000E+00  0.3125000E+00  0.6250000E-01  0.1562500E-01
    1       -2.604042   1.000000
    2        0.296153   1.000000
    3        8.139325   1.000000
    4       10.017147   0.000000
    5       10.840071   0.000000
    6       12.702208   0.000000
    7       15.119060   0.000000
    8       15.119952   0.000000
 
 -0.3125000E+00  0.3125000E+00  0.6250000E-01  0.1562500E-01
    1       -3.410473   1.000000
    2        0.926420   1.000000
    3        6.706080   1.000000
    4        9.949886   0.000000
    5       10.855033   0.000000
    6       14.103932   0.000000
    7       16.048291   0.000000
    8       18.883836   0.000000
 
 -0.1875000E+00  0.3125000E+00  0.6250000E-01  0.3125000E-01
    1       -3.341892   1.000000
    2        2.339039   1.000000
    3        5.563357   1.000000
    4       10.809492   0.000000
    5       11.039861   0.000000
    6       14.101826   0.000000
    7       15.117799   0.000000
    8       16.752041   0.000000
 
 -0.6250000E-01  0.3125000E+00  0.6250000E-01  0.1562500E-01
    1       -2.399127   1.000000
    2        4.075922   1.000000
    3        5.621705   1.000000
    4        9.443882   0.005506
    5       11.472380   0.000000
    6       12.721534   0.000000
    7       14.053394   0.000000
    8       14.625143   0.000000
 
  0.4375000E+00  0.4375000E+00  0.6250000E-01  0.7812500E-02
    1       -1.325123   1.000000
    2       -1.325123   1.000000
    3        9.327293   0.042905
    4        9.327299   0.042901
    5       11.252454   0.000000
    6       11.252454   0.000000
    7       14.977850   0.000000
    8       14.977851   0.000000
 
 -0.4375000E+00  0.4375000E+00  0.6250000E-01  0.1562500E-01
    1       -2.307663   1.000000
    2       -0.854470   1.000000
    3        7.748633   1.000000
    4        9.137151   0.354419
    5       11.070334   0.000000
    6       12.455586   0.000000
    7       18.511342   0.000000
    8       18.649095   0.000000
 
 -0.3125000E+00  0.4375000E+00  0.6250000E-01  0.3125000E-01
    1       -2.422964   1.000000
    2        0.457267   1.000000
    3        6.383606   1.000000
    4        9.134195   0.362225
    5       11.797157   0.000000
    6       13.640260   0.000000
    7       15.446966   0.000000
    8       16.322168   0.000000
 
 -0.1875000E+00  0.4375000E+00  0.6250000E-01  0.3125000E-01
    1       -1.668047   1.000000
    2        2.534632   1.000000
    3        5.797103   1.000000
    4        8.872463   0.932961
    5        9.829512   0.000000
    6       13.404351   0.000000
    7       14.172295   0.000000
    8       16.301588   0.000000
 
 -0.6250000E-01  0.4375000E+00  0.6250000E-01  0.1562500E-01
    1       -0.057837   1.000000
    2        4.758551   1.000000
    3        5.489458   1.000000
    4        6.448816   1.000000
    5        9.694235   0.000008
    6       12.238334   0.000000
    7       12.357584   0.000000
    8       15.650688   0.000000
 
 -0.4375000E+00 -0.4375000E+00  0.6250000E-01  0.1562500E-01
    1       -1.151223   1.000000
    2       -1.148722   1.000000
    3        7.579208   1.000000
    4        7.598412   1.000000
    5       12.381760   0.000000
    6       13.371515   0.000000
    7       14.762545   0.000000
    8       16.259515   0.000000
 
 -0.3125000E+00 -0.4375000E+00  0.6250000E-01  0.3125000E-01
    1       -0.581980   1.000000
    2        0.838854   1.000000
    3        6.747255   1.000000
    4        8.022448   1.000000
    5        8.760561   0.988974
    6       13.203403   0.000000
    7       15.169930   0.000000
    8       16.596323   0.000000
 
 -0.1875000E+00 -0.4375000E+00  0.6250000E-01  0.3125000E-01
    1        0.832587   1.000000
    2        3.523299   1.000000
    3        4.862821   1.000000
    4        6.771614   1.000000
    5        9.029738   0.650291
    6       11.189087   0.000000
    7       13.826279   0.000000
    8       16.877928   0.000000
 
 -0.6250000E-01 -0.4375000E+00  0.6250000E-01  0.1562500E-01
    1        1.634893   1.000000
    2        3.157096   1.000000
    3        6.513281   1.000000
    4        7.675242   1.000000
    5        8.011070   1.000000
    6       10.656931   0.000000
    7       12.164782   0.000000
    8       15.811663   0.000000
 
 -0.3125000E+00 -0.3125000E+00  0.6250000E-01  0.1562500E-01
    1        2.025322   1.000000
    2        2.079286   1.000000
    3        4.666183   1.000000
    4        7.654221   1.000000
    5        7.981665   1.000000
    6       10.890996   0.000000
    7       15.639801   0.000000
    8       16.123480   0.000000
 
 -0.1875000E+00 -0.3125000E+00  0.6250000E-01  0.3125000E-01
    1        1.298322   1.000000
    2        4.162850   1.000000
    3        5.446786   1.000000
    4        7.592484   1.000000
    5        8.811484   0.973159
    6       10.635515   0.000000
    7       12.088409   0.000000
    8       14.407590   0.000000
 
 -0.6250000E-01 -0.3125000E+00  0.6250000E-01  0.1562500E-01
    1       -1.143999   1.000000
    2        6.491975   1.000000
    3        7.056537   1.000000
    4        7.726739   1.000000
    5        9.106933   0.436542
    6       11.622207   0.000000
    7       12.254749   0.000000
    8       13.665268   0.000000
 
 -0.1875000E+00 -0.1875000E+00  0.6250000E-01  0.1562500E-01
    1       -1.327242   1.000000
    2        6.856893   1.000000
    3        7.843624   1.000000
    4        7.898399   1.000000
    5        9.244606   0.128556
    6       11.022795   0.000000
    7       12.180084   0.000000
    8       12.389866   0.000000
 
 -0.6250000E-01 -0.1875000E+00  0.6250000E-01  0.1562500E-01
    1       -3.135491   1.000000
    2        6.183426   1.000000
    3        7.123816   1.000000
    4        8.770991   0.986645
    5       11.832870   0.000000
    6       12.394505   0.000000
    7       12.453510   0.000000
    8       14.850278   0.000000
 
 -0.6250000E-01 -0.6250000E-01  0.6250000E-01  0.3906250E-02
    1       -4.267853   1.000000
    2        6.519434   1.000000
    3        6.600400   1.000000
    4        6.600413   1.000000
    5       10.941082   0.000000
    6       15.807593   0.000000
    7       15.889774   0.000000
    8       17.224648   0.000000
 
  0.1875000E+00  0.1875000E+00  0.1875000E+00  0.1562500E-01
    1        0.127653   1.000000
    2        2.965705   1.000000
    3        6.778859   1.000000
    4        6.817899   1.000000
    5       10.873607   0.000000
    6       12.671078   0.000000
    7       13.916650   0.000000
    8       14.482808   0.000000
 
  0.3125000E+00  0.1875000E+00  0.1875000E+00  0.1562500E-01
    1        2.839273   1.000000
    2        3.322236   1.000000
    3        4.361985   1.000000
    4        4.733312   1.000000
    5       12.028585   0.000000
    6       13.880500   0.000000
    7       14.126434   0.000000
    8       14.418270   0.000000
 
 -0.1875000E+00  0.1875000E+00  0.1875000E+00  0.7812500E-02
    1       -3.781312   1.000000
    2        2.755293   1.000000
    3        4.351353   1.000000
    4       10.675502   0.000000
    5       11.104983   0.000000
    6       14.134497   0.000000
    7       17.805471   0.000000
    8       18.063350   0.000000
 
  0.3125000E+00  0.3125000E+00  0.1875000E+00  0.7812500E-02
    1        1.382391   1.000000
    2        1.382392   1.000000
    3        6.646412   1.000000
    4        6.646422   1.000000
    5       12.089958   0.000000
    6       12.089960   0.000000
    7       13.902164   0.000000
    8       13.902181   0.000000
 
 -0.3125000E+00  0.3125000E+00  0.1875000E+00  0.1562500E-01
    1       -3.044999   1.000000
    2        1.195292   1.000000
    3        4.529889   1.000000
    4        8.636982   0.999220
    5       12.533723   0.000000
    6       16.464534   0.000000
    7       16.636486   0.000000
    8       18.328352   0.000000
 
 -0.1875000E+00  0.3125000E+00  0.1875000E+00  0.1562500E-01
    1       -2.792020   1.000000
    2        2.269638   1.000000
    3        3.956452   1.000000
    4        8.856159   0.946682
    5       12.355353   0.000000
    6       14.357889   0.000000
    7       16.348271   0.000000
    8       17.801997   0.000000
 
 -0.4375000E+00  0.4375000E+00  0.1875000E+00  0.1562500E-01
    1       -1.951134   1.000000
    2       -0.518313   1.000000
    3        5.514095   1.000000
    4        6.903499   1.000000
    5       13.730116   0.000000
    6       15.035915   0.000000
    7       17.931575   0.000000
    8       18.046114   0.000000
 
 -0.3125000E+00  0.4375000E+00  0.1875000E+00  0.3125000E-01
    1       -1.883521   1.000000
    2        0.897915   1.000000
    3        4.271715   1.000000
    4        6.974239   1.000000
    5       12.381041   0.000000
    6       15.389933   0.000000
    7       17.781601   0.000000
    8       18.023937   0.000000
 
 -0.1875000E+00  0.4375000E+00  0.1875000E+00  0.1562500E-01
    1       -0.947741   1.000000
    2        2.633246   1.000000
    3        4.349711   1.000000
    4        7.732073   1.000000
    5        8.420761   0.999999
    6       14.658048   0.000000
    7       16.295871   0.000000
    8       16.613067   0.000000
 
 -0.4375000E+00 -0.4375000E+00  0.1875000E+00  0.1562500E-01
    1       -0.636285   1.000000
    2       -0.631139   1.000000
    3        5.420938   1.000000
    4        5.421040   1.000000
    5       12.294716   0.000000
    6       16.272914   0.000000
    7       17.023509   0.000000
    8       17.841144   0.000000
 
 -0.3125000E+00 -0.4375000E+00  0.1875000E+00  0.3125000E-01
    1        0.112674   1.000000
    2        1.454539   1.000000
    3        4.815551   1.000000
    4        6.109533   1.000000
    5        8.032141   1.000000
    6       14.937145   0.000000
    7       17.476282   0.000000
    8       18.147667   0.000000
 
 -0.1875000E+00 -0.4375000E+00  0.1875000E+00  0.1562500E-01
    1        1.692009   1.000000
    2        3.688307   1.000000
    3        4.483873   1.000000
    4        5.525679   1.000000
    5        7.571156   1.000000
    6       12.342652   0.000000
    7       13.824007   0.000000
    8       17.160588   0.000000
 
 -0.3125000E+00 -0.3125000E+00  0.1875000E+00  0.1562500E-01
    1        2.743136   1.000000
    2        2.876454   1.000000
    3        4.215363   1.000000
    4        6.133602   1.000000
    5        6.201551   1.000000
    6       12.621626   0.000000
    7       15.118574   0.000000
    8       15.835665   0.000000
 
 -0.1875000E+00 -0.3125000E+00  0.1875000E+00  0.1562500E-01
    1        0.945849   1.000000
    2        5.111065   1.000000
    3        5.908837   1.000000
    4        7.333781   1.000000
    5        7.982793   1.000000
    6       10.873662   0.000000
    7       11.944639   0.000000
    8       13.336904   0.000000
 
 -0.1875000E+00 -0.1875000E+00  0.1875000E+00  0.3906250E-02
    1       -1.510122   1.000000
    2        8.116265   1.000000
    3        8.436031   0.999998
    4        8.436042   0.999998
    5        8.728722   0.994042
    6        9.992554   0.000000
    7       11.855598   0.000000
    8       11.855618   0.000000
 
 -0.3125000E+00  0.3125000E+00  0.3125000E+00  0.7812500E-02
    1       -2.319736   1.000000
    2        1.288748   1.000000
    3        3.049743   1.000000
    4        6.581031   1.000000
    5       14.725435   0.000000
    6       16.950302   0.000000
    7       18.055615   0.000000
    8       18.280242   0.000000
 
 -0.4375000E+00  0.4375000E+00  0.3125000E+00  0.1562500E-01
    1       -1.251237   1.000000
    2        0.100756   1.000000
    3        3.519692   1.000000
    4        4.848031   1.000000
    5       15.891345   0.000000
    6       16.495212   0.000000
    7       18.220180   0.000000
    8       18.914622   0.000000
 
 -0.3125000E+00  0.4375000E+00  0.3125000E+00  0.1562500E-01
    1       -1.000903   1.000000
    2        1.166604   1.000000
    3        2.955108   1.000000
    4        5.082638   1.000000
    5       12.054607   0.000000
    6       17.746519   0.000000
    7       19.138019   0.000000
    8       19.682157   0.000000
 
 -0.4375000E+00 -0.4375000E+00  0.3125000E+00  0.1562500E-01
    1        0.162267   1.000000
    2        0.170957   1.000000
    3        3.589093   1.000000
    4        3.591741   1.000000
    5       11.917074   0.000000
    6       19.043453   0.000000
    7       19.401301   0.000000
    8       19.741646   0.000000
 
 -0.3125000E+00 -0.4375000E+00  0.3125000E+00  0.1562500E-01
    1        1.090621   1.000000
    2        1.902998   1.000000
    3        3.681224   1.000000
    4        4.478589   1.000000
    5        7.687604   1.000000
    6       16.493259   0.000000
    7       17.914715   0.000000
    8       18.806947   0.000000
 
 -0.3125000E+00 -0.3125000E+00  0.3125000E+00  0.3906250E-02
    1        3.191976   1.000000
    2        3.510351   1.000000
    3        4.256647   1.000000
    4        5.203023   1.000000
    5        5.203024   1.000000
    6       14.193950   0.000000
    7       14.940669   0.000000
    8       14.940689   0.000000
 
 -0.4375000E+00  0.4375000E+00  0.4375000E+00  0.7812500E-02
    1       -0.267057   1.000000
    2        0.547786   1.000000
    3        2.370683   1.000000
    4        3.175908   1.000000
    5       16.322804   0.000000
    6       16.423516   0.000000
    7       19.949241   0.000000
    8       20.734960   0.000000
 
 -0.4375000E+00 -0.4375000E+00  0.4375000E+00  0.3906250E-02
    1        0.790102   1.000000
    2        0.802751   1.000000
    3        2.614179   1.000000
    4        2.614179   1.000000
    5       11.771699   0.000000
    6       20.136555   0.000000
    7       20.891393   0.000000
    8       20.899606   0.000000
