       N       E                     dE             d eps       ncg     rms          rms(c)
DAV:   1    -0.351919500485E+01   -0.35192E+01   -0.20429E+03   912   0.382E+02
DAV:   2    -0.101198982473E+02   -0.66007E+01   -0.62924E+01  1408   0.468E+01
DAV:   3    -0.101641502018E+02   -0.44252E-01   -0.44211E-01  1024   0.472E+00
DAV:   4    -0.101642068302E+02   -0.56628E-04   -0.56629E-04  1464   0.172E-01
DAV:   5    -0.101642068418E+02   -0.11535E-07   -0.11392E-07   984   0.158E-03    0.149E+00
DAV:   6    -0.101577235532E+02    0.64833E-02   -0.18619E-03  1096   0.308E-01    0.929E-01
DAV:   7    -0.101527274032E+02    0.49961E-02   -0.54367E-03  1000   0.544E-01    0.342E-02
DAV:   8    -0.101527093132E+02    0.18090E-04   -0.79067E-05   528   0.672E-02
   1 F= -.10152709E+02 E0= -.10141782E+02  d E =-.101527E+02
