 running on    8 total cores
 distrk:  each k-point on    8 cores,    1 groups
 distr:  one band on    1 cores,    8 groups
 using from now: INCAR     
 vasp.5.4.4.18Apr17-6-g9f103f2a35 (build Dec 09 2018 21:25:21) complex          
  
 POSCAR found type information on POSCAR  Si
 POSCAR found :  1 types and       2 ions
 scaLAPACK will be used

 ----------------------------------------------------------------------------- 
|                                                                             |
|           W    W    AA    RRRRR   N    N  II  N    N   GGGG   !!!           |
|           W    W   A  A   R    R  NN   N  II  NN   N  G    G  !!!           |
|           W    W  A    A  R    R  N N  N  II  N N  N  G       !!!           |
|           W WW W  AAAAAA  RRRRR   N  N N  II  N  N N  G  GGG   !            |
|           WW  WW  A    A  R   R   N   NN  II  N   NN  G    G                |
|           W    W  A    A  R    R  N    N  II  N    N   GGGG   !!!           |
|                                                                             |
|      For optimal performance we recommend to set                            |
|        NCORE= 4 - approx SQRT( number of cores)                             |
|      NCORE specifies how many cores store one orbital (NPAR=cpu/NCORE).     |
|      This setting can  greatly improve the performance of VASP for DFT.     |
|      The default,   NCORE=1            might be grossly inefficient         |
|      on modern multi-core architectures or massively parallel machines.     |
|      Do your own testing !!!!                                               |
|      Unfortunately you need to use the default for GW and RPA calculations. |
|      (for HF NCORE is supported but not extensively tested yet)             |
|                                                                             |
 ----------------------------------------------------------------------------- 

 LDA part: xc-table for Pade appr. of Perdew
 POSCAR, INCAR and KPOINTS ok, starting setup
 FFT: planning ...
 WAVECAR not read
 WARNING: random wavefunctions but no delay for mixing, default for NELMDL
 entering main loop
       N       E                     dE             d eps       ncg     rms          rms(c)
DAV:   1    -0.351919500485E+01   -0.35192E+01   -0.20429E+03   912   0.382E+02
DAV:   2    -0.101198982473E+02   -0.66007E+01   -0.62924E+01  1408   0.468E+01
DAV:   3    -0.101641502018E+02   -0.44252E-01   -0.44211E-01  1024   0.472E+00
DAV:   4    -0.101642068302E+02   -0.56628E-04   -0.56629E-04  1464   0.172E-01
DAV:   5    -0.101642068418E+02   -0.11535E-07   -0.11392E-07   984   0.158E-03    0.149E+00
DAV:   6    -0.101577235532E+02    0.64833E-02   -0.18619E-03  1096   0.308E-01    0.929E-01
DAV:   7    -0.101527274032E+02    0.49961E-02   -0.54367E-03  1000   0.544E-01    0.342E-02
DAV:   8    -0.101527093132E+02    0.18090E-04   -0.79067E-05   528   0.672E-02
   1 F= -.10152709E+02 E0= -.10141782E+02  d E =-.101527E+02
 curvature:   0.00 expect dE= 0.000E+00 dE for cont linesearch  0.000E+00
 trial: gam= 0.00000 g(F)=  0.322E-46 g(S)=  0.000E+00 ort = 0.000E+00 (trialstep = 0.100E+01)
 search vector abs. value=  0.100E-09
 reached required accuracy - stopping structural energy minimisation
 writing wavefunctions
