<?xml version="1.0" encoding="ISO-8859-1"?>
<modeling>
 <generator>
  <i name="program" type="string">vasp </i>
  <i name="version" type="string">5.4.4.18Apr17-6-g9f103f2a35  </i>
  <i name="subversion" type="string">(build Dec 09 2018 21:25:21) complex            parallel </i>
  <i name="platform" type="string">IFC18.0.1.163_CrayMPICH7.7.0_MKL18.0.1.163 </i>
  <i name="date" type="string">2019 03 19 </i>
  <i name="time" type="string">13:09:43 </i>
 </generator>
 <incar>
  <i type="string" name="PREC">normal</i>
  <i type="int" name="IBRION">     2</i>
  <i name="EDIFF">      0.00040000</i>
  <i name="EDIFFG">     -0.01000000</i>
  <i type="int" name="NSW">    15</i>
  <i type="int" name="ISIF">     2</i>
  <i name="ENCUT">    200.00000000</i>
  <i type="int" name="NBANDS">     8</i>
  <i type="logical" name="LREAL"> F  </i>
  <i type="int" name="ISMEAR">     0</i>
  <i name="SIGMA">      0.20000000</i>
  <v type="int" name="KPOINT_BSE">    -1     0     0     0</v>
 </incar>
 <structure name="primitive_cell" >
  <crystal>
   <varray name="basis" >
    <v>      -2.45000000       2.45000000       1.27400000 </v>
    <v>       2.45000000      -2.45000000       1.27400000 </v>
    <v>       2.45000000       2.45000000      -1.27400000 </v>
   </varray>
   <i name="volume">     30.58874000 </i>
   <varray name="rec_basis" >
    <v>       0.00000000       0.20408163       0.39246468 </v>
    <v>       0.20408163       0.00000000       0.39246468 </v>
    <v>       0.20408163       0.20408163      -0.00000000 </v>
   </varray>
  </crystal>
  <varray name="positions" >
   <v>       0.25000000      -0.25000000      -0.50000000 </v>
   <v>       0.00000000       0.00000000       0.00000000 </v>
  </varray>
 </structure>
 <varray name="primitive_index" >
  <v type="int" >        1 </v>
  <v type="int" >        2 </v>
 </varray>
 <kpoints>
  <generation param="Monkhorst-Pack">
   <v type="int" name="divisions">       8        8        8 </v>
   <v name="usershift">      0.00000000       0.00000000       0.00000000 </v>
   <v name="genvec1">      0.12500000       0.00000000      -0.00000000 </v>
   <v name="genvec2">      0.00000000       0.12500000      -0.00000000 </v>
   <v name="genvec3">      0.00000000      -0.00000000       0.12500000 </v>
   <v name="shift">      0.50000000       0.50000000       0.50000000 </v>
  </generation>
  <varray name="kpointlist" >
   <v>       0.06250000       0.06250000       0.06250000 </v>
   <v>       0.18750000       0.06250000       0.06250000 </v>
   <v>       0.31250000       0.06250000       0.06250000 </v>
   <v>       0.43750000       0.06250000       0.06250000 </v>
   <v>      -0.06250000       0.06250000       0.06250000 </v>
   <v>       0.18750000       0.18750000       0.06250000 </v>
   <v>       0.31250000       0.18750000       0.06250000 </v>
   <v>       0.43750000       0.18750000       0.06250000 </v>
   <v>      -0.43750000       0.18750000       0.06250000 </v>
   <v>      -0.31250000       0.18750000       0.06250000 </v>
   <v>      -0.18750000       0.18750000       0.06250000 </v>
   <v>      -0.06250000       0.18750000       0.06250000 </v>
   <v>       0.31250000       0.31250000       0.06250000 </v>
   <v>       0.43750000       0.31250000       0.06250000 </v>
   <v>      -0.43750000       0.31250000       0.06250000 </v>
   <v>      -0.31250000       0.31250000       0.06250000 </v>
   <v>      -0.18750000       0.31250000       0.06250000 </v>
   <v>      -0.06250000       0.31250000       0.06250000 </v>
   <v>       0.43750000       0.43750000       0.06250000 </v>
   <v>      -0.43750000       0.43750000       0.06250000 </v>
   <v>      -0.31250000       0.43750000       0.06250000 </v>
   <v>      -0.18750000       0.43750000       0.06250000 </v>
   <v>      -0.06250000       0.43750000       0.06250000 </v>
   <v>      -0.43750000      -0.43750000       0.06250000 </v>
   <v>      -0.31250000      -0.43750000       0.06250000 </v>
   <v>      -0.18750000      -0.43750000       0.06250000 </v>
   <v>      -0.06250000      -0.43750000       0.06250000 </v>
   <v>      -0.31250000      -0.31250000       0.06250000 </v>
   <v>      -0.18750000      -0.31250000       0.06250000 </v>
   <v>      -0.06250000      -0.31250000       0.06250000 </v>
   <v>      -0.18750000      -0.18750000       0.06250000 </v>
   <v>      -0.06250000      -0.18750000       0.06250000 </v>
   <v>      -0.06250000      -0.06250000       0.06250000 </v>
   <v>       0.18750000       0.18750000       0.18750000 </v>
   <v>       0.31250000       0.18750000       0.18750000 </v>
   <v>      -0.18750000       0.18750000       0.18750000 </v>
   <v>       0.31250000       0.31250000       0.18750000 </v>
   <v>      -0.31250000       0.31250000       0.18750000 </v>
   <v>      -0.18750000       0.31250000       0.18750000 </v>
   <v>      -0.43750000       0.43750000       0.18750000 </v>
   <v>      -0.31250000       0.43750000       0.18750000 </v>
   <v>      -0.18750000       0.43750000       0.18750000 </v>
   <v>      -0.43750000      -0.43750000       0.18750000 </v>
   <v>      -0.31250000      -0.43750000       0.18750000 </v>
   <v>      -0.18750000      -0.43750000       0.18750000 </v>
   <v>      -0.31250000      -0.31250000       0.18750000 </v>
   <v>      -0.18750000      -0.31250000       0.18750000 </v>
   <v>      -0.18750000      -0.18750000       0.18750000 </v>
   <v>      -0.31250000       0.31250000       0.31250000 </v>
   <v>      -0.43750000       0.43750000       0.31250000 </v>
   <v>      -0.31250000       0.43750000       0.31250000 </v>
   <v>      -0.43750000      -0.43750000       0.31250000 </v>
   <v>      -0.31250000      -0.43750000       0.31250000 </v>
   <v>      -0.31250000      -0.31250000       0.31250000 </v>
   <v>      -0.43750000       0.43750000       0.43750000 </v>
   <v>      -0.43750000      -0.43750000       0.43750000 </v>
  </varray>
  <varray name="weights" >
   <v>       0.01562500 </v>
   <v>       0.03125000 </v>
   <v>       0.03125000 </v>
   <v>       0.01562500 </v>
   <v>       0.00781250 </v>
   <v>       0.01562500 </v>
   <v>       0.03125000 </v>
   <v>       0.03125000 </v>
   <v>       0.03125000 </v>
   <v>       0.01562500 </v>
   <v>       0.01562500 </v>
   <v>       0.01562500 </v>
   <v>       0.01562500 </v>
   <v>       0.03125000 </v>
   <v>       0.01562500 </v>
   <v>       0.01562500 </v>
   <v>       0.03125000 </v>
   <v>       0.01562500 </v>
   <v>       0.00781250 </v>
   <v>       0.01562500 </v>
   <v>       0.03125000 </v>
   <v>       0.03125000 </v>
   <v>       0.01562500 </v>
   <v>       0.01562500 </v>
   <v>       0.03125000 </v>
   <v>       0.03125000 </v>
   <v>       0.01562500 </v>
   <v>       0.01562500 </v>
   <v>       0.03125000 </v>
   <v>       0.01562500 </v>
   <v>       0.01562500 </v>
   <v>       0.01562500 </v>
   <v>       0.00390625 </v>
   <v>       0.01562500 </v>
   <v>       0.01562500 </v>
   <v>       0.00781250 </v>
   <v>       0.00781250 </v>
   <v>       0.01562500 </v>
   <v>       0.01562500 </v>
   <v>       0.01562500 </v>
   <v>       0.03125000 </v>
   <v>       0.01562500 </v>
   <v>       0.01562500 </v>
   <v>       0.03125000 </v>
   <v>       0.01562500 </v>
   <v>       0.01562500 </v>
   <v>       0.01562500 </v>
   <v>       0.00390625 </v>
   <v>       0.00781250 </v>
   <v>       0.01562500 </v>
   <v>       0.01562500 </v>
   <v>       0.01562500 </v>
   <v>       0.01562500 </v>
   <v>       0.00390625 </v>
   <v>       0.00781250 </v>
   <v>       0.00390625 </v>
  </varray>
 </kpoints>
 <parameters>
  <separator name="general" >
   <i type="string" name="SYSTEM">unknown system</i>
   <i type="logical" name="LCOMPAT"> F  </i>
  </separator>
  <separator name="electronic" >
   <i type="string" name="PREC">normal</i>
   <i name="ENMAX">    200.00000000</i>
   <i name="ENAUG">    322.06900000</i>
   <i name="EDIFF">      0.00040000</i>
   <i type="int" name="IALGO">    38</i>
   <i type="int" name="IWAVPR">    11</i>
   <i type="int" name="NBANDS">     8</i>
   <i name="NELECT">      8.00000000</i>
   <i type="int" name="TURBO">     0</i>
   <i type="int" name="IRESTART">     0</i>
   <i type="int" name="NREBOOT">     0</i>
   <i type="int" name="NMIN">     0</i>
   <i name="EREF">      0.00000000</i>
   <separator name="electronic smearing" >
    <i type="int" name="ISMEAR">     0</i>
    <i name="SIGMA">      0.20000000</i>
    <i name="KSPACING">      0.50000000</i>
    <i type="logical" name="KGAMMA"> T  </i>
   </separator>
   <separator name="electronic projectors" >
    <i type="logical" name="LREAL"> F  </i>
    <v name="ROPT">      0.00000000</v>
    <i type="int" name="LMAXPAW">  -100</i>
    <i type="int" name="LMAXMIX">     2</i>
    <i type="logical" name="NLSPLINE"> F  </i>
   </separator>
   <separator name="electronic startup" >
    <i type="int" name="ISTART">     1</i>
    <i type="int" name="ICHARG">     0</i>
    <i type="int" name="INIWAV">     1</i>
   </separator>
   <separator name="electronic spin" >
    <i type="int" name="ISPIN">     1</i>
    <i type="logical" name="LNONCOLLINEAR"> F  </i>
    <v name="MAGMOM">      1.00000000      1.00000000</v>
    <i name="NUPDOWN">     -1.00000000</i>
    <i type="logical" name="LSORBIT"> F  </i>
    <v name="SAXIS">      0.00000000      0.00000000      1.00000000</v>
    <i type="logical" name="LSPIRAL"> F  </i>
    <v name="QSPIRAL">      0.00000000      0.00000000      0.00000000</v>
    <i type="logical" name="LZEROZ"> F  </i>
   </separator>
   <separator name="electronic exchange-correlation" >
    <i type="logical" name="LASPH"> F  </i>
    <i type="logical" name="LMETAGGA"> F  </i>
   </separator>
   <separator name="electronic convergence" >
    <i type="int" name="NELM">    60</i>
    <i type="int" name="NELMDL">     0</i>
    <i type="int" name="NELMIN">     2</i>
    <i name="ENINI">    200.00000000</i>
    <separator name="electronic convergence detail" >
     <i type="logical" name="LDIAG"> T  </i>
     <i type="logical" name="LSUBROT"> F  </i>
     <i name="WEIMIN">      0.00100000</i>
     <i name="EBREAK">      0.00001250</i>
     <i name="DEPER">      0.30000000</i>
     <i type="int" name="NRMM">     4</i>
     <i name="TIME">      0.40000000</i>
    </separator>
   </separator>
   <separator name="electronic mixer" >
    <i name="AMIX">      0.40000000</i>
    <i name="BMIX">      1.00000000</i>
    <i name="AMIN">      0.10000000</i>
    <i name="AMIX_MAG">      1.60000000</i>
    <i name="BMIX_MAG">      1.00000000</i>
    <separator name="electronic mixer details" >
     <i type="int" name="IMIX">     4</i>
     <i type="logical" name="MIXFIRST"> F  </i>
     <i type="int" name="MAXMIX">   -45</i>
     <i name="WC">    100.00000000</i>
     <i type="int" name="INIMIX">     1</i>
     <i type="int" name="MIXPRE">     1</i>
     <i type="int" name="MREMOVE">     5</i>
    </separator>
   </separator>
   <separator name="electronic dipolcorrection" >
    <i type="logical" name="LDIPOL"> F  </i>
    <i type="logical" name="LMONO"> F  </i>
    <i type="int" name="IDIPOL">     0</i>
    <i name="EPSILON">      1.00000000</i>
    <v name="DIPOL">   -100.00000000   -100.00000000   -100.00000000</v>
    <i name="EFIELD">      0.00000000</i>
   </separator>
  </separator>
  <separator name="grids" >
   <i type="int" name="NGX">    14</i>
   <i type="int" name="NGY">    14</i>
   <i type="int" name="NGZ">    14</i>
   <i type="int" name="NGXF">    28</i>
   <i type="int" name="NGYF">    28</i>
   <i type="int" name="NGZF">    28</i>
   <i type="logical" name="ADDGRID"> F  </i>
  </separator>
  <separator name="ionic" >
   <i type="int" name="NSW">    15</i>
   <i type="int" name="IBRION">     2</i>
   <i type="int" name="MDALGO">     0</i>
   <i type="int" name="ISIF">     2</i>
   <i name="PSTRESS">      0.00000000</i>
   <i name="EDIFFG">     -0.01000000</i>
   <i type="int" name="NFREE">     1</i>
   <i name="POTIM">      0.50000000</i>
   <i name="SMASS">     -3.00000000</i>
   <i name="SCALEE">      1.00000000</i>
  </separator>
  <separator name="ionic md" >
   <i name="TEBEG">      0.00010000</i>
   <i name="TEEND">      0.00010000</i>
   <i type="int" name="NBLOCK">     1</i>
   <i type="int" name="KBLOCK">    15</i>
   <i type="int" name="NPACO">   256</i>
   <i name="APACO">     16.00000000</i>
  </separator>
  <separator name="symmetry" >
   <i type="int" name="ISYM">     2</i>
   <i name="SYMPREC">      0.00001000</i>
  </separator>
  <separator name="dos" >
   <i type="int" name="LORBIT">     0</i>
   <v name="RWIGS">     -1.00000000</v>
   <i type="int" name="NEDOS">   301</i>
   <i name="EMIN">     10.00000000</i>
   <i name="EMAX">    -10.00000000</i>
   <i name="EFERMI">      0.00000000</i>
  </separator>
  <separator name="writing" >
   <i type="int" name="NWRITE">     2</i>
   <i type="logical" name="LWAVE"> T  </i>
   <i type="logical" name="LDOWNSAMPLE"> F  </i>
   <i type="logical" name="LCHARG"> T  </i>
   <i type="logical" name="LPARD"> F  </i>
   <i type="logical" name="LVTOT"> F  </i>
   <i type="logical" name="LVHAR"> F  </i>
   <i type="logical" name="LELF"> F  </i>
   <i type="logical" name="LOPTICS"> F  </i>
   <v name="STM">      0.00000000      0.00000000      0.00000000      0.00000000      0.00000000      0.00000000      0.00000000</v>
  </separator>
  <separator name="performance" >
   <i type="int" name="NPAR">     8</i>
   <i type="int" name="NSIM">     4</i>
   <i type="int" name="NBLK">    -1</i>
   <i type="logical" name="LPLANE"> T  </i>
   <i type="logical" name="LSCALAPACK"> T  </i>
   <i type="logical" name="LSCAAWARE"> F  </i>
   <i type="logical" name="LSCALU"> F  </i>
   <i type="logical" name="LASYNC"> F  </i>
   <i type="logical" name="LORBITALREAL"> F  </i>
  </separator>
  <separator name="miscellaneous" >
   <i type="int" name="IDIOT">     3</i>
   <i type="int" name="ISPECIAL">     0</i>
   <i type="logical" name="LMUSIC"> F  </i>
   <v name="POMASS">     28.08500000</v>
   <v name="DARWINR">      0.00000000</v>
   <v name="DARWINV">      1.00000000</v>
   <i type="logical" name="LCORR"> T  </i>
  </separator>
  <i type="logical" name="GGA_COMPAT"> T  </i>
  <i type="logical" name="LBERRY"> F  </i>
  <i type="int" name="ICORELEVEL">     0</i>
  <i type="logical" name="LDAU"> F  </i>
  <i type="int" name="I_CONSTRAINED_M">     0</i>
  <separator name="electronic exchange-correlation" >
   <i type="string" name="GGA">--</i>
   <i type="int" name="VOSKOWN">     0</i>
   <i type="logical" name="LHFCALC"> F  </i>
   <i type="string" name="PRECFOCK"></i>
   <i type="logical" name="LSYMGRAD"> F  </i>
   <i type="logical" name="LHFONE"> F  </i>
   <i type="logical" name="LRHFCALC"> F  </i>
   <i type="logical" name="LTHOMAS"> F  </i>
   <i type="logical" name="LMODELHF"> F  </i>
   <i name="ENCUT4O">     -1.00000000</i>
   <i type="int" name="EXXOEP">     0</i>
   <i type="int" name="FOURORBIT">     0</i>
   <i name="AEXX">      0.00000000</i>
   <i name="HFALPHA">      0.00000000</i>
   <i name="MCALPHA">      0.00000000</i>
   <i name="ALDAX">      1.00000000</i>
   <i name="AGGAX">      1.00000000</i>
   <i name="ALDAC">      1.00000000</i>
   <i name="AGGAC">      1.00000000</i>
   <i type="int" name="NKREDX">     1</i>
   <i type="int" name="NKREDY">     1</i>
   <i type="int" name="NKREDZ">     1</i>
   <i type="logical" name="SHIFTRED"> F  </i>
   <i type="logical" name="ODDONLY"> F  </i>
   <i type="logical" name="EVENONLY"> F  </i>
   <i type="int" name="LMAXFOCK">     0</i>
   <i type="int" name="NMAXFOCKAE">     0</i>
   <i type="logical" name="LFOCKAEDFT"> F  </i>
   <i name="HFSCREEN">      0.00000000</i>
   <i name="HFSCREENC">      0.00000000</i>
   <i type="int" name="NBANDSGWLOW">     0</i>
  </separator>
  <separator name="vdW DFT" >
   <i type="logical" name="LUSE_VDW"> F  </i>
   <i name="Zab_VDW">     -0.84910000</i>
   <i name="PARAM1">      0.12340000</i>
   <i name="PARAM2">      1.00000000</i>
   <i name="PARAM3">      0.00000000</i>
  </separator>
  <separator name="model GW" >
   <i type="int" name="MODEL_GW">     0</i>
   <i name="MODEL_EPS0">      9.17662200</i>
   <i name="MODEL_ALPHA">      1.00000000</i>
  </separator>
  <separator name="linear response parameters" >
   <i type="logical" name="LEPSILON"> F  </i>
   <i type="logical" name="LRPA"> F  </i>
   <i type="logical" name="LNABLA"> F  </i>
   <i type="logical" name="LVEL"> F  </i>
   <i type="int" name="KINTER">     0</i>
   <i name="CSHIFT">      0.10000000</i>
   <i name="OMEGAMAX">     -1.00000000</i>
   <i name="DEG_THRESHOLD">      0.00200000</i>
   <i name="RTIME">     -0.10000000</i>
   <i name="WPLASMAI">      0.00000000</i>
   <v name="DFIELD">      0.00000000      0.00000000      0.00000000</v>
   <v name="WPLASMA">      0.00000000      0.00000000      0.00000000      0.00000000      0.00000000      0.00000000      0.00000000      0.00000000      0.00000000</v>
  </separator>
  <separator name="orbital magnetization" >
   <i type="logical" name="NUCIND"> F  </i>
   <v name="MAGPOS">      0.00000000      0.00000000      0.00000000</v>
   <i type="logical" name="LNICSALL"> T  </i>
   <i type="logical" name="ORBITALMAG"> F  </i>
   <i type="logical" name="LMAGBLOCH"> F  </i>
   <i type="logical" name="LCHIMAG"> F  </i>
   <i type="logical" name="LGAUGE"> T  </i>
   <i type="int" name="MAGATOM">     0</i>
   <v name="MAGDIPOL">      0.00000000      0.00000000      0.00000000</v>
   <v name="AVECCONST">      0.00000000      0.00000000      0.00000000</v>
  </separator>
  <separator name="response functions" >
   <i type="logical" name="LADDER"> F  </i>
   <i type="logical" name="LRPAFORCE"> F  </i>
   <i type="logical" name="LFXC"> F  </i>
   <i type="logical" name="LHARTREE"> T  </i>
   <i type="int" name="IBSE">     0</i>
   <v type="int" name="KPOINT">    -1     0     0     0</v>
   <i type="logical" name="LTCTE"> F  </i>
   <i type="logical" name="LTETE"> F  </i>
   <i type="logical" name="LTRIPLET"> F  </i>
   <i type="logical" name="LFXCEPS"> F  </i>
   <i type="logical" name="LFXHEG"> F  </i>
   <i type="int" name="NATURALO">     2</i>
   <i type="logical" name="L2ORDER"> F  </i>
   <i type="logical" name="LMP2LT"> F  </i>
   <i type="logical" name="LUSEW"> F  </i>
   <i name="ENCUTGW">     -2.00000000</i>
   <i name="ENCUTGWSOFT">     -2.00000000</i>
   <i name="ENCUTLF">     -1.00000000</i>
   <i type="int" name="LMAXMP2">    -1</i>
   <i name="SCISSOR">      0.00000000</i>
   <i type="int" name="NOMEGA">     0</i>
   <i type="int" name="NOMEGAR">     0</i>
   <i type="int" name="NBANDSGW">    -1</i>
   <i type="int" name="NBANDSO">    -1</i>
   <i type="int" name="NBANDSV">    -1</i>
   <i type="int" name="NELM">     1</i>
   <i type="int" name="NELMHF">     1</i>
   <i type="int" name="DIM">     3</i>
   <i type="int" name="ANTIRES">     0</i>
   <i name="OMEGAMAX">    -30.00000000</i>
   <i name="OMEGAMIN">    -30.00000000</i>
   <i name="OMEGATL">   -200.00000000</i>
   <i type="int" name="OMEGAGRID">   140</i>
   <i name="CSHIFT">     -0.10000000</i>
   <i type="logical" name="SELFENERGY"> F  </i>
   <i type="logical" name="LSPECTRAL"> F  </i>
   <i type="logical" name="LSPECTRALGW"> F  </i>
   <i type="logical" name="LSINGLES"> F  </i>
   <i type="logical" name="LFERMIGW"> F  </i>
   <i type="logical" name="ODDONLYGW"> F  </i>
   <i type="logical" name="EVENONLYGW"> F  </i>
   <i type="int" name="NKREDLFX">     1</i>
   <i type="int" name="NKREDLFY">     1</i>
   <i type="int" name="NKREDLFZ">     1</i>
   <i type="int" name="MAXMEM">  2800</i>
   <i type="int" name="TELESCOPE">     0</i>
   <i type="int" name="TAUPAR">     1</i>
   <i type="int" name="OMEGAPAR">    -1</i>
   <i name="LAMBDA">      1.00000000</i>
  </separator>
  <separator name="External order field" >
   <i name="OFIELD_KAPPA">      0.00000000</i>
   <v name="OFIELD_K">      0.00000000      0.00000000      0.00000000</v>
   <i name="OFIELD_Q6_NEAR">      0.00000000</i>
   <i name="OFIELD_Q6_FAR">      0.00000000</i>
   <i name="OFIELD_A">      0.00000000</i>
  </separator>
 </parameters>
 <atominfo>
  <atoms>       2 </atoms>
  <types>       1 </types>
  <array name="atoms" >
   <dimension dim="1">ion</dimension>
   <field type="string">element</field>
   <field type="int">atomtype</field>
   <set>
    <rc><c>Si</c><c>   1</c></rc>
    <rc><c>Si</c><c>   1</c></rc>
   </set>
  </array>
  <array name="atomtypes" >
   <dimension dim="1">type</dimension>
   <field type="int">atomspertype</field>
   <field type="string">element</field>
   <field>mass</field>
   <field>valence</field>
   <field type="string">pseudopotential</field>
   <set>
    <rc><c>   2</c><c>Si</c><c>     28.08500000</c><c>      4.00000000</c><c> PAW_PBE Si 05Jan2001                   </c></rc>
   </set>
  </array>
 </atominfo>
 <structure name="initialpos" >
  <crystal>
   <varray name="basis" >
    <v>      -2.45000000       2.45000000       1.27400000 </v>
    <v>       2.45000000      -2.45000000       1.27400000 </v>
    <v>       2.45000000       2.45000000      -1.27400000 </v>
   </varray>
   <i name="volume">     30.58874000 </i>
   <varray name="rec_basis" >
    <v>       0.00000000       0.20408163       0.39246468 </v>
    <v>       0.20408163       0.00000000       0.39246468 </v>
    <v>       0.20408163       0.20408163      -0.00000000 </v>
   </varray>
  </crystal>
  <varray name="positions" >
   <v>       0.25000000       0.75000000       0.50000000 </v>
   <v>       0.00000000       0.00000000       0.00000000 </v>
  </varray>
 </structure>
 <calculation>
  <scstep>
   <time name="dav">    0.30    0.32</time>
   <time name="total">    0.36    0.41</time>
   <energy>
    <i name="alphaZ">      4.40202223 </i>
    <i name="ewald">   -265.18101312 </i>
    <i name="hartreedc">     -2.48993131 </i>
    <i name="XCdc">    -17.56383548 </i>
    <i name="pawpsdc">     71.35783607 </i>
    <i name="pawaedc">    -36.27914196 </i>
    <i name="eentropy">     -0.02185641 </i>
    <i name="bandstr">     29.51073738 </i>
    <i name="atom">    206.11247263 </i>
    <i name="e_fr_energy">    -10.15270996 </i>
    <i name="e_wo_entrp">    -10.13085355 </i>
    <i name="e_0_energy">    -10.14178176 </i>
   </energy>
  </scstep>
  <scstep>
   <time name="dav">    0.28    0.28</time>
   <time name="total">    0.31    0.33</time>
   <energy>
    <i name="alphaZ">      4.40202223 </i>
    <i name="ewald">   -265.18101312 </i>
    <i name="hartreedc">     -2.49007424 </i>
    <i name="XCdc">    -17.56380103 </i>
    <i name="pawpsdc">     71.35817585 </i>
    <i name="pawaedc">    -36.27948264 </i>
    <i name="eentropy">     -0.02185647 </i>
    <i name="bandstr">     29.51084679 </i>
    <i name="atom">    206.11247263 </i>
    <i name="e_fr_energy">    -10.15270999 </i>
    <i name="e_wo_entrp">    -10.13085352 </i>
    <i name="e_0_energy">    -10.14178175 </i>
   </energy>
  </scstep>
  <structure>
   <crystal>
    <varray name="basis" >
     <v>      -2.45000000       2.45000000       1.27400000 </v>
     <v>       2.45000000      -2.45000000       1.27400000 </v>
     <v>       2.45000000       2.45000000      -1.27400000 </v>
    </varray>
    <i name="volume">     30.58874000 </i>
    <varray name="rec_basis" >
     <v>       0.00000000       0.20408163       0.39246468 </v>
     <v>       0.20408163       0.00000000       0.39246468 </v>
     <v>       0.20408163       0.20408163      -0.00000000 </v>
    </varray>
   </crystal>
   <varray name="positions" >
    <v>       0.25000000       0.75000000       0.50000000 </v>
    <v>       0.00000000       0.00000000       0.00000000 </v>
   </varray>
  </structure>
  <varray name="forces" >
   <v>      -0.00000000       0.00000000      -0.00000000 </v>
   <v>       0.00000000      -0.00000000       0.00000000 </v>
  </varray>
  <varray name="stress" >
   <v>     -31.00439797       0.00000000       0.00000000 </v>
   <v>      -0.00000000     -31.00439797       0.00000000 </v>
   <v>       0.00000000       0.00000000      70.34234032 </v>
  </varray>
  <energy>
   <i name="e_fr_energy">    -10.15270999 </i>
   <i name="e_wo_entrp">    -10.14178175 </i>
   <i name="e_0_energy">     -0.02185647 </i>
  </energy>
  <time name="totalsc">    1.52    2.39</time>
  <eigenvalues>
   <array>
    <dimension dim="1">band</dimension>
    <dimension dim="2">kpoint</dimension>
    <dimension dim="3">spin</dimension>
    <field>eigene</field>
    <field>occ</field>
    <set>
     <set comment="spin 1">
      <set comment="kpoint 1">
       <r>   -4.0817    1.0000 </r>
       <r>    4.4020    1.0000 </r>
       <r>    6.7723    1.0000 </r>
       <r>    8.0882    1.0000 </r>
       <r>   12.0397    0.0000 </r>
       <r>   14.5734    0.0000 </r>
       <r>   15.3886    0.0000 </r>
       <r>   16.5862    0.0000 </r>
      </set>
      <set comment="kpoint 2">
       <r>   -2.7660    1.0000 </r>
       <r>    4.2876    1.0000 </r>
       <r>    7.2172    1.0000 </r>
       <r>    9.6105    0.0001 </r>
       <r>   11.4050    0.0000 </r>
       <r>   11.8952    0.0000 </r>
       <r>   14.1973    0.0000 </r>
       <r>   14.7998    0.0000 </r>
      </set>
      <set comment="kpoint 3">
       <r>   -0.5977    1.0000 </r>
       <r>    4.9222    1.0000 </r>
       <r>    6.1909    1.0000 </r>
       <r>    7.7028    1.0000 </r>
       <r>    9.1992    0.2090 </r>
       <r>   12.4213    0.0000 </r>
       <r>   13.6593    0.0000 </r>
       <r>   13.9154    0.0000 </r>
      </set>
      <set comment="kpoint 4">
       <r>    2.1261    1.0000 </r>
       <r>    2.6740    1.0000 </r>
       <r>    6.3817    1.0000 </r>
       <r>    6.4272    1.0000 </r>
       <r>    9.1027    0.4493 </r>
       <r>   10.9994    0.0000 </r>
       <r>   13.5987    0.0000 </r>
       <r>   14.5749    0.0000 </r>
      </set>
      <set comment="kpoint 5">
       <r>   -4.5225    1.0000 </r>
       <r>    4.9208    1.0000 </r>
       <r>    5.9358    1.0000 </r>
       <r>    7.7342    1.0000 </r>
       <r>   11.1402    0.0000 </r>
       <r>   15.1099    0.0000 </r>
       <r>   17.4514    0.0000 </r>
       <r>   18.2111    0.0000 </r>
      </set>
      <set comment="kpoint 6">
       <r>   -0.7783    1.0000 </r>
       <r>    4.8347    1.0000 </r>
       <r>    7.2018    1.0000 </r>
       <r>    7.2739    1.0000 </r>
       <r>    9.9401    0.0000 </r>
       <r>   11.9067    0.0000 </r>
       <r>   13.6262    0.0000 </r>
       <r>   13.6589    0.0000 </r>
      </set>
      <set comment="kpoint 7">
       <r>    1.9891    1.0000 </r>
       <r>    3.4994    1.0000 </r>
       <r>    4.8388    1.0000 </r>
       <r>    6.1633    1.0000 </r>
       <r>   10.3917    0.0000 </r>
       <r>   12.0756    0.0000 </r>
       <r>   13.0235    0.0000 </r>
       <r>   15.0029    0.0000 </r>
      </set>
      <set comment="kpoint 8">
       <r>    0.3051    1.0000 </r>
       <r>    3.1192    1.0000 </r>
       <r>    5.6750    1.0000 </r>
       <r>    7.8577    1.0000 </r>
       <r>    9.4808    0.0025 </r>
       <r>   12.0613    0.0000 </r>
       <r>   14.1233    0.0000 </r>
       <r>   15.0886    0.0000 </r>
      </set>
      <set comment="kpoint 9">
       <r>   -2.0310    1.0000 </r>
       <r>    2.2678    1.0000 </r>
       <r>    7.8351    1.0000 </r>
       <r>    9.6404    0.0000 </r>
       <r>   11.1182    0.0000 </r>
       <r>   11.6724    0.0000 </r>
       <r>   13.0347    0.0000 </r>
       <r>   15.2918    0.0000 </r>
      </set>
      <set comment="kpoint 10">
       <r>   -3.5255    1.0000 </r>
       <r>    2.2292    1.0000 </r>
       <r>    7.2867    1.0000 </r>
       <r>    9.0348    0.6376 </r>
       <r>   12.6093    0.0000 </r>
       <r>   14.2420    0.0000 </r>
       <r>   14.5247    0.0000 </r>
       <r>   15.6285    0.0000 </r>
      </set>
      <set comment="kpoint 11">
       <r>   -4.1508    1.0000 </r>
       <r>    2.9765    1.0000 </r>
       <r>    6.0294    1.0000 </r>
       <r>    8.9891    0.7502 </r>
       <r>   12.8839    0.0000 </r>
       <r>   13.0491    0.0000 </r>
       <r>   15.9360    0.0000 </r>
       <r>   19.1621    0.0000 </r>
      </set>
      <set comment="kpoint 12">
       <r>   -3.8963    1.0000 </r>
       <r>    4.0823    1.0000 </r>
       <r>    5.4810    1.0000 </r>
       <r>    9.6054    0.0001 </r>
       <r>   12.7578    0.0000 </r>
       <r>   13.0579    0.0000 </r>
       <r>   14.9110    0.0000 </r>
       <r>   17.0092    0.0000 </r>
      </set>
      <set comment="kpoint 13">
       <r>    1.5420    1.0000 </r>
       <r>    1.5643    1.0000 </r>
       <r>    5.5045    1.0000 </r>
       <r>    7.8616    1.0000 </r>
       <r>   10.0826    0.0000 </r>
       <r>   11.0301    0.0000 </r>
       <r>   14.9992    0.0000 </r>
       <r>   16.0335    0.0000 </r>
      </set>
      <set comment="kpoint 14">
       <r>   -0.9359    1.0000 </r>
       <r>    0.5052    1.0000 </r>
       <r>    8.7018    0.9966 </r>
       <r>    9.3881    0.0159 </r>
       <r>   10.2930    0.0000 </r>
       <r>   11.9773    0.0000 </r>
       <r>   12.6720    0.0000 </r>
       <r>   14.0208    0.0000 </r>
      </set>
      <set comment="kpoint 15">
       <r>   -2.6037    1.0000 </r>
       <r>    0.2964    1.0000 </r>
       <r>    8.1396    1.0000 </r>
       <r>   10.0175    0.0000 </r>
       <r>   10.8403    0.0000 </r>
       <r>   12.7026    0.0000 </r>
       <r>   15.1194    0.0000 </r>
       <r>   15.1203    0.0000 </r>
      </set>
      <set comment="kpoint 16">
       <r>   -3.4102    1.0000 </r>
       <r>    0.9267    1.0000 </r>
       <r>    6.7064    1.0000 </r>
       <r>    9.9502    0.0000 </r>
       <r>   10.8553    0.0000 </r>
       <r>   14.1043    0.0000 </r>
       <r>   16.0487    0.0000 </r>
       <r>   18.8831    0.0000 </r>
      </set>
      <set comment="kpoint 17">
       <r>   -3.3416    1.0000 </r>
       <r>    2.3393    1.0000 </r>
       <r>    5.5637    1.0000 </r>
       <r>   10.8098    0.0000 </r>
       <r>   11.0402    0.0000 </r>
       <r>   14.1022    0.0000 </r>
       <r>   15.1182    0.0000 </r>
       <r>   16.7523    0.0000 </r>
      </set>
      <set comment="kpoint 18">
       <r>   -2.3988    1.0000 </r>
       <r>    4.0762    1.0000 </r>
       <r>    5.6220    1.0000 </r>
       <r>    9.4442    0.0055 </r>
       <r>   11.4727    0.0000 </r>
       <r>   12.7218    0.0000 </r>
       <r>   14.0537    0.0000 </r>
       <r>   14.6255    0.0000 </r>
      </set>
      <set comment="kpoint 19">
       <r>   -1.3248    1.0000 </r>
       <r>   -1.3248    1.0000 </r>
       <r>    9.3275    0.0429 </r>
       <r>    9.3276    0.0429 </r>
       <r>   11.2528    0.0000 </r>
       <r>   11.2528    0.0000 </r>
       <r>   14.9782    0.0000 </r>
       <r>   14.9782    0.0000 </r>
      </set>
      <set comment="kpoint 20">
       <r>   -2.3074    1.0000 </r>
       <r>   -0.8542    1.0000 </r>
       <r>    7.7489    1.0000 </r>
       <r>    9.1374    0.3545 </r>
       <r>   11.0707    0.0000 </r>
       <r>   12.4559    0.0000 </r>
       <r>   18.5117    0.0000 </r>
       <r>   18.6494    0.0000 </r>
      </set>
      <set comment="kpoint 21">
       <r>   -2.4227    1.0000 </r>
       <r>    0.4576    1.0000 </r>
       <r>    6.3839    1.0000 </r>
       <r>    9.1345    0.3622 </r>
       <r>   11.7975    0.0000 </r>
       <r>   13.6406    0.0000 </r>
       <r>   15.4473    0.0000 </r>
       <r>   16.3225    0.0000 </r>
      </set>
      <set comment="kpoint 22">
       <r>   -1.6677    1.0000 </r>
       <r>    2.5349    1.0000 </r>
       <r>    5.7974    1.0000 </r>
       <r>    8.8728    0.9330 </r>
       <r>    9.8298    0.0000 </r>
       <r>   13.4046    0.0000 </r>
       <r>   14.1726    0.0000 </r>
       <r>   16.3019    0.0000 </r>
      </set>
      <set comment="kpoint 23">
       <r>   -0.0575    1.0000 </r>
       <r>    4.7588    1.0000 </r>
       <r>    5.4897    1.0000 </r>
       <r>    6.4491    1.0000 </r>
       <r>    9.6945    0.0000 </r>
       <r>   12.2386    0.0000 </r>
       <r>   12.3579    0.0000 </r>
       <r>   15.6510    0.0000 </r>
      </set>
      <set comment="kpoint 24">
       <r>   -1.1509    1.0000 </r>
       <r>   -1.1484    1.0000 </r>
       <r>    7.5795    1.0000 </r>
       <r>    7.5987    1.0000 </r>
       <r>   12.3821    0.0000 </r>
       <r>   13.3718    0.0000 </r>
       <r>   14.7629    0.0000 </r>
       <r>   16.2598    0.0000 </r>
      </set>
      <set comment="kpoint 25">
       <r>   -0.5817    1.0000 </r>
       <r>    0.8391    1.0000 </r>
       <r>    6.7476    1.0000 </r>
       <r>    8.0228    1.0000 </r>
       <r>    8.7609    0.9890 </r>
       <r>   13.2037    0.0000 </r>
       <r>   15.1703    0.0000 </r>
       <r>   16.5966    0.0000 </r>
      </set>
      <set comment="kpoint 26">
       <r>    0.8329    1.0000 </r>
       <r>    3.5236    1.0000 </r>
       <r>    4.8631    1.0000 </r>
       <r>    6.7719    1.0000 </r>
       <r>    9.0300    0.6503 </r>
       <r>   11.1894    0.0000 </r>
       <r>   13.8266    0.0000 </r>
       <r>   16.8782    0.0000 </r>
      </set>
      <set comment="kpoint 27">
       <r>    1.6352    1.0000 </r>
       <r>    3.1574    1.0000 </r>
       <r>    6.5135    1.0000 </r>
       <r>    7.6756    1.0000 </r>
       <r>    8.0113    1.0000 </r>
       <r>   10.6573    0.0000 </r>
       <r>   12.1651    0.0000 </r>
       <r>   15.8120    0.0000 </r>
      </set>
      <set comment="kpoint 28">
       <r>    2.0256    1.0000 </r>
       <r>    2.0796    1.0000 </r>
       <r>    4.6665    1.0000 </r>
       <r>    7.6545    1.0000 </r>
       <r>    7.9820    1.0000 </r>
       <r>   10.8913    0.0000 </r>
       <r>   15.6401    0.0000 </r>
       <r>   16.1238    0.0000 </r>
      </set>
      <set comment="kpoint 29">
       <r>    1.2986    1.0000 </r>
       <r>    4.1631    1.0000 </r>
       <r>    5.4471    1.0000 </r>
       <r>    7.5928    1.0000 </r>
       <r>    8.8118    0.9732 </r>
       <r>   10.6359    0.0000 </r>
       <r>   12.0887    0.0000 </r>
       <r>   14.4079    0.0000 </r>
      </set>
      <set comment="kpoint 30">
       <r>   -1.1437    1.0000 </r>
       <r>    6.4922    1.0000 </r>
       <r>    7.0568    1.0000 </r>
       <r>    7.7270    1.0000 </r>
       <r>    9.1072    0.4366 </r>
       <r>   11.6226    0.0000 </r>
       <r>   12.2551    0.0000 </r>
       <r>   13.6656    0.0000 </r>
      </set>
      <set comment="kpoint 31">
       <r>   -1.3269    1.0000 </r>
       <r>    6.8572    1.0000 </r>
       <r>    7.8439    1.0000 </r>
       <r>    7.8987    1.0000 </r>
       <r>    9.2449    0.1286 </r>
       <r>   11.0231    0.0000 </r>
       <r>   12.1804    0.0000 </r>
       <r>   12.3902    0.0000 </r>
      </set>
      <set comment="kpoint 32">
       <r>   -3.1352    1.0000 </r>
       <r>    6.1837    1.0000 </r>
       <r>    7.1241    1.0000 </r>
       <r>    8.7713    0.9867 </r>
       <r>   11.8331    0.0000 </r>
       <r>   12.3948    0.0000 </r>
       <r>   12.4540    0.0000 </r>
       <r>   14.8506    0.0000 </r>
      </set>
      <set comment="kpoint 33">
       <r>   -4.2675    1.0000 </r>
       <r>    6.5197    1.0000 </r>
       <r>    6.6006    1.0000 </r>
       <r>    6.6007    1.0000 </r>
       <r>   10.9416    0.0000 </r>
       <r>   15.8079    0.0000 </r>
       <r>   15.8901    0.0000 </r>
       <r>   17.2249    0.0000 </r>
      </set>
      <set comment="kpoint 34">
       <r>    0.1280    1.0000 </r>
       <r>    2.9660    1.0000 </r>
       <r>    6.7792    1.0000 </r>
       <r>    6.8182    1.0000 </r>
       <r>   10.8739    0.0000 </r>
       <r>   12.6714    0.0000 </r>
       <r>   13.9169    0.0000 </r>
       <r>   14.4831    0.0000 </r>
      </set>
      <set comment="kpoint 35">
       <r>    2.8396    1.0000 </r>
       <r>    3.3225    1.0000 </r>
       <r>    4.3623    1.0000 </r>
       <r>    4.7336    1.0000 </r>
       <r>   12.0289    0.0000 </r>
       <r>   13.8808    0.0000 </r>
       <r>   14.1267    0.0000 </r>
       <r>   14.4185    0.0000 </r>
      </set>
      <set comment="kpoint 36">
       <r>   -3.7810    1.0000 </r>
       <r>    2.7556    1.0000 </r>
       <r>    4.3517    1.0000 </r>
       <r>   10.6758    0.0000 </r>
       <r>   11.1053    0.0000 </r>
       <r>   14.1349    0.0000 </r>
       <r>   17.8058    0.0000 </r>
       <r>   18.0636    0.0000 </r>
      </set>
      <set comment="kpoint 37">
       <r>    1.3827    1.0000 </r>
       <r>    1.3827    1.0000 </r>
       <r>    6.6467    1.0000 </r>
       <r>    6.6467    1.0000 </r>
       <r>   12.0902    0.0000 </r>
       <r>   12.0902    0.0000 </r>
       <r>   13.9025    0.0000 </r>
       <r>   13.9025    0.0000 </r>
      </set>
      <set comment="kpoint 38">
       <r>   -3.0447    1.0000 </r>
       <r>    1.1956    1.0000 </r>
       <r>    4.5302    1.0000 </r>
       <r>    8.6373    0.9992 </r>
       <r>   12.5340    0.0000 </r>
       <r>   16.4648    0.0000 </r>
       <r>   16.6369    0.0000 </r>
       <r>   18.3279    0.0000 </r>
      </set>
      <set comment="kpoint 39">
       <r>   -2.7917    1.0000 </r>
       <r>    2.2699    1.0000 </r>
       <r>    3.9568    1.0000 </r>
       <r>    8.8565    0.9467 </r>
       <r>   12.3556    0.0000 </r>
       <r>   14.3582    0.0000 </r>
       <r>   16.3487    0.0000 </r>
       <r>   17.8023    0.0000 </r>
      </set>
      <set comment="kpoint 40">
       <r>   -1.9508    1.0000 </r>
       <r>   -0.5180    1.0000 </r>
       <r>    5.5144    1.0000 </r>
       <r>    6.9038    1.0000 </r>
       <r>   13.7304    0.0000 </r>
       <r>   15.0362    0.0000 </r>
       <r>   17.9319    0.0000 </r>
       <r>   18.0465    0.0000 </r>
      </set>
      <set comment="kpoint 41">
       <r>   -1.8832    1.0000 </r>
       <r>    0.8982    1.0000 </r>
       <r>    4.2720    1.0000 </r>
       <r>    6.9745    1.0000 </r>
       <r>   12.3813    0.0000 </r>
       <r>   15.3902    0.0000 </r>
       <r>   17.7819    0.0000 </r>
       <r>   18.0242    0.0000 </r>
      </set>
      <set comment="kpoint 42">
       <r>   -0.9474    1.0000 </r>
       <r>    2.6335    1.0000 </r>
       <r>    4.3501    1.0000 </r>
       <r>    7.7324    1.0000 </r>
       <r>    8.4211    1.0000 </r>
       <r>   14.6583    0.0000 </r>
       <r>   16.2962    0.0000 </r>
       <r>   16.6134    0.0000 </r>
      </set>
      <set comment="kpoint 43">
       <r>   -0.6360    1.0000 </r>
       <r>   -0.6308    1.0000 </r>
       <r>    5.4213    1.0000 </r>
       <r>    5.4214    1.0000 </r>
       <r>   12.2950    0.0000 </r>
       <r>   16.2732    0.0000 </r>
       <r>   17.0238    0.0000 </r>
       <r>   17.8415    0.0000 </r>
      </set>
      <set comment="kpoint 44">
       <r>    0.1130    1.0000 </r>
       <r>    1.4548    1.0000 </r>
       <r>    4.8159    1.0000 </r>
       <r>    6.1098    1.0000 </r>
       <r>    8.0324    1.0000 </r>
       <r>   14.9375    0.0000 </r>
       <r>   17.4766    0.0000 </r>
       <r>   18.1480    0.0000 </r>
      </set>
      <set comment="kpoint 45">
       <r>    1.6923    1.0000 </r>
       <r>    3.6886    1.0000 </r>
       <r>    4.4842    1.0000 </r>
       <r>    5.5260    1.0000 </r>
       <r>    7.5715    1.0000 </r>
       <r>   12.3429    0.0000 </r>
       <r>   13.8243    0.0000 </r>
       <r>   17.1609    0.0000 </r>
      </set>
      <set comment="kpoint 46">
       <r>    2.7434    1.0000 </r>
       <r>    2.8767    1.0000 </r>
       <r>    4.2157    1.0000 </r>
       <r>    6.1339    1.0000 </r>
       <r>    6.2019    1.0000 </r>
       <r>   12.6219    0.0000 </r>
       <r>   15.1189    0.0000 </r>
       <r>   15.8360    0.0000 </r>
      </set>
      <set comment="kpoint 47">
       <r>    0.9462    1.0000 </r>
       <r>    5.1113    1.0000 </r>
       <r>    5.9091    1.0000 </r>
       <r>    7.3341    1.0000 </r>
       <r>    7.9831    1.0000 </r>
       <r>   10.8740    0.0000 </r>
       <r>   11.9449    0.0000 </r>
       <r>   13.3372    0.0000 </r>
      </set>
      <set comment="kpoint 48">
       <r>   -1.5098    1.0000 </r>
       <r>    8.1165    1.0000 </r>
       <r>    8.4363    1.0000 </r>
       <r>    8.4363    1.0000 </r>
       <r>    8.7290    0.9940 </r>
       <r>    9.9929    0.0000 </r>
       <r>   11.8559    0.0000 </r>
       <r>   11.8560    0.0000 </r>
      </set>
      <set comment="kpoint 49">
       <r>   -2.3194    1.0000 </r>
       <r>    1.2890    1.0000 </r>
       <r>    3.0501    1.0000 </r>
       <r>    6.5813    1.0000 </r>
       <r>   14.7257    0.0000 </r>
       <r>   16.9506    0.0000 </r>
       <r>   18.0560    0.0000 </r>
       <r>   18.2807    0.0000 </r>
      </set>
      <set comment="kpoint 50">
       <r>   -1.2509    1.0000 </r>
       <r>    0.1010    1.0000 </r>
       <r>    3.5200    1.0000 </r>
       <r>    4.8483    1.0000 </r>
       <r>   15.8916    0.0000 </r>
       <r>   16.4955    0.0000 </r>
       <r>   18.2205    0.0000 </r>
       <r>   18.9149    0.0000 </r>
      </set>
      <set comment="kpoint 51">
       <r>   -1.0006    1.0000 </r>
       <r>    1.1669    1.0000 </r>
       <r>    2.9555    1.0000 </r>
       <r>    5.0830    1.0000 </r>
       <r>   12.0549    0.0000 </r>
       <r>   17.7468    0.0000 </r>
       <r>   19.1384    0.0000 </r>
       <r>   19.6825    0.0000 </r>
      </set>
      <set comment="kpoint 52">
       <r>    0.1625    1.0000 </r>
       <r>    0.1712    1.0000 </r>
       <r>    3.5894    1.0000 </r>
       <r>    3.5921    1.0000 </r>
       <r>   11.9174    0.0000 </r>
       <r>   19.0437    0.0000 </r>
       <r>   19.4017    0.0000 </r>
       <r>   19.7420    0.0000 </r>
      </set>
      <set comment="kpoint 53">
       <r>    1.0909    1.0000 </r>
       <r>    1.9033    1.0000 </r>
       <r>    3.6816    1.0000 </r>
       <r>    4.4789    1.0000 </r>
       <r>    7.6879    1.0000 </r>
       <r>   16.4936    0.0000 </r>
       <r>   17.9150    0.0000 </r>
       <r>   18.8073    0.0000 </r>
      </set>
      <set comment="kpoint 54">
       <r>    3.1923    1.0000 </r>
       <r>    3.5106    1.0000 </r>
       <r>    4.2569    1.0000 </r>
       <r>    5.2034    1.0000 </r>
       <r>    5.2034    1.0000 </r>
       <r>   14.1943    0.0000 </r>
       <r>   14.9410    0.0000 </r>
       <r>   14.9410    0.0000 </r>
      </set>
      <set comment="kpoint 55">
       <r>   -0.2668    1.0000 </r>
       <r>    0.5480    1.0000 </r>
       <r>    2.3710    1.0000 </r>
       <r>    3.1762    1.0000 </r>
       <r>   16.3231    0.0000 </r>
       <r>   16.4238    0.0000 </r>
       <r>   19.9496    0.0000 </r>
       <r>   20.7353    0.0000 </r>
      </set>
      <set comment="kpoint 56">
       <r>    0.7904    1.0000 </r>
       <r>    0.8030    1.0000 </r>
       <r>    2.6145    1.0000 </r>
       <r>    2.6145    1.0000 </r>
       <r>   11.7720    0.0000 </r>
       <r>   20.1369    0.0000 </r>
       <r>   20.8917    0.0000 </r>
       <r>   20.8930    0.0000 </r>
      </set>
     </set>
    </set>
   </array>
  </eigenvalues>
  <separator name="orbital magnetization" >
   <v name="MAGDIPOLOUT">      0.00000000      0.00000000      0.00000000</v>
  </separator>
  <dos>
   <i name="efermi">      9.08463488 </i>
   <total>
    <array>
     <dimension dim="1">gridpoints</dimension>
     <dimension dim="2">spin</dimension>
     <field>energy</field>
     <field>total</field>
     <field>integrated</field>
     <set>
      <set comment="spin 1">
       <r>    -6.5225     0.0000     0.0000 </r>
       <r>    -6.4245     0.0000     0.0000 </r>
       <r>    -6.3264     0.0000     0.0000 </r>
       <r>    -6.2283     0.0000     0.0000 </r>
       <r>    -6.1303     0.0000     0.0000 </r>
       <r>    -6.0322     0.0000     0.0000 </r>
       <r>    -5.9342     0.0000     0.0000 </r>
       <r>    -5.8361     0.0000     0.0000 </r>
       <r>    -5.7381     0.0000     0.0000 </r>
       <r>    -5.6400     0.0000     0.0000 </r>
       <r>    -5.5420     0.0000     0.0000 </r>
       <r>    -5.4439     0.0000     0.0000 </r>
       <r>    -5.3459     0.0000     0.0000 </r>
       <r>    -5.2478     0.0000     0.0000 </r>
       <r>    -5.1498     0.0000     0.0000 </r>
       <r>    -5.0517     0.0000     0.0000 </r>
       <r>    -4.9537     0.0002     0.0000 </r>
       <r>    -4.8556     0.0013     0.0001 </r>
       <r>    -4.7576     0.0062     0.0008 </r>
       <r>    -4.6595     0.0191     0.0026 </r>
       <r>    -4.5615     0.0378     0.0063 </r>
       <r>    -4.4634     0.0530     0.0115 </r>
       <r>    -4.3654     0.0680     0.0182 </r>
       <r>    -4.2673     0.1050     0.0285 </r>
       <r>    -4.1693     0.1653     0.0447 </r>
       <r>    -4.0712     0.2102     0.0653 </r>
       <r>    -3.9732     0.2126     0.0862 </r>
       <r>    -3.8751     0.1874     0.1045 </r>
       <r>    -3.7771     0.1548     0.1197 </r>
       <r>    -3.6790     0.1343     0.1329 </r>
       <r>    -3.5810     0.1587     0.1484 </r>
       <r>    -3.4829     0.2349     0.1715 </r>
       <r>    -3.3848     0.3121     0.2021 </r>
       <r>    -3.2868     0.3295     0.2344 </r>
       <r>    -3.1887     0.2916     0.2630 </r>
       <r>    -3.0907     0.2490     0.2874 </r>
       <r>    -2.9926     0.2279     0.3097 </r>
       <r>    -2.8946     0.2441     0.3337 </r>
       <r>    -2.7965     0.2988     0.3630 </r>
       <r>    -2.6985     0.3389     0.3962 </r>
       <r>    -2.6004     0.3401     0.4295 </r>
       <r>    -2.5024     0.3582     0.4647 </r>
       <r>    -2.4043     0.4042     0.5043 </r>
       <r>    -2.3063     0.4010     0.5436 </r>
       <r>    -2.2082     0.3346     0.5764 </r>
       <r>    -2.1102     0.3046     0.6063 </r>
       <r>    -2.0121     0.3606     0.6416 </r>
       <r>    -1.9141     0.4196     0.6828 </r>
       <r>    -1.8160     0.4034     0.7223 </r>
       <r>    -1.7180     0.3385     0.7555 </r>
       <r>    -1.6199     0.2741     0.7824 </r>
       <r>    -1.5219     0.2299     0.8049 </r>
       <r>    -1.4238     0.2443     0.8289 </r>
       <r>    -1.3258     0.3403     0.8623 </r>
       <r>    -1.2277     0.4644     0.9078 </r>
       <r>    -1.1297     0.5495     0.9617 </r>
       <r>    -1.0316     0.5892     1.0194 </r>
       <r>    -0.9336     0.6020     1.0785 </r>
       <r>    -0.8355     0.5924     1.1366 </r>
       <r>    -0.7374     0.6022     1.1956 </r>
       <r>    -0.6394     0.6604     1.2604 </r>
       <r>    -0.5413     0.6590     1.3250 </r>
       <r>    -0.4433     0.4991     1.3739 </r>
       <r>    -0.3452     0.2808     1.4014 </r>
       <r>    -0.2472     0.1535     1.4165 </r>
       <r>    -0.1491     0.1516     1.4314 </r>
       <r>    -0.0511     0.2597     1.4568 </r>
       <r>     0.0470     0.4555     1.5015 </r>
       <r>     0.1450     0.6506     1.5653 </r>
       <r>     0.2431     0.7318     1.6370 </r>
       <r>     0.3411     0.6999     1.7056 </r>
       <r>     0.4392     0.6323     1.7676 </r>
       <r>     0.5372     0.5476     1.8213 </r>
       <r>     0.6353     0.4652     1.8670 </r>
       <r>     0.7333     0.4943     1.9154 </r>
       <r>     0.8314     0.6551     1.9797 </r>
       <r>     0.9294     0.7624     2.0544 </r>
       <r>     1.0275     0.6968     2.1227 </r>
       <r>     1.1255     0.5827     2.1799 </r>
       <r>     1.2236     0.5542     2.2342 </r>
       <r>     1.3216     0.5880     2.2919 </r>
       <r>     1.4197     0.6120     2.3519 </r>
       <r>     1.5177     0.5947     2.4102 </r>
       <r>     1.6158     0.5259     2.4617 </r>
       <r>     1.7138     0.4208     2.5030 </r>
       <r>     1.8119     0.3502     2.5373 </r>
       <r>     1.9099     0.3872     2.5753 </r>
       <r>     2.0080     0.5055     2.6249 </r>
       <r>     2.1061     0.6169     2.6854 </r>
       <r>     2.2041     0.6894     2.7530 </r>
       <r>     2.3022     0.7129     2.8229 </r>
       <r>     2.4002     0.6588     2.8875 </r>
       <r>     2.4983     0.5747     2.9438 </r>
       <r>     2.5963     0.5442     2.9972 </r>
       <r>     2.6944     0.5610     3.0522 </r>
       <r>     2.7924     0.5842     3.1095 </r>
       <r>     2.8905     0.6141     3.1697 </r>
       <r>     2.9885     0.6445     3.2329 </r>
       <r>     3.0866     0.6379     3.2954 </r>
       <r>     3.1846     0.5707     3.3514 </r>
       <r>     3.2827     0.4853     3.3990 </r>
       <r>     3.3807     0.4912     3.4471 </r>
       <r>     3.4788     0.6271     3.5086 </r>
       <r>     3.5768     0.7455     3.5817 </r>
       <r>     3.6749     0.6791     3.6483 </r>
       <r>     3.7729     0.4719     3.6946 </r>
       <r>     3.8710     0.3110     3.7251 </r>
       <r>     3.9690     0.3170     3.7561 </r>
       <r>     4.0671     0.4803     3.8032 </r>
       <r>     4.1651     0.7189     3.8737 </r>
       <r>     4.2632     0.9209     3.9640 </r>
       <r>     4.3612     0.9775     4.0598 </r>
       <r>     4.4593     0.8694     4.1451 </r>
       <r>     4.5573     0.7173     4.2154 </r>
       <r>     4.6554     0.7015     4.2842 </r>
       <r>     4.7534     0.8876     4.3712 </r>
       <r>     4.8515     1.0886     4.4780 </r>
       <r>     4.9496     1.0437     4.5803 </r>
       <r>     5.0476     0.7673     4.6556 </r>
       <r>     5.1457     0.4952     4.7041 </r>
       <r>     5.2437     0.3937     4.7427 </r>
       <r>     5.3418     0.5238     4.7941 </r>
       <r>     5.4398     0.8263     4.8751 </r>
       <r>     5.5379     1.0606     4.9791 </r>
       <r>     5.6359     1.0311     5.0802 </r>
       <r>     5.7340     0.8179     5.1604 </r>
       <r>     5.8320     0.6224     5.2214 </r>
       <r>     5.9301     0.5623     5.2765 </r>
       <r>     6.0281     0.6683     5.3421 </r>
       <r>     6.1262     0.8660     5.4270 </r>
       <r>     6.2242     0.9801     5.5231 </r>
       <r>     6.3223     0.9483     5.6161 </r>
       <r>     6.4203     0.8836     5.7027 </r>
       <r>     6.5184     0.8566     5.7867 </r>
       <r>     6.6164     0.8813     5.8731 </r>
       <r>     6.7145     0.9747     5.9687 </r>
       <r>     6.8125     1.0428     6.0709 </r>
       <r>     6.9106     0.9651     6.1655 </r>
       <r>     7.0086     0.8020     6.2442 </r>
       <r>     7.1067     0.7011     6.3129 </r>
       <r>     7.2047     0.6852     6.3801 </r>
       <r>     7.3028     0.6565     6.4445 </r>
       <r>     7.4008     0.5993     6.5032 </r>
       <r>     7.4989     0.6722     6.5692 </r>
       <r>     7.5969     0.9672     6.6640 </r>
       <r>     7.6950     1.3168     6.7931 </r>
       <r>     7.7931     1.5025     6.9404 </r>
       <r>     7.8911     1.4934     7.0869 </r>
       <r>     7.9892     1.3553     7.2198 </r>
       <r>     8.0872     1.0935     7.3270 </r>
       <r>     8.1853     0.7289     7.3984 </r>
       <r>     8.2833     0.4031     7.4380 </r>
       <r>     8.3814     0.2446     7.4620 </r>
       <r>     8.4794     0.2466     7.4861 </r>
       <r>     8.5775     0.3736     7.5228 </r>
       <r>     8.6755     0.6183     7.5834 </r>
       <r>     8.7736     0.8856     7.6702 </r>
       <r>     8.8716     1.0305     7.7713 </r>
       <r>     8.9697     1.0611     7.8753 </r>
       <r>     9.0677     1.0832     7.9815 </r>
       <r>     9.1658     1.0782     8.0872 </r>
       <r>     9.2638     0.9825     8.1836 </r>
       <r>     9.3619     0.8649     8.2684 </r>
       <r>     9.4599     0.8201     8.3488 </r>
       <r>     9.5580     0.8284     8.4300 </r>
       <r>     9.6560     0.8055     8.5090 </r>
       <r>     9.7541     0.7142     8.5790 </r>
       <r>     9.8521     0.6105     8.6389 </r>
       <r>     9.9502     0.5433     8.6922 </r>
       <r>    10.0482     0.4783     8.7391 </r>
       <r>    10.1463     0.4013     8.7784 </r>
       <r>    10.2443     0.3662     8.8143 </r>
       <r>    10.3424     0.3820     8.8518 </r>
       <r>    10.4404     0.3913     8.8901 </r>
       <r>    10.5385     0.4040     8.9298 </r>
       <r>    10.6366     0.4931     8.9781 </r>
       <r>    10.7346     0.6702     9.0438 </r>
       <r>    10.8327     0.8832     9.1304 </r>
       <r>    10.9307     1.0671     9.2350 </r>
       <r>    11.0288     1.1643     9.3492 </r>
       <r>    11.1268     1.1211     9.4591 </r>
       <r>    11.2249     0.9248     9.5498 </r>
       <r>    11.3229     0.6778     9.6163 </r>
       <r>    11.4210     0.5107     9.6663 </r>
       <r>    11.5190     0.4553     9.7110 </r>
       <r>    11.6171     0.5007     9.7601 </r>
       <r>    11.7151     0.6591     9.8247 </r>
       <r>    11.8132     0.9335     9.9162 </r>
       <r>    11.9112     1.2746    10.0412 </r>
       <r>    12.0093     1.5571    10.1939 </r>
       <r>    12.1073     1.6439    10.3551 </r>
       <r>    12.2054     1.5631    10.5083 </r>
       <r>    12.3034     1.5041    10.6558 </r>
       <r>    12.4015     1.4985    10.8028 </r>
       <r>    12.4995     1.3917    10.9392 </r>
       <r>    12.5976     1.1860    11.0555 </r>
       <r>    12.6956     0.9925    11.1528 </r>
       <r>    12.7937     0.8148    11.2327 </r>
       <r>    12.8917     0.6863    11.3000 </r>
       <r>    12.9898     0.6808    11.3668 </r>
       <r>    13.0878     0.7174    11.4371 </r>
       <r>    13.1859     0.6766    11.5034 </r>
       <r>    13.2840     0.6001    11.5623 </r>
       <r>    13.3820     0.5767    11.6188 </r>
       <r>    13.4801     0.6365    11.6812 </r>
       <r>    13.5781     0.7989    11.7596 </r>
       <r>    13.6762     1.0062    11.8582 </r>
       <r>    13.7742     1.1386    11.9699 </r>
       <r>    13.8723     1.2010    12.0876 </r>
       <r>    13.9703     1.2834    12.2135 </r>
       <r>    14.0684     1.3937    12.3501 </r>
       <r>    14.1664     1.4122    12.4886 </r>
       <r>    14.2645     1.2415    12.6103 </r>
       <r>    14.3625     1.0019    12.7086 </r>
       <r>    14.4606     0.8645    12.7933 </r>
       <r>    14.5586     0.8229    12.8740 </r>
       <r>    14.6567     0.8095    12.9534 </r>
       <r>    14.7547     0.8454    13.0363 </r>
       <r>    14.8528     0.9922    13.1336 </r>
       <r>    14.9508     1.2392    13.2551 </r>
       <r>    15.0489     1.4534    13.3976 </r>
       <r>    15.1469     1.4597    13.5407 </r>
       <r>    15.2450     1.2416    13.6624 </r>
       <r>    15.3430     0.9756    13.7581 </r>
       <r>    15.4411     0.7823    13.8348 </r>
       <r>    15.5391     0.6417    13.8977 </r>
       <r>    15.6372     0.5475    13.9514 </r>
       <r>    15.7352     0.5183    14.0022 </r>
       <r>    15.8333     0.5363    14.0548 </r>
       <r>    15.9313     0.5593    14.1097 </r>
       <r>    16.0294     0.5693    14.1655 </r>
       <r>    16.1275     0.6202    14.2263 </r>
       <r>    16.2255     0.7748    14.3023 </r>
       <r>    16.3236     0.9628    14.3967 </r>
       <r>    16.4216     1.0383    14.4985 </r>
       <r>    16.5197     0.9928    14.5958 </r>
       <r>    16.6177     0.8998    14.6841 </r>
       <r>    16.7158     0.7744    14.7600 </r>
       <r>    16.8138     0.6415    14.8229 </r>
       <r>    16.9119     0.5453    14.8763 </r>
       <r>    17.0099     0.4714    14.9226 </r>
       <r>    17.1080     0.3805    14.9599 </r>
       <r>    17.2060     0.2795    14.9873 </r>
       <r>    17.3041     0.2168    15.0085 </r>
       <r>    17.4021     0.2228    15.0304 </r>
       <r>    17.5002     0.2659    15.0564 </r>
       <r>    17.5982     0.3174    15.0876 </r>
       <r>    17.6963     0.4279    15.1295 </r>
       <r>    17.7943     0.6078    15.1891 </r>
       <r>    17.8924     0.7568    15.2633 </r>
       <r>    17.9904     0.8136    15.3431 </r>
       <r>    18.0885     0.7964    15.4212 </r>
       <r>    18.1865     0.7094    15.4907 </r>
       <r>    18.2846     0.5578    15.5454 </r>
       <r>    18.3826     0.3918    15.5839 </r>
       <r>    18.4807     0.2745    15.6108 </r>
       <r>    18.5787     0.2285    15.6332 </r>
       <r>    18.6768     0.2348    15.6562 </r>
       <r>    18.7748     0.2744    15.6831 </r>
       <r>    18.8729     0.3269    15.7151 </r>
       <r>    18.9710     0.3592    15.7504 </r>
       <r>    19.0690     0.3567    15.7853 </r>
       <r>    19.1671     0.3203    15.8168 </r>
       <r>    19.2651     0.2534    15.8416 </r>
       <r>    19.3632     0.1850    15.8597 </r>
       <r>    19.4612     0.1447    15.8739 </r>
       <r>    19.5593     0.1400    15.8877 </r>
       <r>    19.6573     0.1668    15.9040 </r>
       <r>    19.7554     0.1891    15.9226 </r>
       <r>    19.8534     0.1685    15.9391 </r>
       <r>    19.9515     0.1205    15.9509 </r>
       <r>    20.0495     0.0794    15.9587 </r>
       <r>    20.1476     0.0516    15.9637 </r>
       <r>    20.2456     0.0306    15.9667 </r>
       <r>    20.3437     0.0148    15.9682 </r>
       <r>    20.4417     0.0076    15.9689 </r>
       <r>    20.5398     0.0123    15.9701 </r>
       <r>    20.6378     0.0307    15.9731 </r>
       <r>    20.7359     0.0565    15.9787 </r>
       <r>    20.8339     0.0735    15.9859 </r>
       <r>    20.9320     0.0687    15.9926 </r>
       <r>    21.0300     0.0459    15.9971 </r>
       <r>    21.1281     0.0212    15.9992 </r>
       <r>    21.2261     0.0066    15.9999 </r>
       <r>    21.3242     0.0013    16.0000 </r>
       <r>    21.4222     0.0002    16.0000 </r>
       <r>    21.5203     0.0000    16.0000 </r>
       <r>    21.6183     0.0000    16.0000 </r>
       <r>    21.7164     0.0000    16.0000 </r>
       <r>    21.8145     0.0000    16.0000 </r>
       <r>    21.9125     0.0000    16.0000 </r>
       <r>    22.0106     0.0000    16.0000 </r>
       <r>    22.1086     0.0000    16.0000 </r>
       <r>    22.2067     0.0000    16.0000 </r>
       <r>    22.3047     0.0000    16.0000 </r>
       <r>    22.4028     0.0000    16.0000 </r>
       <r>    22.5008     0.0000    16.0000 </r>
       <r>    22.5989     0.0000    16.0000 </r>
       <r>    22.6969     0.0000    16.0000 </r>
       <r>    22.7950     0.0000    16.0000 </r>
       <r>    22.8930     0.0000    16.0000 </r>
      </set>
     </set>
    </array>
   </total>
  </dos>
 </calculation>
 <structure name="finalpos" >
  <crystal>
   <varray name="basis" >
    <v>      -2.45000000       2.45000000       1.27400000 </v>
    <v>       2.45000000      -2.45000000       1.27400000 </v>
    <v>       2.45000000       2.45000000      -1.27400000 </v>
   </varray>
   <i name="volume">     30.58874000 </i>
   <varray name="rec_basis" >
    <v>       0.00000000       0.20408163       0.39246468 </v>
    <v>       0.20408163       0.00000000       0.39246468 </v>
    <v>       0.20408163       0.20408163      -0.00000000 </v>
   </varray>
  </crystal>
  <varray name="positions" >
   <v>       0.25000000       0.75000000       0.50000000 </v>
   <v>       0.00000000       0.00000000       0.00000000 </v>
  </varray>
 </structure>
</modeling>
