unknown system                          
           1
    -2.450000    2.450000    1.274000
     2.450000   -2.450000    1.274000
     2.450000    2.450000   -1.274000
   Si
   2
Direct configuration=     1
   0.25000000  0.75000000  0.50000000
   0.00000000  0.00000000  0.00000000
unknown system                          
           1
    -2.415017    2.415017    1.315300
     2.415017   -2.415017    1.315300
     2.415017    2.415017   -1.315300
   Si
   2
Direct configuration=     2
   0.25000000  0.75000000  0.50000000
   0.00000000 -0.00000000  0.00000000
unknown system                          
           1
    -2.364657    2.364657    1.374754
     2.364657   -2.364657    1.374754
     2.364657    2.364657   -1.374754
   Si
   2
Direct configuration=     3
   0.25000000  0.75000000  0.50000000
   0.00000000 -0.00000000  0.00000000
unknown system                          
           1
    -2.387363    2.387363    1.347947
     2.387363   -2.387363    1.347947
     2.387363    2.387363   -1.347947
   Si
   2
Direct configuration=     4
   0.25000000  0.75000000  0.50000000
   0.00000000 -0.00000000  0.00000000
unknown system                          
           1
    -2.386405    2.386405    1.349078
     2.386405   -2.386405    1.349078
     2.386405    2.386405   -1.349078
   Si
   2
Direct configuration=     5
   0.25000000  0.75000000  0.50000000
   0.00000000 -0.00000000  0.00000000
unknown system                          
           1
    -2.386390    2.386390    1.349096
     2.386390   -2.386390    1.349096
     2.386390    2.386390   -1.349096
   Si
   2
Direct configuration=     6
   0.25000000  0.75000000  0.50000000
   0.00000000 -0.00000000  0.00000000
unknown system                          
           1
    -2.386405    2.386405    1.349079
     2.386405   -2.386405    1.349079
     2.386405    2.386405   -1.349079
   Si
   2
Direct configuration=     7
   0.25000000  0.75000000  0.50000000
   0.00000000 -0.00000000  0.00000000
unknown system                          
           1
    -2.386405    2.386405    1.349078
     2.386405   -2.386405    1.349078
     2.386405    2.386405   -1.349078
   Si
   2
Direct configuration=     8
   0.25000000  0.75000000  0.50000000
   0.00000000 -0.00000000  0.00000000
unknown system                          
           1
    -2.386405    2.386405    1.349078
     2.386405   -2.386405    1.349078
     2.386405    2.386405   -1.349078
   Si
   2
Direct configuration=     9
   0.25000000  0.75000000  0.50000000
   0.00000000 -0.00000000  0.00000000
