   2   2   0   0
  0.2001288E+02  0.3839590E-09  0.3839590E-09  0.3839590E-09  0.5000000E-15
  1.000000000000000E-004
  CAR 
 unknown system                          
     17.41058560     -8.13133821  301      6.10384436      1.00000000
     -8.131  0.0000E+00  0.0000E+00
     -8.046  0.0000E+00  0.0000E+00
     -7.961  0.0000E+00  0.0000E+00
     -7.876  0.0000E+00  0.0000E+00
     -7.791  0.0000E+00  0.0000E+00
     -7.706  0.0000E+00  0.0000E+00
     -7.620  0.0000E+00  0.0000E+00
     -7.535  0.0000E+00  0.0000E+00
     -7.450  0.0000E+00  0.0000E+00
     -7.365  0.0000E+00  0.0000E+00
     -7.280  0.4770E-18  0.4061E-19
     -7.195  0.5843E-16  0.5016E-17
     -7.110  0.4875E-14  0.4201E-15
     -7.025  0.2846E-12  0.2465E-13
     -6.939  0.1165E-10  0.1016E-11
     -6.854  0.3346E-09  0.2951E-10
     -6.769  0.6774E-08  0.6063E-09
     -6.684  0.9715E-07  0.8877E-08
     -6.599  0.9970E-06  0.9376E-07
     -6.514  0.7451E-05  0.7282E-06
     -6.429  0.4167E-04  0.4276E-05
     -6.343  0.1804E-03  0.1964E-04
     -6.258  0.6222E-03  0.7261E-04
     -6.173  0.1719E-02  0.2190E-03
     -6.088  0.3750E-02  0.5383E-03
     -6.003  0.6374E-02  0.1081E-02
     -5.918  0.8635E-02  0.1816E-02
     -5.833  0.1024E-01  0.2688E-02
     -5.747  0.1232E-01  0.3737E-02
     -5.662  0.1578E-01  0.5081E-02
     -5.577  0.1931E-01  0.6724E-02
     -5.492  0.2019E-01  0.8443E-02
     -5.407  0.1794E-01  0.9971E-02
     -5.322  0.1612E-01  0.1134E-01
     -5.237  0.1858E-01  0.1292E-01
     -5.151  0.2462E-01  0.1502E-01
     -5.066  0.2958E-01  0.1754E-01
     -4.981  0.3054E-01  0.2014E-01
     -4.896  0.2927E-01  0.2263E-01
     -4.811  0.2820E-01  0.2503E-01
     -4.726  0.2704E-01  0.2733E-01
     -4.641  0.2508E-01  0.2947E-01
     -4.555  0.2483E-01  0.3158E-01
     -4.470  0.3013E-01  0.3415E-01
     -4.385  0.3974E-01  0.3753E-01
     -4.300  0.4650E-01  0.4149E-01
     -4.215  0.4630E-01  0.4543E-01
     -4.130  0.4342E-01  0.4913E-01
     -4.045  0.4250E-01  0.5275E-01
     -3.959  0.4175E-01  0.5630E-01
     -3.874  0.3930E-01  0.5965E-01
     -3.789  0.3955E-01  0.6302E-01
     -3.704  0.4780E-01  0.6709E-01
     -3.619  0.6106E-01  0.7229E-01
     -3.534  0.6883E-01  0.7815E-01
     -3.449  0.6499E-01  0.8368E-01
     -3.364  0.5537E-01  0.8839E-01
     -3.278  0.4862E-01  0.9253E-01
     -3.193  0.4398E-01  0.9628E-01
     -3.108  0.3700E-01  0.9943E-01
     -3.023  0.3137E-01  0.1021E+00
     -2.938  0.3417E-01  0.1050E+00
     -2.853  0.4358E-01  0.1087E+00
     -2.768  0.5006E-01  0.1130E+00
     -2.682  0.4732E-01  0.1170E+00
     -2.597  0.3748E-01  0.1202E+00
     -2.512  0.2724E-01  0.1225E+00
     -2.427  0.2110E-01  0.1243E+00
     -2.342  0.1885E-01  0.1259E+00
     -2.257  0.1869E-01  0.1275E+00
     -2.172  0.1944E-01  0.1292E+00
     -2.086  0.1949E-01  0.1308E+00
     -2.001  0.1770E-01  0.1323E+00
     -1.916  0.1473E-01  0.1336E+00
     -1.831  0.1205E-01  0.1346E+00
     -1.746  0.1087E-01  0.1355E+00
     -1.661  0.1176E-01  0.1365E+00
     -1.576  0.1360E-01  0.1377E+00
     -1.490  0.1456E-01  0.1389E+00
     -1.405  0.1586E-01  0.1403E+00
     -1.320  0.2201E-01  0.1422E+00
     -1.235  0.3605E-01  0.1452E+00
     -1.150  0.5603E-01  0.1500E+00
     -1.065  0.7475E-01  0.1564E+00
     -0.980  0.8323E-01  0.1635E+00
     -0.894  0.7818E-01  0.1701E+00
     -0.809  0.6620E-01  0.1757E+00
     -0.724  0.5686E-01  0.1806E+00
     -0.639  0.5344E-01  0.1851E+00
     -0.554  0.5289E-01  0.1896E+00
     -0.469  0.5140E-01  0.1940E+00
     -0.384  0.4831E-01  0.1981E+00
     -0.298  0.4540E-01  0.2020E+00
     -0.213  0.4351E-01  0.2057E+00
     -0.128  0.4169E-01  0.2092E+00
     -0.043  0.3885E-01  0.2126E+00
      0.042  0.3346E-01  0.2154E+00
      0.127  0.2460E-01  0.2175E+00
      0.212  0.1535E-01  0.2188E+00
      0.297  0.1182E-01  0.2198E+00
      0.383  0.1784E-01  0.2213E+00
      0.468  0.3050E-01  0.2239E+00
      0.553  0.4017E-01  0.2273E+00
      0.638  0.3869E-01  0.2306E+00
      0.723  0.2860E-01  0.2331E+00
      0.808  0.1902E-01  0.2347E+00
      0.893  0.1462E-01  0.2359E+00
      0.979  0.1403E-01  0.2371E+00
      1.064  0.1490E-01  0.2384E+00
      1.149  0.1549E-01  0.2397E+00
      1.234  0.1523E-01  0.2410E+00
      1.319  0.1598E-01  0.2424E+00
      1.404  0.2030E-01  0.2441E+00
      1.489  0.2917E-01  0.2466E+00
      1.575  0.4392E-01  0.2503E+00
      1.660  0.6457E-01  0.2558E+00
      1.745  0.8284E-01  0.2629E+00
      1.830  0.8693E-01  0.2703E+00
      1.915  0.7793E-01  0.2769E+00
      2.000  0.6872E-01  0.2828E+00
      2.085  0.6484E-01  0.2883E+00
      2.171  0.6089E-01  0.2935E+00
      2.256  0.5543E-01  0.2982E+00
      2.341  0.5410E-01  0.3028E+00
      2.426  0.5910E-01  0.3078E+00
      2.511  0.6822E-01  0.3136E+00
      2.596  0.8159E-01  0.3206E+00
      2.681  0.9779E-01  0.3289E+00
      2.767  0.1074E+00  0.3381E+00
      2.852  0.1023E+00  0.3468E+00
      2.937  0.8805E-01  0.3543E+00
      3.022  0.7815E-01  0.3609E+00
      3.107  0.7855E-01  0.3676E+00
      3.192  0.8420E-01  0.3748E+00
      3.277  0.8860E-01  0.3823E+00
      3.363  0.9087E-01  0.3900E+00
      3.448  0.9327E-01  0.3980E+00
      3.533  0.9627E-01  0.4062E+00
      3.618  0.9911E-01  0.4146E+00
      3.703  0.1023E+00  0.4233E+00
      3.788  0.1047E+00  0.4322E+00
      3.873  0.1006E+00  0.4408E+00
      3.959  0.8543E-01  0.4481E+00
      4.044  0.6712E-01  0.4538E+00
      4.129  0.6117E-01  0.4590E+00
      4.214  0.7143E-01  0.4651E+00
      4.299  0.8442E-01  0.4723E+00
      4.384  0.8590E-01  0.4796E+00
      4.469  0.7628E-01  0.4861E+00
      4.554  0.6733E-01  0.4918E+00
      4.640  0.6733E-01  0.4976E+00
      4.725  0.7163E-01  0.5036E+00
      4.810  0.6861E-01  0.5095E+00
      4.895  0.5417E-01  0.5141E+00
      4.980  0.3684E-01  0.5172E+00
      5.065  0.2743E-01  0.5196E+00
      5.150  0.2693E-01  0.5219E+00
      5.236  0.2726E-01  0.5242E+00
      5.321  0.2268E-01  0.5261E+00
      5.406  0.1619E-01  0.5275E+00
      5.491  0.1342E-01  0.5286E+00
      5.576  0.1451E-01  0.5299E+00
      5.661  0.1491E-01  0.5311E+00
      5.746  0.1199E-01  0.5322E+00
      5.832  0.7418E-02  0.5328E+00
      5.917  0.3752E-02  0.5331E+00
      6.002  0.1670E-02  0.5333E+00
      6.087  0.7439E-03  0.5333E+00
      6.172  0.6599E-03  0.5334E+00
      6.257  0.1439E-02  0.5335E+00
      6.342  0.3192E-02  0.5338E+00
      6.428  0.5872E-02  0.5343E+00
      6.513  0.9333E-02  0.5351E+00
      6.598  0.1348E-01  0.5362E+00
      6.683  0.1803E-01  0.5378E+00
      6.768  0.2211E-01  0.5396E+00
      6.853  0.2442E-01  0.5417E+00
      6.938  0.2435E-01  0.5438E+00
      7.024  0.2264E-01  0.5457E+00
      7.109  0.2112E-01  0.5475E+00
      7.194  0.2271E-01  0.5494E+00
      7.279  0.3001E-01  0.5520E+00
      7.364  0.4238E-01  0.5556E+00
      7.449  0.5515E-01  0.5603E+00
      7.534  0.6311E-01  0.5657E+00
      7.620  0.6524E-01  0.5712E+00
      7.705  0.6576E-01  0.5768E+00
      7.790  0.7044E-01  0.5828E+00
      7.875  0.8243E-01  0.5898E+00
      7.960  0.9963E-01  0.5983E+00
      8.045  0.1137E+00  0.6080E+00
      8.130  0.1150E+00  0.6178E+00
      8.215  0.1031E+00  0.6266E+00
      8.301  0.8648E-01  0.6339E+00
      8.386  0.7415E-01  0.6403E+00
      8.471  0.7133E-01  0.6463E+00
      8.556  0.7905E-01  0.6531E+00
      8.641  0.9032E-01  0.6607E+00
      8.726  0.9422E-01  0.6688E+00
      8.811  0.8810E-01  0.6763E+00
      8.897  0.7941E-01  0.6830E+00
      8.982  0.7521E-01  0.6894E+00
      9.067  0.7664E-01  0.6960E+00
      9.152  0.8452E-01  0.7032E+00
      9.237  0.1016E+00  0.7118E+00
      9.322  0.1249E+00  0.7224E+00
      9.407  0.1431E+00  0.7346E+00
      9.493  0.1475E+00  0.7472E+00
      9.578  0.1405E+00  0.7592E+00
      9.663  0.1298E+00  0.7702E+00
      9.748  0.1177E+00  0.7802E+00
      9.833  0.1020E+00  0.7889E+00
      9.918  0.8473E-01  0.7961E+00
     10.003  0.7215E-01  0.8023E+00
     10.089  0.6698E-01  0.8080E+00
     10.174  0.6721E-01  0.8137E+00
     10.259  0.6910E-01  0.8196E+00
     10.344  0.6931E-01  0.8255E+00
     10.429  0.6722E-01  0.8312E+00
     10.514  0.6667E-01  0.8369E+00
     10.599  0.7338E-01  0.8431E+00
     10.685  0.8854E-01  0.8507E+00
     10.770  0.1042E+00  0.8595E+00
     10.855  0.1078E+00  0.8687E+00
     10.940  0.9643E-01  0.8769E+00
     11.025  0.8381E-01  0.8841E+00
     11.110  0.8540E-01  0.8913E+00
     11.195  0.9933E-01  0.8998E+00
     11.281  0.1087E+00  0.9090E+00
     11.366  0.1003E+00  0.9176E+00
     11.451  0.7774E-01  0.9242E+00
     11.536  0.5552E-01  0.9289E+00
     11.621  0.4359E-01  0.9326E+00
     11.706  0.4163E-01  0.9362E+00
     11.791  0.4537E-01  0.9400E+00
     11.877  0.5103E-01  0.9444E+00
     11.962  0.5374E-01  0.9490E+00
     12.047  0.5022E-01  0.9532E+00
     12.132  0.4484E-01  0.9570E+00
     12.217  0.4600E-01  0.9610E+00
     12.302  0.5605E-01  0.9657E+00
     12.387  0.6844E-01  0.9716E+00
     12.472  0.7406E-01  0.9779E+00
     12.558  0.6953E-01  0.9838E+00
     12.643  0.5978E-01  0.9889E+00
     12.728  0.5187E-01  0.9933E+00
     12.813  0.4904E-01  0.9975E+00
     12.898  0.5234E-01  0.1002E+01
     12.983  0.6191E-01  0.1007E+01
     13.068  0.7266E-01  0.1013E+01
     13.154  0.7666E-01  0.1020E+01
     13.239  0.7342E-01  0.1026E+01
     13.324  0.6967E-01  0.1032E+01
     13.409  0.6727E-01  0.1038E+01
     13.494  0.6007E-01  0.1043E+01
     13.579  0.4502E-01  0.1047E+01
     13.664  0.2794E-01  0.1049E+01
     13.750  0.1584E-01  0.1050E+01
     13.835  0.1065E-01  0.1051E+01
     13.920  0.1067E-01  0.1052E+01
     14.005  0.1244E-01  0.1053E+01
     14.090  0.1212E-01  0.1054E+01
     14.175  0.8695E-02  0.1055E+01
     14.260  0.4440E-02  0.1056E+01
     14.346  0.1600E-02  0.1056E+01
     14.431  0.4092E-03  0.1056E+01
     14.516  0.1077E-03  0.1056E+01
     14.601  0.2405E-03  0.1056E+01
     14.686  0.1070E-02  0.1056E+01
     14.771  0.3527E-02  0.1056E+01
     14.856  0.8388E-02  0.1057E+01
     14.942  0.1463E-01  0.1058E+01
     15.027  0.1923E-01  0.1060E+01
     15.112  0.1992E-01  0.1061E+01
     15.197  0.1736E-01  0.1063E+01
     15.282  0.1390E-01  0.1064E+01
     15.367  0.1105E-01  0.1065E+01
     15.452  0.8626E-02  0.1066E+01
     15.538  0.5937E-02  0.1066E+01
     15.623  0.3226E-02  0.1067E+01
     15.708  0.1296E-02  0.1067E+01
     15.793  0.3741E-03  0.1067E+01
     15.878  0.7651E-04  0.1067E+01
     15.963  0.1103E-04  0.1067E+01
     16.048  0.1118E-05  0.1067E+01
     16.133  0.7959E-07  0.1067E+01
     16.219  0.3973E-08  0.1067E+01
     16.304  0.1390E-09  0.1067E+01
     16.389  0.3406E-11  0.1067E+01
     16.474  0.5842E-13  0.1067E+01
     16.559  0.7012E-15  0.1067E+01
     16.644  0.5724E-17  0.1067E+01
     16.729  0.0000E+00  0.1067E+01
     16.815  0.0000E+00  0.1067E+01
     16.900  0.0000E+00  0.1067E+01
     16.985  0.0000E+00  0.1067E+01
     17.070  0.0000E+00  0.1067E+01
     17.155  0.0000E+00  0.1067E+01
     17.240  0.0000E+00  0.1067E+01
     17.325  0.0000E+00  0.1067E+01
     17.411  0.0000E+00  0.1067E+01
