unknown system                          
   1.00000000000000     
    -2.448053    2.448053    1.277183
     2.448053   -2.448053    1.277183
     2.448053    2.448053   -1.277183
   Si
     2
Direct
  0.250000  0.750000  0.500000
 -0.000000 -0.000000 -0.000000
 
   24   24   24
 -.55674748251E+01 -.35509876875E+01 0.14730221430E+01 0.70728943557E+01 0.10880408208E+02
 0.11867147775E+02 0.10625655658E+02 0.86020526881E+01 0.67262403984E+01 0.52722194214E+01
 0.42980513794E+01 0.37563824574E+01 0.35845972436E+01 0.37564562259E+01 0.42980591291E+01
 0.52721793848E+01 0.67262821663E+01 0.86021119782E+01 0.10625581783E+02 0.11867050898E+02
 0.10880499524E+02 0.70730537962E+01 0.14729633049E+01 -.35511862209E+01 -.35511862209E+01
 -.45740660335E+01 -.17816455191E+01 0.33937393903E+01 0.84731844894E+01 0.11409895292E+02
 0.11632462333E+02 0.10035258739E+02 0.80188391397E+01 0.62540161283E+01 0.49393236857E+01
 0.40946690929E+01 0.36618934730E+01 0.35846180524E+01 0.38494434643E+01 0.44936951886E+01
 0.55819335244E+01 0.71456398164E+01 0.90882306672E+01 0.11057585802E+02 0.11950569255E+02
 0.10431955546E+02 0.62485570339E+01 0.77067449456E+00 0.14729633049E+01 -.17818183670E+01
 -.18369682127E+01 0.13201334243E+01 0.60356818144E+01 0.10038654388E+02 0.11784416864E+02
 0.11184778349E+02 0.93311611253E+01 0.73837681331E+01 0.57659676361E+01 0.46083630094E+01
 0.38980534360E+01 0.35723285065E+01 0.35845806474E+01 0.39342075184E+01 0.46665003436E+01
 0.58429399696E+01 0.74762571108E+01 0.94374312867E+01 0.11315913329E+02 0.11964552749E+02
 0.10257693132E+02 0.62485570339E+01 0.70730537962E+01 0.33936941447E+01 0.13200063585E+01
 0.19911655138E+01 0.50191260764E+01 0.87520675935E+01 0.11337837721E+02 0.11818172652E+02
 0.10522544312E+02 0.85717741641E+01 0.67431676971E+01 0.52968271346E+01 0.43015774180E+01
 0.37207796195E+01 0.34934033241E+01 0.35845100256E+01 0.40044176684E+01 0.48021365135E+01
 0.60319291862E+01 0.76880740876E+01 0.96200146914E+01 0.11401290376E+02 0.11964552749E+02
 0.10431955546E+02 0.10880499524E+02 0.84733018728E+01 0.60356567651E+01 0.50190580190E+01
 0.60511548830E+01 0.85090564425E+01 0.10948819349E+02 0.12059965299E+02 0.11447215000E+02
 0.97214708448E+01 0.78104515360E+01 0.61405504682E+01 0.48762019776E+01 0.40370067774E+01
 0.35730592380E+01 0.34299362401E+01 0.35844164758E+01 0.40545733886E+01 0.48887488857E+01
 0.61312295671E+01 0.77610471331E+01 0.96200146914E+01 0.11315913329E+02 0.11950569255E+02
 0.11867050898E+02 0.11409944286E+02 0.10038721781E+02 0.87520664871E+01 0.85090491854E+01
 0.95335459121E+01 0.11147306747E+02 0.12255895308E+02 0.12106710111E+02 0.10753287306E+02
 0.88961770592E+01 0.71007173414E+01 0.56137105092E+01 0.45274596996E+01 0.38281980963E+01
 0.34624814224E+01 0.33855488851E+01 0.35843230157E+01 0.40807148026E+01 0.49185445469E+01
 0.61312295671E+01 0.76880740876E+01 0.94374312867E+01 0.11057585802E+02 0.10625581783E+02
 0.11632397366E+02 0.11784422667E+02 0.11337852995E+02 0.10948838479E+02 0.11147351927E+02
 0.11899576017E+02 0.12618403401E+02 0.12611425881E+02 0.11604227996E+02 0.99298288132E+01
 0.81251859754E+01 0.64923492102E+01 0.51930560607E+01 0.42675088947E+01 0.36843582676E+01
 0.33941713926E+01 0.33627429044E+01 0.35842986937E+01 0.40807148026E+01 0.48887488857E+01
 0.60319291862E+01 0.74762571108E+01 0.90882306672E+01 0.86021119782E+01 0.10035243466E+02
 0.11184747364E+02 0.11818138054E+02 0.12059934060E+02 0.12255929284E+02 0.12618486178E+02
 0.12996518582E+02 0.12977738356E+02 0.12237767099E+02 0.10838168477E+02 0.91509740763E+01
 0.74772429534E+01 0.60270312594E+01 0.49007846272E+01 0.41074341214E+01 0.36111367236E+01
 0.33710962180E+01 0.33627429044E+01 0.35843230157E+01 0.40545733886E+01 0.48021365135E+01
 0.58429399696E+01 0.71456398164E+01 0.67262821663E+01 0.80188876418E+01 0.93311935997E+01
 0.10522545160E+02 0.11447154772E+02 0.12106646248E+02 0.12611465594E+02 0.12977839280E+02
 0.13039961757E+02 0.12574869986E+02 0.11530439638E+02 0.10097570974E+02 0.85156907232E+01
 0.70106616104E+01 0.57354844092E+01 0.47512052140E+01 0.40534330277E+01 0.36111367236E+01
 0.33941713926E+01 0.33855488851E+01 0.35844164758E+01 0.40044176684E+01 0.46665003436E+01
 0.55819335244E+01 0.52721793848E+01 0.62540010970E+01 0.73837961280E+01 0.85718424221E+01
 0.97215031940E+01 0.10753217578E+02 0.11604143089E+02 0.12237802167E+02 0.12574972322E+02
 0.12486363309E+02 0.11896699914E+02 0.10859739521E+02 0.95266599197E+01 0.81014342664E+01
 0.67668116555E+01 0.56362639598E+01 0.47512052140E+01 0.41074341214E+01 0.36843582676E+01
 0.34624814224E+01 0.34299362401E+01 0.35845100256E+01 0.39342075184E+01 0.44936951886E+01
 0.42980591291E+01 0.49392737121E+01 0.57659077150E+01 0.67431732412E+01 0.78105372776E+01
 0.88962323296E+01 0.99297627586E+01 0.10838075581E+02 0.11530464674E+02 0.11896792689E+02
 0.11838071981E+02 0.11317694542E+02 0.10395811423E+02 0.92171014115E+01 0.79577365260E+01
 0.67668116555E+01 0.57354844092E+01 0.49007846272E+01 0.42675088947E+01 0.38281980963E+01
 0.35730592380E+01 0.34934033241E+01 0.35845806474E+01 0.38494434643E+01 0.37564562259E+01
 0.40947033751E+01 0.46083185645E+01 0.52967383706E+01 0.61405265012E+01 0.71008008450E+01
 0.81252598077E+01 0.91509250574E+01 0.10097479061E+02 0.10859750791E+02 0.11317773723E+02
 0.11372630244E+02 0.10991511074E+02 0.10230607743E+02 0.92171014115E+01 0.81014342664E+01
 0.70106616104E+01 0.60270312594E+01 0.51930560607E+01 0.45274596996E+01 0.40370067774E+01
 0.37207796195E+01 0.35723285065E+01 0.35846180524E+01 0.35845972436E+01 0.36619480038E+01
 0.38981050597E+01 0.43015483229E+01 0.48761002642E+01 0.56136601761E+01 0.64924230577E+01
 0.74773309180E+01 0.85156596356E+01 0.95265701114E+01 0.10395811433E+02 0.10991581662E+02
 0.11204431077E+02 0.10991511074E+02 0.10395811423E+02 0.95266599197E+01 0.85156907232E+01
 0.74772429534E+01 0.64923492102E+01 0.56137105092E+01 0.48762019776E+01 0.43015774180E+01
 0.38980534360E+01 0.36618934730E+01 0.37563824574E+01 0.35845653347E+01 0.35723447629E+01
 0.37208401909E+01 0.40370095205E+01 0.45273670255E+01 0.51929854070E+01 0.60270877154E+01
 0.70107550240E+01 0.81014169775E+01 0.92170151861E+01 0.10230604334E+02 0.10991581662E+02
 0.11372630244E+02 0.11317694542E+02 0.10859739521E+02 0.10097570974E+02 0.91509740763E+01
 0.81251859754E+01 0.71007173414E+01 0.61405504682E+01 0.52968271346E+01 0.46083630094E+01
 0.40946690929E+01 0.42980513794E+01 0.38493658037E+01 0.35844798982E+01 0.34933797570E+01
 0.35731336352E+01 0.38282420884E+01 0.42674302674E+01 0.49006953523E+01 0.57355261126E+01
 0.67669097044E+01 0.79577261176E+01 0.92170151861E+01 0.10395811433E+02 0.11317773723E+02
 0.11838071981E+02 0.11896699914E+02 0.11530439638E+02 0.10838168477E+02 0.99298288132E+01
 0.88961770592E+01 0.78104515360E+01 0.67431676971E+01 0.57659676361E+01 0.49393236857E+01
 0.52722194214E+01 0.44937214918E+01 0.39341495816E+01 0.35843809736E+01 0.34298793887E+01
 0.34625647487E+01 0.36844345415E+01 0.41073685037E+01 0.47511092752E+01 0.56363024116E+01
 0.67669097044E+01 0.81014169775E+01 0.95265701114E+01 0.10859750791E+02 0.11896792689E+02
 0.12486363309E+02 0.12574869986E+02 0.12237767099E+02 0.11604227996E+02 0.10753287306E+02
 0.97214708448E+01 0.85717741641E+01 0.73837681331E+01 0.62540161283E+01 0.67262403984E+01
 0.55819615886E+01 0.46665747548E+01 0.40043951993E+01 0.35842680865E+01 0.33854626849E+01
 0.33942609355E+01 0.36112359243E+01 0.40533756207E+01 0.47511092752E+01 0.57355261126E+01
 0.70107550240E+01 0.85156596356E+01 0.10097479061E+02 0.11530464674E+02 0.12574972322E+02
 0.13039961757E+02 0.12977738356E+02 0.12611425881E+02 0.12106710111E+02 0.11447215000E+02
 0.10522544312E+02 0.93311611253E+01 0.80188391397E+01 0.86020526881E+01 0.71455471666E+01
 0.58429586750E+01 0.48022541220E+01 0.40545811055E+01 0.35841649239E+01 0.33626452367E+01
 0.33711913971E+01 0.36112359243E+01 0.41073685037E+01 0.49006953523E+01 0.60270877154E+01
 0.74773309180E+01 0.91509250574E+01 0.10838075581E+02 0.12237802167E+02 0.12977839280E+02
 0.12996518582E+02 0.12618403401E+02 0.12255895308E+02 0.12059965299E+02 0.11818172652E+02
 0.11184778349E+02 0.10035258739E+02 0.10625655658E+02 0.90881690175E+01 0.74761185624E+01
 0.60319363285E+01 0.48888977880E+01 0.40807454218E+01 0.35841412551E+01 0.33626452367E+01
 0.33942609355E+01 0.36844345415E+01 0.42674302674E+01 0.51929854070E+01 0.64924230577E+01
 0.81252598077E+01 0.99297627586E+01 0.11604143089E+02 0.12611465594E+02 0.12618486178E+02
 0.11899576017E+02 0.11147306747E+02 0.10948819349E+02 0.11337837721E+02 0.11784416864E+02
 0.11632462333E+02 0.11867147775E+02 0.11057710516E+02 0.94373665469E+01 0.76879046503E+01
 0.61312343150E+01 0.49187082624E+01 0.40807454218E+01 0.35841649239E+01 0.33854626849E+01
 0.34625647487E+01 0.38282420884E+01 0.45273670255E+01 0.56136601761E+01 0.71008008450E+01
 0.88962323296E+01 0.10753217578E+02 0.12106646248E+02 0.12255929284E+02 0.11147351927E+02
 0.95335459121E+01 0.85090564425E+01 0.87520675935E+01 0.10038654388E+02 0.11409895292E+02
 0.10880408208E+02 0.11950686953E+02 0.11316073221E+02 0.96199522447E+01 0.77608698353E+01
 0.61312343150E+01 0.48888977880E+01 0.40545811055E+01 0.35842680865E+01 0.34298793887E+01
 0.35731336352E+01 0.40370095205E+01 0.48761002642E+01 0.61405265012E+01 0.78105372776E+01
 0.97215031940E+01 0.11447154772E+02 0.12059934060E+02 0.10948838479E+02 0.85090491854E+01
 0.60511548830E+01 0.50191260764E+01 0.60356818144E+01 0.84731844894E+01 0.70728943557E+01
 0.10431833907E+02 0.11964683948E+02 0.11401465287E+02 0.96199522447E+01 0.76879046503E+01
 0.60319363285E+01 0.48022541220E+01 0.40043951993E+01 0.35843809736E+01 0.34933797570E+01
 0.37208401909E+01 0.43015483229E+01 0.52967383706E+01 0.67431732412E+01 0.85718424221E+01
 0.10522545160E+02 0.11818138054E+02 0.11337852995E+02 0.87520664871E+01 0.50190580190E+01
 0.19911655138E+01 0.13201334243E+01 0.33937393903E+01 0.14730221430E+01 0.62483756720E+01
 0.10257562220E+02 0.11964683948E+02 0.11316073221E+02 0.94373665469E+01 0.74761185624E+01
 0.58429586750E+01 0.46665747548E+01 0.39341495816E+01 0.35844798982E+01 0.35723447629E+01
 0.38981050597E+01 0.46083185645E+01 0.57659077150E+01 0.73837961280E+01 0.93311935997E+01
 0.11184747364E+02 0.11784422667E+02 0.10038721781E+02 0.60356567651E+01 0.13200063585E+01
 -.18369682127E+01 -.17816455191E+01 -.35509876875E+01 0.77073900993E+00 0.62483756720E+01
 0.10431833907E+02 0.11950686953E+02 0.11057710516E+02 0.90881690175E+01 0.71455471666E+01
 0.55819615886E+01 0.44937214918E+01 0.38493658037E+01 0.35845653347E+01 0.36619480038E+01
 0.40947033751E+01 0.49392737121E+01 0.62540010970E+01 0.80188876418E+01 0.10035243466E+02
 0.11632397366E+02 0.11409944286E+02 0.84733018728E+01 0.33936941447E+01 -.17818183670E+01
 -.45740660335E+01 -.35508026638E+01 -.21223983047E+01 0.21903221168E+01 0.72388028685E+01
 0.10778418177E+02 0.11724175793E+02 0.10525828155E+02 0.85240131767E+01 0.66440844091E+01
 0.51673276715E+01 0.41602966879E+01 0.35800801652E+01 0.33627619803E+01 0.34765429653E+01
 0.39403928468E+01 0.48130110009E+01 0.61485891092E+01 0.79159482800E+01 0.99028431135E+01
 0.11398523758E+02 0.11048746777E+02 0.81086442088E+01 0.32876164485E+01 -.13645810422E+01
 -.21226126952E+01 -.35508251315E+01 -.13643876305E+01 0.32877224178E+01 0.81085458154E+01
 0.11048650446E+02 0.11398564471E+02 0.99029099039E+01 0.79159482316E+01 0.61485782020E+01
 0.48130180946E+01 0.39403717384E+01 0.34765170342E+01 0.33627922222E+01 0.35801150950E+01
 0.41602658893E+01 0.51673088641E+01 0.66441525106E+01 0.85240430073E+01 0.10525708919E+02
 0.11724077412E+02 0.10778533303E+02 0.72389672581E+01 0.21902511533E+01 0.23377987070E+01
 -.12034848083E+01 -.17815082062E+01 0.86898333986E+00 0.53159156738E+01 0.93487825481E+01
 0.11311621533E+02 0.10935815224E+02 0.91913855738E+01 0.72731735931E+01 0.56520730893E+01
 0.44764310179E+01 0.37449865972E+01 0.33979065084E+01 0.33855610722E+01 0.37023036385E+01
 0.43902940945E+01 0.55142854009E+01 0.71016878757E+01 0.90520713216E+01 0.11020647660E+02
 0.11967197055E+02 0.10690443896E+02 0.70394608467E+01 0.76057275906E+01 0.37094481152E+01
 0.11683049117E+01 0.13201815114E+01 0.40156974231E+01 0.77320509895E+01 0.10564455724E+02
 0.11374198636E+02 0.10312798305E+02 0.84448767628E+01 0.66390155085E+01 0.51875961886E+01
 0.41786791463E+01 0.35856904806E+01 0.33488594257E+01 0.34298790802E+01 0.38353770757E+01
 0.46140930424E+01 0.58267584973E+01 0.74833110734E+01 0.94564843857E+01 0.11364450853E+02
 0.12173054515E+02 0.10889408760E+02 0.11348760335E+02 0.87920127037E+01 0.59543081177E+01
 0.44133953594E+01 0.50191098613E+01 0.73329312256E+01 0.99421771216E+01 0.11403139351E+02
 0.11120289701E+02 0.95670015123E+01 0.77092926247E+01 0.60522387526E+01 0.47822287373E+01
 0.39360834143E+01 0.34710155564E+01 0.33322138432E+01 0.34932843503E+01 0.39704736872E+01
 0.48145749336E+01 0.60782559919E+01 0.77546302568E+01 0.97003768827E+01 0.11538155586E+02
 0.12343953480E+02 0.12429836138E+02 0.11916146517E+02 0.10260023988E+02 0.85059906650E+01
 0.77805670502E+01 0.85089679148E+01 0.10124486946E+02 0.11485459107E+02 0.11670903306E+02
 0.10559336992E+02 0.87916459224E+01 0.70282776866E+01 0.55457925118E+01 0.44567364067E+01
 0.37601834305E+01 0.34063751379E+01 0.33488766735E+01 0.35721486386E+01 0.40982756465E+01
 0.49755667640E+01 0.62460806625E+01 0.78893990633E+01 0.97588418774E+01 0.11520801955E+02
 0.11293597347E+02 0.12347976239E+02 0.12371096042E+02 0.11595435910E+02 0.10764119202E+02
 0.10574891093E+02 0.11147169970E+02 0.11936914897E+02 0.12160524759E+02 0.11384503653E+02
 0.98240140835E+01 0.80619785232E+01 0.64435819886E+01 0.51463398074E+01 0.42258054256E+01
 0.36581256508E+01 0.33943703421E+01 0.33979531961E+01 0.36617343576E+01 0.42095221071E+01
 0.50835267585E+01 0.63145433013E+01 0.78737144689E+01 0.96231577809E+01 0.93028476689E+01
 0.10853747186E+02 0.12023521396E+02 0.12510577482E+02 0.12447550647E+02 0.12277287789E+02
 0.12351820591E+02 0.12618270841E+02 0.12659967984E+02 0.12054696530E+02 0.10746150322E+02
 0.90925208399E+01 0.74362096201E+01 0.59924773250E+01 0.48740972888E+01 0.40989337139E+01
 0.36334923772E+01 0.34350534619E+01 0.34766113688E+01 0.37562773923E+01 0.42958744794E+01
 0.51292943745E+01 0.62772345577E+01 0.77082719525E+01 0.74085870269E+01 0.88250318503E+01
 0.10229981928E+02 0.11432296270E+02 0.12228567475E+02 0.12640973851E+02 0.12864097463E+02
 0.13013956029E+02 0.12977609930E+02 0.12507628879E+02 0.11476460371E+02 0.10043754431E+02
 0.84682383965E+01 0.69695662237E+01 0.57053243252E+01 0.47431685879E+01 0.40812610810E+01
 0.36867369034E+01 0.35260532113E+01 0.35802359997E+01 0.38493803639E+01 0.43506368835E+01
 0.51091111003E+01 0.61379900646E+01 0.59103524976E+01 0.70025845863E+01 0.82308424927E+01
 0.94803943373E+01 0.10626601576E+02 0.11558321497E+02 0.12220006576E+02 0.12635422358E+02
 0.12788184611E+02 0.12574797648E+02 0.11900467049E+02 0.10812147816E+02 0.94583191877E+01
 0.80303184374E+01 0.67071845613E+01 0.56036500398E+01 0.47615906613E+01 0.41740076413E+01
 0.38155507928E+01 0.36627496291E+01 0.37025027720E+01 0.39343044650E+01 0.43694343818E+01
 0.50252118496E+01 0.48853532169E+01 0.56153408587E+01 0.65265015444E+01 0.75702431648E+01
 0.86664514838E+01 0.97237314475E+01 0.10661681588E+02 0.11415072205E+02 0.11920665055E+02
 0.12105120793E+02 0.11896661194E+02 0.11273053005E+02 0.10292861662E+02 0.90921230701E+01
 0.78392348664E+01 0.66788417864E+01 0.56987985448E+01 0.49313035307E+01 0.43745438454E+01
 0.40146854433E+01 0.38380874330E+01 0.38356119236E+01 0.40046667707E+01 0.43507831372E+01
 0.42961342263E+01 0.47017269846E+01 0.52785619017E+01 0.60200063226E+01 0.68958196558E+01
 0.78527393559E+01 0.88249319720E+01 0.97436667373E+01 0.10536567761E+02 0.11120548052E+02
 0.11405132873E+02 0.11317696586E+02 0.10840411390E+02 0.10031889814E+02 0.90137684928E+01
 0.79286224542E+01 0.68960545902E+01 0.59909109130E+01 0.52473984484E+01 0.46756254782E+01
 0.42754715879E+01 0.40426206668E+01 0.39707573991E+01 0.40549569334E+01 0.40811374912E+01
 0.42098547961E+01 0.44894049078E+01 0.49267940621E+01 0.55214194002E+01 0.62572034474E+01
 0.71017793380E+01 0.80104103443E+01 0.89270673966E+01 0.97790660610E+01 0.10472868696E+02
 0.10904834484E+02 0.10991538715E+02 0.10705338599E+02 0.10090886773E+02 0.92494612729E+01
 0.83012824090E+01 0.73500479525E+01 0.64673992401E+01 0.56968560705E+01 0.50644687386E+01
 0.45852694009E+01 0.42644152661E+01 0.40985318812E+01 0.42097388294E+01 0.40811143199E+01
 0.40986138075E+01 0.42644842793E+01 0.45852185482E+01 0.50643428917E+01 0.56968066640E+01
 0.64674784833E+01 0.73501282688E+01 0.83012468505E+01 0.92493825557E+01 0.10090899614E+02
 0.10705411281E+02 0.10991533318E+02 0.10904754484E+02 0.10472860040E+02 0.97791615339E+01
 0.89271157901E+01 0.80103205975E+01 0.71016761465E+01 0.62572424794E+01 0.55215597463E+01
 0.49268633824E+01 0.44893309527E+01 0.47017027217E+01 0.42960103075E+01 0.40548517568E+01
 0.39707684324E+01 0.40427068373E+01 0.42754882708E+01 0.46755206209E+01 0.52473048165E+01
 0.59909548708E+01 0.68961549738E+01 0.79286186118E+01 0.90136811857E+01 0.10031874775E+02
 0.10840486347E+02 0.11317718318E+02 0.11405058771E+02 0.11120515452E+02 0.10536652776E+02
 0.97437460479E+01 0.88248810421E+01 0.78526289838E+01 0.68958048217E+01 0.60201077502E+01
 0.52786550028E+01 0.56154374121E+01 0.48853510118E+01 0.43506608890E+01 0.40045275501E+01
 0.38355899346E+01 0.38381778534E+01 0.40147278963E+01 0.43744518630E+01 0.49312100959E+01
 0.56988463756E+01 0.66789410479E+01 0.78392132171E+01 0.90920240896E+01 0.10292866490E+02
 0.11273157613E+02 0.11896682614E+02 0.12105022850E+02 0.11920627594E+02 0.11415185434E+02
 0.10661793680E+02 0.97236899061E+01 0.86663240106E+01 0.75701969145E+01 0.65265786634E+01
 0.70025751842E+01 0.59104193177E+01 0.50252750419E+01 0.43693750595E+01 0.39341402762E+01
 0.37024172762E+01 0.36628338967E+01 0.38156455274E+01 0.41739529894E+01 0.47614877215E+01
 0.56036755360E+01 0.67072805595E+01 0.80303077690E+01 0.94582288578E+01 0.10812153729E+02
 0.11900573417E+02 0.12574835004E+02 0.12788112811E+02 0.12635391494E+02 0.12220095802E+02
 0.11558423229E+02 0.10626602272E+02 0.94803133581E+01 0.82307657396E+01 0.88249167808E+01
 0.74085198045E+01 0.61380581466E+01 0.51092264974E+01 0.43506047149E+01 0.38492000566E+01
 0.35801455026E+01 0.35261631371E+01 0.36868453576E+01 0.40811933657E+01 0.47430657608E+01
 0.57053760285E+01 0.69696728427E+01 0.84682045636E+01 0.10043647359E+02 0.11476487232E+02
 0.12507772803E+02 0.12977669830E+02 0.13013884572E+02 0.12864048505E+02 0.12641040894E+02
 0.12228675716E+02 0.11432339808E+02 0.10229926505E+02 0.10853768807E+02 0.93027472812E+01
 0.77081412897E+01 0.62772573338E+01 0.51294397195E+01 0.42959019194E+01 0.37561266016E+01
 0.34765150939E+01 0.34351462416E+01 0.36335939323E+01 0.40988824720E+01 0.48740203779E+01
 0.59925280869E+01 0.74362877294E+01 0.90924804161E+01 0.10746077090E+02 0.12054746392E+02
 0.12660094255E+02 0.12618323891E+02 0.12351788120E+02 0.12277260584E+02 0.12447565214E+02
 0.12510624850E+02 0.12023590417E+02 0.12348103428E+02 0.11293683845E+02 0.96230400697E+01
 0.78735310004E+01 0.63145655181E+01 0.50837126838E+01 0.42095677175E+01 0.36615785775E+01
 0.33978673098E+01 0.33944812665E+01 0.36582209772E+01 0.42257338659E+01 0.51462589488E+01
 0.64436428544E+01 0.80620649781E+01 0.98239818459E+01 0.11384433025E+02 0.12160556182E+02
 0.11937024147E+02 0.11147250216E+02 0.10574902871E+02 0.10764070783E+02 0.11595365156E+02
 0.12371103610E+02 0.11916094310E+02 0.12429961902E+02 0.11520933168E+02 0.97587600824E+01
 0.78892213367E+01 0.62460847481E+01 0.49757250533E+01 0.40983175802E+01 0.35720331891E+01
 0.33488293827E+01 0.34064637852E+01 0.37602252710E+01 0.44566607044E+01 0.55457537656E+01
 0.70283481205E+01 0.87916974616E+01 0.10559296470E+02 0.11670865661E+02 0.11485492480E+02
 0.10124546458E+02 0.85090231106E+01 0.77806142108E+01 0.85059651693E+01 0.10259907680E+02
 0.87918206061E+01 0.11348647968E+02 0.12344105278E+02 0.11538342468E+02 0.97003112826E+01
 0.77544385589E+01 0.60782493057E+01 0.48147283877E+01 0.39705149669E+01 0.34931770755E+01
 0.33321688610E+01 0.34710880247E+01 0.39361155260E+01 0.47821679422E+01 0.60522038420E+01
 0.77093320215E+01 0.95670394175E+01 0.11120292618E+02 0.11403132435E+02 0.99421511510E+01
 0.73329043708E+01 0.50191712504E+01 0.44135205194E+01 0.59542999222E+01 0.37094588036E+01
 0.76055329102E+01 0.10889288240E+02 0.12173190939E+02 0.11364619725E+02 0.94564346102E+01
 0.74831704858E+01 0.58267691662E+01 0.46141946568E+01 0.38353694394E+01 0.34297946924E+01
 0.33488604232E+01 0.35857536680E+01 0.41786713886E+01 0.51875349041E+01 0.66390066445E+01
 0.84449114235E+01 0.10312813194E+02 0.11374209068E+02 0.10564466708E+02 0.77319989142E+01
 0.40156182604E+01 0.13202276337E+01 0.11684555466E+01 -.12032778122E+01 0.23378664625E+01
 0.70392688171E+01 0.10690291274E+02 0.11967306024E+02 0.11020818888E+02 0.90520558764E+01
 0.71015759686E+01 0.55142758764E+01 0.43903516390E+01 0.37022960322E+01 0.33855165909E+01
 0.33979115031E+01 0.37450088219E+01 0.44764197845E+01 0.56520659357E+01 0.72731816545E+01
 0.91913561252E+01 0.10935784023E+02 0.11311682452E+02 0.93488582933E+01 0.53158311807E+01
 0.86881354464E+00 -.17814898418E+01 0.14736409367E+01 0.23383149744E+01 0.54493769065E+01
 0.91527056415E+01 0.11631911007E+02 0.11987427684E+02 0.10603669714E+02 0.86158131577E+01
 0.67641468500E+01 0.52965067215E+01 0.42758877851E+01 0.36626400764E+01 0.33941691224E+01
 0.34349909993E+01 0.37961515610E+01 0.45284625136E+01 0.56879511020E+01 0.72703745367E+01
 0.91299962272E+01 0.10847806938E+02 0.11381612070E+02 0.99065024760E+01 0.67168536290E+01
 0.32879345698E+01 0.21905686721E+01 0.77138200872E+00 0.21908133798E+01 0.56614121508E+01
 0.93373140848E+01 0.11483249157E+02 0.11462315766E+02 0.98988366927E+01 0.79530972884E+01
 0.62192980221E+01 0.48955575297E+01 0.40145427411E+01 0.35259591642E+01 0.33711108963E+01
 0.35259650601E+01 0.40145255702E+01 0.48955561732E+01 0.62193420322E+01 0.79530910558E+01
 0.98987238214E+01 0.11462256668E+02 0.11483378493E+02 0.93374410049E+01 0.56612825676E+01
 0.54492912998E+01 0.23380825758E+01 0.14736167788E+01 0.32881426443E+01 0.67169885720E+01
 0.99064357961E+01 0.11381525559E+02 0.10847831662E+02 0.91300501746E+01 0.72703814679E+01
 0.56879476437E+01 0.45284656100E+01 0.37961343819E+01 0.34349808405E+01 0.33941939992E+01
 0.36626385753E+01 0.42758335509E+01 0.52965050683E+01 0.67642320030E+01 0.86158178945E+01
 0.10603512839E+02 0.11987331812E+02 0.11632060343E+02 0.91528865762E+01 0.94927537831E+01
 0.61847819100E+01 0.37096175302E+01 0.33941346267E+01 0.53161995777E+01 0.82725049735E+01
 0.10592745637E+02 0.11194694544E+02 0.10138232053E+02 0.83500149806E+01 0.66123670851E+01
 0.52034518730E+01 0.42163975802E+01 0.36321998131E+01 0.33943588488E+01 0.34625062846E+01
 0.38380039423E+01 0.45648370924E+01 0.57049406468E+01 0.72833019398E+01 0.92084432765E+01
 0.11193466663E+02 0.12434912092E+02 0.11920982277E+02 0.12353904284E+02 0.10310571460E+02
 0.76916538603E+01 0.59543398750E+01 0.60358426476E+01 0.77321725484E+01 0.98661046377E+01
 0.11105907500E+02 0.10819120592E+02 0.93616704507E+01 0.76017505080E+01 0.60162224314E+01
 0.47918899504E+01 0.39750696490E+01 0.35307826754E+01 0.34064388566E+01 0.35730818780E+01
 0.40425511379E+01 0.48630302481E+01 0.60907742772E+01 0.77341643921E+01 0.96796093062E+01
 0.11623848568E+02 0.12794951391E+02 0.13022015747E+02 0.12832776073E+02 0.11384275437E+02
 0.95708993969E+01 0.85058986225E+01 0.87519872281E+01 0.99421102443E+01 0.11074456097E+02
 0.11241406403E+02 0.10233622030E+02 0.85868469294E+01 0.69228771331E+01 0.55115457495E+01
 0.44723768387E+01 0.38150944591E+01 0.34965072247E+01 0.34711472069E+01 0.37208024395E+01
 0.42643775974E+01 0.51494394964E+01 0.64225622194E+01 0.80759893519E+01 0.99832621850E+01
 0.11852713069E+02 0.11844544851E+02 0.13045077238E+02 0.13190874353E+02 0.12393030479E+02
 0.11333210843E+02 0.10763908205E+02 0.10948526112E+02 0.11485279892E+02 0.11646585871E+02
 0.10951512356E+02 0.95175291622E+01 0.78712062360E+01 0.63472313803E+01 0.51211919024E+01
 0.42578716270E+01 0.37426168474E+01 0.35309015571E+01 0.35859099083E+01 0.38980816148E+01
 0.44893043885E+01 0.54021327433E+01 0.66710949399E+01 0.82751724052E+01 0.10085809977E+02
 0.99724325069E+01 0.11582067656E+02 0.12797300694E+02 0.13257741082E+02 0.13030317545E+02
 0.12558136599E+02 0.12277043698E+02 0.12255518361E+02 0.12160266495E+02 0.11568264586E+02
 0.10354094878E+02 0.88087352635E+01 0.72586730060E+01 0.59049590554E+01 0.48622807562E+01
 0.41564545845E+01 0.37601016566E+01 0.36324251301E+01 0.37452497634E+01 0.40947175484E+01
 0.47016550980E+01 0.56003784735E+01 0.68131500696E+01 0.83105778225E+01 0.81774422143E+01
 0.96505712533E+01 0.11080332210E+02 0.12252536443E+02 0.12929770516E+02 0.13110359689E+02
 0.13021783092E+02 0.12863847227E+02 0.12611020755E+02 0.12054443262E+02 0.11040107716E+02
 0.96742488713E+01 0.81941031328E+01 0.67940576234E+01 0.56219440177E+01 0.47471275801E+01
 0.41722006525E+01 0.38666205827E+01 0.37963780985E+01 0.39406794974E+01 0.42981202974E+01
 0.48852828732E+01 0.57269253305E+01 0.68349781381E+01 0.67345255588E+01 0.78883405555E+01
 0.91493994193E+01 0.10385741985E+02 0.11451685533E+02 0.12217237731E+02 0.12627948418E+02
 0.12749869051E+02 0.12635232558E+02 0.12237448571E+02 0.11476257237E+02 0.10380322877E+02
 0.90816319254E+01 0.77413317973E+01 0.65180590092E+01 0.55185409796E+01 0.47834361588E+01
 0.43055575068E+01 0.40579974128E+01 0.40147648473E+01 0.41605786990E+01 0.44938117751E+01
 0.50251475377E+01 0.57703982609E+01 0.57267939912E+01 0.65216949731E+01 0.74713421326E+01
 0.85156905894E+01 0.95603414207E+01 0.10500018659E+02 0.11248732538E+02 0.11752327839E+02
 0.11983711850E+02 0.11920555985E+02 0.11530227287E+02 0.10812004694E+02 0.98208558526E+01
 0.86717309380E+01 0.75095508354E+01 0.64621681194E+01 0.56081302807E+01 0.49740629016E+01
 0.45531095930E+01 0.43263362062E+01 0.42759723097E+01 0.43905605721E+01 0.46666720567E+01
 0.51090769197E+01 0.51292785735E+01 0.56001456517E+01 0.62168790835E+01 0.69655522390E+01
 0.78066679511E+01 0.86768265202E+01 0.95022191497E+01 0.10214212367E+02 0.10755248371E+02
 0.11073769740E+02 0.11120510391E+02 0.10859633785E+02 0.10292798580E+02 0.94771797123E+01
 0.85186488548E+01 0.75401759068E+01 0.66449122164E+01 0.58954383692E+01 0.53157605656E+01
 0.49064845953E+01 0.46593897355E+01 0.45648464207E+01 0.46142882909E+01 0.48023364559E+01
 0.48889604948E+01 0.50835822269E+01 0.54019074780E+01 0.58476756170E+01 0.64152328370E+01
 0.70821201484E+01 0.78092933956E+01 0.85475983718E+01 0.92435881959E+01 0.98395651318E+01
 0.10271237985E+02 0.10472907885E+02 0.10395799372E+02 0.10031858054E+02 0.94260112028E+01
 0.86654494234E+01 0.78510624958E+01 0.70685234848E+01 0.63741109939E+01 0.57972926509E+01
 0.53510344089E+01 0.50398940488E+01 0.48628838566E+01 0.48146556735E+01 0.49755378200E+01
 0.49187324485E+01 0.49756703652E+01 0.51492677316E+01 0.54451161754E+01 0.58641518015E+01
 0.63971701978E+01 0.70241770895E+01 0.77158836383E+01 0.84322844762E+01 0.91175214039E+01
 0.96977249832E+01 0.10090958166E+02 0.10230612210E+02 0.10090880094E+02 0.96977110908E+01
 0.91176071778E+01 0.84323276511E+01 0.77157971026E+01 0.70240820975E+01 0.63972194490E+01
 0.58642993912E+01 0.54451773734E+01 0.51491679928E+01 0.54018416459E+01 0.50834206433E+01
 0.48888901677E+01 0.48147463798E+01 0.48630083733E+01 0.50398841703E+01 0.53508980276E+01
 0.57972079553E+01 0.63741782521E+01 0.70686211992E+01 0.78510384912E+01 0.86653582967E+01
 0.94260135056E+01 0.10031946576E+02 0.10395815708E+02 0.10472822045E+02 0.10271207498E+02
 0.98396648043E+01 0.92436694660E+01 0.85475224305E+01 0.78091595532E+01 0.70821251731E+01
 0.64153854748E+01 0.58477864903E+01 0.62170027981E+01 0.56001333661E+01 0.51291410411E+01
 0.48022181963E+01 0.46143119734E+01 0.45649651286E+01 0.46594313489E+01 0.49063824548E+01
 0.53156589995E+01 0.58954782910E+01 0.66450092110E+01 0.75401625136E+01 0.85185567187E+01
 0.94771791880E+01 0.10292896763E+02 0.10859661302E+02 0.11120423714E+02 0.11073736518E+02
 0.10755361225E+02 0.10214321522E+02 0.95021645872E+01 0.86766840219E+01 0.78066324724E+01
 0.69656683509E+01 0.74713921527E+01 0.65218257438E+01 0.57268570141E+01 0.51089824617E+01
 0.46665094285E+01 0.43905214037E+01 0.42760945399E+01 0.43264276822E+01 0.45530295115E+01
 0.49739449956E+01 0.56081613080E+01 0.64622763073E+01 0.75095399038E+01 0.86716273339E+01
 0.98208575432E+01 0.10812126995E+02 0.11530276403E+02 0.11920470612E+02 0.11983669803E+02
 0.11752444643E+02 0.11248872464E+02 0.10500006217E+02 0.95602052258E+01 0.85155991510E+01
 0.91492776136E+01 0.78883154844E+01 0.67346331497E+01 0.57705190833E+01 0.50251111864E+01
 0.44936429679E+01 0.41605047641E+01 0.40148823065E+01 0.40581100256E+01 0.43054927906E+01
 0.47833261476E+01 0.55185802338E+01 0.65181653354E+01 0.77413085708E+01 0.90815290715E+01
 0.10380346515E+02 0.11476402306E+02 0.12237510787E+02 0.12635158443E+02 0.12749830360E+02
 0.12628051799E+02 0.12217374979E+02 0.11451709819E+02 0.10385642053E+02 0.11080302420E+02
 0.96504257055E+01 0.81773266079E+01 0.68350521782E+01 0.57271045513E+01 0.48853091286E+01
 0.42979551361E+01 0.39405849194E+01 0.37964969178E+01 0.38667485535E+01 0.41721452186E+01
 0.47470241580E+01 0.56219883904E+01 0.67941600442E+01 0.81940761932E+01 0.96741565296E+01
 0.11040146664E+02 0.12054599375E+02 0.12611105426E+02 0.12863802849E+02 0.13021733689E+02
 0.13110402019E+02 0.12929875955E+02 0.12252616718E+02 0.12797422067E+02 0.11582107205E+02
 0.99722866824E+01 0.83104057036E+01 0.68131960356E+01 0.56005808688E+01 0.47017131178E+01
 0.40945723453E+01 0.37451726614E+01 0.36325504398E+01 0.37602160170E+01 0.41563905457E+01
 0.48621926314E+01 0.59050164562E+01 0.72587654667E+01 0.88087023221E+01 0.10354020109E+02
 0.11568316435E+02 0.12160416226E+02 0.12255611457E+02 0.12277027165E+02 0.12558073668E+02