    2    2   15    1
  0.1529437E+02  0.3691622E-09  0.3691622E-09  0.3691622E-09  0.5000000E-15
  1.000000000000000E-004
  CAR 
 unknown system                          
      8     28      8
 
  0.8333333E-01  0.8333333E-01  0.8333333E-01  0.3703704E-01
    1       -3.671650   1.000000
    2        3.932506   1.000000
    3        7.147861   1.000000
    4        8.693454   0.999891
    5       12.938924   0.000000
    6       13.787149   0.000000
    7       13.993456   0.000000
    8       15.845127   0.000000
 
  0.2500000E+00  0.8333333E-01  0.8333333E-01  0.7407407E-01
    1       -1.353714   1.000000
    2        4.292413   1.000000
    3        7.481390   1.000000
    4        7.997301   1.000000
    5        9.754140   0.000072
    6       12.358014   0.000000
    7       13.634491   0.000000
    8       14.397765   0.000000
 
  0.4166667E+00  0.8333333E-01  0.8333333E-01  0.3703704E-01
    1        2.169428   1.000000
    2        2.729517   1.000000
    3        6.019626   1.000000
    4        6.134741   1.000000
    5        9.587409   0.004359
    6       11.452187   0.000000
    7       13.682760   0.000000
    8       14.623270   0.000000
 
 -0.8333333E-01  0.8333333E-01  0.8333333E-01  0.1851852E-01
    1       -4.451613   1.000000
    2        4.536492   1.000000
    3        5.717712   1.000000
    4        8.291779   1.000000
    5       11.580590   0.000000
    6       14.449756   0.000000
    7       17.537539   0.000000
    8       18.326778   0.000000
 
  0.2500000E+00  0.2500000E+00  0.8333333E-01  0.3703704E-01
    1        2.077490   1.000000
    2        3.983784   1.000000
    3        4.093951   1.000000
    4        5.854076   1.000000
    5       11.014252   0.000000
    6       12.264996   0.000000
    7       13.906834   0.000000
    8       14.358984   0.000000
 
  0.4166667E+00  0.2500000E+00  0.8333333E-01  0.7407407E-01
    1       -0.058459   1.000000
    2        1.850338   1.000000
    3        6.982756   1.000000
    4        8.309333   1.000000
    5       10.015542   0.000000
    6       11.849268   0.000000
    7       13.625267   0.000000
    8       15.268915   0.000000
 
 -0.4166667E+00  0.2500000E+00  0.8333333E-01  0.3703704E-01
    1       -2.684353   1.000000
    2        1.179564   1.000000
    3        8.056469   1.000000
    4        9.902926   0.000001
    5       11.506676   0.000000
    6       12.990674   0.000000
    7       14.132101   0.000000
    8       14.336343   0.000000
 
 -0.2500000E+00  0.2500000E+00  0.8333333E-01  0.3703704E-01
    1       -3.790683   1.000000
    2        1.964258   1.000000
    3        5.989823   1.000000
    4        9.901251   0.000001
    5       11.534644   0.000000
    6       14.626481   0.000000
    7       15.438942   0.000000
    8       18.876311   0.000000
 
 -0.8333333E-01  0.2500000E+00  0.8333333E-01  0.3703704E-01
    1       -3.342448   1.000000
    2        3.679138   1.000000
    3        5.200188   1.000000
    4       10.736143   0.000000
    5       11.880823   0.000000
    6       13.263005   0.000000
    7       14.147142   0.000000
    8       15.935781   0.000000
 
  0.4166667E+00  0.4166667E+00  0.8333333E-01  0.1851852E-01
    1       -1.056373   1.000000
    2       -1.056370   1.000000
    3        9.525503   0.014439
    4        9.525509   0.014438
    5       11.441482   0.000000
    6       11.441506   0.000000
    7       13.729062   0.000000
    8       13.729090   0.000000
 
 -0.4166667E+00  0.4166667E+00  0.8333333E-01  0.3703704E-01
    1       -2.477902   1.000000
    2       -0.538533   1.000000
    3        7.220861   1.000000
    4        9.090467   0.813542
    5       11.327493   0.000000
    6       13.172052   0.000000
    7       18.277180   0.000000
    8       18.488965   0.000000
 
 -0.2500000E+00  0.4166667E+00  0.8333333E-01  0.7407407E-01
    1       -2.360393   1.000000
    2        1.444210   1.000000
    3        5.599818   1.000000
    4        9.231051   0.458958
    5       11.396054   0.000000
    6       13.533247   0.000000
    7       15.561109   0.000000
    8       16.830971   0.000000
 
 -0.8333333E-01  0.4166667E+00  0.8333333E-01  0.3703704E-01
    1       -0.708386   1.000000
    2        4.273284   1.000000
    3        5.896985   1.000000
    4        6.465736   1.000000
    5       10.110948   0.000000
    6       12.335977   0.000000
    7       13.411937   0.000000
    8       15.440194   0.000000
 
 -0.4166667E+00 -0.4166667E+00  0.8333333E-01  0.3703704E-01
    1       -0.747771   1.000000
    2       -0.742199   1.000000
    3        7.098549   1.000000
    4        7.116908   1.000000
    5       11.289441   0.000000
    6       14.589831   0.000000
    7       15.359510   0.000000
    8       15.407370   0.000000
 
 -0.2500000E+00 -0.4166667E+00  0.8333333E-01  0.7407407E-01
    1        0.567960   1.000000
    2        2.412027   1.000000
    3        5.787693   1.000000
    4        6.587617   1.000000
    5        8.279152   1.000000
    6       11.878045   0.000000
    7       15.482639   0.000000
    8       17.053971   0.000000
 
 -0.8333333E-01 -0.4166667E+00  0.8333333E-01  0.3703704E-01
    1        1.453964   1.000000
    2        3.431417   1.000000
    3        6.384425   1.000000
    4        7.604538   1.000000
    5        8.202929   1.000000
    6       10.903622   0.000000
    7       11.683056   0.000000
    8       15.759001   0.000000
 
 -0.2500000E+00 -0.2500000E+00  0.8333333E-01  0.3703704E-01
    1        1.148197   1.000000
    2        4.882721   1.000000
    3        4.930992   1.000000
    4        7.735002   1.000000
    5        8.729565   0.999712
    6       10.325685   0.000000
    7       12.758532   0.000000
    8       13.543805   0.000000
 
 -0.8333333E-01 -0.2500000E+00  0.8333333E-01  0.3703704E-01
    1       -2.005827   1.000000
    2        6.733086   1.000000
    3        7.734327   1.000000
    4        8.500826   1.000000
    5        9.897193   0.000001
    6       11.134107   0.000000
    7       12.453184   0.000000
    8       13.629717   0.000000
 
 -0.8333333E-01 -0.8333333E-01  0.8333333E-01  0.9259259E-02
    1       -4.002074   1.000000
    2        6.807899   1.000000
    3        6.844128   1.000000
    4        6.844153   1.000000
    5       11.286513   0.000000
    6       14.540748   0.000000
    7       14.812426   0.000000
    8       16.750148   0.000000
 
  0.2500000E+00  0.2500000E+00  0.2500000E+00  0.9259259E-02
    1        3.377570   1.000000
    2        3.377597   1.000000
    3        4.065927   1.000000
    4        4.065930   1.000000
    5       13.276579   0.000000
    6       13.276594   0.000000
    7       15.060635   0.000000
    8       15.060658   0.000000
 
 -0.2500000E+00  0.2500000E+00  0.2500000E+00  0.1851852E-01
    1       -3.135427   1.000000
    2        1.958195   1.000000
    3        3.647191   1.000000
    4        8.610931   0.999991
    5       12.985796   0.000000
    6       16.225696   0.000000
    7       17.345996   0.000000
    8       18.236251   0.000000
 
 -0.4166667E+00  0.4166667E+00  0.2500000E+00  0.3703704E-01
    1       -1.841051   1.000000
    2        0.037243   1.000000
    3        4.297471   1.000000
    4        6.129356   1.000000
    5       14.849130   0.000000
    6       16.280242   0.000000
    7       17.813775   0.000000
    8       18.207346   0.000000
 
 -0.2500000E+00  0.4166667E+00  0.2500000E+00  0.3703704E-01
    1       -1.397574   1.000000
    2        1.735965   1.000000
    3        3.481649   1.000000
    4        6.538078   1.000000
    5       10.825035   0.000000
    6       16.600101   0.000000
    7       17.510533   0.000000
    8       18.494353   0.000000
 
 -0.4166667E+00 -0.4166667E+00  0.2500000E+00  0.3703704E-01
    1        0.145332   1.000000
    2        0.155923   1.000000
    3        4.416510   1.000000
    4        4.418455   1.000000
    5       10.560103   0.000000
    6       17.696068   0.000000
    7       18.353669   0.000000
    8       19.099109   0.000000
 
 -0.2500000E+00 -0.4166667E+00  0.2500000E+00  0.3703704E-01
    1        1.769646   1.000000
    2        2.995718   1.000000
    3        4.755204   1.000000
    4        5.237713   1.000000
    5        6.031034   1.000000
    6       14.000399   0.000000
    7       15.462510   0.000000
    8       17.353131   0.000000
 
 -0.2500000E+00 -0.2500000E+00  0.2500000E+00  0.9259259E-02
    1        0.833149   1.000000
    2        5.781493   1.000000
    3        5.875398   1.000000
    4        7.272483   1.000000
    5        7.272500   1.000000
    6       11.594024   0.000000
    7       12.383917   0.000000
    8       12.383936   0.000000
 
 -0.4166667E+00  0.4166667E+00  0.4166667E+00  0.1851852E-01
    1       -0.616389   1.000000
    2        0.643651   1.000000
    3        2.445793   1.000000
    4        3.687586   1.000000
    5       16.239142   0.000000
    6       16.441430   0.000000
    7       19.441598   0.000000
    8       20.573358   0.000000
 
 -0.4166667E+00 -0.4166667E+00  0.4166667E+00  0.9259259E-02
    1        1.071357   1.000000
    2        1.089508   1.000000
    3        2.875705   1.000000
    4        2.875712   1.000000
    5       10.285069   0.000000
    6       19.248766   0.000000
    7       20.406266   0.000000
    8       20.406268   0.000000
