unknown system                          
   1.00000000000000     
    -2.450000    2.450000    1.274000
     2.450000   -2.450000    1.274000
     2.450000    2.450000   -1.274000
   Si
     2
Direct
  0.250000  0.750000  0.500000
  0.000000  0.000000  0.000000
 
   36   36   36
 -.52507066366E+01 -.43202295045E+01 -.17647485753E+01 0.17896480117E+01 0.55337370221E+01
 0.87171257013E+01 0.10835109461E+02 0.11712335358E+02 0.11483773057E+02 0.10501874632E+02
 0.92039685092E+01 0.78984255854E+01 0.67018040136E+01 0.56817430574E+01 0.48683269439E+01
 0.42628579322E+01 0.38507791569E+01 0.36133559586E+01 0.35360197093E+01 0.36133558163E+01
 0.38507874369E+01 0.42628718995E+01 0.48683339959E+01 0.56817425184E+01 0.67018069492E+01
 0.78984329015E+01 0.92039699325E+01 0.10501869430E+02 0.11483771136E+02 0.11712337901E+02
 0.10835108746E+02 0.87171231800E+01 0.55337407437E+01 0.17896535195E+01 -.17647529686E+01
 -.43202395432E+01 -.43202395432E+01 -.48079785610E+01 -.34818018665E+01 -.67960694224E+00
 0.29175589938E+01 0.65067389299E+01 0.93949655534E+01 0.11161004947E+02 0.11712124411E+02
 0.11245043921E+02 0.10142125128E+02 0.88288264520E+01 0.75476559817E+01 0.63962578429E+01
 0.54320953555E+01 0.46767278322E+01 0.41261593960E+01 0.37637796311E+01 0.35712410485E+01
 0.35358955019E+01 0.36549211749E+01 0.39361481656E+01 0.43955663887E+01 0.50516368146E+01
 0.59162257689E+01 0.69824194062E+01 0.82121147061E+01 0.95292210937E+01 0.10793568984E+02
 0.11649749066E+02 0.11670272151E+02 0.10544559384E+02 0.82032745702E+01 0.48965045297E+01
 0.11905850333E+01 -.21406558473E+01 -.17647529686E+01 -.34818093836E+01 -.35287396721E+01
 -.18979005324E+01 0.99277159190E+00 0.44434095570E+01 0.76950431252E+01 0.10140750727E+02
 0.11457391382E+02 0.11636014954E+02 0.10926096511E+02 0.97247254281E+01 0.84158230548E+01
 0.71719283610E+01 0.60766440289E+01 0.51761334458E+01 0.44834772449E+01 0.39900512108E+01
 0.36779801916E+01 0.35299452388E+01 0.35355765876E+01 0.36946417707E+01 0.40170395959E+01
 0.45196434672E+01 0.52200399860E+01 0.61269293978E+01 0.72278335329E+01 0.84776669281E+01
 0.97940465599E+01 0.11012462978E+02 0.11755037716E+02 0.11619503807E+02 0.10345117891E+02
 0.79266168095E+01 0.46748010546E+01 0.11905850333E+01 0.17896535195E+01 -.67960934360E+00
 -.18979038747E+01 -.15533203578E+01 0.25802917452E+00 0.30675509779E+01 0.61938401207E+01
 0.89548436311E+01 0.10850257465E+02 0.11661399208E+02 0.11457680478E+02 0.10527982763E+02
 0.92661089962E+01 0.79780990503E+01 0.67839070485E+01 0.57538702390E+01 0.49224714892E+01
 0.42949179064E+01 0.38589028237E+01 0.35961314335E+01 0.34908693427E+01 0.35352139429E+01
 0.37313422600E+01 0.40907753554E+01 0.46307088320E+01 0.53673344294E+01 0.63059475480E+01
 0.74289313765E+01 0.86856369703E+01 0.99895894892E+01 0.11157581308E+02 0.11812072456E+02
 0.11586754145E+02 0.10274245267E+02 0.79266168095E+01 0.48965045297E+01 0.55337407437E+01
 0.29175617495E+01 0.99277167036E+00 0.25803029148E+00 0.90556153008E+00 0.27558480273E+01
 0.53228179492E+01 0.79776607596E+01 0.10140064519E+02 0.11427321726E+02 0.11723308560E+02
 0.11164605463E+02 0.10062947359E+02 0.87819481946E+01 0.75295005965E+01 0.63962345613E+01
 0.54383556108E+01 0.46790728129E+01 0.41168003583E+01 0.37366610910E+01 0.35207521417E+01
 0.34553347301E+01 0.35349791552E+01 0.37639504240E+01 0.41548903662E+01 0.47247845629E+01
 0.54880265898E+01 0.64465004869E+01 0.75781935553E+01 0.88285768686E+01 0.10109310761E+02
 0.11229709185E+02 0.11829974091E+02 0.11586754145E+02 0.10345117891E+02 0.82032745702E+01
 0.87171231800E+01 0.65067386834E+01 0.44434092633E+01 0.30675531666E+01 0.27558525728E+01
 0.35922931709E+01 0.53409244529E+01 0.75308641756E+01 0.96130849612E+01 0.11123712801E+02
 0.11798863305E+02 0.11615738190E+02 0.10762405650E+02 0.95550574970E+01 0.82867815656E+01
 0.70841249377E+01 0.60210106897E+01 0.51395973990E+01 0.44529423955E+01 0.39540759541E+01
 0.36267015452E+01 0.34540035941E+01 0.34244700577E+01 0.35349838552E+01 0.37914833011E+01
 0.42072174960E+01 0.47984829316E+01 0.55776015559E+01 0.65432593323E+01 0.76700376318E+01
 0.89013543230E+01 0.10149596056E+02 0.11229709185E+02 0.11812072456E+02 0.11619503807E+02
 0.10544559384E+02 0.10835108746E+02 0.93949640451E+01 0.76950394886E+01 0.61938373213E+01
 0.53228212666E+01 0.53409306116E+01 0.62441683044E+01 0.77696345756E+01 0.94896754612E+01
 0.10952789361E+02 0.11815731975E+02 0.11925993731E+02 0.11339083647E+02 0.10275921643E+02
 0.90318236864E+01 0.77961337475E+01 0.66558132087E+01 0.56693464493E+01 0.48658704745E+01
 0.42499507590E+01 0.38107901924E+01 0.35317428369E+01 0.33976006084E+01 0.33991262149E+01
 0.35352274199E+01 0.38130533991E+01 0.42459612286E+01 0.48491446824E+01 0.56327149182E+01
 0.65925671090E+01 0.77010370260E+01 0.89013543230E+01 0.10109310761E+02 0.11157581308E+02
 0.11755037716E+02 0.11670272151E+02 0.11712337901E+02 0.11161008145E+02 0.10140750560E+02
 0.89548381883E+01 0.79776565765E+01 0.75308674849E+01 0.77696404743E+01 0.86273101669E+01
 0.98417378873E+01 0.11048901880E+02 0.11902360784E+02 0.12174282385E+02 0.11809255680E+02
 0.10922094155E+02 0.97465344258E+01 0.85121831756E+01 0.73259443866E+01 0.62576118271E+01
 0.53510222242E+01 0.46240711081E+01 0.40747876979E+01 0.36900743370E+01 0.34538325416E+01
 0.33527819894E+01 0.33798496488E+01 0.35355973061E+01 0.38279063513E+01 0.42697700939E+01
 0.48749410847E+01 0.56513161571E+01 0.65925671090E+01 0.76700376318E+01 0.88285768686E+01
 0.99895894892E+01 0.11012462978E+02 0.11649749066E+02 0.11483771136E+02 0.11712127236E+02
 0.11457397170E+02 0.10850258717E+02 0.10140059152E+02 0.96130806803E+01 0.94896779043E+01
 0.98417421942E+01 0.10566081768E+02 0.11423800297E+02 0.12125945156E+02 0.12429301689E+02
 0.12208821037E+02 0.11487188915E+02 0.10417388271E+02 0.92153905395E+01 0.80148791439E+01
 0.68917592328E+01 0.59012571052E+01 0.50742691934E+01 0.44196925481E+01 0.39310222168E+01
 0.35942171135E+01 0.33943999632E+01 0.33203477175E+01 0.33669221065E+01 0.35359216810E+01
 0.38354828356E+01 0.42778018559E+01 0.48749410847E+01 0.56327149182E+01 0.65432593323E+01
 0.75781935553E+01 0.86856369703E+01 0.97940465599E+01 0.10793568984E+02 0.10501869430E+02
 0.11245039256E+02 0.11636017085E+02 0.11661405751E+02 0.11427324114E+02 0.11123708987E+02
 0.10952786036E+02 0.11048903105E+02 0.11423802484E+02 0.11961041838E+02 0.12460257526E+02
 0.12710328561E+02 0.12561912638E+02 0.11974976180E+02 0.11028638610E+02 0.98905927173E+01
 0.87071980184E+01 0.75586874408E+01 0.65078513823E+01 0.55967583025E+01 0.48456808242E+01
 0.42569031648E+01 0.38212319543E+01 0.35247874147E+01 0.33543577451E+01 0.33007486930E+01
 0.33604476070E+01 0.35360496566E+01 0.38354828356E+01 0.42697700939E+01 0.48491446824E+01
 0.55776015559E+01 0.64465004869E+01 0.74289313765E+01 0.84776669281E+01 0.95292210937E+01
 0.92039699325E+01 0.10142119665E+02 0.10926090508E+02 0.11457681243E+02 0.11723314143E+02
 0.11798866232E+02 0.11815730384E+02 0.11902358987E+02 0.12125945284E+02 0.12460257782E+02
 0.12793576543E+02 0.12971775749E+02 0.12857044262E+02 0.12379225440E+02 0.11562570366E+02
 0.10520075059E+02 0.93867112226E+01 0.82446986362E+01 0.71609878567E+01 0.61864629459E+01
 0.53521464431E+01 0.46702453693E+01 0.41386893406E+01 0.37471619617E+01 0.34827745310E+01
 0.33342228485E+01 0.32941959635E+01 0.33604476070E+01 0.35359216810E+01 0.38279063513E+01
 0.42459612286E+01 0.47984829316E+01 0.54880265898E+01 0.63059475480E+01 0.72278335329E+01
 0.82121147061E+01 0.78984329015E+01 0.88288297394E+01 0.97247213680E+01 0.10527977015E+02
 0.11164604752E+02 0.11615741697E+02 0.11925996490E+02 0.12174282874E+02 0.12429301466E+02
 0.12710327979E+02 0.12971774687E+02 0.13118319009E+02 0.13042966658E+02 0.12671271969E+02
 0.11994367952E+02 0.11079098503E+02 0.10032743280E+02 0.89332537984E+01 0.78487545882E+01
 0.68365749164E+01 0.59373233486E+01 0.51734166315E+01 0.45514711786E+01 0.40670229265E+01
 0.37098766386E+01 0.34687141189E+01 0.33342228485E+01 0.33007486930E+01 0.33669221065E+01
 0.35355973061E+01 0.38130533991E+01 0.42072174960E+01 0.47247845629E+01 0.53673344294E+01
 0.61269293978E+01 0.69824194062E+01 0.67018069492E+01 0.75476626971E+01 0.84158274519E+01
 0.92661073358E+01 0.10062943185E+02 0.10762403876E+02 0.11339084750E+02 0.11809257701E+02
 0.12208822939E+02 0.12561913618E+02 0.12857043389E+02 0.13042964997E+02 0.13046315529E+02
 0.12802719656E+02 0.12287652426E+02 0.11534366687E+02 0.10616965408E+02 0.96016644202E+01
 0.85545407234E+01 0.75367461921E+01 0.65969437900E+01 0.57674978662E+01 0.50646339817E+01
 0.44915581630E+01 0.40430149483E+01 0.37098766386E+01 0.34827745310E+01 0.33543577451E+01
 0.33203477175E+01 0.33798496488E+01 0.35352274199E+01 0.37914833011E+01 0.41548903662E+01
 0.46307088320E+01 0.52200399860E+01 0.59162257689E+01 0.56817425184E+01 0.63962584228E+01
 0.71719328325E+01 0.79781034678E+01 0.87819490305E+01 0.95550555988E+01 0.10275919474E+02
 0.10922093221E+02 0.11487189955E+02 0.11974978663E+02 0.12379227029E+02 0.12671271106E+02
 0.12802718014E+02 0.12722551332E+02 0.12400734016E+02 0.11847234524E+02 0.11103270405E+02
 0.10218883799E+02 0.92540183046E+01 0.82701536935E+01 0.73217029858E+01 0.64500852670E+01
 0.56814976174E+01 0.50281223563E+01 0.44915581630E+01 0.40670229265E+01 0.37471619617E+01
 0.35247874147E+01 0.33943999632E+01 0.33527819894E+01 0.33991262149E+01 0.35349838552E+01
 0.37639504240E+01 0.40907753554E+01 0.45196434672E+01 0.50516368146E+01 0.48683339959E+01
 0.54320944416E+01 0.60766422413E+01 0.67839084183E+01 0.75295039701E+01 0.82867842381E+01
 0.90318240240E+01 0.97465324641E+01 0.10417386080E+02 0.11028638775E+02 0.11562572709E+02
 0.11994369525E+02 0.12287651734E+02 0.12400732828E+02 0.12301471877E+02 0.11981050720E+02
 0.11451791566E+02 0.10746378018E+02 0.99136631437E+01 0.90107145583E+01 0.80940501271E+01
 0.72121128134E+01 0.64006299116E+01 0.56814976174E+01 0.50646339817E+01 0.45514711786E+01
 0.41386893406E+01 0.38212319543E+01 0.35942171135E+01 0.34538325416E+01 0.33976006084E+01
 0.34244700577E+01 0.35349791552E+01 0.37313422600E+01 0.40170395959E+01 0.43955663887E+01
 0.42628718995E+01 0.46767341306E+01 0.51761324629E+01 0.57538667353E+01 0.63962328755E+01
 0.70841265942E+01 0.77961372229E+01 0.85121851002E+01 0.92153891168E+01 0.98905901490E+01
 0.10520074680E+02 0.11079100202E+02 0.11534367739E+02 0.11847234066E+02 0.11981050230E+02
 0.11909987257E+02 0.11626145519E+02 0.11142692859E+02 0.10492388582E+02 0.97222137950E+01
 0.88856378583E+01 0.80344497973E+01 0.72121128134E+01 0.64500852670E+01 0.57674978662E+01
 0.51734166315E+01 0.46702453693E+01 0.42569031648E+01 0.39310222168E+01 0.36900743370E+01
 0.35317428369E+01 0.34540035941E+01 0.34553347301E+01 0.35352139429E+01 0.36946417707E+01
 0.39361481656E+01 0.38507874369E+01 0.41261670536E+01 0.44834812317E+01 0.49224705649E+01
 0.54383513177E+01 0.60210067427E+01 0.66558130720E+01 0.73259476734E+01 0.80148817025E+01
 0.87071971765E+01 0.93867090135E+01 0.10032742725E+02 0.10616966180E+02 0.11103270630E+02
 0.11451791358E+02 0.11626145790E+02 0.11601478644E+02 0.11370626125E+02 0.10946559311E+02
 0.10360593050E+02 0.96570212110E+01 0.88856378583E+01 0.80940501271E+01 0.73217029858E+01
 0.65969437900E+01 0.59373233486E+01 0.53521464431E+01 0.48456808242E+01 0.44196925481E+01
 0.40747876979E+01 0.38107901924E+01 0.36267015452E+01 0.35207521417E+01 0.34908693427E+01
 0.35355765876E+01 0.36549211749E+01 0.36133558163E+01 0.37637779842E+01 0.39900507859E+01
 0.42949184968E+01 0.46790718267E+01 0.51395931713E+01 0.56693414622E+01 0.62576103795E+01
 0.68917616618E+01 0.75586897230E+01 0.82446982435E+01 0.89332524138E+01 0.96016639500E+01
 0.10218883554E+02 0.10746377347E+02 0.11142692886E+02 0.11370627041E+02 0.11404783923E+02
 0.11237193878E+02 0.10879407805E+02 0.10360593050E+02 0.97222137950E+01 0.90107145583E+01
 0.82701536935E+01 0.75367461921E+01 0.68365749164E+01 0.61864629459E+01 0.55967583025E+01
 0.50742691934E+01 0.46240711081E+01 0.42499507590E+01 0.39540759541E+01 0.37366610910E+01
 0.35961314335E+01 0.35299452388E+01 0.35358955019E+01 0.35360197093E+01 0.35712333212E+01
 0.36779692232E+01 0.38588946574E+01 0.41167973542E+01 0.44529411518E+01 0.48658669387E+01
 0.53510174830E+01 0.59012551449E+01 0.65078526901E+01 0.71609892499E+01 0.78487544825E+01
 0.85545403327E+01 0.92540180223E+01 0.99136619741E+01 0.10492387167E+02 0.10946559511E+02
 0.11237195164E+02 0.11337290763E+02 0.11237193878E+02 0.10946559311E+02 0.10492388582E+02
 0.99136631437E+01 0.92540183046E+01 0.85545407234E+01 0.78487545882E+01 0.71609878567E+01
 0.65078513823E+01 0.59012571052E+01 0.53510222242E+01 0.48658704745E+01 0.44529423955E+01
 0.41168003583E+01 0.38589028237E+01 0.36779801916E+01 0.35712410485E+01 0.36133559586E+01
 0.35358899159E+01 0.35299318300E+01 0.35961140616E+01 0.37366475904E+01 0.39540702708E+01
 0.42499492762E+01 0.46240686834E+01 0.50742657468E+01 0.55967566239E+01 0.61864631974E+01
 0.68365751994E+01 0.75367462592E+01 0.82701542073E+01 0.90107144449E+01 0.97222119738E+01
 0.10360591216E+02 0.10879408069E+02 0.11237195164E+02 0.11404783923E+02 0.11370626125E+02
 0.11142692859E+02 0.10746378018E+02 0.10218883799E+02 0.96016644202E+01 0.89332537984E+01
 0.82446986362E+01 0.75586874408E+01 0.68917592328E+01 0.62576118271E+01 0.56693464493E+01
 0.51395973990E+01 0.46790728129E+01 0.42949179064E+01 0.39900512108E+01 0.37637796311E+01
 0.38507791569E+01 0.36549135866E+01 0.35355666197E+01 0.34908534038E+01 0.35207328201E+01
 0.36266865754E+01 0.38107837207E+01 0.40747863826E+01 0.44196915156E+01 0.48456792902E+01
 0.53521455754E+01 0.59373227893E+01 0.65969430804E+01 0.73217031605E+01 0.80940512629E+01
 0.88856378367E+01 0.96570191540E+01 0.10360591216E+02 0.10946559511E+02 0.11370627041E+02
 0.11601478644E+02 0.11626145519E+02 0.11451791566E+02 0.11103270405E+02 0.10616965408E+02
 0.10032743280E+02 0.93867112226E+01 0.87071980184E+01 0.80148791439E+01 0.73259443866E+01
 0.66558132087E+01 0.60210106897E+01 0.54383556108E+01 0.49224714892E+01 0.44834772449E+01
 0.41261593960E+01 0.42628579322E+01 0.39361319295E+01 0.36946283161E+01 0.35352019288E+01
 0.34553200150E+01 0.34539872092E+01 0.35317306723E+01 0.36900693883E+01 0.39310217536E+01
 0.42569036659E+01 0.46702458594E+01 0.51734167191E+01 0.57674967908E+01 0.64500838975E+01
 0.72121130448E+01 0.80344511536E+01 0.88856378367E+01 0.97222119738E+01 0.10492387167E+02
 0.11142692886E+02 0.11626145790E+02 0.11909987257E+02 0.11981050720E+02 0.11847234524E+02
 0.11534366687E+02 0.11079098503E+02 0.10520075059E+02 0.98905927173E+01 0.92153905395E+01
 0.85121831756E+01 0.77961337475E+01 0.70841249377E+01 0.63962345613E+01 0.57538702390E+01
 0.51761334458E+01 0.46767278322E+01 0.48683269439E+01 0.43955495165E+01 0.40170195793E+01
 0.37313265966E+01 0.35349682548E+01 0.34244601745E+01 0.33975912816E+01 0.34538266443E+01
 0.35942155959E+01 0.38212329406E+01 0.41386912918E+01 0.45514733272E+01 0.50646348062E+01
 0.56814962986E+01 0.64006283135E+01 0.72121130448E+01 0.80940512629E+01 0.90107144449E+01
 0.99136619741E+01 0.10746377347E+02 0.11451791358E+02 0.11981050230E+02 0.12301471877E+02
 0.12400734016E+02 0.12287652426E+02 0.11994367952E+02 0.11562570366E+02 0.11028638610E+02
 0.10417388271E+02 0.97465344258E+01 0.90318236864E+01 0.82867815656E+01 0.75295005965E+01
 0.67839070485E+01 0.60766440289E+01 0.54320953555E+01 0.56817430574E+01 0.50516306225E+01
 0.45196278583E+01 0.40907569352E+01 0.37639371708E+01 0.35349773629E+01 0.33991238118E+01
 0.33527820423E+01 0.33944019448E+01 0.35247900643E+01 0.37471645069E+01 0.40670259376E+01
 0.44915612394E+01 0.50281234546E+01 0.56814962986E+01 0.64500838975E+01 0.73217031605E+01
 0.82701542073E+01 0.92540180223E+01 0.10218883554E+02 0.11103270630E+02 0.11847234066E+02
 0.12400732828E+02 0.12722551332E+02 0.12802719656E+02 0.12671271969E+02 0.12379225440E+02
 0.11974976180E+02 0.11487188915E+02 0.10922094155E+02 0.10275921643E+02 0.95550574970E+01
 0.87819481946E+01 0.79780990503E+01 0.71719283610E+01 0.63962578429E+01 0.67018040136E+01
 0.59162256955E+01 0.52200360023E+01 0.46306983821E+01 0.41548786736E+01 0.37914766832E+01
 0.35352277615E+01 0.33798556815E+01 0.33203570585E+01 0.33543668522E+01 0.34827805513E+01
 0.37098801947E+01 0.40430183504E+01 0.44915612394E+01 0.50646348062E+01 0.57674967908E+01
 0.65969430804E+01 0.75367462592E+01 0.85545403327E+01 0.96016639500E+01 0.10616966180E+02
 0.11534367739E+02 0.12287651734E+02 0.12802718014E+02 0.13046315529E+02 0.13042966658E+02
 0.12857044262E+02 0.12561912638E+02 0.12208821037E+02 0.11809255680E+02 0.11339083647E+02
 0.10762405650E+02 0.10062947359E+02 0.92661089962E+01 0.84158230548E+01 0.75476559817E+01
 0.78984255854E+01 0.69824149664E+01 0.61269287668E+01 0.53673335302E+01 0.47247819316E+01
 0.42072159022E+01 0.38130557772E+01 0.35356050740E+01 0.33669354385E+01 0.33007648093E+01
 0.33342361621E+01 0.34687214292E+01 0.37098801947E+01 0.40670259376E+01 0.45514733272E+01
 0.51734167191E+01 0.59373227893E+01 0.68365751994E+01 0.78487544825E+01 0.89332524138E+01
 0.10032742725E+02 0.11079100202E+02 0.11994369525E+02 0.12671271106E+02 0.13042964997E+02
 0.13118319009E+02 0.12971775749E+02 0.12710328561E+02 0.12429301689E+02 0.12174282385E+02
 0.11925993731E+02 0.11615738190E+02 0.11164605463E+02 0.10527982763E+02 0.97247254281E+01
 0.88288264520E+01 0.92039685092E+01 0.82121088028E+01 0.72278290606E+01 0.63059467237E+01
 0.54880290595E+01 0.47984888804E+01 0.42459702472E+01 0.38279172328E+01 0.35359351871E+01
 0.33604651703E+01 0.32942145571E+01 0.33342361621E+01 0.34827805513E+01 0.37471645069E+01
 0.41386912918E+01 0.46702458594E+01 0.53521455754E+01 0.61864631974E+01 0.71609892499E+01
 0.82446982435E+01 0.93867090135E+01 0.10520074680E+02 0.11562572709E+02 0.12379227029E+02
 0.12857043389E+02 0.12971774687E+02 0.12793576543E+02 0.12460257526E+02 0.12125945156E+02
 0.11902360784E+02 0.11815731975E+02 0.11798863305E+02 0.11723308560E+02 0.11457680478E+02
 0.10926096511E+02 0.10142125128E+02 0.10501874632E+02 0.95292217634E+01 0.84776642052E+01
 0.74289283748E+01 0.64464999280E+01 0.55776070453E+01 0.48491578757E+01 0.42697871097E+01
 0.38354988630E+01 0.35360653202E+01 0.33604651703E+01 0.33007648093E+01 0.33543668522E+01
 0.35247900643E+01 0.38212329406E+01 0.42569036659E+01 0.48456792902E+01 0.55967566239E+01
 0.65078526901E+01 0.75586897230E+01 0.87071971765E+01 0.98905901490E+01 0.11028638775E+02
 0.11974978663E+02 0.12561913618E+02 0.12710327979E+02 0.12460257782E+02 0.11961041838E+02
 0.11423800297E+02 0.11048901880E+02 0.10952789361E+02 0.11123712801E+02 0.11427321726E+02
 0.11661399208E+02 0.11636014954E+02 0.11245043921E+02 0.11483773057E+02 0.10793572168E+02
 0.97940490673E+01 0.86856383355E+01 0.75781928666E+01 0.65432592931E+01 0.56327224980E+01
 0.48749584084E+01 0.42778218393E+01 0.38354988630E+01 0.35359351871E+01 0.33669354385E+01
 0.33203570585E+01 0.33944019448E+01 0.35942155959E+01 0.39310217536E+01 0.44196915156E+01
 0.50742657468E+01 0.59012551449E+01 0.68917616618E+01 0.80148817025E+01 0.92153891168E+01
 0.10417386080E+02 0.11487189955E+02 0.12208822939E+02 0.12429301466E+02 0.12125945284E+02
 0.11423802484E+02 0.10566081768E+02 0.98417378873E+01 0.94896754612E+01 0.96130849612E+01
 0.10140064519E+02 0.10850257465E+02 0.11457391382E+02 0.11712124411E+02 0.11712335358E+02
 0.11649747453E+02 0.11012462998E+02 0.99895933039E+01 0.88285819985E+01 0.76700390091E+01
 0.65925674718E+01 0.56513244839E+01 0.48749584084E+01 0.42697871097E+01 0.38279172328E+01
 0.35356050740E+01 0.33798556815E+01 0.33527820423E+01 0.34538266443E+01 0.36900693883E+01
 0.40747863826E+01 0.46240686834E+01 0.53510174830E+01 0.62576103795E+01 0.73259476734E+01
 0.85121851002E+01 0.97465324641E+01 0.10922093221E+02 0.11809257701E+02 0.12174282874E+02
 0.11902358987E+02 0.11048903105E+02 0.98417421942E+01 0.86273101669E+01 0.77696345756E+01
 0.75308641756E+01 0.79776607596E+01 0.89548436311E+01 0.10140750727E+02 0.11161004947E+02
 0.10835109461E+02 0.11670270716E+02 0.11755032645E+02 0.11157578153E+02 0.10109315307E+02
 0.89013617005E+01 0.77010392256E+01 0.65925674718E+01 0.56327224980E+01 0.48491578757E+01
 0.42459702472E+01 0.38130557772E+01 0.35352277615E+01 0.33991238118E+01 0.33975912816E+01
 0.35317306723E+01 0.38107837207E+01 0.42499492762E+01 0.48658669387E+01 0.56693414622E+01
 0.66558130720E+01 0.77961372229E+01 0.90318240240E+01 0.10275919474E+02 0.11339084750E+02
 0.11925996490E+02 0.11815730384E+02 0.10952786036E+02 0.94896779043E+01 0.77696404743E+01
 0.62441683044E+01 0.53409244529E+01 0.53228179492E+01 0.61938401207E+01 0.76950431252E+01
 0.93949655534E+01 0.87171257013E+01 0.10544564287E+02 0.11619503741E+02 0.11812064878E+02
 0.11229704056E+02 0.10149600831E+02 0.89013617005E+01 0.76700390091E+01 0.65432592931E+01
 0.55776070453E+01 0.47984888804E+01 0.42072159022E+01 0.37914766832E+01 0.35349773629E+01
 0.34244601745E+01 0.34539872092E+01 0.36266865754E+01 0.39540702708E+01 0.44529411518E+01
 0.51395931713E+01 0.60210067427E+01 0.70841265942E+01 0.82867842381E+01 0.95550555988E+01
 0.10762403876E+02 0.11615741697E+02 0.11798866232E+02 0.11123708987E+02 0.96130806803E+01
 0.75308674849E+01 0.53409306116E+01 0.35922931709E+01 0.27558480273E+01 0.30675509779E+01
 0.44434095570E+01 0.65067389299E+01 0.55337370221E+01 0.82032777028E+01 0.10345125996E+02
 0.11586755004E+02 0.11829965600E+02 0.11229704056E+02 0.10109315307E+02 0.88285819985E+01
 0.75781928666E+01 0.64464999280E+01 0.54880290595E+01 0.47247819316E+01 0.41548786736E+01
 0.37639371708E+01 0.35349682548E+01 0.34553200150E+01 0.35207328201E+01 0.37366475904E+01
 0.41167973542E+01 0.46790718267E+01 0.54383513177E+01 0.63962328755E+01 0.75295039701E+01
 0.87819490305E+01 0.10062943185E+02 0.11164604752E+02 0.11723314143E+02 0.11427324114E+02
 0.10140059152E+02 0.79776565765E+01 0.53228212666E+01 0.27558525728E+01 0.90556153008E+00
 0.25802917452E+00 0.99277159190E+00 0.29175589938E+01 0.17896480117E+01 0.48964976321E+01
 0.79266202101E+01 0.10274254569E+02 0.11586755004E+02 0.11812064878E+02 0.11157578153E+02
 0.99895933039E+01 0.86856383355E+01 0.74289283748E+01 0.63059467237E+01 0.53673335302E+01
 0.46306983821E+01 0.40907569352E+01 0.37313265966E+01 0.35352019288E+01 0.34908534038E+01
 0.35961140616E+01 0.38588946574E+01 0.42949184968E+01 0.49224705649E+01 0.57538667353E+01
 0.67839084183E+01 0.79781034678E+01 0.92661073358E+01 0.10527977015E+02 0.11457681243E+02
 0.11661405751E+02 0.10850258717E+02 0.89548381883E+01 0.61938373213E+01 0.30675531666E+01
 0.25803029148E+00 -.15533203578E+01 -.18979005324E+01 -.67960694224E+00 -.17647485753E+01
 0.11905778952E+01 0.46747929453E+01 0.79266202101E+01 0.10345125996E+02 0.11619503741E+02
 0.11755032645E+02 0.11012462998E+02 0.97940490673E+01 0.84776642052E+01 0.72278290606E+01
 0.61269287668E+01 0.52200360023E+01 0.45196278583E+01 0.40170195793E+01 0.36946283161E+01
 0.35355666197E+01 0.35299318300E+01 0.36779692232E+01 0.39900507859E+01 0.44834812316E+01
 0.51761324629E+01 0.60766422413E+01 0.71719328325E+01 0.84158274519E+01 0.97247213680E+01
 0.10926090508E+02 0.11636017085E+02 0.11457397170E+02 0.10140750560E+02 0.76950394886E+01
 0.44434092633E+01 0.99277167036E+00 -.18979038747E+01 -.35287396721E+01 -.34818018665E+01
 -.43202295045E+01 -.21406506924E+01 0.11905778952E+01 0.48964976321E+01 0.82032777028E+01
 0.10544564287E+02 0.11670270716E+02 0.11649747453E+02 0.10793572168E+02 0.95292217634E+01
 0.82121088028E+01 0.69824149664E+01 0.59162256955E+01 0.50516306225E+01 0.43955495165E+01
 0.39361319295E+01 0.36549135866E+01 0.35358899159E+01 0.35712333212E+01 0.37637779842E+01
 0.41261670536E+01 0.46767341306E+01 0.54320944416E+01 0.63962584228E+01 0.75476626971E+01
 0.88288297394E+01 0.10142119665E+02 0.11245039256E+02 0.11712127236E+02 0.11161008145E+02
 0.93949640451E+01 0.65067386834E+01 0.29175617495E+01 -.67960934360E+00 -.34818093836E+01
 -.48079785610E+01 -.43202345342E+01 -.36287687137E+01 -.13578890626E+01 0.19325412253E+01
 0.54820279676E+01 0.85593350425E+01 0.10650236454E+02 0.11551523271E+02 0.11365315650E+02
 0.10417314224E+02 0.91314406096E+01 0.78258314205E+01 0.66221900427E+01 0.55904288721E+01
 0.47628014462E+01 0.41418707889E+01 0.37133492681E+01 0.34580457952E+01 0.33604229857E+01
 0.34137457932E+01 0.36220782923E+01 0.39990867028E+01 0.45636741473E+01 0.53322868888E+01
 0.63076850414E+01 0.74658502028E+01 0.87461518518E+01 0.10046111711E+02 0.11104284617E+02
 0.11498190655E+02 0.10867477863E+02 0.90493707702E+01 0.61734139180E+01 0.26871496240E+01
 -.71443817944E+00 -.32582559285E+01 -.36287778140E+01 -.43202461259E+01 -.32582665036E+01
 -.71445149463E+00 0.26871310630E+01 0.61733960523E+01 0.90493632635E+01 0.10867482861E+02
 0.11498200354E+02 0.11104291207E+02 0.10046115259E+02 0.87461555609E+01 0.74658529451E+01
 0.63076840748E+01 0.53322843803E+01 0.45636742180E+01 0.39990879641E+01 0.36220763140E+01
 0.34137419154E+01 0.33604232194E+01 0.34580508613E+01 0.37133532581E+01 0.41418708705E+01
 0.47628014351E+01 0.55904309749E+01 0.66221903461E+01 0.78258269885E+01 0.91314344330E+01
 0.10417308857E+02 0.11365308140E+02 0.11551512214E+02 0.10650229303E+02 0.85593409653E+01
 0.54820448043E+01 0.19325557362E+01 -.13578872780E+01 -.12876303735E+01 -.31831342685E+01
 -.34818250367E+01 -.21131757522E+01 0.56871994287E+00 0.39062038229E+01 0.71491664034E+01
 0.96689916552E+01 0.11103224905E+02 0.11401433453E+02 0.10781588436E+02 0.96257521390E+01
 0.83291606077E+01 0.70858984610E+01 0.59837135848E+01 0.50724844241E+01 0.43677980670E+01
 0.38621236097E+01 0.35376167481E+01 0.33763336079E+01 0.33669027636E+01 0.35080021735E+01
 0.38087607051E+01 0.42860666716E+01 0.49587453320E+01 0.58382981265E+01 0.69166249478E+01
 0.81539916079E+01 0.94732149001E+01 0.10730625327E+02 0.11572518136E+02 0.11591908254E+02
 0.10507008819E+02 0.82766943473E+01 0.51664762677E+01 0.17335097849E+01 0.21150934369E+01
 -.51118967212E+00 -.19710061926E+01 -.18979244358E+01 -.32109557006E+00 0.23457147220E+01
 0.54449679371E+01 0.82830208464E+01 0.10321977368E+02 0.11295854493E+02 0.11232402300E+02
 0.10394514605E+02 0.91700629889E+01 0.78928149573E+01 0.66980504803E+01 0.56607640369E+01
 0.48193092312E+01 0.41812235427E+01 0.37350780498E+01 0.34624716787E+01 0.33470016019E+01
 0.33798391239E+01 0.35623009043E+01 0.39055085889E+01 0.44271157044E+01 0.51449539965E+01
 0.60673079284E+01 0.71807168615E+01 0.84391684715E+01 0.97604872926E+01 0.10980916305E+02
 0.11734743558E+02 0.11644496984E+02 0.10477378026E+02 0.82486765570E+01 0.52701485999E+01
 0.57829035862E+01 0.30336159837E+01 0.88398154765E+00 -.12641295986E+00 0.25800889441E+00
 0.19215214818E+01 0.44187685064E+01 0.71255481707E+01 0.94326466073E+01 0.10909200124E+02
 0.11389158248E+02 0.10971297925E+02 0.99491649332E+01 0.86944520996E+01 0.74498319357E+01
 0.63142141873E+01 0.53487588045E+01 0.45803446944E+01 0.40093750427E+01 0.36215932802E+01
 0.33988652663E+01 0.33267829213E+01 0.33991258169E+01 0.36195736744E+01 0.40007416284E+01
 0.45604582337E+01 0.53150252930E+01 0.62692948738E+01 0.74049563247E+01 0.86712385717E+01
 0.99832048353E+01 0.11164693456E+02 0.11857996415E+02 0.11723485881E+02 0.10578238229E+02
 0.84851263455E+01 0.89574213039E+01 0.66429787774E+01 0.43831286701E+01 0.27426946615E+01
 0.21506108982E+01 0.27558332892E+01 0.43767562561E+01 0.65664496718E+01 0.87630608334E+01
 0.10461495145E+02 0.11345016881E+02 0.11343188953E+02 0.10613291049E+02 0.94624740377E+01
 0.82117095274E+01 0.70130223641E+01 0.59457021954E+01 0.50566793947E+01 0.43622062401E+01
 0.38568671810E+01 0.35247246419E+01 0.33486352294E+01 0.33164623838E+01 0.34244783485E+01
 0.36783284401E+01 0.40915801141E+01 0.46816733095E+01 0.54629531243E+01 0.64368455597E+01
 0.75809812689E+01 0.88415307374E+01 0.10133069484E+02 0.11278524831E+02 0.11942899093E+02
 0.11829126149E+02 0.10801176524E+02 0.11113933992E+02 0.96029865458E+01 0.77460181367E+01
 0.60102651583E+01 0.48634585397E+01 0.46217135399E+01 0.53409151582E+01 0.67989207357E+01
 0.85754005499E+01 0.10192558647E+02 0.11259386197E+02 0.11571286196E+02 0.11142341462E+02
 0.10171763327E+02 0.89599593007E+01 0.77352412608E+01 0.65949594878E+01 0.56028622083E+01
 0.47922921995E+01 0.41703723303E+01 0.37274008051E+01 0.34468533144E+01 0.33131342319E+01
 0.33164654545E+01 0.34553485110E+01 0.37369252927E+01 0.41751684167E+01 0.47866137453E+01
 0.55833499637E+01 0.65635955994E+01 0.77019247019E+01 0.89432178646E+01 0.10203979886E+02
 0.11318187524E+02 0.11983765159E+02 0.11947461669E+02 0.12052738391E+02 0.11465573384E+02
 0.10334599579E+02 0.89599093696E+01 0.77356289553E+01 0.70264747465E+01 0.70434215558E+01
 0.77696297601E+01 0.89686840715E+01 0.10269780802E+02 0.11291793711E+02 0.11758105855E+02
 0.11566398740E+02 0.10798966800E+02 0.96779372954E+01 0.84607543206E+01 0.72790786917E+01
 0.62075737485E+01 0.52947850717E+01 0.45620075026E+01 0.40091385863E+01 0.36237452687E+01
 0.33896530577E+01 0.32931699072E+01 0.33267918132E+01 0.34908853335E+01 0.37935887708E+01
 0.42487479354E+01 0.48715447350E+01 0.56716536520E+01 0.66444979857E+01 0.77627383097E+01
 0.89717136655E+01 0.10192066446E+02 0.11278776753E+02 0.11969415447E+02 0.11885518237E+02
 0.12112025446E+02 0.11794584711E+02 0.11053289715E+02 0.10143578635E+02 0.93788363921E+01
 0.90239633516E+01 0.92002525435E+01 0.98417367024E+01 0.10721266452E+02 0.11533000551E+02
 0.11995788793E+02 0.11939347830E+02 0.11347741296E+02 0.10351764085E+02 0.91733486912E+01
 0.79810565336E+01 0.68572846919E+01 0.58617281563E+01 0.50291228367E+01 0.43708700909E+01
 0.38816784951E+01 0.35477967054E+01 0.33541154077E+01 0.32890033631E+01 0.33470151798E+01
 0.35299614461E+01 0.38464704765E+01 0.43097592369E+01 0.49332927579E+01 0.57243291457E+01
 0.66760763433E+01 0.77604972890E+01 0.89250386255E+01 0.10096122251E+02 0.11155735743E+02
 0.10946572411E+02 0.11718029250E+02 0.12091360944E+02 0.12038846779E+02 0.11663122624E+02
 0.11167067097E+02 0.10783282753E+02 0.10687627441E+02 0.10931786211E+02 0.11423802300E+02