unknown system                          
   1.00000000000000     
    -2.524876    2.524876    1.440795
     2.524876   -2.524876    1.440795
     2.524876    2.524876   -1.440795
   Si
     2
Direct
  0.000000  0.000000  0.000000
  0.250000  0.750000  0.500000
 
   36   36   36
 -5.9952     -4.8141     -1.5958      2.8063      7.3133      10.961      13.151      13.746      13.022      11.522    
  9.8234      8.2133      6.8050      5.6546      4.7701      4.1300      3.7024      3.4584      3.3792      3.4584    
  3.7024      4.1300      4.7701      5.6547      6.8050      8.2133      9.8234      11.522      13.022      13.746    
  13.151      10.961      7.3133      2.8063     -1.5959     -4.8141     -4.8141     -5.3383     -3.5805     -.28129E-01
  4.3857      8.6052      11.771      13.424      13.558      12.539      10.938      9.2641      7.7180      6.3945    
  5.3335      4.5322      3.9646      3.5988      3.4088      3.3794      3.5080      3.8049      4.2920      4.9999    
  5.9592      7.1853      8.6589      10.310      12.003      13.369      13.812      12.848      10.300      6.4304    
  1.9444     -2.1480     -1.5959     -3.5805     -3.4700     -1.3057      2.3074      6.4242      10.077      12.556    
  13.558      13.202      11.920      10.275      8.6526      7.1925      5.9696      5.0077      4.2944      3.8010    
  3.4972      3.3605      3.3797      3.5560      3.9030      4.4450      5.2131      6.2354      7.5203      9.0377    
  10.705      12.367      13.593      13.813      12.615      9.9293      6.1169      1.9444      2.8063     -.28156E-01
 -1.3057     -.67625      1.6653      5.0553      8.6023      11.479      13.149      13.467      12.658      11.187    
  9.5573      8.0120      6.6570      5.5462      4.6884      4.0643      3.6441      3.4004      3.3147      3.3800    
  3.6009      3.9934      4.5834      5.4015      6.4720      7.7963      9.3351      10.998      12.609      13.716    
  13.799      12.529      9.9293      6.4304      7.3133      4.3857      2.3074      1.6653      2.6321      4.9048    
  7.8225      10.602      12.589      13.425      13.109      11.941      10.385      8.8119      7.3669      6.1314    
  5.1389      4.3859      3.8486      3.4981      3.3108      3.2727      3.3802      3.6410      4.0727      4.7018    
  5.5573      6.6591      8.0021      9.5397      11.177      12.728      13.755      13.799      12.615      10.300    
  10.961      8.6052      6.4242      5.0553      4.9048      6.0002      7.9840      10.252      12.165      13.251    
  13.322      12.491      11.099      9.5535      8.0670      6.7412      5.6336      4.7603      4.1085      3.6526    
  3.3665      3.2307      3.2353      3.3802      3.6749      4.1380      4.7955      5.6739      6.7887      8.1291    
  9.6440      11.237      12.728      13.716      13.813      12.848      13.151      11.771      10.077      8.6024    
  7.8225      7.9841      9.0128      10.548      12.080      13.131      13.403      12.852      11.672      10.206    
  8.7259      7.3504      6.1560      5.1786      4.4202      3.8627      3.4808      3.2522      3.1619      3.2038    
  3.3800      3.7014      4.1867      4.8604      5.7461      6.8550      8.1720      9.6440      11.177      12.609    
  13.593      13.812      13.746      13.424      12.556      11.479      10.602      10.252      10.548      11.360    
  12.365      13.170      13.454      13.073      12.092      10.749      9.3168      7.9336      6.6867      5.6287    
  4.7776      4.1260      3.6532      3.3365      3.1578      3.1064      3.1790      3.3797      3.7195      4.2167    
  4.8936      5.7705      6.8550      8.1291      9.5397      10.998      12.367      13.369      13.022      13.558    
  13.558      13.149      12.589      12.165      12.080      12.365      12.876      13.350      13.518      13.199    
  12.370      11.168      9.8184      8.4674      7.2050      6.0957      5.1718      4.4383      3.8821      3.4831    
  3.2220      3.0851      3.0655      3.1619      3.3794      3.7288      4.2268      4.8936      5.7461      6.7887    
  8.0021      9.3351      10.705      12.003      11.522      12.539      13.202      13.467      13.425      13.251    
  13.131      13.170      13.350      13.541      13.555      13.233      12.512      11.451      10.214      8.9314    
  7.6911      6.5632      5.5916      4.7935      4.1650      3.6913      3.3543      3.1390      3.0358      3.0404    
  3.1532      3.3793      3.7288      4.2167      4.8604      5.6739      6.6591      7.7963      9.0377      10.310    
  9.8234      10.938      11.920      12.658      13.109      13.322      13.403      13.454      13.518      13.555    
  13.466      13.139      12.507      11.588      10.488      9.3076      8.1263      7.0147      6.0246      5.1835    
  4.4979      3.9598      3.5547      3.2680      3.0888      3.0109      3.0319      3.1532      3.3794      3.7195    
  4.1867      4.7955      5.5573      6.4720      7.5203      8.6589      8.2133      9.2642      10.275      11.187    
  11.941      12.491      12.852      13.073      13.199      13.233      13.139      12.853      12.327      11.564    
  10.626      9.5795      8.4935      7.4346      6.4580      5.5997      4.8759      4.2868      3.8231      3.4727    
  3.2247      3.0720      3.0109      3.0404      3.1619      3.3797      3.7014      4.1380      4.7018      5.4015    
  6.2354      7.1853      6.8050      7.7180      8.6526      9.5573      10.385      11.099      11.672      12.092    
  12.370      12.512      12.507      12.327      11.946      11.365      10.613      9.7318      8.7766      7.8076    
  6.8794      6.0334      5.2943      4.6707      4.1603      3.7548      3.4453      3.2247      3.0888      3.0358    
  3.0655      3.1790      3.3800      3.6749      4.0727      4.5834      5.2131      5.9592      5.6547      6.3945    
  7.1925      8.0120      8.8119      9.5535      10.206      10.749      11.168      11.451      11.588      11.564    
  11.365      10.988      10.441      9.7515      8.9607      8.1186      7.2757      6.4752      5.7479      5.1106    
  4.5682      4.1182      3.7548      3.4727      3.2680      3.1390      3.0851      3.1064      3.2038      3.3802    
  3.6410      3.9934      4.4450      4.9999      4.7701      5.3335      5.9696      6.6570      7.3669      8.0670    
  8.7259      9.3168      9.8184      10.214      10.488      10.626      10.613      10.441      10.109      9.6310    
  9.0331      8.3528      7.6328      6.9141      6.2303      5.6046      5.0493      4.5682      4.1603      3.8231    
  3.5547      3.3543      3.2220      3.1578      3.1619      3.2353      3.3802      3.6009      3.9030      4.2920    
  4.1300      4.5322      5.0077      5.5462      6.1314      6.7412      7.3504      7.9336      8.4674      8.9314    
  9.3076      9.5795      9.7318      9.7515      9.6310      9.3716      8.9857      8.4964      7.9350      7.3358    
  6.7314      6.1483      5.6046      5.1106      4.6707      4.2868      3.9598      3.6913      3.4831      3.3365    
  3.2522      3.2307      3.2727      3.3800      3.5560      3.8049      3.7024      3.9646      4.2945      4.6885    
  5.1389      5.6336      6.1560      6.6867      7.2051      7.6911      8.1263      8.4935      8.7766      8.9607    
  9.0331      8.9857      8.8182      8.5392      8.1660      7.7226      7.2359      6.7314      6.2303      5.7479    
  5.2943      4.8759      4.4979      4.1650      3.8821      3.6532      3.4808      3.3665      3.3108      3.3147    
  3.3797      3.5080      3.4584      3.5988      3.8010      4.0643      4.3859      4.7603      5.1786      5.6287    
  6.0957      6.5632      7.0148      7.4346      7.8076      8.1186      8.3528      8.4964      8.5392      8.4765    
  8.3114      8.0545      7.7226      7.3358      6.9141      6.4752      6.0334      5.5997      5.1835      4.7935    
  4.4383      4.1260      3.8627      3.6526      3.4981      3.4004      3.3605      3.3794      3.3792      3.4087    
  3.4972      3.6441      3.8486      4.1085      4.4202      4.7776      5.1718      5.5916      6.0246      6.4580    
  6.8794      7.2757      7.6328      7.9350      8.1660      8.3114      8.3611      8.3114      8.1660      7.9350    
  7.6328      7.2757      6.8794      6.4580      6.0246      5.5916      5.1718      4.7776      4.4202      4.1085    
  3.8486      3.6441      3.4972      3.4088      3.4584      3.3793      3.3604      3.4004      3.4981      3.6526    
  3.8627      4.1260      4.4383      4.7935      5.1835      5.5997      6.0334      6.4752      6.9140      7.3358    
  7.7226      8.0546      8.3114      8.4765      8.5392      8.4964      8.3528      8.1186      7.8076      7.4346    
  7.0147      6.5632      6.0957      5.6287      5.1786      4.7603      4.3859      4.0643      3.8010      3.5988    
  3.7024      3.5080      3.3796      3.3147      3.3108      3.3664      3.4808      3.6532      3.8822      4.1651    
  4.4979      4.8759      5.2943      5.7479      6.2303      6.7314      7.2359      7.7226      8.1660      8.5392    
  8.8182      8.9857      9.0331      8.9607      8.7766      8.4935      8.1263      7.6911      7.2050      6.6867    
  6.1560      5.6336      5.1389      4.6884      4.2944      3.9646      4.1300      3.8048      3.5560      3.3800    
  3.2726      3.2307      3.2522      3.3365      3.4831      3.6913      3.9598      4.2868      4.6707      5.1106    
  5.6046      6.1483      6.7314      7.3358      7.9350      8.4964      8.9857      9.3716      9.6310      9.7515    
  9.7318      9.5795      9.3076      8.9314      8.4674      7.9336      7.3504      6.7412      6.1314      5.5462    
  5.0077      4.5322      4.7701      4.2920      3.9030      3.6008      3.3802      3.2353      3.1619      3.1578    
  3.2220      3.3543      3.5547      3.8231      4.1603      4.5682      5.0493      5.6046      6.2303      6.9140    
  7.6328      8.3528      9.0331      9.6310      10.109      10.441      10.613      10.626      10.488      10.214    
  9.8184      9.3168      8.7259      8.0670      7.3669      6.6570      5.9696      5.3335      5.6546      4.9999    
  4.4449      3.9933      3.6409      3.3802      3.2038      3.1064      3.0851      3.1391      3.2680      3.4727    
  3.7549      4.1182      4.5682      5.1106      5.7479      6.4752      7.2757      8.1186      8.9607      9.7515    
  10.441      10.988      11.365      11.564      11.588      11.451      11.168      10.749      10.206      9.5535    
  8.8119      8.0120      7.1925      6.3945      6.8050      5.9592      5.2131      4.5834      4.0727      3.6748    
  3.3800      3.1790      3.0655      3.0358      3.0889      3.2247      3.4454      3.7549      4.1603      4.6707    
  5.2943      6.0334      6.8794      7.8076      8.7766      9.7318      10.613      11.365      11.946      12.327    
  12.507      12.512      12.370      12.092      11.672      11.099      10.385      9.5573      8.6526      7.7180    
  8.2133      7.1853      6.2354      5.4015      4.7019      4.1380      3.7014      3.3797      3.1619      3.0404    
  3.0109      3.0721      3.2247      3.4727      3.8231      4.2868      4.8759      5.5997      6.4580      7.4346    
  8.4935      9.5795      10.626      11.564      12.327      12.853      13.139      13.233      13.199      13.073    
  12.852      12.491      11.941      11.187      10.275      9.2641      9.8234      8.6589      7.5203      6.4720    
  5.5574      4.7956      4.1867      3.7195      3.3794      3.1532      3.0320      3.0109      3.0889      3.2680    
  3.5547      3.9598      4.4979      5.1835      6.0246      7.0148      8.1263      9.3076      10.488      11.588    
  12.507      13.139      13.466      13.555      13.518      13.454      13.403      13.322      13.109      12.658    
  11.920      10.938      11.522      10.310      9.0377      7.7963      6.6592      5.6740      4.8605      4.2167    
  3.7288      3.3793      3.1532      3.0404      3.0358      3.1391      3.3543      3.6913      4.1651      4.7935    
  5.5916      6.5632      7.6911      8.9314      10.214      11.451      12.512      13.233      13.555      13.541    
  13.350      13.170      13.131      13.251      13.425      13.467      13.202      12.539      13.022      12.003    
  10.705      9.3351      8.0021      6.7888      5.7461      4.8937      4.2269      3.7288      3.3794      3.1619    
  3.0655      3.0851      3.2220      3.4831      3.8822      4.4383      5.1718      6.0957      7.2051      8.4674    
  9.8184      11.168      12.370      13.199      13.518      13.350      12.876      12.365      12.080      12.165    
  12.589      13.149      13.558      13.558      13.746      13.369      12.367      10.998      9.5398      8.1291    
  6.8550      5.7706      4.8937      4.2167      3.7195      3.3797      3.1790      3.1064      3.1578      3.3365    
  3.6532      4.1260      4.7776      5.6287      6.6867      7.9336      9.3168      10.749      12.092      13.073    
  13.454      13.170      12.365      11.360      10.548      10.252      10.602      11.479      12.556      13.424    
  13.151      13.812      13.593      12.609      11.177      9.6441      8.1721      6.8550      5.7461      4.8605    
  4.1867      3.7014      3.3800      3.2038      3.1619      3.2522      3.4808      3.8627      4.4202      5.1786    
  6.1560      7.3504      8.7259      10.206      11.672      12.852      13.403      13.131      12.080      10.548    
  9.0128      7.9840      7.8225      8.6023      10.077      11.771      10.961      12.848      13.813      13.716    
  12.728      11.237      9.6441      8.1291      6.7888      5.6740      4.7956      4.1380      3.6748      3.3802    
  3.2353      3.2307      3.3664      3.6526      4.1085      4.7603      5.6336      6.7412      8.0670      9.5535    
  11.099      12.491      13.322      13.251      12.165      10.252      7.9841      6.0002      4.9048      5.0553    
  6.4242      8.6052      7.3133      10.300      12.615      13.799      13.755      12.728      11.177      9.5398    
  8.0021      6.6592      5.5574      4.7019      4.0727      3.6409      3.3802      3.2726      3.3108      3.4981    
  3.8486      4.3859      5.1389      6.1314      7.3669      8.8119      10.385      11.941      13.109      13.425    
  12.589      10.602      7.8225      4.9048      2.6321      1.6653      2.3074      4.3857      2.8063      6.4304    
  9.9293      12.529      13.799      13.716      12.609      10.998      9.3351      7.7963      6.4720      5.4015    
  4.5834      3.9933      3.6008      3.3800      3.3147      3.4004      3.6441      4.0643      4.6885      5.5462    
  6.6570      8.0120      9.5573      11.187      12.658      13.467      13.149      11.479      8.6024      5.0553    
  1.6653     -.67625     -1.3057     -.28129E-01 -1.5958      1.9445      6.1170      9.9293      12.615      13.813    
  13.593      12.367      10.705      9.0377      7.5203      6.2354      5.2131      4.4449      3.9030      3.5560    
  3.3796      3.3604      3.4972      3.8010      4.2945      5.0077      5.9696      7.1925      8.6526      10.275    
  11.920      13.202      13.558      12.556      10.077      6.4242      2.3074     -1.3057     -3.4700     -3.5805    
 -4.8141     -2.1479      1.9445      6.4304      10.300      12.848      13.812      13.369      12.003      10.310    
  8.6589      7.1853      5.9592      4.9999      4.2920      3.8048      3.5080      3.3793      3.4087      3.5988    
  3.9646      4.5322      5.3335      6.3945      7.7180      9.2642      10.938      12.539      13.558      13.424    
  11.771      8.6052      4.3857     -.28156E-01 -3.5805     -5.3383     -4.8140     -3.9854     -1.1714      2.8779    
  7.1522      10.705      12.909      13.574      12.924      11.464      9.7671      8.1453      6.7170      5.5430    
  4.6347      3.9720      3.5226      3.2565      3.1532      3.2042      3.4141      3.7997      4.3885      5.2131    
  6.2986      7.6448      9.2060      10.881      12.444      13.363      13.092      11.315      8.1007      3.9616    
 -.22357     -3.4323     -3.9854     -4.8141     -3.4323     -.22355      3.9616      8.1007      11.315      13.092    
  13.363      12.444      10.881      9.2061      7.6448      6.2986      5.2131      4.3885      3.7997      3.4141    
  3.2042      3.1531      3.2565      3.5226      3.9719      4.6347      5.5430      6.7170      8.1453      9.7671    
  11.463      12.924      13.574      12.909      10.705      7.1521      2.8778     -1.1714     -1.0793     -3.3335    
 -3.5805     -1.7627      1.6086      5.6401      9.3602      12.008      13.213      13.029      11.847      10.227    
  8.5983      7.1188      5.8711      4.8843      4.1489      3.6362      3.3151      3.1612      3.1619      3.3166    
  3.6374      4.1478      4.8793      5.8624      7.1107      8.6019      10.262      11.953      13.292      13.709    
  12.763      10.327      6.6976      2.5765      3.1139     0.40338E-01 -1.5785     -1.3057     0.76240      4.0333    
  7.6329      10.697      12.618      13.176      12.538      11.146      9.5239      7.9653      6.5866      5.4494    
  4.5673      3.9228      3.4860      3.2278      3.1284      3.1790      3.3829      3.7553      4.3216      5.1138    
  6.1592      7.4645      8.9973      10.674      12.336      13.563      13.817      12.734      10.281      6.8304    
  7.5342      4.4034      2.0100      1.0084      1.6653      3.7629      6.6821      9.6250      11.875      12.996    
  12.915      11.888      10.372      8.7949      7.3294      6.0667      5.0473      4.2716      3.7165      3.3525    
  3.1543      3.1063      3.2038      3.4533      3.8721      4.4872      5.3293      6.4218      7.7644      9.3165    
  10.988      12.607      13.748      13.927      12.860      10.590      11.201      8.6872      6.2347      4.5248    
  4.0430      4.9048      6.8154      9.1824      11.328      12.705      13.047      12.409      11.106      9.5680    
  8.0656      6.7129      5.5761      4.6768      4.0048      3.5345      3.2386      3.0959      3.0952      3.2354    
  3.5253      3.9841      4.6385      5.5172      6.6391      7.9979      9.5467      11.192      12.762      13.852    
  14.045      13.128      13.477      11.993      10.088      8.3171      7.2137      7.1033      7.9840      9.5316    
  11.224      12.529      13.073      12.743      11.691      10.254      8.7626      7.3615      6.1359      5.1291    
  4.3470      3.7728      3.3806      3.1464      3.0537      3.0952      3.2727      3.5968      4.0870      4.7693    
  5.6695      6.8020      8.1550      9.6782      11.279      12.795      13.868      14.145      14.181      13.813    
  12.804      11.498      10.338      9.7108      9.8067      10.548      11.622      12.608      13.125      12.959    
  12.125      10.833      9.3934      7.9857      6.7060      5.6152      4.7365      4.0648      3.5797      3.2572    
  3.0775      3.0285      3.1064      3.3148      3.6653      4.1773      4.8746      5.7798      6.9031      8.2287    
  9.7050      11.242      12.699      13.775      13.550      14.096      14.029      13.469      12.690      12.020    
  11.718      11.871      12.365      12.932      13.264      13.123      12.432      11.292      9.9371      8.5612    
  7.2645      6.1190      5.1633      4.4059      3.8344      3.4280      3.1660      3.0331      3.0210      3.1284    
  3.3605      3.7288      4.2513      4.9498      5.8432      6.9378      8.2154      9.6247      11.081      12.468    
  12.100      13.174      13.838      14.033      13.849      13.486      13.168      13.049      13.149      13.350    
  13.449      13.245      12.629      11.622      10.377      9.0668      7.7898      6.6225      5.6151      4.7887    
  4.1415      3.6581      3.3193      3.1082      3.0140      3.0315      3.1613      3.4088      3.7851      4.3066    
  4.9920      5.8570      6.9046      8.1151      9.4396      10.800      10.408      11.603      12.640      13.379    
  13.768      13.862      13.791      13.693      13.645      13.633      13.555      13.279      12.704      11.814    
  10.697      9.4832      8.2617      7.1073      6.0774      5.2040      4.4960      3.9455      3.5369      3.2541    
  3.0845      3.0207      3.0601      3.2042      3.4584      3.8326      4.3409      4.9996      5.8207      6.8049    
  7.9319      9.1560      8.7847      9.9171      10.999      11.962      12.721      13.224      13.493      13.600    
  13.615      13.568      13.432      13.139      12.619      11.850      10.878      9.7916      8.6606      7.5552    
  6.5353      5.6411      4.8914      4.2871      3.8182      3.4710      3.2328      3.0951      3.0533      3.1065    
  3.2565      3.5080      3.8696      4.3534      4.9725      5.7363      6.6431      7.6731      7.3495      8.3405    
  9.3478      10.312      11.179      11.903      12.444      12.797      12.988      13.046      12.973      12.744    
  12.327      11.704      10.904      9.9734      8.9676      7.9483      6.9735      6.0885      5.3206      4.6795    
  4.1624      3.7596      3.4602      3.2555      3.1400      3.1115      3.1698      3.3166      3.5560      3.8950    
  4.3436      4.9122      5.6075      6.4262      6.1636      6.9746      7.8418      8.7227      9.5697      10.338    
  10.993      11.511      11.880      12.097      12.162      12.069      11.806      11.365      10.759      10.012    
  9.1651      8.2688      7.3764      6.5343      5.7760      5.1193      4.5692      4.1218      3.7693      3.5044    
  3.3218      3.2186      3.1941      3.2484      3.3829      3.6009      3.9080      4.3121      4.8214      5.4401    
  5.2410      5.8660      6.5639      7.3090      8.0675      8.8015      9.4754      10.059      10.533      10.881    
  11.094      11.164      11.081      10.839      10.441      9.8982      9.2384      8.4999      7.7277      6.9652    
  6.2487      5.6024      5.0389      4.5607      4.1652      3.8474      3.6035      3.4313      3.3300      3.2995    
  3.3402      3.4532      3.6409      3.9080      4.2604      4.7040      4.5646      5.0180      5.5454      6.1342    
  6.7640      7.4087      8.0390      8.6263      9.1456      9.5768      9.9047      10.117      10.202      10.151    
  9.9598      9.6310      9.1785      8.6273      8.0107      7.3657      6.7270      6.1223      5.5702      5.0799    
  4.6544      4.2928      3.9939      3.7572      3.5831      3.4724      3.4255      3.4428      3.5253      3.6748    
  3.8950      4.1904      4.1046      4.4082      4.7798      5.2143      5.7021      6.2277      6.7714      7.3110    
  7.8235      8.2879      8.6862      9.0031      9.2255      9.3418      9.3427      9.2233      8.9857      8.6412    
  8.2099      7.7182      7.1952      6.6680      6.1581      5.6804      5.2432      4.8506      4.5052      4.2091    
  3.9650      3.7759      3.6435      3.5691      3.5532      3.5968      3.7013      3.8696      3.8326      4.0061    
  4.2407      4.5349      4.8848      5.2832      5.7189      6.1775      6.6420      7.0945      7.5177      7.8961    
  8.2157      8.4639      8.6288      8.6999      8.6704      8.5392      8.3125      8.0042      7.6333      7.2218    
  6.7905      6.3568      5.9333      5.5288      5.1499      4.8024      4.4923      4.2255      4.0070      3.8401    
  3.7269      3.6682      3.6653      3.7195      3.7288      3.7851      3.8982      4.0676      4.2918      4.5679    
  4.8909      5.2531      5.6441      6.0512      6.4606      6.8589      7.2336      7.5726      7.8640      8.0948    
  8.2526      8.3269      8.3114      8.2063      8.0183      7.7597      7.4462      7.0938      6.7169      6.3276    
  5.9359      5.5513      5.1833      4.8417      4.5358      4.2728      4.0580      3.8946      3.7844      3.7288    
  3.7851      3.7288      3.7288      3.7844      3.8946      4.0580      4.2728      4.5358      4.8417      5.1833    
  5.5513      5.9359      6.3276      6.7169      7.0938      7.4462      7.7597      8.0183      8.2063      8.3114    
  8.3269      8.2526      8.0948      7.8640      7.5726      7.2336      6.8589      6.4606      6.0512      5.6441    
  5.2531      4.8909      4.5679      4.2918      4.0676      3.8982      4.0061      3.8326      3.7195      3.6653    
  3.6682      3.7268      3.8401      4.0070      4.2255      4.4923      4.8024      5.1499      5.5288      5.9333    
  6.3568      6.7905      7.2218      7.6333      8.0042      8.3125      8.5392      8.6704      8.6999      8.6288    
  8.4639      8.2157      7.8961      7.5177      7.0945      6.6420      6.1775      5.7189      5.2832      4.8849    
  4.5349      4.2407      4.4082      4.1046      3.8696      3.7013      3.5967      3.5532      3.5691      3.6435    
  3.7758      3.9650      4.2091      4.5052      4.8506      5.2432      5.6804      6.1581      6.6680      7.1952    
  7.7182      8.2099      8.6412      8.9857      9.2233      9.3427      9.3418      9.2255      9.0031      8.6862    
  8.2879      7.8235      7.3110      6.7714      6.2277      5.7021      5.2144      4.7797      5.0180      4.5645    
  4.1903      3.8950      3.6748      3.5253      3.4428      3.4255      3.4724      3.5831      3.7572      3.9939    
  4.2928      4.6544      5.0799      5.5702      6.1223      6.7270      7.3657      8.0107      8.6273      9.1785    
  9.6310      9.9598      10.151      10.202      10.117      9.9047      9.5768      9.1455      8.6263      8.0390    
  7.4087      6.7640      6.1342      5.5454      5.8659      5.2409      4.7040      4.2604      3.9079      3.6409    
  3.4532      3.3403      3.2995      3.3300      3.4313      3.6035      3.8474      4.1652      4.5608      5.0389    
  5.6024      6.2487      6.9652      7.7277      8.4999      9.2384      9.8982      10.441      10.839      11.081    
  11.164      11.094      10.881      10.533      10.059      9.4753      8.8015      8.0675      7.3090      6.5639    
  6.9745      6.1636      5.4401      4.8214      4.3121      3.9079      3.6009      3.3829      3.2484      3.1941    
  3.2186      3.3218      3.5044      3.7694      4.1218      4.5692      5.1193      5.7760      6.5343      7.3764    
  8.2688      9.1651      10.012      10.759      11.365      11.806      12.069      12.162      12.097      11.880    
  11.511      10.993      10.338      9.5697      8.7227      7.8417      8.3405      7.3494      6.4262      5.6075    
  4.9122      4.3435      3.8950      3.5560      3.3166      3.1698      3.1115      3.1400      3.2555      3.4602    
  3.7596      4.1624      4.6795      5.3206      6.0885      6.9735      7.9483      8.9676      9.9734      10.904    
  11.704      12.327      12.744      12.973      13.046      12.988      12.797      12.444      11.903      11.179    
  10.312      9.3478      9.9170      8.7846      7.6730      6.6430      5.7362      4.9724      4.3534      3.8696    
  3.5080      3.2565      3.1065      3.0533      3.0951      3.2328      3.4710      3.8182      4.2871      4.8914    
  5.6411      6.5353      7.5552      8.6606      9.7916      10.878      11.850      12.619      13.139      13.432    
  13.568      13.615      13.600      13.493      13.224      12.721      11.962      10.999      11.603      10.407    
  9.1559      7.9318      6.8048      5.8207      4.9995      4.3410      3.8326      3.4584      3.2042      3.0601    
  3.0207      3.0845      3.2541      3.5370      3.9455      4.4960      5.2040      6.0774      7.1073      8.2617    
  9.4832      10.697      11.814      12.704      13.279      13.555      13.633      13.645      13.693      13.791    
  13.862      13.768      13.379      12.640      13.174      12.100      10.800      9.4396      8.1151      6.9045    
  5.8570      4.9920      4.3066      3.7851      3.4087      3.1612      3.0315      3.0140      3.1082      3.3193    
  3.6582      4.1416      4.7887      5.6151      6.6225      7.7898      9.0668      10.377      11.622      12.629    
  13.245      13.449      13.350      13.149      13.049      13.168      13.486      13.849      14.033      13.838    
  14.096      13.550      12.468      11.081      9.6247      8.2154      6.9378      5.8432      4.9499      4.2514    
  3.7288      3.3604      3.1284      3.0210      3.0331      3.1660      3.4281      3.8345      4.4059      5.1633    
  6.1190      7.2645      8.5612      9.9371      11.292      12.432      13.123      13.264      12.932      12.365    
  11.871      11.718      12.020      12.690      13.469      14.029      13.813      14.181      13.775      12.699    
  11.242      9.7050      8.2287      6.9031      5.7799      4.8746      4.1773      3.6653      3.3147      3.1063    
  3.0285      3.0775      3.2572      3.5798      4.0649      4.7365      5.6152      6.7060      7.9857      9.3934    
  10.833      12.125      12.959      13.125      12.608      11.622      10.548      9.8068      9.7108      10.338    
  11.498      12.804      11.993      13.477      14.145      13.868      12.795      11.279      9.6783      8.1551    
  6.8021      5.6696      4.7694      4.0871      3.5968      3.2727      3.0953      3.0537      3.1464      3.3806    
  3.7729      4.3471      5.1291      6.1359      7.3615      8.7626      10.254      11.690      12.743      13.073    
  12.529      11.224      9.5317      7.9840      7.1033      7.2137      8.3170      10.088      8.6872      11.201    