unknown system                          
   1.00000000000000     
    -2.524876    2.524876    1.440795
     2.524876   -2.524876    1.440795
     2.524876    2.524876   -1.440795
   Si
     2
Direct
  0.000000  0.000000  0.000000
  0.250000  0.750000  0.500000
 
   36   36   36
 -.59951625066E+01 -.48140666664E+01 -.15958064296E+01 0.28063399355E+01 0.73133090941E+01
 0.10961431854E+02 0.13151472811E+02 0.13745983292E+02 0.13022435517E+02 0.11522156737E+02
 0.98233822855E+01 0.82132584373E+01 0.68050187555E+01 0.56546446598E+01 0.47701124367E+01
 0.41299721696E+01 0.37023511815E+01 0.34583986552E+01 0.33792271446E+01 0.34584013657E+01
 0.37023751506E+01 0.41300117755E+01 0.47701393604E+01 0.56546534874E+01 0.68050292634E+01
 0.82132723378E+01 0.98233800191E+01 0.11522139362E+02 0.13022427177E+02 0.13745988886E+02
 0.13151471505E+02 0.10961414890E+02 0.73132858358E+01 0.28063083646E+01 -.15958540311E+01
 -.48141088320E+01 -.48141088320E+01 -.53382623960E+01 -.35804888670E+01 -.28128525037E-01
 0.43857200379E+01 0.86052243479E+01 0.11770972902E+02 0.13423978050E+02 0.13557853201E+02
 0.12538983818E+02 0.10937996266E+02 0.92641445434E+01 0.77179925942E+01 0.63944691760E+01
 0.53334867023E+01 0.45322175528E+01 0.39645726019E+01 0.35987874520E+01 0.34087597393E+01
 0.33793517387E+01 0.35080079743E+01 0.38048768994E+01 0.42919945968E+01 0.49999244594E+01
 0.59592414625E+01 0.71853465171E+01 0.86589486521E+01 0.10309542315E+02 0.12003467842E+02
 0.13369050413E+02 0.13812157923E+02 0.12847560484E+02 0.10300044020E+02 0.64304128704E+01
 0.19444377562E+01 -.21479980867E+01 -.15958540311E+01 -.35805186682E+01 -.34699789642E+01
 -.13057184381E+01 0.23074366792E+01 0.64242079229E+01 0.10077208282E+02 0.12555577863E+02
 0.13557820055E+02 0.13201935511E+02 0.11919684487E+02 0.10274972551E+02 0.86525630718E+01
 0.71924916546E+01 0.59696192409E+01 0.50076571851E+01 0.42944339939E+01 0.38010321655E+01
 0.34972147777E+01 0.33604547912E+01 0.33796582108E+01 0.35560361317E+01 0.39029989503E+01
 0.44449814354E+01 0.52131416872E+01 0.62354195128E+01 0.75202900963E+01 0.90377268022E+01
 0.10705424148E+02 0.12367187658E+02 0.13593410371E+02 0.13812959436E+02 0.12615426096E+02
 0.99292671989E+01 0.61169301172E+01 0.19444377562E+01 0.28063083646E+01 -.28156397987E-01
 -.13057285020E+01 -.67624519943E+00 0.16653217481E+01 0.50552892547E+01 0.86023473053E+01
 0.11479045077E+02 0.13148704272E+02 0.13467357166E+02 0.12658060862E+02 0.11187106999E+02
 0.95573312497E+01 0.80119817991E+01 0.66570205729E+01 0.55462335263E+01 0.46884434395E+01
 0.40643409696E+01 0.36441466312E+01 0.34004067258E+01 0.33147142030E+01 0.33800054084E+01
 0.36008818243E+01 0.39933703866E+01 0.45833812387E+01 0.54015066079E+01 0.64720207462E+01
 0.77963035172E+01 0.93350740015E+01 0.10997656750E+02 0.12608604713E+02 0.13716299602E+02
 0.13798683963E+02 0.12529094455E+02 0.99292671989E+01 0.64304128704E+01 0.73132858358E+01
 0.43857027540E+01 0.23074329223E+01 0.16653314857E+01 0.26320695454E+01 0.49048205408E+01
 0.78225164263E+01 0.10602285516E+02 0.12588516745E+02 0.13424605808E+02 0.13108873872E+02
 0.11940592624E+02 0.10384723075E+02 0.88118572326E+01 0.73669113241E+01 0.61314024717E+01
 0.51389224755E+01 0.43859189104E+01 0.38485665209E+01 0.34981056546E+01 0.33108312774E+01
 0.32726567567E+01 0.33802364717E+01 0.36409713643E+01 0.40727113259E+01 0.47018396669E+01
 0.55573221038E+01 0.66591400906E+01 0.80020732578E+01 0.95397241717E+01 0.11176761123E+02
 0.12728458304E+02 0.13755043422E+02 0.13798683963E+02 0.12615426096E+02 0.10300044020E+02
 0.10961414890E+02 0.86052130278E+01 0.64242054093E+01 0.50553058683E+01 0.49048439032E+01
 0.60001923508E+01 0.79840224099E+01 0.10251758834E+02 0.12165113861E+02 0.13251202305E+02
 0.13321866963E+02 0.12490789002E+02 0.11098888763E+02 0.95535029427E+01 0.80669775202E+01
 0.67411680142E+01 0.56336055272E+01 0.47602635869E+01 0.41084876632E+01 0.36526080744E+01
 0.33664684266E+01 0.32306883875E+01 0.32353423940E+01 0.33802475895E+01 0.36748680152E+01
 0.41380027970E+01 0.47955191340E+01 0.56739152238E+01 0.67887001205E+01 0.81290769030E+01
 0.96439959184E+01 0.11237088000E+02 0.12728458304E+02 0.13716299602E+02 0.13812959436E+02
 0.12847560484E+02 0.13151471505E+02 0.11770975692E+02 0.10077208649E+02 0.86023563549E+01
 0.78225444622E+01 0.79840502954E+01 0.90127535911E+01 0.10547638134E+02 0.12079592967E+02
 0.13130724381E+02 0.13403089373E+02 0.12851953202E+02 0.11671921329E+02 0.10206184763E+02
 0.87258869419E+01 0.73503814742E+01 0.61560077316E+01 0.51785855102E+01 0.44202199273E+01
 0.38626707116E+01 0.34808069599E+01 0.32522056208E+01 0.31619491838E+01 0.32038037266E+01
 0.33800329703E+01 0.37013611068E+01 0.41866578066E+01 0.48604033844E+01 0.57460869145E+01
 0.68549688000E+01 0.81720116577E+01 0.96439959184E+01 0.11176761123E+02 0.12608604713E+02
 0.13593410371E+02 0.13812157923E+02 0.13745988886E+02 0.13423997762E+02 0.12555596428E+02
 0.11479054994E+02 0.10602301164E+02 0.10251788282E+02 0.10547662337E+02 0.11360116608E+02
 0.12364924918E+02 0.13169607942E+02 0.13454114774E+02 0.13073416495E+02 0.12092413229E+02
 0.10748825827E+02 0.93167863305E+01 0.79335990108E+01 0.66866805781E+01 0.56286985321E+01
 0.47776325360E+01 0.41259678333E+01 0.36531552485E+01 0.33364521258E+01 0.31577653641E+01
 0.31063676396E+01 0.31790344950E+01 0.33796906079E+01 0.37195283260E+01 0.42166877521E+01
 0.48936032575E+01 0.57705239331E+01 0.68549688000E+01 0.81290769030E+01 0.95397241717E+01
 0.10997656750E+02 0.12367187658E+02 0.13369050413E+02 0.13022427177E+02 0.13557867041E+02
 0.13557851308E+02 0.13148731780E+02 0.12588532801E+02 0.12165131166E+02 0.12079616371E+02
 0.12364940668E+02 0.12875550581E+02 0.13350269513E+02 0.13517629122E+02 0.13198676447E+02
 0.12369867717E+02 0.11167595148E+02 0.98184276242E+01 0.84674076810E+01 0.72050439265E+01
 0.60956799137E+01 0.51718353556E+01 0.44383268283E+01 0.38821292552E+01 0.34830574956E+01
 0.32219557620E+01 0.30851260383E+01 0.30654513155E+01 0.31619294450E+01 0.33793830143E+01
 0.37287607845E+01 0.42268399872E+01 0.48936032575E+01 0.57460869145E+01 0.67887001205E+01
 0.80020732578E+01 0.93350740015E+01 0.10705424148E+02 0.12003467842E+02 0.11522139362E+02
 0.12538975238E+02 0.13201950463E+02 0.13467389382E+02 0.13424634724E+02 0.13251220651E+02
 0.13130739891E+02 0.13169622194E+02 0.13350276007E+02 0.13540889805E+02 0.13555132727E+02
 0.13233430709E+02 0.12511583216E+02 0.11451180001E+02 0.10213842635E+02 0.89313736560E+01
 0.76910852417E+01 0.65631751218E+01 0.55916284046E+01 0.47934668591E+01 0.41650414674E+01
 0.36912948354E+01 0.33543021216E+01 0.31390321902E+01 0.30358154890E+01 0.30403870487E+01
 0.31531843817E+01 0.33792605578E+01 0.37287607845E+01 0.42166877521E+01 0.48604033844E+01
 0.56739152238E+01 0.66591400906E+01 0.77963035172E+01 0.90377268022E+01 0.10309542315E+02
 0.98233800191E+01 0.10937985148E+02 0.11919676751E+02 0.12658071655E+02 0.13108899064E+02
 0.13321891351E+02 0.13403106782E+02 0.13454126994E+02 0.13517634884E+02 0.13555131897E+02
 0.13466220774E+02 0.13138820840E+02 0.12506531109E+02 0.11588211947E+02 0.10487871703E+02
 0.93075644533E+01 0.81262652325E+01 0.70147469515E+01 0.60245682836E+01 0.51834780723E+01
 0.44978845091E+01 0.39597775351E+01 0.35546669942E+01 0.32679962833E+01 0.30888332578E+01
 0.30108893392E+01 0.30319429860E+01 0.31531843817E+01 0.33793830143E+01 0.37195283260E+01
 0.41866578066E+01 0.47955191340E+01 0.55573221038E+01 0.64720207462E+01 0.75202900963E+01
 0.86589486521E+01 0.82132723378E+01 0.92641544329E+01 0.10274969747E+02 0.11187101658E+02
 0.11940597740E+02 0.12490804019E+02 0.12851970143E+02 0.13073430922E+02 0.13198685225E+02
 0.13233430449E+02 0.13138815554E+02 0.12852599335E+02 0.12326920523E+02 0.11564021412E+02
 0.10625551890E+02 0.95794953003E+01 0.84934850465E+01 0.74346178102E+01 0.64579967068E+01
 0.55997224411E+01 0.48759098210E+01 0.42867582108E+01 0.38230795761E+01 0.34726547869E+01
 0.32247208096E+01 0.30720273433E+01 0.30108893392E+01 0.30403870487E+01 0.31619294450E+01
 0.33796906079E+01 0.37013611068E+01 0.41380027970E+01 0.47018396669E+01 0.54015066079E+01
 0.62354195128E+01 0.71853465171E+01 0.68050292634E+01 0.77180126205E+01 0.86525795059E+01
 0.95573360132E+01 0.10384721903E+02 0.11098890200E+02 0.11671927256E+02 0.12092422416E+02
 0.12369878092E+02 0.12511588898E+02 0.12506527438E+02 0.12326913383E+02 0.11946488465E+02
 0.11365167640E+02 0.10612976101E+02 0.97317821764E+01 0.87766494667E+01 0.78075962638E+01
 0.68793635961E+01 0.60334038045E+01 0.52942637432E+01 0.46707237084E+01 0.41602944945E+01
 0.37548332824E+01 0.34453206040E+01 0.32247208096E+01 0.30888332578E+01 0.30358154890E+01
 0.30654513155E+01 0.31790344950E+01 0.33800329703E+01 0.36748680152E+01 0.40727113259E+01
 0.45833812387E+01 0.52131416872E+01 0.59592414625E+01 0.56546534874E+01 0.63944800398E+01
 0.71925086718E+01 0.80119981384E+01 0.88118671265E+01 0.95535071107E+01 0.10206185593E+02
 0.10748825576E+02 0.11167597714E+02 0.11451186114E+02 0.11588215088E+02 0.11564016447E+02
 0.11365160563E+02 0.10987543854E+02 0.10440829331E+02 0.97514699419E+01 0.89607343611E+01
 0.81186300601E+01 0.72757010080E+01 0.64752048700E+01 0.57478906468E+01 0.51105653769E+01
 0.45682066422E+01 0.41181971647E+01 0.37548332824E+01 0.34726547869E+01 0.32679962833E+01
 0.31390321902E+01 0.30851260383E+01 0.31063676396E+01 0.32038037266E+01 0.33802475895E+01
 0.36409713643E+01 0.39933703866E+01 0.44449814354E+01 0.49999244594E+01 0.47701393604E+01
 0.53334976817E+01 0.59696253820E+01 0.66570291936E+01 0.73669227670E+01 0.80669893645E+01
 0.87258957501E+01 0.93167882803E+01 0.98184240244E+01 0.10213840514E+02 0.10487874250E+02
 0.10625553230E+02 0.10612971400E+02 0.10440823592E+02 0.10109152219E+02 0.96309971533E+01
 0.90330609912E+01 0.83528039814E+01 0.76327961203E+01 0.69140502989E+01 0.62302795516E+01
 0.56046003959E+01 0.50493025318E+01 0.45682066422E+01 0.41602944945E+01 0.38230795761E+01
 0.35546669942E+01 0.33543021216E+01 0.32219557620E+01 0.31577653641E+01 0.31619491838E+01
 0.32353423940E+01 0.33802364717E+01 0.36008818243E+01 0.39029989503E+01 0.42919945968E+01
 0.41300117755E+01 0.45322431297E+01 0.50076671242E+01 0.55462343908E+01 0.61314023768E+01
 0.67411728410E+01 0.73503924822E+01 0.79336102351E+01 0.84674109227E+01 0.89313688806E+01
 0.93075598578E+01 0.95794953570E+01 0.97317824442E+01 0.97514665652E+01 0.96309936076E+01
 0.93716345159E+01 0.89857165509E+01 0.84964260802E+01 0.79349531126E+01 0.73357668843E+01
 0.67314111042E+01 0.61482988790E+01 0.56046003959E+01 0.51105653769E+01 0.46707237084E+01
 0.42867582108E+01 0.39597775351E+01 0.36912948354E+01 0.34830574956E+01 0.33364521258E+01
 0.32522056208E+01 0.32306883875E+01 0.32726567567E+01 0.33800054084E+01 0.35560361317E+01
 0.38048768994E+01 0.37023751506E+01 0.39645970791E+01 0.42944522352E+01 0.46884513276E+01
 0.51389207725E+01 0.56336002291E+01 0.61560076993E+01 0.66866896921E+01 0.72050554689E+01
 0.76910891753E+01 0.81262606106E+01 0.84934795585E+01 0.87766478591E+01 0.89607341621E+01
 0.90330597252E+01 0.89857156726E+01 0.88182194184E+01 0.85391682089E+01 0.81659892960E+01
 0.77226467123E+01 0.72359289666E+01 0.67314111042E+01 0.62302795516E+01 0.57478906468E+01
 0.52942637432E+01 0.48759098210E+01 0.44978845091E+01 0.41650414674E+01 0.38821292552E+01
 0.36531552485E+01 0.34808069599E+01 0.33664684266E+01 0.33108312774E+01 0.33147142030E+01
 0.33796582108E+01 0.35080079743E+01 0.34584013657E+01 0.35987891431E+01 0.38010373023E+01
 0.40643492420E+01 0.43859254985E+01 0.47602636654E+01 0.51785812386E+01 0.56286982798E+01
 0.60956880401E+01 0.65631855137E+01 0.70147505511E+01 0.74346136524E+01 0.78075905983E+01
 0.81186274242E+01 0.83528040574E+01 0.84964274627E+01 0.85391699220E+01 0.84765084817E+01
 0.83114199940E+01 0.80545471501E+01 0.77226467123E+01 0.73357668843E+01 0.69140502989E+01
 0.64752048700E+01 0.60334038045E+01 0.55997224411E+01 0.51834780723E+01 0.47934668591E+01
 0.44383268283E+01 0.41259678333E+01 0.38626707116E+01 0.36526080744E+01 0.34981056546E+01
 0.34004067258E+01 0.33604547912E+01 0.33793517387E+01 0.33792271446E+01 0.34087470755E+01
 0.34971967256E+01 0.36441342318E+01 0.38485660959E+01 0.41084951154E+01 0.44202265940E+01
 0.47776357746E+01 0.51718397500E+01 0.55916366416E+01 0.60245762982E+01 0.64579989471E+01
 0.68793599089E+01 0.72756957197E+01 0.76327933057E+01 0.79349541746E+01 0.81659930907E+01
 0.83114233741E+01 0.83611140591E+01 0.83114199940E+01 0.81659892960E+01 0.79349531126E+01
 0.76327961203E+01 0.72757010080E+01 0.68793635961E+01 0.64579967068E+01 0.60245682836E+01
 0.55916284046E+01 0.51718353556E+01 0.47776325360E+01 0.44202199273E+01 0.41084876632E+01
 0.38485665209E+01 0.36441466312E+01 0.34972147777E+01 0.34087597393E+01 0.34583986552E+01
 0.33793406543E+01 0.33604311227E+01 0.34003766907E+01 0.34980836431E+01 0.36526043007E+01
 0.38626823536E+01 0.41259842023E+01 0.44383409300E+01 0.47934778116E+01 0.51834863879E+01
 0.55997274243E+01 0.60334046891E+01 0.64752021715E+01 0.69140461025E+01 0.73357646072E+01
 0.77226487361E+01 0.80545519424E+01 0.83114233741E+01 0.84765084817E+01 0.85391682089E+01
 0.84964260802E+01 0.83528039814E+01 0.81186300601E+01 0.78075962638E+01 0.74346178102E+01
 0.70147469515E+01 0.65631751218E+01 0.60956799137E+01 0.56286985321E+01 0.51785855102E+01
 0.47602635869E+01 0.43859189104E+01 0.40643409696E+01 0.38010321655E+01 0.35987874520E+01
 0.37023511815E+01 0.35079878815E+01 0.33796373448E+01 0.33146863915E+01 0.33108002694E+01
 0.33664477294E+01 0.34808066509E+01 0.36531731024E+01 0.38821549579E+01 0.41650653314E+01
 0.44979009240E+01 0.48759178175E+01 0.52942664687E+01 0.57478912655E+01 0.62302783286E+01
 0.67314079956E+01 0.72359270669E+01 0.77226487361E+01 0.81659930907E+01 0.85391699220E+01
 0.88182194184E+01 0.89857165509E+01 0.90330609912E+01 0.89607343611E+01 0.87766494667E+01
 0.84934850465E+01 0.81262652325E+01 0.76910852417E+01 0.72050439265E+01 0.66866805781E+01
 0.61560077316E+01 0.56336055272E+01 0.51389224755E+01 0.46884434395E+01 0.42944339939E+01
 0.39645726019E+01 0.41299721696E+01 0.38048350005E+01 0.35560024359E+01 0.33799788244E+01
 0.32726314358E+01 0.32306658474E+01 0.32521946405E+01 0.33364589628E+01 0.34830806106E+01
 0.36913266217E+01 0.39598079337E+01 0.42867782847E+01 0.46707317293E+01 0.51105673547E+01
 0.56046015024E+01 0.61482984113E+01 0.67314079956E+01 0.73357646072E+01 0.79349541746E+01
 0.84964274627E+01 0.89857156726E+01 0.93716345159E+01 0.96309971533E+01 0.97514699419E+01
 0.97317821764E+01 0.95794953003E+01 0.93075644533E+01 0.89313736560E+01 0.84674076810E+01
 0.79335990108E+01 0.73503814742E+01 0.67411680142E+01 0.61314024717E+01 0.55462335263E+01
 0.50076571851E+01 0.45322175528E+01 0.47701124367E+01 0.42919504865E+01 0.39029507816E+01
 0.36008429820E+01 0.33802096844E+01 0.32353243118E+01 0.31619396734E+01 0.31577669822E+01
 0.32219697933E+01 0.33543282072E+01 0.35547017613E+01 0.38231138323E+01 0.41603169656E+01
 0.45682150499E+01 0.50493044942E+01 0.56046015024E+01 0.62302783286E+01 0.69140461025E+01
 0.76327933057E+01 0.83528040574E+01 0.90330597252E+01 0.96309936076E+01 0.10109152219E+02
 0.10440829331E+02 0.10612976101E+02 0.10625551890E+02 0.10487871703E+02 0.10213842635E+02
 0.98184276242E+01 0.93167863305E+01 0.87258869419E+01 0.80669775202E+01 0.73669113241E+01
 0.66570205729E+01 0.59696192409E+01 0.53334867023E+01 0.56546446598E+01 0.49999047953E+01
 0.44449466786E+01 0.39933303212E+01 0.36409380106E+01 0.33802257122E+01 0.32037939839E+01
 0.31063703947E+01 0.30851389169E+01 0.31390520773E+01 0.32680240736E+01 0.34726910060E+01
 0.37548695226E+01 0.41182205693E+01 0.45682150499E+01 0.51105673547E+01 0.57478912655E+01
 0.64752021715E+01 0.72756957197E+01 0.81186274242E+01 0.89607341621E+01 0.97514665652E+01
 0.10440823592E+02 0.10987543854E+02 0.11365167640E+02 0.11564021412E+02 0.11588211947E+02
 0.11451180001E+02 0.11167595148E+02 0.10748825827E+02 0.10206184763E+02 0.95535029427E+01
 0.88118572326E+01 0.80119817991E+01 0.71924916546E+01 0.63944691760E+01 0.68050187555E+01
 0.59592402834E+01 0.52131375094E+01 0.45833668960E+01 0.40726910750E+01 0.36748483964E+01
 0.33800186978E+01 0.31790315424E+01 0.30654630158E+01 0.30358366143E+01 0.30888573631E+01
 0.32247497004E+01 0.34453573368E+01 0.37548695226E+01 0.41603169656E+01 0.46707317293E+01
 0.52942664687E+01 0.60334046891E+01 0.68793599089E+01 0.78075905983E+01 0.87766478591E+01
 0.97317824442E+01 0.10612971400E+02 0.11365160563E+02 0.11946488465E+02 0.12326920523E+02
 0.12506531109E+02 0.12511583216E+02 0.12369867717E+02 0.12092413229E+02 0.11671921329E+02
 0.11098888763E+02 0.10384723075E+02 0.95573312497E+01 0.86525630718E+01 0.77179925942E+01
 0.82132584373E+01 0.71853443054E+01 0.62354310612E+01 0.54015213071E+01 0.47018501922E+01
 0.41380076722E+01 0.37013587343E+01 0.33796845044E+01 0.31619313660E+01 0.30404042600E+01
 0.30109149593E+01 0.30720530884E+01 0.32247497004E+01 0.34726910060E+01 0.38231138323E+01
 0.42867782847E+01 0.48759178175E+01 0.55997274243E+01 0.64579989471E+01 0.74346136524E+01
 0.84934795585E+01 0.95794953570E+01 0.10625553230E+02 0.11564016447E+02 0.12326913383E+02
 0.12852599335E+02 0.13138820840E+02 0.13233430709E+02 0.13198676447E+02 0.13073416495E+02
 0.12851953202E+02 0.12490789002E+02 0.11940592624E+02 0.11187106999E+02 0.10274972551E+02
 0.92641445434E+01 0.98233822855E+01 0.86589497342E+01 0.75203033855E+01 0.64720470205E+01
 0.55573541488E+01 0.47955529424E+01 0.41866865933E+01 0.37195419429E+01 0.33793836167E+01
 0.31531891336E+01 0.30319621319E+01 0.30109149593E+01 0.30888573631E+01 0.32680240736E+01
 0.35547017613E+01 0.39598079337E+01 0.44979009240E+01 0.51834863879E+01 0.60245762982E+01
 0.70147505511E+01 0.81262606106E+01 0.93075598578E+01 0.10487874250E+02 0.11588215088E+02
 0.12506527438E+02 0.13138815554E+02 0.13466220774E+02 0.13555132727E+02 0.13517629122E+02
 0.13454114774E+02 0.13403089373E+02 0.13321866963E+02 0.13108873872E+02 0.12658060862E+02
 0.11919684487E+02 0.10937996266E+02 0.11522156737E+02 0.10309558328E+02 0.90377478568E+01
 0.77963359847E+01 0.66591802640E+01 0.56739608707E+01 0.48604550789E+01 0.42167339233E+01
 0.37287842845E+01 0.33792638456E+01 0.31531891336E+01 0.30404042600E+01 0.30358366143E+01
 0.31390520773E+01 0.33543282072E+01 0.36913266217E+01 0.41650653314E+01 0.47934778116E+01
 0.55916366416E+01 0.65631855137E+01 0.76910891753E+01 0.89313688806E+01 0.10213840514E+02
 0.11451186114E+02 0.12511588898E+02 0.13233430449E+02 0.13555131897E+02 0.13540889805E+02
 0.13350269513E+02 0.13169607942E+02 0.13130724381E+02 0.13251202305E+02 0.13424605808E+02
 0.13467357166E+02 0.13201935511E+02 0.12538983818E+02 0.13022435517E+02 0.12003487165E+02
 0.10705451758E+02 0.93351156307E+01 0.80021246932E+01 0.67887517841E+01 0.57461416149E+01
 0.48936648130E+01 0.42268925962E+01 0.37287842845E+01 0.33793836167E+01 0.31619313660E+01
 0.30654630158E+01 0.30851389169E+01 0.32219697933E+01 0.34830806106E+01 0.38821549579E+01
 0.44383409300E+01 0.51718397500E+01 0.60956880401E+01 0.72050554689E+01 0.84674109227E+01
 0.98184240244E+01 0.11167597714E+02 0.12369878092E+02 0.13198685225E+02 0.13517634884E+02
 0.13350276007E+02 0.12875550581E+02 0.12364924918E+02 0.12079592967E+02 0.12165113861E+02
 0.12588516745E+02 0.13148704272E+02 0.13557820055E+02 0.13557853201E+02 0.13745983292E+02
 0.13369058409E+02 0.12367205135E+02 0.10997692682E+02 0.95397831667E+01 0.81291428285E+01
 0.68550273713E+01 0.57705819137E+01 0.48936648130E+01 0.42167339233E+01 0.37195419429E+01
 0.33796845044E+01 0.31790315424E+01 0.31063703947E+01 0.31577669822E+01 0.33364589628E+01
 0.36531731024E+01 0.41259842023E+01 0.47776357746E+01 0.56286982798E+01 0.66866896921E+01
 0.79336102351E+01 0.93167882803E+01 0.10748825576E+02 0.12092422416E+02 0.13073430922E+02
 0.13454126994E+02 0.13169622194E+02 0.12364940668E+02 0.11360116608E+02 0.10547638134E+02
 0.10251758834E+02 0.10602285516E+02 0.11479045077E+02 0.12555577863E+02 0.13423978050E+02
 0.13151472811E+02 0.13812166783E+02 0.13593419253E+02 0.12608619367E+02 0.11176802371E+02
 0.96440651567E+01 0.81720831062E+01 0.68550273713E+01 0.57461416149E+01 0.48604550789E+01
 0.41866865933E+01 0.37013587343E+01 0.33800186978E+01 0.32037939839E+01 0.31619396734E+01
 0.32521946405E+01 0.34808066509E+01 0.38626823536E+01 0.44202265940E+01 0.51785812386E+01
 0.61560076993E+01 0.73503924822E+01 0.87258957501E+01 0.10206185593E+02 0.11671927256E+02
 0.12851970143E+02 0.13403106782E+02 0.13130739891E+02 0.12079616371E+02 0.10547662337E+02
 0.90127535911E+01 0.79840224099E+01 0.78225164263E+01 0.86023473053E+01 0.10077208282E+02
 0.11770972902E+02 0.10961431854E+02 0.12847587173E+02 0.13812984559E+02 0.13716310430E+02
 0.12728471279E+02 0.11237131174E+02 0.96440651567E+01 0.81291428285E+01 0.67887517841E+01
 0.56739608707E+01 0.47955529424E+01 0.41380076722E+01 0.36748483964E+01 0.33802257122E+01
 0.32353243118E+01 0.32306658474E+01 0.33664477294E+01 0.36526043007E+01 0.41084951154E+01
 0.47602636654E+01 0.56336002291E+01 0.67411728410E+01 0.80669893645E+01 0.95535071107E+01
 0.11098890200E+02 0.12490804019E+02 0.13321891351E+02 0.13251220651E+02 0.12165131166E+02
 0.10251788282E+02 0.79840502954E+01 0.60001923508E+01 0.49048205408E+01 0.50552892547E+01
 0.64242079229E+01 0.86052243479E+01 0.73133090941E+01 0.10300079855E+02 0.12615474031E+02
 0.13798720116E+02 0.13755055307E+02 0.12728471279E+02 0.11176802371E+02 0.95397831667E+01
 0.80021246932E+01 0.66591802640E+01 0.55573541488E+01 0.47018501922E+01 0.40726910750E+01
 0.36409380106E+01 0.33802096844E+01 0.32726314358E+01 0.33108002694E+01 0.34980836431E+01
 0.38485660959E+01 0.43859254985E+01 0.51389207725E+01 0.61314023768E+01 0.73669227670E+01
 0.88118671265E+01 0.10384721903E+02 0.11940597740E+02 0.13108899064E+02 0.13424634724E+02
 0.12588532801E+02 0.10602301164E+02 0.78225444622E+01 0.49048439032E+01 0.26320695454E+01
 0.16653217481E+01 0.23074366792E+01 0.43857200379E+01 0.28063399355E+01 0.64304454975E+01
 0.99293147986E+01 0.12529150738E+02 0.13798720116E+02 0.13716310430E+02 0.12608619367E+02
 0.10997692682E+02 0.93351156307E+01 0.77963359847E+01 0.64720470205E+01 0.54015213071E+01
 0.45833668960E+01 0.39933303212E+01 0.36008429820E+01 0.33799788244E+01 0.33146863915E+01
 0.34003766907E+01 0.36441342318E+01 0.40643492420E+01 0.46884513276E+01 0.55462343908E+01
 0.66570291936E+01 0.80119981384E+01 0.95573360132E+01 0.11187101658E+02 0.12658071655E+02
 0.13467389382E+02 0.13148731780E+02 0.11479054994E+02 0.86023563549E+01 0.50553058683E+01
 0.16653314857E+01 -.67624519943E+00 -.13057184381E+01 -.28128525037E-01 -.15958064296E+01
 0.19444782902E+01 0.61169663660E+01 0.99293147986E+01 0.12615474031E+02 0.13812984559E+02
 0.13593419253E+02 0.12367205135E+02 0.10705451758E+02 0.90377478568E+01 0.75203033855E+01
 0.62354310612E+01 0.52131375094E+01 0.44449466786E+01 0.39029507816E+01 0.35560024359E+01
 0.33796373448E+01 0.33604311227E+01 0.34971967256E+01 0.38010373023E+01 0.42944522352E+01
 0.50076671242E+01 0.59696253820E+01 0.71925086718E+01 0.86525795059E+01 0.10274969747E+02
 0.11919676751E+02 0.13201950463E+02 0.13557851308E+02 0.12555596428E+02 0.10077208649E+02
 0.64242054093E+01 0.23074329223E+01 -.13057285020E+01 -.34699789642E+01 -.35804888670E+01
 -.48140666664E+01 -.21479428504E+01 0.19444782902E+01 0.64304454975E+01 0.10300079855E+02
 0.12847587173E+02 0.13812166783E+02 0.13369058409E+02 0.12003487165E+02 0.10309558328E+02
 0.86589497342E+01 0.71853443054E+01 0.59592402834E+01 0.49999047953E+01 0.42919504865E+01
 0.38048350005E+01 0.35079878815E+01 0.33793406543E+01 0.34087470755E+01 0.35987891431E+01
 0.39645970791E+01 0.45322431297E+01 0.53334976817E+01 0.63944800398E+01 0.77180126205E+01
 0.92641544329E+01 0.10937985148E+02 0.12538975238E+02 0.13557867041E+02 0.13423997762E+02
 0.11770975692E+02 0.86052130278E+01 0.43857027540E+01 -.28156397987E-01 -.35805186682E+01
 -.53382623960E+01 -.48140430956E+01 -.39854130917E+01 -.11713737568E+01 0.28778696453E+01
 0.71521677795E+01 0.10705028461E+02 0.12908904761E+02 0.13573728763E+02 0.12923657626E+02
 0.11463525959E+02 0.97671170764E+01 0.81453405895E+01 0.67170419458E+01 0.55430409256E+01
 0.46347202801E+01 0.39719569880E+01 0.35225703891E+01 0.32564855148E+01 0.31531506536E+01
 0.32042224444E+01 0.34141040799E+01 0.37996876206E+01 0.43885295959E+01 0.52130982636E+01
 0.62986371622E+01 0.76447668757E+01 0.92060335275E+01 0.10881209110E+02 0.12443620304E+02
 0.13362846420E+02 0.13092235974E+02 0.11315144724E+02 0.81006982892E+01 0.39616224318E+01
 -.22356904447E+00 -.34323119673E+01 -.39854479098E+01 -.48140588074E+01 -.34323058334E+01
 -.22355195536E+00 0.39616462348E+01 0.81007332249E+01 0.11315189298E+02 0.13092283166E+02
 0.13362893277E+02 0.12443666731E+02 0.10881249333E+02 0.92060598065E+01 0.76447814278E+01
 0.62986475977E+01 0.52131063460E+01 0.43885329339E+01 0.37996889133E+01 0.34141065603E+01
 0.32042222095E+01 0.31531432801E+01 0.32564751484E+01 0.35225627798E+01 0.39719479724E+01
 0.46347025593E+01 0.55430159913E+01 0.67170145627E+01 0.81453086141E+01 0.97670767231E+01
 0.11463480794E+02 0.12923611992E+02 0.13573679467E+02 0.12908851484E+02 0.10704981156E+02
 0.71521339591E+01 0.28778402309E+01 -.11714100585E+01 -.10792689745E+01 -.33335052400E+01
 -.35804919344E+01 -.17626821421E+01 0.16085957373E+01 0.56400687029E+01 0.93601736895E+01
 0.12008292447E+02 0.13213044753E+02 0.13028635082E+02 0.11847188898E+02 0.10227139923E+02
 0.85982978222E+01 0.71188237215E+01 0.58710735897E+01 0.48842654590E+01 0.41488572972E+01
 0.36362204352E+01 0.33150572337E+01 0.31612209798E+01 0.31618886478E+01 0.33166357001E+01
 0.36374442231E+01 0.41478465070E+01 0.48793385713E+01 0.58623783226E+01 0.71107084193E+01
 0.86018940607E+01 0.10261963819E+02 0.11952608174E+02 0.13292063486E+02 0.13709248978E+02
 0.12762928522E+02 0.10327336081E+02 0.66975865398E+01 0.25765117084E+01 0.31138921499E+01
 0.40337795485E-01 -.15785416930E+01 -.13057291927E+01 0.76239651447E+00 0.40332655539E+01
 0.76329168085E+01 0.10696782223E+02 0.12617599364E+02 0.13175965564E+02 0.12538297167E+02
 0.11146005114E+02 0.95238939206E+01 0.79652611042E+01 0.65865848304E+01 0.54493707370E+01
 0.45672840656E+01 0.39228355112E+01 0.34859580982E+01 0.32278429463E+01 0.31284053315E+01
 0.31790055429E+01 0.33829306797E+01 0.37552548982E+01 0.43216417565E+01 0.51138115414E+01
 0.61592053589E+01 0.74645481334E+01 0.89973498608E+01 0.10673650507E+02 0.12336074713E+02
 0.13562553544E+02 0.13816776613E+02 0.12733800133E+02 0.10280693384E+02 0.68303982377E+01
 0.75342462072E+01 0.44034292552E+01 0.20100130711E+01 0.10084008706E+01 0.16653021881E+01
 0.37628947281E+01 0.66820887433E+01 0.96249905354E+01 0.11875161257E+02 0.12996088030E+02
 0.12914894551E+02 0.11887559434E+02 0.10372498160E+02 0.87949266120E+01 0.73294288149E+01
 0.60666860606E+01 0.50473344564E+01 0.42715657787E+01 0.37164733215E+01 0.33524827005E+01
 0.31543311832E+01 0.31063196543E+01 0.32037984942E+01 0.34532632609E+01 0.38721439199E+01
 0.44872371358E+01 0.53292871582E+01 0.64217560422E+01 0.77644094145E+01 0.93164971034E+01
 0.10987666201E+02 0.12607497043E+02 0.13747862818E+02 0.13927134047E+02 0.12859706121E+02
 0.10589991730E+02 0.11201058726E+02 0.86871828551E+01 0.62346589188E+01 0.45247708913E+01
 0.40429910964E+01 0.49047900760E+01 0.68153580752E+01 0.91823729746E+01 0.11327514468E+02
 0.12704669669E+02 0.13047223536E+02 0.12409474380E+02 0.11106049253E+02 0.95679674128E+01
 0.80656110408E+01 0.67129252128E+01 0.55760860380E+01 0.46767799996E+01 0.40048024511E+01
 0.35345361546E+01 0.32385849510E+01 0.30959325758E+01 0.30952345768E+01 0.32353652503E+01
 0.35253398556E+01 0.39840796131E+01 0.46384521368E+01 0.55171576322E+01 0.66391452320E+01
 0.79978977762E+01 0.95466671631E+01 0.11192276779E+02 0.12762384705E+02 0.13852211534E+02
 0.14044678089E+02 0.13127857310E+02 0.13477212899E+02 0.11992909152E+02 0.10088049160E+02
 0.83170622954E+01 0.72137067108E+01 0.71032777364E+01 0.79839843359E+01 0.95316061224E+01
 0.11224239855E+02 0.12528885805E+02 0.13072810420E+02 0.12742744284E+02 0.11690518476E+02
 0.10253959272E+02 0.87626360679E+01 0.73614678743E+01 0.61359098777E+01 0.51290500766E+01
 0.43470470275E+01 0.37728318827E+01 0.33805925714E+01 0.31463845544E+01 0.30537211032E+01
 0.30952490944E+01 0.32726984103E+01 0.35968018288E+01 0.40870457853E+01 0.47693463850E+01
 0.56695468357E+01 0.68019967233E+01 0.81550042145E+01 0.96782042874E+01 0.11278815281E+02
 0.12795241024E+02 0.13867527392E+02 0.14144991034E+02 0.14180984159E+02 0.13812992222E+02
 0.12804496956E+02 0.11498420254E+02 0.10337880616E+02 0.97107779538E+01 0.98067499247E+01
 0.10547602607E+02 0.11622158321E+02 0.12607887545E+02 0.13124557115E+02 0.12959493723E+02
 0.12124549784E+02 0.10833347638E+02 0.93934131337E+01 0.79856553307E+01 0.67060264934E+01
 0.56151795269E+01 0.47364986070E+01 0.40648409338E+01 0.35797222534E+01 0.32571758930E+01
 0.30774762465E+01 0.30285294045E+01 0.31063561308E+01 0.33147559077E+01 0.36653398082E+01
 0.41772503744E+01 0.48745881475E+01 0.57798498254E+01 0.69030733788E+01 0.82286939035E+01
 0.97049605455E+01 0.11242184442E+02 0.12699099110E+02 0.13774810405E+02 0.13550181156E+02
 0.14095657193E+02 0.14029135633E+02 0.13469255553E+02 0.12689930025E+02 0.12020131801E+02
 0.11718147990E+02 0.11871342251E+02 0.12364902335E+02 0.12932398634E+02 0.13263617920E+02
 0.13122723404E+02 0.12431619058E+02 0.11291857453E+02 0.99371047766E+01 0.85612091135E+01
 0.72644964795E+01 0.61189691009E+01 0.51633423067E+01 0.44058750029E+01 0.38344323232E+01
 0.34280465777E+01 0.31660090852E+01 0.30330512654E+01 0.30209895029E+01 0.31284475330E+01
 0.33604817094E+01 0.37287759000E+01 0.42513345598E+01 0.49498260384E+01 0.58432310487E+01
 0.69377960139E+01 0.82153692999E+01 0.96247352212E+01 0.11081435217E+02 0.12467711066E+02
 0.12099721356E+02 0.13173899560E+02 0.13838178259E+02 0.14033197571E+02 0.13849318346E+02
 0.13486257153E+02 0.13168204805E+02 0.13049193890E+02 0.13149418997E+02 0.13350262858E+02