<?xml version="1.0" encoding="ISO-8859-1"?>
<modeling>
 <generator>
  <i name="program" type="string">vasp </i>
  <i name="version" type="string">5.4.4.18Apr17-6-g9f103f2a35  </i>
  <i name="subversion" type="string">(build Dec 09 2018 21:25:21) complex            parallel </i>
  <i name="platform" type="string">IFC18.0.1.163_CrayMPICH7.7.0_MKL18.0.1.163 </i>
  <i name="date" type="string">2019 04 01 </i>
  <i name="time" type="string">15:54:26 </i>
 </generator>
 <incar>
  <i type="string" name="PREC">normal</i>
  <i type="int" name="IBRION">     2</i>
  <i name="EDIFF">      0.00040000</i>
  <i name="EDIFFG">     -0.01000000</i>
  <i type="int" name="NSW">    15</i>
  <i type="int" name="ISIF">     2</i>
  <i name="ENCUT">    350.00000000</i>
  <i type="int" name="NBANDS">     8</i>
  <i type="logical" name="LREAL"> F  </i>
  <i type="int" name="ISMEAR">     0</i>
  <i name="SIGMA">      0.20000000</i>
  <v type="int" name="KPOINT_BSE">    -1     0     0     0</v>
 </incar>
 <structure name="primitive_cell" >
  <crystal>
   <varray name="basis" >
    <v>      -2.52487600       2.52487600       1.44079500 </v>
    <v>       2.52487600      -2.52487600       1.44079500 </v>
    <v>       2.52487600       2.52487600      -1.44079500 </v>
   </varray>
   <i name="volume">     36.74026567 </i>
   <varray name="rec_basis" >
    <v>      -0.00000000       0.19802953       0.34703063 </v>
    <v>       0.19802953      -0.00000000       0.34703063 </v>
    <v>       0.19802953       0.19802953       0.00000000 </v>
   </varray>
  </crystal>
  <varray name="positions" >
   <v>       0.00000000       0.00000000       0.00000000 </v>
   <v>       0.25000000      -0.25000000      -0.50000000 </v>
  </varray>
 </structure>
 <varray name="primitive_index" >
  <v type="int" >        1 </v>
  <v type="int" >        2 </v>
 </varray>
 <kpoints>
  <generation param="Monkhorst-Pack">
   <v type="int" name="divisions">       8        8        8 </v>
   <v name="usershift">      0.00000000       0.00000000       0.00000000 </v>
   <v name="genvec1">      0.12500000      -0.00000000       0.00000000 </v>
   <v name="genvec2">     -0.00000000       0.12500000       0.00000000 </v>
   <v name="genvec3">      0.00000000      -0.00000000       0.12500000 </v>
   <v name="shift">      0.50000000       0.50000000       0.50000000 </v>
  </generation>
  <varray name="kpointlist" >
   <v>       0.06250000       0.06250000       0.06250000 </v>
   <v>       0.18750000       0.06250000       0.06250000 </v>
   <v>       0.31250000       0.06250000       0.06250000 </v>
   <v>       0.43750000       0.06250000       0.06250000 </v>
   <v>      -0.06250000       0.06250000       0.06250000 </v>
   <v>       0.18750000       0.18750000       0.06250000 </v>
   <v>       0.31250000       0.18750000       0.06250000 </v>
   <v>       0.43750000       0.18750000       0.06250000 </v>
   <v>      -0.43750000       0.18750000       0.06250000 </v>
   <v>      -0.31250000       0.18750000       0.06250000 </v>
   <v>      -0.18750000       0.18750000       0.06250000 </v>
   <v>      -0.06250000       0.18750000       0.06250000 </v>
   <v>       0.31250000       0.31250000       0.06250000 </v>
   <v>       0.43750000       0.31250000       0.06250000 </v>
   <v>      -0.43750000       0.31250000       0.06250000 </v>
   <v>      -0.31250000       0.31250000       0.06250000 </v>
   <v>      -0.18750000       0.31250000       0.06250000 </v>
   <v>      -0.06250000       0.31250000       0.06250000 </v>
   <v>       0.43750000       0.43750000       0.06250000 </v>
   <v>      -0.43750000       0.43750000       0.06250000 </v>
   <v>      -0.31250000       0.43750000       0.06250000 </v>
   <v>      -0.18750000       0.43750000       0.06250000 </v>
   <v>      -0.06250000       0.43750000       0.06250000 </v>
   <v>      -0.43750000      -0.43750000       0.06250000 </v>
   <v>      -0.31250000      -0.43750000       0.06250000 </v>
   <v>      -0.18750000      -0.43750000       0.06250000 </v>
   <v>      -0.06250000      -0.43750000       0.06250000 </v>
   <v>      -0.31250000      -0.31250000       0.06250000 </v>
   <v>      -0.18750000      -0.31250000       0.06250000 </v>
   <v>      -0.06250000      -0.31250000       0.06250000 </v>
   <v>      -0.18750000      -0.18750000       0.06250000 </v>
   <v>      -0.06250000      -0.18750000       0.06250000 </v>
   <v>      -0.06250000      -0.06250000       0.06250000 </v>
   <v>       0.18750000       0.18750000       0.18750000 </v>
   <v>       0.31250000       0.18750000       0.18750000 </v>
   <v>      -0.18750000       0.18750000       0.18750000 </v>
   <v>       0.31250000       0.31250000       0.18750000 </v>
   <v>      -0.31250000       0.31250000       0.18750000 </v>
   <v>      -0.18750000       0.31250000       0.18750000 </v>
   <v>      -0.43750000       0.43750000       0.18750000 </v>
   <v>      -0.31250000       0.43750000       0.18750000 </v>
   <v>      -0.18750000       0.43750000       0.18750000 </v>
   <v>      -0.43750000      -0.43750000       0.18750000 </v>
   <v>      -0.31250000      -0.43750000       0.18750000 </v>
   <v>      -0.18750000      -0.43750000       0.18750000 </v>
   <v>      -0.31250000      -0.31250000       0.18750000 </v>
   <v>      -0.18750000      -0.31250000       0.18750000 </v>
   <v>      -0.18750000      -0.18750000       0.18750000 </v>
   <v>      -0.31250000       0.31250000       0.31250000 </v>
   <v>      -0.43750000       0.43750000       0.31250000 </v>
   <v>      -0.31250000       0.43750000       0.31250000 </v>
   <v>      -0.43750000      -0.43750000       0.31250000 </v>
   <v>      -0.31250000      -0.43750000       0.31250000 </v>
   <v>      -0.31250000      -0.31250000       0.31250000 </v>
   <v>      -0.43750000       0.43750000       0.43750000 </v>
   <v>      -0.43750000      -0.43750000       0.43750000 </v>
  </varray>
  <varray name="weights" >
   <v>       0.01562500 </v>
   <v>       0.03125000 </v>
   <v>       0.03125000 </v>
   <v>       0.01562500 </v>
   <v>       0.00781250 </v>
   <v>       0.01562500 </v>
   <v>       0.03125000 </v>
   <v>       0.03125000 </v>
   <v>       0.03125000 </v>
   <v>       0.01562500 </v>
   <v>       0.01562500 </v>
   <v>       0.01562500 </v>
   <v>       0.01562500 </v>
   <v>       0.03125000 </v>
   <v>       0.01562500 </v>
   <v>       0.01562500 </v>
   <v>       0.03125000 </v>
   <v>       0.01562500 </v>
   <v>       0.00781250 </v>
   <v>       0.01562500 </v>
   <v>       0.03125000 </v>
   <v>       0.03125000 </v>
   <v>       0.01562500 </v>
   <v>       0.01562500 </v>
   <v>       0.03125000 </v>
   <v>       0.03125000 </v>
   <v>       0.01562500 </v>
   <v>       0.01562500 </v>
   <v>       0.03125000 </v>
   <v>       0.01562500 </v>
   <v>       0.01562500 </v>
   <v>       0.01562500 </v>
   <v>       0.00390625 </v>
   <v>       0.01562500 </v>
   <v>       0.01562500 </v>
   <v>       0.00781250 </v>
   <v>       0.00781250 </v>
   <v>       0.01562500 </v>
   <v>       0.01562500 </v>
   <v>       0.01562500 </v>
   <v>       0.03125000 </v>
   <v>       0.01562500 </v>
   <v>       0.01562500 </v>
   <v>       0.03125000 </v>
   <v>       0.01562500 </v>
   <v>       0.01562500 </v>
   <v>       0.01562500 </v>
   <v>       0.00390625 </v>
   <v>       0.00781250 </v>
   <v>       0.01562500 </v>
   <v>       0.01562500 </v>
   <v>       0.01562500 </v>
   <v>       0.01562500 </v>
   <v>       0.00390625 </v>
   <v>       0.00781250 </v>
   <v>       0.00390625 </v>
  </varray>
 </kpoints>
 <parameters>
  <separator name="general" >
   <i type="string" name="SYSTEM">unknown system</i>
   <i type="logical" name="LCOMPAT"> F  </i>
  </separator>
  <separator name="electronic" >
   <i type="string" name="PREC">normal</i>
   <i name="ENMAX">    350.00000000</i>
   <i name="ENAUG">    322.06900000</i>
   <i name="EDIFF">      0.00040000</i>
   <i type="int" name="IALGO">    38</i>
   <i type="int" name="IWAVPR">    11</i>
   <i type="int" name="NBANDS">     8</i>
   <i name="NELECT">      8.00000000</i>
   <i type="int" name="TURBO">     0</i>
   <i type="int" name="IRESTART">     0</i>
   <i type="int" name="NREBOOT">     0</i>
   <i type="int" name="NMIN">     0</i>
   <i name="EREF">      0.00000000</i>
   <separator name="electronic smearing" >
    <i type="int" name="ISMEAR">     0</i>
    <i name="SIGMA">      0.20000000</i>
    <i name="KSPACING">      0.50000000</i>
    <i type="logical" name="KGAMMA"> T  </i>
   </separator>
   <separator name="electronic projectors" >
    <i type="logical" name="LREAL"> F  </i>
    <v name="ROPT">      0.00000000</v>
    <i type="int" name="LMAXPAW">  -100</i>
    <i type="int" name="LMAXMIX">     2</i>
    <i type="logical" name="NLSPLINE"> F  </i>
   </separator>
   <separator name="electronic startup" >
    <i type="int" name="ISTART">     0</i>
    <i type="int" name="ICHARG">     2</i>
    <i type="int" name="INIWAV">     1</i>
   </separator>
   <separator name="electronic spin" >
    <i type="int" name="ISPIN">     1</i>
    <i type="logical" name="LNONCOLLINEAR"> F  </i>
    <v name="MAGMOM">      1.00000000      1.00000000</v>
    <i name="NUPDOWN">     -1.00000000</i>
    <i type="logical" name="LSORBIT"> F  </i>
    <v name="SAXIS">      0.00000000      0.00000000      1.00000000</v>
    <i type="logical" name="LSPIRAL"> F  </i>
    <v name="QSPIRAL">      0.00000000      0.00000000      0.00000000</v>
    <i type="logical" name="LZEROZ"> F  </i>
   </separator>
   <separator name="electronic exchange-correlation" >
    <i type="logical" name="LASPH"> F  </i>
    <i type="logical" name="LMETAGGA"> F  </i>
   </separator>
   <separator name="electronic convergence" >
    <i type="int" name="NELM">    60</i>
    <i type="int" name="NELMDL">    -5</i>
    <i type="int" name="NELMIN">     2</i>
    <i name="ENINI">    350.00000000</i>
    <separator name="electronic convergence detail" >
     <i type="logical" name="LDIAG"> T  </i>
     <i type="logical" name="LSUBROT"> F  </i>
     <i name="WEIMIN">      0.00100000</i>
     <i name="EBREAK">      0.00001250</i>
     <i name="DEPER">      0.30000000</i>
     <i type="int" name="NRMM">     4</i>
     <i name="TIME">      0.40000000</i>
    </separator>
   </separator>
   <separator name="electronic mixer" >
    <i name="AMIX">      0.40000000</i>
    <i name="BMIX">      1.00000000</i>
    <i name="AMIN">      0.10000000</i>
    <i name="AMIX_MAG">      1.60000000</i>
    <i name="BMIX_MAG">      1.00000000</i>
    <separator name="electronic mixer details" >
     <i type="int" name="IMIX">     4</i>
     <i type="logical" name="MIXFIRST"> F  </i>
     <i type="int" name="MAXMIX">   -45</i>
     <i name="WC">    100.00000000</i>
     <i type="int" name="INIMIX">     1</i>
     <i type="int" name="MIXPRE">     1</i>
     <i type="int" name="MREMOVE">     5</i>
    </separator>
   </separator>
   <separator name="electronic dipolcorrection" >
    <i type="logical" name="LDIPOL"> F  </i>
    <i type="logical" name="LMONO"> F  </i>
    <i type="int" name="IDIPOL">     0</i>
    <i name="EPSILON">      1.00000000</i>
    <v name="DIPOL">   -100.00000000   -100.00000000   -100.00000000</v>
    <i name="EFIELD">      0.00000000</i>
   </separator>
  </separator>
  <separator name="grids" >
   <i type="int" name="NGX">    18</i>
   <i type="int" name="NGY">    18</i>
   <i type="int" name="NGZ">    18</i>
   <i type="int" name="NGXF">    36</i>
   <i type="int" name="NGYF">    36</i>
   <i type="int" name="NGZF">    36</i>
   <i type="logical" name="ADDGRID"> F  </i>
  </separator>
  <separator name="ionic" >
   <i type="int" name="NSW">    15</i>
   <i type="int" name="IBRION">     2</i>
   <i type="int" name="MDALGO">     0</i>
   <i type="int" name="ISIF">     2</i>
   <i name="PSTRESS">      0.00000000</i>
   <i name="EDIFFG">     -0.01000000</i>
   <i type="int" name="NFREE">     1</i>
   <i name="POTIM">      0.50000000</i>
   <i name="SMASS">     -3.00000000</i>
   <i name="SCALEE">      1.00000000</i>
  </separator>
  <separator name="ionic md" >
   <i name="TEBEG">      0.00010000</i>
   <i name="TEEND">      0.00010000</i>
   <i type="int" name="NBLOCK">     1</i>
   <i type="int" name="KBLOCK">    15</i>
   <i type="int" name="NPACO">   256</i>
   <i name="APACO">     16.00000000</i>
  </separator>
  <separator name="symmetry" >
   <i type="int" name="ISYM">     2</i>
   <i name="SYMPREC">      0.00001000</i>
  </separator>
  <separator name="dos" >
   <i type="int" name="LORBIT">     0</i>
   <v name="RWIGS">     -1.00000000</v>
   <i type="int" name="NEDOS">   301</i>
   <i name="EMIN">     10.00000000</i>
   <i name="EMAX">    -10.00000000</i>
   <i name="EFERMI">      0.00000000</i>
  </separator>
  <separator name="writing" >
   <i type="int" name="NWRITE">     2</i>
   <i type="logical" name="LWAVE"> T  </i>
   <i type="logical" name="LDOWNSAMPLE"> F  </i>
   <i type="logical" name="LCHARG"> T  </i>
   <i type="logical" name="LPARD"> F  </i>
   <i type="logical" name="LVTOT"> F  </i>
   <i type="logical" name="LVHAR"> F  </i>
   <i type="logical" name="LELF"> F  </i>
   <i type="logical" name="LOPTICS"> F  </i>
   <v name="STM">      0.00000000      0.00000000      0.00000000      0.00000000      0.00000000      0.00000000      0.00000000</v>
  </separator>
  <separator name="performance" >
   <i type="int" name="NPAR">     8</i>
   <i type="int" name="NSIM">     4</i>
   <i type="int" name="NBLK">    -1</i>
   <i type="logical" name="LPLANE"> T  </i>
   <i type="logical" name="LSCALAPACK"> T  </i>
   <i type="logical" name="LSCAAWARE"> F  </i>
   <i type="logical" name="LSCALU"> F  </i>
   <i type="logical" name="LASYNC"> F  </i>
   <i type="logical" name="LORBITALREAL"> F  </i>
  </separator>
  <separator name="miscellaneous" >
   <i type="int" name="IDIOT">     3</i>
   <i type="int" name="ISPECIAL">     0</i>
   <i type="logical" name="LMUSIC"> F  </i>
   <v name="POMASS">     28.08500000</v>
   <v name="DARWINR">      0.00000000</v>
   <v name="DARWINV">      1.00000000</v>
   <i type="logical" name="LCORR"> T  </i>
  </separator>
  <i type="logical" name="GGA_COMPAT"> T  </i>
  <i type="logical" name="LBERRY"> F  </i>
  <i type="int" name="ICORELEVEL">     0</i>
  <i type="logical" name="LDAU"> F  </i>
  <i type="int" name="I_CONSTRAINED_M">     0</i>
  <separator name="electronic exchange-correlation" >
   <i type="string" name="GGA">--</i>
   <i type="int" name="VOSKOWN">     0</i>
   <i type="logical" name="LHFCALC"> F  </i>
   <i type="string" name="PRECFOCK"></i>
   <i type="logical" name="LSYMGRAD"> F  </i>
   <i type="logical" name="LHFONE"> F  </i>
   <i type="logical" name="LRHFCALC"> F  </i>
   <i type="logical" name="LTHOMAS"> F  </i>
   <i type="logical" name="LMODELHF"> F  </i>
   <i name="ENCUT4O">     -1.00000000</i>
   <i type="int" name="EXXOEP">     0</i>
   <i type="int" name="FOURORBIT">     0</i>
   <i name="AEXX">      0.00000000</i>
   <i name="HFALPHA">      0.00000000</i>
   <i name="MCALPHA">      0.00000000</i>
   <i name="ALDAX">      1.00000000</i>
   <i name="AGGAX">      1.00000000</i>
   <i name="ALDAC">      1.00000000</i>
   <i name="AGGAC">      1.00000000</i>
   <i type="int" name="NKREDX">     1</i>
   <i type="int" name="NKREDY">     1</i>
   <i type="int" name="NKREDZ">     1</i>
   <i type="logical" name="SHIFTRED"> F  </i>
   <i type="logical" name="ODDONLY"> F  </i>
   <i type="logical" name="EVENONLY"> F  </i>
   <i type="int" name="LMAXFOCK">     0</i>
   <i type="int" name="NMAXFOCKAE">     0</i>
   <i type="logical" name="LFOCKAEDFT"> F  </i>
   <i name="HFSCREEN">      0.00000000</i>
   <i name="HFSCREENC">      0.00000000</i>
   <i type="int" name="NBANDSGWLOW">     0</i>
  </separator>
  <separator name="vdW DFT" >
   <i type="logical" name="LUSE_VDW"> F  </i>
   <i name="Zab_VDW">     -0.84910000</i>
   <i name="PARAM1">      0.12340000</i>
   <i name="PARAM2">      1.00000000</i>
   <i name="PARAM3">      0.00000000</i>
  </separator>
  <separator name="model GW" >
   <i type="int" name="MODEL_GW">     0</i>
   <i name="MODEL_EPS0">     11.02207970</i>
   <i name="MODEL_ALPHA">      1.00000000</i>
  </separator>
  <separator name="linear response parameters" >
   <i type="logical" name="LEPSILON"> F  </i>
   <i type="logical" name="LRPA"> F  </i>
   <i type="logical" name="LNABLA"> F  </i>
   <i type="logical" name="LVEL"> F  </i>
   <i type="int" name="KINTER">     0</i>
   <i name="CSHIFT">      0.10000000</i>
   <i name="OMEGAMAX">     -1.00000000</i>
   <i name="DEG_THRESHOLD">      0.00200000</i>
   <i name="RTIME">     -0.10000000</i>
   <i name="WPLASMAI">      0.00000000</i>
   <v name="DFIELD">      0.00000000      0.00000000      0.00000000</v>
   <v name="WPLASMA">      0.00000000      0.00000000      0.00000000      0.00000000      0.00000000      0.00000000      0.00000000      0.00000000      0.00000000</v>
  </separator>
  <separator name="orbital magnetization" >
   <i type="logical" name="NUCIND"> F  </i>
   <v name="MAGPOS">      0.00000000      0.00000000      0.00000000</v>
   <i type="logical" name="LNICSALL"> T  </i>
   <i type="logical" name="ORBITALMAG"> F  </i>
   <i type="logical" name="LMAGBLOCH"> F  </i>
   <i type="logical" name="LCHIMAG"> F  </i>
   <i type="logical" name="LGAUGE"> T  </i>
   <i type="int" name="MAGATOM">     0</i>
   <v name="MAGDIPOL">      0.00000000      0.00000000      0.00000000</v>
   <v name="AVECCONST">      0.00000000      0.00000000      0.00000000</v>
  </separator>
  <separator name="response functions" >
   <i type="logical" name="LADDER"> F  </i>
   <i type="logical" name="LRPAFORCE"> F  </i>
   <i type="logical" name="LFXC"> F  </i>
   <i type="logical" name="LHARTREE"> T  </i>
   <i type="int" name="IBSE">     0</i>
   <v type="int" name="KPOINT">    -1     0     0     0</v>
   <i type="logical" name="LTCTE"> F  </i>
   <i type="logical" name="LTETE"> F  </i>
   <i type="logical" name="LTRIPLET"> F  </i>
   <i type="logical" name="LFXCEPS"> F  </i>
   <i type="logical" name="LFXHEG"> F  </i>
   <i type="int" name="NATURALO">     2</i>
   <i type="logical" name="L2ORDER"> F  </i>
   <i type="logical" name="LMP2LT"> F  </i>
   <i type="logical" name="LUSEW"> F  </i>
   <i name="ENCUTGW">     -2.00000000</i>
   <i name="ENCUTGWSOFT">     -2.00000000</i>
   <i name="ENCUTLF">     -1.00000000</i>
   <i type="int" name="LMAXMP2">    -1</i>
   <i name="SCISSOR">      0.00000000</i>
   <i type="int" name="NOMEGA">     0</i>
   <i type="int" name="NOMEGAR">     0</i>
   <i type="int" name="NBANDSGW">    -1</i>
   <i type="int" name="NBANDSO">    -1</i>
   <i type="int" name="NBANDSV">    -1</i>
   <i type="int" name="NELM">     1</i>
   <i type="int" name="NELMHF">     1</i>
   <i type="int" name="DIM">     3</i>
   <i type="int" name="ANTIRES">     0</i>
   <i name="OMEGAMAX">    -30.00000000</i>
   <i name="OMEGAMIN">    -30.00000000</i>
   <i name="OMEGATL">   -200.00000000</i>
   <i type="int" name="OMEGAGRID">   140</i>
   <i name="CSHIFT">     -0.10000000</i>
   <i type="logical" name="SELFENERGY"> F  </i>
   <i type="logical" name="LSPECTRAL"> F  </i>
   <i type="logical" name="LSPECTRALGW"> F  </i>
   <i type="logical" name="LSINGLES"> F  </i>
   <i type="logical" name="LFERMIGW"> F  </i>
   <i type="logical" name="ODDONLYGW"> F  </i>
   <i type="logical" name="EVENONLYGW"> F  </i>
   <i type="int" name="NKREDLFX">     1</i>
   <i type="int" name="NKREDLFY">     1</i>
   <i type="int" name="NKREDLFZ">     1</i>
   <i type="int" name="MAXMEM">  2800</i>
   <i type="int" name="TELESCOPE">     0</i>
   <i type="int" name="TAUPAR">     1</i>
   <i type="int" name="OMEGAPAR">    -1</i>
   <i name="LAMBDA">      1.00000000</i>
  </separator>
  <separator name="External order field" >
   <i name="OFIELD_KAPPA">      0.00000000</i>
   <v name="OFIELD_K">      0.00000000      0.00000000      0.00000000</v>
   <i name="OFIELD_Q6_NEAR">      0.00000000</i>
   <i name="OFIELD_Q6_FAR">      0.00000000</i>
   <i name="OFIELD_A">      0.00000000</i>
  </separator>
 </parameters>
 <atominfo>
  <atoms>       2 </atoms>
  <types>       1 </types>
  <array name="atoms" >
   <dimension dim="1">ion</dimension>
   <field type="string">element</field>
   <field type="int">atomtype</field>
   <set>
    <rc><c>Si</c><c>   1</c></rc>
    <rc><c>Si</c><c>   1</c></rc>
   </set>
  </array>
  <array name="atomtypes" >
   <dimension dim="1">type</dimension>
   <field type="int">atomspertype</field>
   <field type="string">element</field>
   <field>mass</field>
   <field>valence</field>
   <field type="string">pseudopotential</field>
   <set>
    <rc><c>   2</c><c>Si</c><c>     28.08500000</c><c>      4.00000000</c><c> PAW_PBE Si 05Jan2001                   </c></rc>
   </set>
  </array>
 </atominfo>
 <structure name="initialpos" >
  <crystal>
   <varray name="basis" >
    <v>      -2.52487600       2.52487600       1.44079500 </v>
    <v>       2.52487600      -2.52487600       1.44079500 </v>
    <v>       2.52487600       2.52487600      -1.44079500 </v>
   </varray>
   <i name="volume">     36.74026567 </i>
   <varray name="rec_basis" >
    <v>      -0.00000000       0.19802953       0.34703063 </v>
    <v>       0.19802953      -0.00000000       0.34703063 </v>
    <v>       0.19802953       0.19802953       0.00000000 </v>
   </varray>
  </crystal>
  <varray name="positions" >
   <v>       0.00000000       0.00000000       0.00000000 </v>
   <v>       0.25000000       0.75000000       0.50000000 </v>
  </varray>
 </structure>
 <calculation>
  <scstep>
   <time name="dav">    0.73    0.73</time>
   <time name="total">    0.78    0.79</time>
   <energy>
    <i name="alphaZ">      3.66497931 </i>
    <i name="ewald">   -249.47217949 </i>
    <i name="hartreedc">     -3.62358251 </i>
    <i name="XCdc">    -18.68316042 </i>
    <i name="pawpsdc">     65.95520812 </i>
    <i name="pawaedc">    -30.76852678 </i>
    <i name="eentropy">     -0.00716654 </i>
    <i name="bandstr">     27.66036781 </i>
    <i name="atom">    206.13125414 </i>
    <i name="e_fr_energy">      0.85719364 </i>
    <i name="e_wo_entrp">      0.86436018 </i>
    <i name="e_0_energy">      0.86077691 </i>
   </energy>
  </scstep>
  <scstep>
   <time name="dav">    1.11    1.12</time>
   <time name="total">    1.11    1.12</time>
   <energy>
    <i name="e_fr_energy">     -9.88727523 </i>
    <i name="e_wo_entrp">     -9.86795286 </i>
    <i name="e_0_energy">     -9.87761405 </i>
   </energy>
  </scstep>
  <scstep>
   <time name="dav">    0.96    0.96</time>
   <time name="total">    0.96    0.96</time>
   <energy>
    <i name="e_fr_energy">    -10.01392424 </i>
    <i name="e_wo_entrp">     -9.99438651 </i>
    <i name="e_0_energy">    -10.00415538 </i>
   </energy>
  </scstep>
  <scstep>
   <time name="dav">    1.07    1.08</time>
   <time name="total">    1.08    1.08</time>
   <energy>
    <i name="e_fr_energy">    -10.01432353 </i>
    <i name="e_wo_entrp">     -9.99478181 </i>
    <i name="e_0_energy">    -10.00455267 </i>
   </energy>
  </scstep>
  <scstep>
   <time name="dav">    0.96    0.97</time>
   <time name="total">    1.02    1.03</time>
   <energy>
    <i name="e_fr_energy">    -10.01432373 </i>
    <i name="e_wo_entrp">     -9.99478201 </i>
    <i name="e_0_energy">    -10.00455287 </i>
   </energy>
  </scstep>
  <scstep>
   <time name="dav">    0.92    0.92</time>
   <time name="total">    1.02    1.03</time>
   <energy>
    <i name="e_fr_energy">    -10.00705692 </i>
    <i name="e_wo_entrp">     -9.98746245 </i>
    <i name="e_0_energy">     -9.99725969 </i>
   </energy>
  </scstep>
  <scstep>
   <time name="dav">    0.86    0.86</time>
   <time name="total">    0.96    0.97</time>
   <energy>
    <i name="e_fr_energy">    -10.00287566 </i>
    <i name="e_wo_entrp">     -9.98318295 </i>
    <i name="e_0_energy">     -9.99302931 </i>
   </energy>
  </scstep>
  <scstep>
   <time name="dav">    0.65    0.65</time>
   <time name="total">    0.69    0.70</time>
   <energy>
    <i name="alphaZ">      3.66497931 </i>
    <i name="ewald">   -249.47217949 </i>
    <i name="hartreedc">     -3.58912704 </i>
    <i name="XCdc">    -18.54315076 </i>
    <i name="pawpsdc">     67.03535189 </i>
    <i name="pawaedc">    -31.86029466 </i>
    <i name="eentropy">     -0.01968689 </i>
    <i name="bandstr">     16.65002638 </i>
    <i name="atom">    206.13125414 </i>
    <i name="e_fr_energy">    -10.00282712 </i>
    <i name="e_wo_entrp">     -9.98314023 </i>
    <i name="e_0_energy">     -9.99298367 </i>
   </energy>
  </scstep>
  <structure>
   <crystal>
    <varray name="basis" >
     <v>      -2.52487600       2.52487600       1.44079500 </v>
     <v>       2.52487600      -2.52487600       1.44079500 </v>
     <v>       2.52487600       2.52487600      -1.44079500 </v>
    </varray>
    <i name="volume">     36.74026567 </i>
    <varray name="rec_basis" >
     <v>      -0.00000000       0.19802953       0.34703063 </v>
     <v>       0.19802953      -0.00000000       0.34703063 </v>
     <v>       0.19802953       0.19802953       0.00000000 </v>
    </varray>
   </crystal>
   <varray name="positions" >
    <v>       0.00000000       0.00000000       0.00000000 </v>
    <v>       0.25000000       0.75000000       0.50000000 </v>
   </varray>
  </structure>
  <varray name="forces" >
   <v>       0.00000000      -0.00000000      -0.00000000 </v>
   <v>      -0.00000000       0.00000000       0.00000000 </v>
  </varray>
  <varray name="stress" >
   <v>    -129.05221296       0.00000000      -0.00000000 </v>
   <v>       0.00000000    -129.05221296       0.00000000 </v>
   <v>      -0.00000000       0.00000000    -112.71708141 </v>
  </varray>
  <energy>
   <i name="e_fr_energy">    -10.00282712 </i>
   <i name="e_wo_entrp">     -9.99298367 </i>
   <i name="e_0_energy">     -0.01968689 </i>
  </energy>
  <time name="totalsc">    9.22    9.82</time>
  <eigenvalues>
   <array>
    <dimension dim="1">band</dimension>
    <dimension dim="2">kpoint</dimension>
    <dimension dim="3">spin</dimension>
    <field>eigene</field>
    <field>occ</field>
    <set>
     <set comment="spin 1">
      <set comment="kpoint 1">
       <r>   -4.8206    1.0000 </r>
       <r>    3.0658    1.0000 </r>
       <r>    5.3499    1.0000 </r>
       <r>    6.5515    0.9970 </r>
       <r>   10.4913    0.0000 </r>
       <r>   11.0741    0.0000 </r>
       <r>   11.5618    0.0000 </r>
       <r>   13.5880    0.0000 </r>
      </set>
      <set comment="kpoint 2">
       <r>   -3.7720    1.0000 </r>
       <r>    2.7574    1.0000 </r>
       <r>    5.4992    1.0000 </r>
       <r>    7.3515    0.0018 </r>
       <r>    8.4124    0.0000 </r>
       <r>    8.8465    0.0000 </r>
       <r>   11.6367    0.0000 </r>
       <r>   12.1808    0.0000 </r>
      </set>
      <set comment="kpoint 3">
       <r>   -2.0703    1.0000 </r>
       <r>    2.6712    1.0000 </r>
       <r>    4.1833    1.0000 </r>
       <r>    5.7144    1.0000 </r>
       <r>    6.7141    0.9455 </r>
       <r>    9.9856    0.0000 </r>
       <r>   10.5777    0.0000 </r>
       <r>   11.5474    0.0000 </r>
      </set>
      <set comment="kpoint 4">
       <r>   -0.3109    1.0000 </r>
       <r>    1.0665    1.0000 </r>
       <r>    4.0444    1.0000 </r>
       <r>    4.8761    1.0000 </r>
       <r>    6.5730    0.9953 </r>
       <r>    9.1292    0.0000 </r>
       <r>   10.7415    0.0000 </r>
       <r>   11.8710    0.0000 </r>
      </set>
      <set comment="kpoint 5">
       <r>   -5.1731    1.0000 </r>
       <r>    3.5734    1.0000 </r>
       <r>    4.6843    1.0000 </r>
       <r>    6.2375    1.0000 </r>
       <r>    9.8187    0.0000 </r>
       <r>   12.5355    0.0000 </r>
       <r>   13.9464    0.0000 </r>
       <r>   14.4172    0.0000 </r>
      </set>
      <set comment="kpoint 6">
       <r>   -2.2341    1.0000 </r>
       <r>    2.7914    1.0000 </r>
       <r>    4.7178    1.0000 </r>
       <r>    5.1279    1.0000 </r>
       <r>    7.8339    0.0000 </r>
       <r>    9.1768    0.0000 </r>
       <r>   10.9846    0.0000 </r>
       <r>   11.1673    0.0000 </r>
      </set>
      <set comment="kpoint 7">
       <r>   -0.2798    1.0000 </r>
       <r>    1.5464    1.0000 </r>
       <r>    2.8952    1.0000 </r>
       <r>    4.4610    1.0000 </r>
       <r>    7.9012    0.0000 </r>
       <r>    9.5639    0.0000 </r>
       <r>   10.7212    0.0000 </r>
       <r>   12.4314    0.0000 </r>
      </set>
      <set comment="kpoint 8">
       <r>   -1.2484    1.0000 </r>
       <r>    1.2470    1.0000 </r>
       <r>    3.4638    1.0000 </r>
       <r>    5.6037    1.0000 </r>
       <r>    7.3525    0.0018 </r>
       <r>    9.8603    0.0000 </r>
       <r>   11.6275    0.0000 </r>
       <r>   12.0057    0.0000 </r>
      </set>
      <set comment="kpoint 9">
       <r>   -3.0871    1.0000 </r>
       <r>    0.9013    1.0000 </r>
       <r>    5.8579    1.0000 </r>
       <r>    6.9869    0.3721 </r>
       <r>    8.2305    0.0000 </r>
       <r>    9.5460    0.0000 </r>
       <r>   10.7710    0.0000 </r>
       <r>   12.6938    0.0000 </r>
      </set>
      <set comment="kpoint 10">
       <r>   -4.3010    1.0000 </r>
       <r>    1.0609    1.0000 </r>
       <r>    5.8063    1.0000 </r>
       <r>    7.5161    0.0000 </r>
       <r>    9.8945    0.0000 </r>
       <r>   11.1297    0.0000 </r>
       <r>   12.3112    0.0000 </r>
       <r>   12.5239    0.0000 </r>
      </set>
      <set comment="kpoint 11">
       <r>   -4.8256    1.0000 </r>
       <r>    1.8048    1.0000 </r>
       <r>    4.7584    1.0000 </r>
       <r>    7.4541    0.0001 </r>
       <r>   10.8445    0.0000 </r>
       <r>   11.4987    0.0000 </r>
       <r>   13.4850    0.0000 </r>
       <r>   13.7008    0.0000 </r>
      </set>
      <set comment="kpoint 12">
       <r>   -4.6474    1.0000 </r>
       <r>    2.7225    1.0000 </r>
       <r>    4.2325    1.0000 </r>
       <r>    7.9125    0.0000 </r>
       <r>   10.2809    0.0000 </r>
       <r>   11.1791    0.0000 </r>
       <r>   11.4302    0.0000 </r>
       <r>   12.7806    0.0000 </r>
      </set>
      <set comment="kpoint 13">
       <r>   -0.2080    1.0000 </r>
       <r>   -0.0351    1.0000 </r>
       <r>    3.2524    1.0000 </r>
       <r>    5.5193    1.0000 </r>
       <r>    8.1725    0.0000 </r>
       <r>    8.7590    0.0000 </r>
       <r>   12.4636    0.0000 </r>
       <r>   13.0441    0.0000 </r>
      </set>
      <set comment="kpoint 14">
       <r>   -2.0687    1.0000 </r>
       <r>   -0.7299    1.0000 </r>
       <r>    6.0690    1.0000 </r>
       <r>    6.9043    0.6017 </r>
       <r>    8.3284    0.0000 </r>
       <r>    9.4399    0.0000 </r>
       <r>   10.5394    0.0000 </r>
       <r>   11.7743    0.0000 </r>
      </set>
      <set comment="kpoint 15">
       <r>   -3.4399    1.0000 </r>
       <r>   -0.7353    1.0000 </r>
       <r>    6.5512    0.9971 </r>
       <r>    8.4804    0.0000 </r>
       <r>    8.7216    0.0000 </r>
       <r>   10.8237    0.0000 </r>
       <r>   11.1069    0.0000 </r>
       <r>   11.4016    0.0000 </r>
      </set>
      <set comment="kpoint 16">
       <r>   -4.1336    1.0000 </r>
       <r>   -0.0903    1.0000 </r>
       <r>    5.3758    1.0000 </r>
       <r>    8.3941    0.0000 </r>
       <r>    9.1121    0.0000 </r>
       <r>   12.1085    0.0000 </r>
       <r>   13.3949    0.0000 </r>
       <r>   13.8271    0.0000 </r>
      </set>
      <set comment="kpoint 17">
       <r>   -4.1295    1.0000 </r>
       <r>    1.1436    1.0000 </r>
       <r>    4.2766    1.0000 </r>
       <r>    8.7432    0.0000 </r>
       <r>    9.2583    0.0000 </r>
       <r>   10.6124    0.0000 </r>
       <r>   12.2884    0.0000 </r>
       <r>   13.2699    0.0000 </r>
      </set>
      <set comment="kpoint 18">
       <r>   -3.4304    1.0000 </r>
       <r>    2.4780    1.0000 </r>
       <r>    4.1865    1.0000 </r>
       <r>    6.5306    0.9981 </r>
       <r>    9.0384    0.0000 </r>
       <r>   10.4568    0.0000 </r>
       <r>   10.8895    0.0000 </r>
       <r>   11.5396    0.0000 </r>
      </set>
      <set comment="kpoint 19">
       <r>   -2.2461    1.0000 </r>
       <r>   -2.2461    1.0000 </r>
       <r>    7.5485    0.0000 </r>
       <r>    7.5485    0.0000 </r>
       <r>    9.6560    0.0000 </r>
       <r>    9.6560    0.0000 </r>
       <r>   10.9430    0.0000 </r>
       <r>   10.9430    0.0000 </r>
      </set>
      <set comment="kpoint 20">
       <r>   -3.1035    1.0000 </r>
       <r>   -1.7476    1.0000 </r>
       <r>    6.3275    1.0000 </r>
       <r>    7.5835    0.0000 </r>
       <r>    9.4434    0.0000 </r>
       <r>   10.6975    0.0000 </r>
       <r>   13.3031    0.0000 </r>
       <r>   13.4320    0.0000 </r>
      </set>
      <set comment="kpoint 21">
       <r>   -3.2719    1.0000 </r>
       <r>   -0.5917    1.0000 </r>
       <r>    5.0085    1.0000 </r>
       <r>    7.4354    0.0002 </r>
       <r>    9.3983    0.0000 </r>
       <r>   10.6523    0.0000 </r>
       <r>   12.0067    0.0000 </r>
       <r>   13.1998    0.0000 </r>
      </set>
      <set comment="kpoint 22">
       <r>   -2.7515    1.0000 </r>
       <r>    1.1098    1.0000 </r>
       <r>    4.2532    1.0000 </r>
       <r>    5.9365    1.0000 </r>
       <r>    8.1011    0.0000 </r>
       <r>   10.0293    0.0000 </r>
       <r>   11.8473    0.0000 </r>
       <r>   12.7602    0.0000 </r>
      </set>
      <set comment="kpoint 23">
       <r>   -1.5845    1.0000 </r>
       <r>    2.1777    1.0000 </r>
       <r>    3.9917    1.0000 </r>
       <r>    4.6232    1.0000 </r>
       <r>    7.1850    0.0421 </r>
       <r>    9.8019    0.0000 </r>
       <r>    9.8159    0.0000 </r>
       <r>   12.5114    0.0000 </r>
      </set>
      <set comment="kpoint 24">
       <r>   -2.0938    1.0000 </r>
       <r>   -2.0766    1.0000 </r>
       <r>    6.0310    1.0000 </r>
       <r>    6.1499    1.0000 </r>
       <r>    9.3432    0.0000 </r>
       <r>   11.1272    0.0000 </r>
       <r>   11.9858    0.0000 </r>
       <r>   12.3526    0.0000 </r>
      </set>
      <set comment="kpoint 25">
       <r>   -1.7458    1.0000 </r>
       <r>   -0.4329    1.0000 </r>
       <r>    4.8278    1.0000 </r>
       <r>    5.7379    1.0000 </r>
       <r>    6.8708    0.6896 </r>
       <r>    9.6888    0.0000 </r>
       <r>   12.9405    0.0000 </r>
       <r>   13.8529    0.0000 </r>
      </set>
      <set comment="kpoint 26">
       <r>   -0.8003    1.0000 </r>
       <r>    1.3757    1.0000 </r>
       <r>    3.0038    1.0000 </r>
       <r>    5.0353    1.0000 </r>
       <r>    6.9821    0.3850 </r>
       <r>    8.5349    0.0000 </r>
       <r>   11.0643    0.0000 </r>
       <r>   13.8210    0.0000 </r>
      </set>
      <set comment="kpoint 27">
       <r>   -0.5872    1.0000 </r>
       <r>    1.3648    1.0000 </r>
       <r>    4.6198    1.0000 </r>
       <r>    5.3189    1.0000 </r>
       <r>    5.8331    1.0000 </r>
       <r>    8.7845    0.0000 </r>
       <r>    9.4655    0.0000 </r>
       <r>   12.9702    0.0000 </r>
      </set>
      <set comment="kpoint 28">
       <r>    0.0445    1.0000 </r>
       <r>    0.4813    1.0000 </r>
       <r>    2.6272    1.0000 </r>
       <r>    5.7865    1.0000 </r>
       <r>    6.2490    1.0000 </r>
       <r>    8.1255    0.0000 </r>
       <r>   12.7668    0.0000 </r>
       <r>   13.1743    0.0000 </r>
      </set>
      <set comment="kpoint 29">
       <r>   -0.8200    1.0000 </r>
       <r>    2.1927    1.0000 </r>
       <r>    3.4871    1.0000 </r>
       <r>    5.6236    1.0000 </r>
       <r>    6.4990    0.9991 </r>
       <r>    8.0623    0.0000 </r>
       <r>    9.9668    0.0000 </r>
       <r>   11.9689    0.0000 </r>
      </set>
      <set comment="kpoint 30">
       <r>   -2.5702    1.0000 </r>
       <r>    3.8292    1.0000 </r>
       <r>    5.4909    1.0000 </r>
       <r>    5.5953    1.0000 </r>
       <r>    6.4079    0.9999 </r>
       <r>    9.1216    0.0000 </r>
       <r>    9.3433    0.0000 </r>
       <r>   11.5024    0.0000 </r>
      </set>
      <set comment="kpoint 31">
       <r>   -2.7378    1.0000 </r>
       <r>    4.4758    1.0000 </r>
       <r>    5.3363    1.0000 </r>
       <r>    5.9742    1.0000 </r>
       <r>    6.9712    0.4148 </r>
       <r>    7.8669    0.0000 </r>
       <r>   10.0493    0.0000 </r>
       <r>   10.1920    0.0000 </r>
      </set>
      <set comment="kpoint 32">
       <r>   -4.1160    1.0000 </r>
       <r>    4.4885    1.0000 </r>
       <r>    5.4591    1.0000 </r>
       <r>    6.9742    0.4066 </r>
       <r>    8.4175    0.0000 </r>
       <r>    8.8819    0.0000 </r>
       <r>   10.6464    0.0000 </r>
       <r>   11.8084    0.0000 </r>
      </set>
      <set comment="kpoint 33">
       <r>   -4.9943    1.0000 </r>
       <r>    4.9316    1.0000 </r>
       <r>    5.1965    1.0000 </r>
       <r>    5.1965    1.0000 </r>
       <r>    9.6147    0.0000 </r>
       <r>   11.5700    0.0000 </r>
       <r>   11.8196    0.0000 </r>
       <r>   13.7844    0.0000 </r>
      </set>
      <set comment="kpoint 34">
       <r>   -1.4028    1.0000 </r>
       <r>    1.1621    1.0000 </r>
       <r>    4.3494    1.0000 </r>
       <r>    4.5351    1.0000 </r>
       <r>    8.8308    0.0000 </r>
       <r>   10.2445    0.0000 </r>
       <r>   11.5764    0.0000 </r>
       <r>   11.9034    0.0000 </r>
      </set>
      <set comment="kpoint 35">
       <r>    0.3155    1.0000 </r>
       <r>    1.1904    1.0000 </r>
       <r>    2.5885    1.0000 </r>
       <r>    3.3606    1.0000 </r>
       <r>    9.4683    0.0000 </r>
       <r>   11.3725    0.0000 </r>
       <r>   11.4072    0.0000 </r>
       <r>   11.7595    0.0000 </r>
      </set>
      <set comment="kpoint 36">
       <r>   -4.4803    1.0000 </r>
       <r>    1.5422    1.0000 </r>
       <r>    3.2750    1.0000 </r>
       <r>    8.9800    0.0000 </r>
       <r>    9.3591    0.0000 </r>
       <r>   12.5138    0.0000 </r>
       <r>   13.2606    0.0000 </r>
       <r>   13.3814    0.0000 </r>
      </set>
      <set comment="kpoint 37">
       <r>   -0.2599    1.0000 </r>
       <r>   -0.2599    1.0000 </r>
       <r>    4.2797    1.0000 </r>
       <r>    4.2797    1.0000 </r>
       <r>   10.0317    0.0000 </r>
       <r>   10.0317    0.0000 </r>
       <r>   11.3699    0.0000 </r>
       <r>   11.3699    0.0000 </r>
      </set>
      <set comment="kpoint 38">
       <r>   -3.7933    1.0000 </r>
       <r>    0.1350    1.0000 </r>
       <r>    3.3944    1.0000 </r>
       <r>    7.1452    0.0741 </r>
       <r>   10.6279    0.0000 </r>
       <r>   12.6416    0.0000 </r>
       <r>   13.0885    0.0000 </r>
       <r>   14.7766    0.0000 </r>
      </set>
      <set comment="kpoint 39">
       <r>   -3.6172    1.0000 </r>
       <r>    1.0148    1.0000 </r>
       <r>    2.8576    1.0000 </r>
       <r>    7.1938    0.0368 </r>
       <r>    9.2102    0.0000 </r>
       <r>   11.6882    0.0000 </r>
       <r>   13.1622    0.0000 </r>
       <r>   14.0238    0.0000 </r>
      </set>
      <set comment="kpoint 40">
       <r>   -2.7737    1.0000 </r>
       <r>   -1.4422    1.0000 </r>
       <r>    4.2856    1.0000 </r>
       <r>    5.5593    1.0000 </r>
       <r>   11.4994    0.0000 </r>
       <r>   12.1128    0.0000 </r>
       <r>   13.1696    0.0000 </r>
       <r>   13.8256    0.0000 </r>
      </set>
      <set comment="kpoint 41">
       <r>   -2.7721    1.0000 </r>
       <r>   -0.2106    1.0000 </r>
       <r>    3.0946    1.0000 </r>
       <r>    5.5326    1.0000 </r>
       <r>    8.7559    0.0000 </r>
       <r>   12.7883    0.0000 </r>
       <r>   13.5706    0.0000 </r>
       <r>   15.1353    0.0000 </r>
      </set>
      <set comment="kpoint 42">
       <r>   -2.0877    1.0000 </r>
       <r>    1.1106    1.0000 </r>
       <r>    3.0488    1.0000 </r>
       <r>    5.1510    1.0000 </r>
       <r>    6.5538    0.9969 </r>
       <r>   11.0176    0.0000 </r>
       <r>   12.7961    0.0000 </r>
       <r>   13.9426    0.0000 </r>
      </set>
      <set comment="kpoint 43">
       <r>   -1.6325    1.0000 </r>
       <r>   -1.5952    1.0000 </r>
       <r>    4.0860    1.0000 </r>
       <r>    4.1680    1.0000 </r>
       <r>    8.5975    0.0000 </r>
       <r>   12.9456    0.0000 </r>
       <r>   14.4421    0.0000 </r>
       <r>   14.5491    0.0000 </r>
      </set>
      <set comment="kpoint 44">
       <r>   -1.1187    1.0000 </r>
       <r>    0.0964    1.0000 </r>
       <r>    3.3561    1.0000 </r>
       <r>    4.3697    1.0000 </r>
       <r>    5.5221    1.0000 </r>
       <r>   11.2537    0.0000 </r>
       <r>   14.1018    0.0000 </r>
       <r>   15.0401    0.0000 </r>
      </set>
      <set comment="kpoint 45">
       <r>   -0.1408    1.0000 </r>
       <r>    1.3181    1.0000 </r>
       <r>    3.0545    1.0000 </r>
       <r>    3.8356    1.0000 </r>
       <r>    5.8200    1.0000 </r>
       <r>    9.3276    0.0000 </r>
       <r>   11.0960    0.0000 </r>
       <r>   14.0481    0.0000 </r>
      </set>
      <set comment="kpoint 46">
       <r>    0.3067    1.0000 </r>
       <r>    1.2433    1.0000 </r>
       <r>    2.5910    1.0000 </r>
       <r>    4.4115    1.0000 </r>
       <r>    4.6080    1.0000 </r>
       <r>    9.6240    0.0000 </r>
       <r>   12.3092    0.0000 </r>
       <r>   12.7596    0.0000 </r>
      </set>
      <set comment="kpoint 47">
       <r>   -1.1124    1.0000 </r>
       <r>    3.0861    1.0000 </r>
       <r>    4.0071    1.0000 </r>
       <r>    5.0729    1.0000 </r>
       <r>    5.8113    1.0000 </r>
       <r>    8.2299    0.0000 </r>
       <r>    9.9251    0.0000 </r>
       <r>   11.0241    0.0000 </r>
      </set>
      <set comment="kpoint 48">
       <r>   -2.9064    1.0000 </r>
       <r>    5.8926    1.0000 </r>
       <r>    6.0301    1.0000 </r>
       <r>    6.0301    1.0000 </r>
       <r>    6.2268    1.0000 </r>
       <r>    7.0658    0.1883 </r>
       <r>    9.8030    0.0000 </r>
       <r>    9.8030    0.0000 </r>
      </set>
      <set comment="kpoint 49">
       <r>   -3.1190    1.0000 </r>
       <r>    0.1618    1.0000 </r>
       <r>    2.0813    1.0000 </r>
       <r>    5.2623    1.0000 </r>
       <r>   11.7256    0.0000 </r>
       <r>   12.1714    0.0000 </r>
       <r>   13.8023    0.0000 </r>
       <r>   16.1845    0.0000 </r>
      </set>
      <set comment="kpoint 50">
       <r>   -2.1295    1.0000 </r>
       <r>   -0.8928    1.0000 </r>
       <r>    2.4643    1.0000 </r>
       <r>    3.6685    1.0000 </r>
       <r>   11.7534    0.0000 </r>
       <r>   11.8504    0.0000 </r>
       <r>   15.0469    0.0000 </r>
       <r>   16.0403    0.0000 </r>
      </set>
      <set comment="kpoint 51">
       <r>   -1.9583    1.0000 </r>
       <r>   -0.0240    1.0000 </r>
       <r>    1.9380    1.0000 </r>
       <r>    3.8171    1.0000 </r>
       <r>    8.2805    0.0000 </r>
       <r>   13.9615    0.0000 </r>
       <r>   15.4188    0.0000 </r>
       <r>   15.9471    0.0000 </r>
      </set>
      <set comment="kpoint 52">
       <r>   -0.9315    1.0000 </r>
       <r>   -0.8652    1.0000 </r>
       <r>    2.4481    1.0000 </r>
       <r>    2.4872    1.0000 </r>
       <r>    8.1195    0.0000 </r>
       <r>   14.1571    0.0000 </r>
       <r>   16.2985    0.0000 </r>
       <r>   16.5560    0.0000 </r>
      </set>
      <set comment="kpoint 53">
       <r>   -0.2713    1.0000 </r>
       <r>    0.4430    1.0000 </r>
       <r>    2.4397    1.0000 </r>
       <r>    3.0675    1.0000 </r>
       <r>    4.9669    1.0000 </r>
       <r>   12.6364    0.0000 </r>
       <r>   14.2681    0.0000 </r>
       <r>   15.1519    0.0000 </r>
      </set>
      <set comment="kpoint 54">
       <r>    0.3949    1.0000 </r>
       <r>    1.8265    1.0000 </r>
       <r>    3.0825    1.0000 </r>
       <r>    3.5517    1.0000 </r>
       <r>    3.5517    1.0000 </r>
       <r>   10.8543    0.0000 </r>
       <r>   12.1466    0.0000 </r>
       <r>   12.1466    0.0000 </r>
      </set>
      <set comment="kpoint 55">
       <r>   -1.2385    1.0000 </r>
       <r>   -0.5353    1.0000 </r>
       <r>    1.4530    1.0000 </r>
       <r>    2.1456    1.0000 </r>
       <r>   11.5660    0.0000 </r>
       <r>   11.5883    0.0000 </r>
       <r>   16.9974    0.0000 </r>
       <r>   17.5091    0.0000 </r>
      </set>
      <set comment="kpoint 56">
       <r>   -0.4232    1.0000 </r>
       <r>   -0.3223    1.0000 </r>
       <r>    1.6228    1.0000 </r>
       <r>    1.6228    1.0000 </r>
       <r>    7.9579    0.0000 </r>
       <r>   14.4800    0.0000 </r>
       <r>   16.9698    0.0000 </r>
       <r>   16.9698    0.0000 </r>
      </set>
     </set>
    </set>
   </array>
  </eigenvalues>
  <separator name="orbital magnetization" >
   <v name="MAGDIPOLOUT">      0.00000000      0.00000000      0.00000000</v>
  </separator>
  <dos>
   <i name="efermi">      6.94076592 </i>
   <total>
    <array>
     <dimension dim="1">gridpoints</dimension>
     <dimension dim="2">spin</dimension>
     <field>energy</field>
     <field>total</field>
     <field>integrated</field>
     <set>
      <set comment="spin 1">
       <r>    -7.1731     0.0000     0.0000 </r>
       <r>    -7.0842     0.0000     0.0000 </r>
       <r>    -6.9952     0.0000     0.0000 </r>
       <r>    -6.9063     0.0000     0.0000 </r>
       <r>    -6.8173     0.0000     0.0000 </r>
       <r>    -6.7284     0.0000     0.0000 </r>
       <r>    -6.6395     0.0000     0.0000 </r>
       <r>    -6.5505     0.0000     0.0000 </r>
       <r>    -6.4616     0.0000     0.0000 </r>
       <r>    -6.3726     0.0000     0.0000 </r>
       <r>    -6.2837     0.0000     0.0000 </r>
       <r>    -6.1948     0.0000     0.0000 </r>
       <r>    -6.1058     0.0000     0.0000 </r>
       <r>    -6.0169     0.0000     0.0000 </r>
       <r>    -5.9279     0.0000     0.0000 </r>
       <r>    -5.8390     0.0000     0.0000 </r>
       <r>    -5.7501     0.0000     0.0000 </r>
       <r>    -5.6611     0.0000     0.0000 </r>
       <r>    -5.5722     0.0004     0.0000 </r>
       <r>    -5.4832     0.0021     0.0002 </r>
       <r>    -5.3943     0.0081     0.0009 </r>
       <r>    -5.3054     0.0216     0.0029 </r>
       <r>    -5.2164     0.0416     0.0066 </r>
       <r>    -5.1275     0.0627     0.0121 </r>
       <r>    -5.0385     0.0883     0.0200 </r>
       <r>    -4.9496     0.1320     0.0317 </r>
       <r>    -4.8606     0.1909     0.0487 </r>
       <r>    -4.7717     0.2318     0.0693 </r>
       <r>    -4.6828     0.2285     0.0896 </r>
       <r>    -4.5938     0.1934     0.1068 </r>
       <r>    -4.5049     0.1600     0.1211 </r>
       <r>    -4.4159     0.1580     0.1351 </r>
       <r>    -4.3270     0.2065     0.1535 </r>
       <r>    -4.2381     0.3005     0.1802 </r>
       <r>    -4.1491     0.3878     0.2147 </r>
       <r>    -4.0602     0.3984     0.2501 </r>
       <r>    -3.9712     0.3384     0.2802 </r>
       <r>    -3.8823     0.2970     0.3067 </r>
       <r>    -3.7934     0.3155     0.3347 </r>
       <r>    -3.7044     0.3387     0.3648 </r>
       <r>    -3.6155     0.3250     0.3937 </r>
       <r>    -3.5265     0.3063     0.4210 </r>
       <r>    -3.4376     0.3192     0.4494 </r>
       <r>    -3.3487     0.3571     0.4811 </r>
       <r>    -3.2597     0.4009     0.5168 </r>
       <r>    -3.1708     0.4373     0.5557 </r>
       <r>    -3.0818     0.4449     0.5953 </r>
       <r>    -2.9929     0.4243     0.6330 </r>
       <r>    -2.9040     0.4374     0.6719 </r>
       <r>    -2.8150     0.5217     0.7183 </r>
       <r>    -2.7261     0.5875     0.7705 </r>
       <r>    -2.6371     0.5246     0.8172 </r>
       <r>    -2.5482     0.3636     0.8495 </r>
       <r>    -2.4592     0.2287     0.8699 </r>
       <r>    -2.3703     0.2123     0.8888 </r>
       <r>    -2.2814     0.3443     0.9194 </r>
       <r>    -2.1924     0.5857     0.9715 </r>
       <r>    -2.1035     0.8060     1.0432 </r>
       <r>    -2.0145     0.8511     1.1189 </r>
       <r>    -1.9256     0.7126     1.1822 </r>
       <r>    -1.8367     0.5543     1.2315 </r>
       <r>    -1.7477     0.5031     1.2763 </r>
       <r>    -1.6588     0.5207     1.3226 </r>
       <r>    -1.5698     0.5166     1.3685 </r>
       <r>    -1.4809     0.4749     1.4108 </r>
       <r>    -1.3920     0.4418     1.4501 </r>
       <r>    -1.3030     0.4535     1.4904 </r>
       <r>    -1.2141     0.4975     1.5347 </r>
       <r>    -1.1251     0.5343     1.5822 </r>
       <r>    -1.0362     0.5644     1.6324 </r>
       <r>    -0.9473     0.6453     1.6898 </r>
       <r>    -0.8583     0.7910     1.7601 </r>
       <r>    -0.7694     0.9062     1.8407 </r>
       <r>    -0.6804     0.9007     1.9208 </r>
       <r>    -0.5915     0.8075     1.9926 </r>
       <r>    -0.5026     0.7319     2.0577 </r>
       <r>    -0.4136     0.7510     2.1245 </r>
       <r>    -0.3247     0.8627     2.2013 </r>
       <r>    -0.2357     0.9733     2.2878 </r>
       <r>    -0.1468     0.9818     2.3751 </r>
       <r>    -0.0578     0.8952     2.4548 </r>
       <r>     0.0311     0.7879     2.5248 </r>
       <r>     0.1200     0.6876     2.5860 </r>
       <r>     0.2090     0.5842     2.6380 </r>
       <r>     0.2979     0.4911     2.6816 </r>
       <r>     0.3869     0.4201     2.7190 </r>
       <r>     0.4758     0.3450     2.7497 </r>
       <r>     0.5647     0.2464     2.7716 </r>
       <r>     0.6537     0.1569     2.7856 </r>
       <r>     0.7426     0.1379     2.7978 </r>
       <r>     0.8316     0.2289     2.8182 </r>
       <r>     0.9205     0.4330     2.8567 </r>
       <r>     1.0094     0.7199     2.9207 </r>
       <r>     1.0984     1.0067     3.0103 </r>
       <r>     1.1873     1.1689     3.1142 </r>
       <r>     1.2763     1.1408     3.2157 </r>
       <r>     1.3652     0.9764     3.3025 </r>
       <r>     1.4541     0.7745     3.3714 </r>
       <r>     1.5431     0.5908     3.4240 </r>
       <r>     1.6320     0.4364     3.4628 </r>
       <r>     1.7210     0.3207     3.4913 </r>
       <r>     1.8099     0.2594     3.5144 </r>
       <r>     1.8988     0.2475     3.5364 </r>
       <r>     1.9878     0.2710     3.5605 </r>
       <r>     2.0767     0.3270     3.5896 </r>
       <r>     2.1657     0.3946     3.6247 </r>
       <r>     2.2546     0.4428     3.6641 </r>
       <r>     2.3436     0.4984     3.7084 </r>
       <r>     2.4325     0.6160     3.7632 </r>
       <r>     2.5214     0.7737     3.8320 </r>
       <r>     2.6104     0.8983     3.9119 </r>
       <r>     2.6993     0.9562     3.9969 </r>
       <r>     2.7883     0.9634     4.0826 </r>
       <r>     2.8772     0.9683     4.1687 </r>
       <r>     2.9661     1.0130     4.2588 </r>
       <r>     3.0551     1.0554     4.3527 </r>
       <r>     3.1440     1.0063     4.4422 </r>
       <r>     3.2330     0.8909     4.5214 </r>
       <r>     3.3219     0.8296     4.5952 </r>
       <r>     3.4108     0.8374     4.6697 </r>
       <r>     3.4998     0.8044     4.7412 </r>
       <r>     3.5887     0.6774     4.8015 </r>
       <r>     3.6777     0.5330     4.8489 </r>
       <r>     3.7666     0.4649     4.8902 </r>
       <r>     3.8555     0.4853     4.9334 </r>
       <r>     3.9445     0.5683     4.9839 </r>
       <r>     4.0334     0.7219     5.0482 </r>
       <r>     4.1224     0.9606     5.1336 </r>
       <r>     4.2113     1.2273     5.2427 </r>
       <r>     4.3002     1.3977     5.3671 </r>
       <r>     4.3892     1.3936     5.4910 </r>
       <r>     4.4781     1.2557     5.6027 </r>
       <r>     4.5671     1.0766     5.6984 </r>
       <r>     4.6560     0.9213     5.7804 </r>
       <r>     4.7449     0.8206     5.8534 </r>
       <r>     4.8339     0.7874     5.9234 </r>
       <r>     4.9228     0.8152     5.9959 </r>
       <r>     5.0118     0.8605     6.0724 </r>
       <r>     5.1007     0.8596     6.1489 </r>
       <r>     5.1897     0.8136     6.2213 </r>
       <r>     5.2786     0.8217     6.2943 </r>
       <r>     5.3675     0.9819     6.3817 </r>
       <r>     5.4565     1.2738     6.4950 </r>
       <r>     5.5454     1.5494     6.6328 </r>
       <r>     5.6344     1.6633     6.7807 </r>
       <r>     5.7233     1.6163     6.9245 </r>
       <r>     5.8122     1.4966     7.0576 </r>
       <r>     5.9012     1.3365     7.1764 </r>
       <r>     5.9901     1.1329     7.2772 </r>
       <r>     6.0791     0.9153     7.3586 </r>
       <r>     6.1680     0.7280     7.4233 </r>
       <r>     6.2569     0.6098     7.4776 </r>
       <r>     6.3459     0.5923     7.5303 </r>
       <r>     6.4348     0.6744     7.5902 </r>
       <r>     6.5238     0.7816     7.6598 </r>
       <r>     6.6127     0.8074     7.7316 </r>
       <r>     6.7016     0.7539     7.7986 </r>
       <r>     6.7906     0.7476     7.8651 </r>
       <r>     6.8795     0.8552     7.9412 </r>
       <r>     6.9685     0.9687     8.0273 </r>
       <r>     7.0574     0.9502     8.1118 </r>
       <r>     7.1463     0.8271     8.1854 </r>
       <r>     7.2353     0.7433     8.2515 </r>
       <r>     7.3242     0.7649     8.3195 </r>
       <r>     7.4132     0.8163     8.3921 </r>
       <r>     7.5021     0.7807     8.4616 </r>
       <r>     7.5911     0.6348     8.5180 </r>
       <r>     7.6800     0.4788     8.5606 </r>
       <r>     7.7689     0.4387     8.5996 </r>
       <r>     7.8579     0.5415     8.6478 </r>
       <r>     7.9468     0.7109     8.7110 </r>
       <r>     8.0358     0.8785     8.7892 </r>
       <r>     8.1247     1.0199     8.8799 </r>
       <r>     8.2136     1.1072     8.9784 </r>
       <r>     8.3026     1.1218     9.0781 </r>
       <r>     8.3915     1.0753     9.1738 </r>
       <r>     8.4805     0.9905     9.2619 </r>
       <r>     8.5694     0.9183     9.3435 </r>
       <r>     8.6583     0.9328     9.4265 </r>
       <r>     8.7473     1.0211     9.5173 </r>
       <r>     8.8362     1.0480     9.6105 </r>
       <r>     8.9252     0.9390     9.6940 </r>
       <r>     9.0141     0.8066     9.7658 </r>
       <r>     9.1030     0.7927     9.8363 </r>
       <r>     9.1920     0.9074     9.9170 </r>
       <r>     9.2809     1.0822    10.0132 </r>
       <r>     9.3699     1.2533    10.1247 </r>
       <r>     9.4588     1.3528    10.2450 </r>
       <r>     9.5477     1.3313    10.3634 </r>
       <r>     9.6367     1.2212    10.4720 </r>
       <r>     9.7256     1.1258    10.5722 </r>
       <r>     9.8146     1.1270    10.6724 </r>
       <r>     9.9035     1.1958    10.7788 </r>
       <r>     9.9925     1.2027    10.8857 </r>
       <r>    10.0814     1.0533    10.9794 </r>
       <r>    10.1703     0.8020    11.0508 </r>
       <r>    10.2593     0.5912    11.1033 </r>
       <r>    10.3482     0.5271    11.1502 </r>
       <r>    10.4372     0.6585    11.2088 </r>
       <r>    10.5261     0.9609    11.2942 </r>
       <r>    10.6150     1.2881    11.4088 </r>
       <r>    10.7040     1.4526    11.5380 </r>
       <r>    10.7929     1.4026    11.6627 </r>
       <r>    10.8819     1.2697    11.7757 </r>
       <r>    10.9708     1.2168    11.8839 </r>
       <r>    11.0597     1.2559    11.9956 </r>
       <r>    11.1487     1.2609    12.1077 </r>
       <r>    11.2376     1.1769    12.2124 </r>
       <r>    11.3266     1.1206    12.3121 </r>
       <r>    11.4155     1.2190    12.4205 </r>
       <r>    11.5044     1.4339    12.5480 </r>
       <r>    11.5934     1.6093    12.6912 </r>
       <r>    11.6823     1.6526    12.8382 </r>
       <r>    11.7713     1.6084    12.9812 </r>
       <r>    11.8602     1.5490    13.1190 </r>
       <r>    11.9491     1.4768    13.2503 </r>
       <r>    12.0381     1.3621    13.3715 </r>
       <r>    12.1270     1.2153    13.4796 </r>
       <r>    12.2160     1.0894    13.5765 </r>
       <r>    12.3049     1.0194    13.6671 </r>
       <r>    12.3939     0.9912    13.7553 </r>
       <r>    12.4828     0.9836    13.8428 </r>
       <r>    12.5717     1.0139    13.9330 </r>
       <r>    12.6607     1.1070    14.0314 </r>
       <r>    12.7496     1.2100    14.1390 </r>
       <r>    12.8386     1.2119    14.2468 </r>
       <r>    12.9275     1.0974    14.3444 </r>
       <r>    13.0164     0.9798    14.4316 </r>
       <r>    13.1054     0.9510    14.5161 </r>
       <r>    13.1943     0.9806    14.6033 </r>
       <r>    13.2833     0.9710    14.6897 </r>
       <r>    13.3722     0.8833    14.7683 </r>
       <r>    13.4611     0.7708    14.8368 </r>
       <r>    13.5501     0.6951    14.8986 </r>
       <r>    13.6390     0.6852    14.9596 </r>
       <r>    13.7280     0.7589    15.0271 </r>
       <r>    13.8169     0.8873    15.1060 </r>
       <r>    13.9058     0.9710    15.1924 </r>
       <r>    13.9948     0.9384    15.2758 </r>
       <r>    14.0837     0.8099    15.3479 </r>
       <r>    14.1727     0.6382    15.4046 </r>
       <r>    14.2616     0.4727    15.4467 </r>
       <r>    14.3505     0.3597    15.4786 </r>
       <r>    14.4395     0.3070    15.5060 </r>
       <r>    14.5284     0.2744    15.5304 </r>
       <r>    14.6174     0.2292    15.5507 </r>
       <r>    14.7063     0.1849    15.5672 </r>
       <r>    14.7953     0.1732    15.5826 </r>
       <r>    14.8842     0.2190    15.6021 </r>
       <r>    14.9731     0.3310    15.6315 </r>
       <r>    15.0621     0.4599    15.6724 </r>
       <r>    15.1510     0.5025    15.7171 </r>
       <r>    15.2400     0.4165    15.7541 </r>
       <r>    15.3289     0.2773    15.7788 </r>
       <r>    15.4178     0.1714    15.7941 </r>
       <r>    15.5068     0.1083    15.8037 </r>
       <r>    15.5957     0.0639    15.8094 </r>
       <r>    15.6847     0.0379    15.8127 </r>
       <r>    15.7736     0.0446    15.8167 </r>
       <r>    15.8625     0.0881    15.8245 </r>
       <r>    15.9515     0.1490    15.8378 </r>
       <r>    16.0404     0.1924    15.8549 </r>
       <r>    16.1294     0.2007    15.8728 </r>
       <r>    16.2183     0.1866    15.8894 </r>
       <r>    16.3072     0.1662    15.9041 </r>
       <r>    16.3962     0.1446    15.9170 </r>
       <r>    16.4851     0.1270    15.9283 </r>
       <r>    16.5741     0.1124    15.9383 </r>
       <r>    16.6630     0.0902    15.9463 </r>
       <r>    16.7519     0.0652    15.9521 </r>
       <r>    16.8409     0.0589    15.9574 </r>
       <r>    16.9298     0.0748    15.9640 </r>
       <r>    17.0188     0.0874    15.9718 </r>
       <r>    17.1077     0.0747    15.9784 </r>
       <r>    17.1967     0.0457    15.9825 </r>
       <r>    17.2856     0.0252    15.9847 </r>
       <r>    17.3745     0.0248    15.9869 </r>
       <r>    17.4635     0.0365    15.9902 </r>
       <r>    17.5524     0.0435    15.9941 </r>
       <r>    17.6414     0.0360    15.9973 </r>
       <r>    17.7303     0.0204    15.9991 </r>
       <r>    17.8192     0.0079    15.9998 </r>
       <r>    17.9082     0.0021    16.0000 </r>
       <r>    17.9971     0.0004    16.0000 </r>
       <r>    18.0861     0.0000    16.0000 </r>
       <r>    18.1750     0.0000    16.0000 </r>
       <r>    18.2639     0.0000    16.0000 </r>
       <r>    18.3529     0.0000    16.0000 </r>
       <r>    18.4418     0.0000    16.0000 </r>
       <r>    18.5308     0.0000    16.0000 </r>
       <r>    18.6197     0.0000    16.0000 </r>
       <r>    18.7086     0.0000    16.0000 </r>
       <r>    18.7976     0.0000    16.0000 </r>
       <r>    18.8865     0.0000    16.0000 </r>
       <r>    18.9755     0.0000    16.0000 </r>
       <r>    19.0644     0.0000    16.0000 </r>
       <r>    19.1533     0.0000    16.0000 </r>
       <r>    19.2423     0.0000    16.0000 </r>
       <r>    19.3312     0.0000    16.0000 </r>
       <r>    19.4202     0.0000    16.0000 </r>
       <r>    19.5091     0.0000    16.0000 </r>
      </set>
     </set>
    </array>
   </total>
  </dos>
 </calculation>
 <structure name="finalpos" >
  <crystal>
   <varray name="basis" >
    <v>      -2.52487600       2.52487600       1.44079500 </v>
    <v>       2.52487600      -2.52487600       1.44079500 </v>
    <v>       2.52487600       2.52487600      -1.44079500 </v>
   </varray>
   <i name="volume">     36.74026567 </i>
   <varray name="rec_basis" >
    <v>      -0.00000000       0.19802953       0.34703063 </v>
    <v>       0.19802953      -0.00000000       0.34703063 </v>
    <v>       0.19802953       0.19802953       0.00000000 </v>
   </varray>
  </crystal>
  <varray name="positions" >
   <v>       0.00000000       0.00000000       0.00000000 </v>
   <v>       0.25000000       0.75000000       0.50000000 </v>
  </varray>
 </structure>
</modeling>
