unknown system                          
           1
    -2.524876    2.524876    1.440795
     2.524876   -2.524876    1.440795
     2.524876    2.524876   -1.440795
   Si
   2
Direct configuration=     1
   0.00000000  0.00000000  0.00000000
   0.25000000  0.75000000  0.50000000
