Automatically generated mesh
     159
Reciprocal lattice
    0.04166666666667    0.04166666666667    0.04166666666667           128
    0.12500000000000    0.04166666666667    0.04166666666667           256
    0.20833333333333    0.04166666666667    0.04166666666667           256
    0.29166666666667    0.04166666666667    0.04166666666667           256
    0.37500000000000    0.04166666666667    0.04166666666667           256
    0.45833333333333    0.04166666666667    0.04166666666667           128
   -0.04166666666667    0.04166666666667    0.04166666666667            64
    0.12500000000000    0.12500000000000    0.04166666666667           128
    0.20833333333333    0.12500000000000    0.04166666666667           256
    0.29166666666667    0.12500000000000    0.04166666666667           256
    0.37500000000000    0.12500000000000    0.04166666666667           256
    0.45833333333333    0.12500000000000    0.04166666666667           256
   -0.45833333333333    0.12500000000000    0.04166666666667           256
   -0.37500000000000    0.12500000000000    0.04166666666667           256
   -0.29166666666667    0.12500000000000    0.04166666666667           256
   -0.20833333333333    0.12500000000000    0.04166666666667           128
   -0.12500000000000    0.12500000000000    0.04166666666667           128
   -0.04166666666667    0.12500000000000    0.04166666666667           128
    0.20833333333333    0.20833333333333    0.04166666666667           128
    0.29166666666667    0.20833333333333    0.04166666666667           256
    0.37500000000000    0.20833333333333    0.04166666666667           256
    0.45833333333333    0.20833333333333    0.04166666666667           256
   -0.45833333333333    0.20833333333333    0.04166666666667           256
   -0.37500000000000    0.20833333333333    0.04166666666667           256
   -0.29166666666667    0.20833333333333    0.04166666666667           128
   -0.20833333333333    0.20833333333333    0.04166666666667           128
   -0.12500000000000    0.20833333333333    0.04166666666667           256
   -0.04166666666667    0.20833333333333    0.04166666666667           128
    0.29166666666667    0.29166666666667    0.04166666666667           128
    0.37500000000000    0.29166666666667    0.04166666666667           256
    0.45833333333333    0.29166666666667    0.04166666666667           256
   -0.45833333333333    0.29166666666667    0.04166666666667           256
   -0.37500000000000    0.29166666666667    0.04166666666667           128
   -0.29166666666667    0.29166666666667    0.04166666666667           128
   -0.20833333333333    0.29166666666667    0.04166666666667           256
   -0.12500000000000    0.29166666666667    0.04166666666667           256
   -0.04166666666667    0.29166666666667    0.04166666666667           128
    0.37500000000000    0.37500000000000    0.04166666666667           128
    0.45833333333333    0.37500000000000    0.04166666666667           256
   -0.45833333333333    0.37500000000000    0.04166666666667           128
   -0.37500000000000    0.37500000000000    0.04166666666667           128
   -0.29166666666667    0.37500000000000    0.04166666666667           256
   -0.20833333333333    0.37500000000000    0.04166666666667           256
   -0.12500000000000    0.37500000000000    0.04166666666667           256
   -0.04166666666667    0.37500000000000    0.04166666666667           128
    0.45833333333333    0.45833333333333    0.04166666666667            64
   -0.45833333333333    0.45833333333333    0.04166666666667           128
   -0.37500000000000    0.45833333333333    0.04166666666667           256
   -0.29166666666667    0.45833333333333    0.04166666666667           256
   -0.20833333333333    0.45833333333333    0.04166666666667           256
   -0.12500000000000    0.45833333333333    0.04166666666667           256
   -0.04166666666667    0.45833333333333    0.04166666666667           128
   -0.45833333333333   -0.45833333333333    0.04166666666667           128
   -0.37500000000000   -0.45833333333333    0.04166666666667           256
   -0.29166666666667   -0.45833333333333    0.04166666666667           256
   -0.20833333333333   -0.45833333333333    0.04166666666667           256
   -0.12500000000000   -0.45833333333333    0.04166666666667           256
   -0.04166666666667   -0.45833333333333    0.04166666666667           128
   -0.37500000000000   -0.37500000000000    0.04166666666667           128
   -0.29166666666667   -0.37500000000000    0.04166666666667           256
   -0.20833333333333   -0.37500000000000    0.04166666666667           256
   -0.12500000000000   -0.37500000000000    0.04166666666667           256
   -0.04166666666667   -0.37500000000000    0.04166666666667           128
   -0.29166666666667   -0.29166666666667    0.04166666666667           128
   -0.20833333333333   -0.29166666666667    0.04166666666667           256
   -0.12500000000000   -0.29166666666667    0.04166666666667           256
   -0.04166666666667   -0.29166666666667    0.04166666666667           128
   -0.20833333333333   -0.20833333333333    0.04166666666667           128
   -0.12500000000000   -0.20833333333333    0.04166666666667           256
   -0.04166666666667   -0.20833333333333    0.04166666666667           128
   -0.12500000000000   -0.12500000000000    0.04166666666667           128
   -0.04166666666667   -0.12500000000000    0.04166666666667           128
   -0.04166666666667   -0.04166666666667    0.04166666666667            32
    0.12500000000000    0.12500000000000    0.12500000000000           128
    0.20833333333333    0.12500000000000    0.12500000000000           256
    0.29166666666667    0.12500000000000    0.12500000000000           256
    0.37500000000000    0.12500000000000    0.12500000000000           128
   -0.12500000000000    0.12500000000000    0.12500000000000            64
    0.20833333333333    0.20833333333333    0.12500000000000           128
    0.29166666666667    0.20833333333333    0.12500000000000           256
    0.37500000000000    0.20833333333333    0.12500000000000           256
    0.45833333333333    0.20833333333333    0.12500000000000           256
   -0.45833333333333    0.20833333333333    0.12500000000000           128
   -0.20833333333333    0.20833333333333    0.12500000000000           128
   -0.12500000000000    0.20833333333333    0.12500000000000           128
    0.29166666666667    0.29166666666667    0.12500000000000           128
    0.37500000000000    0.29166666666667    0.12500000000000           256
    0.45833333333333    0.29166666666667    0.12500000000000           128
   -0.29166666666667    0.29166666666667    0.12500000000000           128
   -0.20833333333333    0.29166666666667    0.12500000000000           256
   -0.12500000000000    0.29166666666667    0.12500000000000           128
    0.37500000000000    0.37500000000000    0.12500000000000            64
   -0.37500000000000    0.37500000000000    0.12500000000000           128
   -0.29166666666667    0.37500000000000    0.12500000000000           256
   -0.20833333333333    0.37500000000000    0.12500000000000           256
   -0.12500000000000    0.37500000000000    0.12500000000000           128
   -0.45833333333333    0.45833333333333    0.12500000000000           128
   -0.37500000000000    0.45833333333333    0.12500000000000           256
   -0.29166666666667    0.45833333333333    0.12500000000000           256
   -0.20833333333333    0.45833333333333    0.12500000000000           256
   -0.12500000000000    0.45833333333333    0.12500000000000           128
   -0.45833333333333   -0.45833333333333    0.12500000000000           128
   -0.37500000000000   -0.45833333333333    0.12500000000000           256
   -0.29166666666667   -0.45833333333333    0.12500000000000           256
   -0.20833333333333   -0.45833333333333    0.12500000000000           256
   -0.12500000000000   -0.45833333333333    0.12500000000000           128
   -0.37500000000000   -0.37500000000000    0.12500000000000           128
   -0.29166666666667   -0.37500000000000    0.12500000000000           256
   -0.20833333333333   -0.37500000000000    0.12500000000000           256
   -0.12500000000000   -0.37500000000000    0.12500000000000           128
   -0.29166666666667   -0.29166666666667    0.12500000000000           128
   -0.20833333333333   -0.29166666666667    0.12500000000000           256
   -0.12500000000000   -0.29166666666667    0.12500000000000           128
   -0.20833333333333   -0.20833333333333    0.12500000000000           128
   -0.12500000000000   -0.20833333333333    0.12500000000000           128
   -0.12500000000000   -0.12500000000000    0.12500000000000            32
    0.20833333333333    0.20833333333333    0.20833333333333           128
    0.29166666666667    0.20833333333333    0.20833333333333           128
   -0.20833333333333    0.20833333333333    0.20833333333333            64
    0.29166666666667    0.29166666666667    0.20833333333333            64
   -0.29166666666667    0.29166666666667    0.20833333333333           128
   -0.20833333333333    0.29166666666667    0.20833333333333           128
   -0.37500000000000    0.37500000000000    0.20833333333333           128
   -0.29166666666667    0.37500000000000    0.20833333333333           256
   -0.20833333333333    0.37500000000000    0.20833333333333           128
   -0.45833333333333    0.45833333333333    0.20833333333333           128
   -0.37500000000000    0.45833333333333    0.20833333333333           256
   -0.29166666666667    0.45833333333333    0.20833333333333           256
   -0.20833333333333    0.45833333333333    0.20833333333333           128
   -0.45833333333333   -0.45833333333333    0.20833333333333           128
   -0.37500000000000   -0.45833333333333    0.20833333333333           256
   -0.29166666666667   -0.45833333333333    0.20833333333333           256
   -0.20833333333333   -0.45833333333333    0.20833333333333           128
   -0.37500000000000   -0.37500000000000    0.20833333333333           128
   -0.29166666666667   -0.37500000000000    0.20833333333333           256
   -0.20833333333333   -0.37500000000000    0.20833333333333           128
   -0.29166666666667   -0.29166666666667    0.20833333333333           128
   -0.20833333333333   -0.29166666666667    0.20833333333333           128
   -0.20833333333333   -0.20833333333333    0.20833333333333            32
   -0.29166666666667    0.29166666666667    0.29166666666667            64
   -0.37500000000000    0.37500000000000    0.29166666666667           128
   -0.29166666666667    0.37500000000000    0.29166666666667           128
   -0.45833333333333    0.45833333333333    0.29166666666667           128
   -0.37500000000000    0.45833333333333    0.29166666666667           256
   -0.29166666666667    0.45833333333333    0.29166666666667           128
   -0.45833333333333   -0.45833333333333    0.29166666666667           128
   -0.37500000000000   -0.45833333333333    0.29166666666667           256
   -0.29166666666667   -0.45833333333333    0.29166666666667           128
   -0.37500000000000   -0.37500000000000    0.29166666666667           128
   -0.29166666666667   -0.37500000000000    0.29166666666667           128
   -0.29166666666667   -0.29166666666667    0.29166666666667            32
   -0.37500000000000    0.37500000000000    0.37500000000000            64
   -0.45833333333333    0.45833333333333    0.37500000000000           128
   -0.37500000000000    0.45833333333333    0.37500000000000           128
   -0.45833333333333   -0.45833333333333    0.37500000000000           128
   -0.37500000000000   -0.45833333333333    0.37500000000000           128
   -0.37500000000000   -0.37500000000000    0.37500000000000            32
   -0.45833333333333    0.45833333333333    0.45833333333333            64
   -0.45833333333333   -0.45833333333333    0.45833333333333            32
