<?xml version="1.0" encoding="ISO-8859-1"?>
<modeling>
 <generator>
  <i name="program" type="string">vasp </i>
  <i name="version" type="string">5.4.4.18Apr17-6-g9f103f2a35  </i>
  <i name="subversion" type="string">(build Dec 09 2018 21:25:21) complex            parallel </i>
  <i name="platform" type="string">IFC18.0.1.163_CrayMPICH7.7.0_MKL18.0.1.163 </i>
  <i name="date" type="string">2019 03 19 </i>
  <i name="time" type="string">13:01:52 </i>
 </generator>
 <incar>
  <i type="string" name="PREC">normal</i>
  <i type="int" name="IBRION">     2</i>
  <i name="EDIFF">      0.00040000</i>
  <i name="EDIFFG">     -0.01000000</i>
  <i type="int" name="NSW">    15</i>
  <i type="int" name="ISIF">     2</i>
  <i name="ENCUT">    150.00000000</i>
  <i type="int" name="NBANDS">     8</i>
  <i type="logical" name="LREAL"> F  </i>
  <i type="int" name="ISMEAR">     0</i>
  <i name="SIGMA">      0.20000000</i>
  <v type="int" name="KPOINT_BSE">    -1     0     0     0</v>
 </incar>
 <structure name="primitive_cell" >
  <crystal>
   <varray name="basis" >
    <v>      -2.45000000       2.45000000       1.27400000 </v>
    <v>       2.45000000      -2.45000000       1.27400000 </v>
    <v>       2.45000000       2.45000000      -1.27400000 </v>
   </varray>
   <i name="volume">     30.58874000 </i>
   <varray name="rec_basis" >
    <v>       0.00000000       0.20408163       0.39246468 </v>
    <v>       0.20408163       0.00000000       0.39246468 </v>
    <v>       0.20408163       0.20408163      -0.00000000 </v>
   </varray>
  </crystal>
  <varray name="positions" >
   <v>       0.25000000      -0.25000000      -0.50000000 </v>
   <v>       0.00000000       0.00000000       0.00000000 </v>
  </varray>
 </structure>
 <varray name="primitive_index" >
  <v type="int" >        1 </v>
  <v type="int" >        2 </v>
 </varray>
 <kpoints>
  <generation param="Monkhorst-Pack">
   <v type="int" name="divisions">      12       12       12 </v>
   <v name="usershift">      0.00000000       0.00000000       0.00000000 </v>
   <v name="genvec1">      0.08333333      -0.00000000       0.00000000 </v>
   <v name="genvec2">     -0.00000000       0.08333333       0.00000000 </v>
   <v name="genvec3">     -0.00000000      -0.00000000       0.08333333 </v>
   <v name="shift">      0.50000000       0.50000000       0.50000000 </v>
  </generation>
  <varray name="kpointlist" >
   <v>       0.04166667       0.04166667       0.04166667 </v>
   <v>       0.12500000       0.04166667       0.04166667 </v>
   <v>       0.20833333       0.04166667       0.04166667 </v>
   <v>       0.29166667       0.04166667       0.04166667 </v>
   <v>       0.37500000       0.04166667       0.04166667 </v>
   <v>       0.45833333       0.04166667       0.04166667 </v>
   <v>      -0.04166667       0.04166667       0.04166667 </v>
   <v>       0.12500000       0.12500000       0.04166667 </v>
   <v>       0.20833333       0.12500000       0.04166667 </v>
   <v>       0.29166667       0.12500000       0.04166667 </v>
   <v>       0.37500000       0.12500000       0.04166667 </v>
   <v>       0.45833333       0.12500000       0.04166667 </v>
   <v>      -0.45833333       0.12500000       0.04166667 </v>
   <v>      -0.37500000       0.12500000       0.04166667 </v>
   <v>      -0.29166667       0.12500000       0.04166667 </v>
   <v>      -0.20833333       0.12500000       0.04166667 </v>
   <v>      -0.12500000       0.12500000       0.04166667 </v>
   <v>      -0.04166667       0.12500000       0.04166667 </v>
   <v>       0.20833333       0.20833333       0.04166667 </v>
   <v>       0.29166667       0.20833333       0.04166667 </v>
   <v>       0.37500000       0.20833333       0.04166667 </v>
   <v>       0.45833333       0.20833333       0.04166667 </v>
   <v>      -0.45833333       0.20833333       0.04166667 </v>
   <v>      -0.37500000       0.20833333       0.04166667 </v>
   <v>      -0.29166667       0.20833333       0.04166667 </v>
   <v>      -0.20833333       0.20833333       0.04166667 </v>
   <v>      -0.12500000       0.20833333       0.04166667 </v>
   <v>      -0.04166667       0.20833333       0.04166667 </v>
   <v>       0.29166667       0.29166667       0.04166667 </v>
   <v>       0.37500000       0.29166667       0.04166667 </v>
   <v>       0.45833333       0.29166667       0.04166667 </v>
   <v>      -0.45833333       0.29166667       0.04166667 </v>
   <v>      -0.37500000       0.29166667       0.04166667 </v>
   <v>      -0.29166667       0.29166667       0.04166667 </v>
   <v>      -0.20833333       0.29166667       0.04166667 </v>
   <v>      -0.12500000       0.29166667       0.04166667 </v>
   <v>      -0.04166667       0.29166667       0.04166667 </v>
   <v>       0.37500000       0.37500000       0.04166667 </v>
   <v>       0.45833333       0.37500000       0.04166667 </v>
   <v>      -0.45833333       0.37500000       0.04166667 </v>
   <v>      -0.37500000       0.37500000       0.04166667 </v>
   <v>      -0.29166667       0.37500000       0.04166667 </v>
   <v>      -0.20833333       0.37500000       0.04166667 </v>
   <v>      -0.12500000       0.37500000       0.04166667 </v>
   <v>      -0.04166667       0.37500000       0.04166667 </v>
   <v>       0.45833333       0.45833333       0.04166667 </v>
   <v>      -0.45833333       0.45833333       0.04166667 </v>
   <v>      -0.37500000       0.45833333       0.04166667 </v>
   <v>      -0.29166667       0.45833333       0.04166667 </v>
   <v>      -0.20833333       0.45833333       0.04166667 </v>
   <v>      -0.12500000       0.45833333       0.04166667 </v>
   <v>      -0.04166667       0.45833333       0.04166667 </v>
   <v>      -0.45833333      -0.45833333       0.04166667 </v>
   <v>      -0.37500000      -0.45833333       0.04166667 </v>
   <v>      -0.29166667      -0.45833333       0.04166667 </v>
   <v>      -0.20833333      -0.45833333       0.04166667 </v>
   <v>      -0.12500000      -0.45833333       0.04166667 </v>
   <v>      -0.04166667      -0.45833333       0.04166667 </v>
   <v>      -0.37500000      -0.37500000       0.04166667 </v>
   <v>      -0.29166667      -0.37500000       0.04166667 </v>
   <v>      -0.20833333      -0.37500000       0.04166667 </v>
   <v>      -0.12500000      -0.37500000       0.04166667 </v>
   <v>      -0.04166667      -0.37500000       0.04166667 </v>
   <v>      -0.29166667      -0.29166667       0.04166667 </v>
   <v>      -0.20833333      -0.29166667       0.04166667 </v>
   <v>      -0.12500000      -0.29166667       0.04166667 </v>
   <v>      -0.04166667      -0.29166667       0.04166667 </v>
   <v>      -0.20833333      -0.20833333       0.04166667 </v>
   <v>      -0.12500000      -0.20833333       0.04166667 </v>
   <v>      -0.04166667      -0.20833333       0.04166667 </v>
   <v>      -0.12500000      -0.12500000       0.04166667 </v>
   <v>      -0.04166667      -0.12500000       0.04166667 </v>
   <v>      -0.04166667      -0.04166667       0.04166667 </v>
   <v>       0.12500000       0.12500000       0.12500000 </v>
   <v>       0.20833333       0.12500000       0.12500000 </v>
   <v>       0.29166667       0.12500000       0.12500000 </v>
   <v>       0.37500000       0.12500000       0.12500000 </v>
   <v>      -0.12500000       0.12500000       0.12500000 </v>
   <v>       0.20833333       0.20833333       0.12500000 </v>
   <v>       0.29166667       0.20833333       0.12500000 </v>
   <v>       0.37500000       0.20833333       0.12500000 </v>
   <v>       0.45833333       0.20833333       0.12500000 </v>
   <v>      -0.45833333       0.20833333       0.12500000 </v>
   <v>      -0.20833333       0.20833333       0.12500000 </v>
   <v>      -0.12500000       0.20833333       0.12500000 </v>
   <v>       0.29166667       0.29166667       0.12500000 </v>
   <v>       0.37500000       0.29166667       0.12500000 </v>
   <v>       0.45833333       0.29166667       0.12500000 </v>
   <v>      -0.29166667       0.29166667       0.12500000 </v>
   <v>      -0.20833333       0.29166667       0.12500000 </v>
   <v>      -0.12500000       0.29166667       0.12500000 </v>
   <v>       0.37500000       0.37500000       0.12500000 </v>
   <v>      -0.37500000       0.37500000       0.12500000 </v>
   <v>      -0.29166667       0.37500000       0.12500000 </v>
   <v>      -0.20833333       0.37500000       0.12500000 </v>
   <v>      -0.12500000       0.37500000       0.12500000 </v>
   <v>      -0.45833333       0.45833333       0.12500000 </v>
   <v>      -0.37500000       0.45833333       0.12500000 </v>
   <v>      -0.29166667       0.45833333       0.12500000 </v>
   <v>      -0.20833333       0.45833333       0.12500000 </v>
   <v>      -0.12500000       0.45833333       0.12500000 </v>
   <v>      -0.45833333      -0.45833333       0.12500000 </v>
   <v>      -0.37500000      -0.45833333       0.12500000 </v>
   <v>      -0.29166667      -0.45833333       0.12500000 </v>
   <v>      -0.20833333      -0.45833333       0.12500000 </v>
   <v>      -0.12500000      -0.45833333       0.12500000 </v>
   <v>      -0.37500000      -0.37500000       0.12500000 </v>
   <v>      -0.29166667      -0.37500000       0.12500000 </v>
   <v>      -0.20833333      -0.37500000       0.12500000 </v>
   <v>      -0.12500000      -0.37500000       0.12500000 </v>
   <v>      -0.29166667      -0.29166667       0.12500000 </v>
   <v>      -0.20833333      -0.29166667       0.12500000 </v>
   <v>      -0.12500000      -0.29166667       0.12500000 </v>
   <v>      -0.20833333      -0.20833333       0.12500000 </v>
   <v>      -0.12500000      -0.20833333       0.12500000 </v>
   <v>      -0.12500000      -0.12500000       0.12500000 </v>
   <v>       0.20833333       0.20833333       0.20833333 </v>
   <v>       0.29166667       0.20833333       0.20833333 </v>
   <v>      -0.20833333       0.20833333       0.20833333 </v>
   <v>       0.29166667       0.29166667       0.20833333 </v>
   <v>      -0.29166667       0.29166667       0.20833333 </v>
   <v>      -0.20833333       0.29166667       0.20833333 </v>
   <v>      -0.37500000       0.37500000       0.20833333 </v>
   <v>      -0.29166667       0.37500000       0.20833333 </v>
   <v>      -0.20833333       0.37500000       0.20833333 </v>
   <v>      -0.45833333       0.45833333       0.20833333 </v>
   <v>      -0.37500000       0.45833333       0.20833333 </v>
   <v>      -0.29166667       0.45833333       0.20833333 </v>
   <v>      -0.20833333       0.45833333       0.20833333 </v>
   <v>      -0.45833333      -0.45833333       0.20833333 </v>
   <v>      -0.37500000      -0.45833333       0.20833333 </v>
   <v>      -0.29166667      -0.45833333       0.20833333 </v>
   <v>      -0.20833333      -0.45833333       0.20833333 </v>
   <v>      -0.37500000      -0.37500000       0.20833333 </v>
   <v>      -0.29166667      -0.37500000       0.20833333 </v>
   <v>      -0.20833333      -0.37500000       0.20833333 </v>
   <v>      -0.29166667      -0.29166667       0.20833333 </v>
   <v>      -0.20833333      -0.29166667       0.20833333 </v>
   <v>      -0.20833333      -0.20833333       0.20833333 </v>
   <v>      -0.29166667       0.29166667       0.29166667 </v>
   <v>      -0.37500000       0.37500000       0.29166667 </v>
   <v>      -0.29166667       0.37500000       0.29166667 </v>
   <v>      -0.45833333       0.45833333       0.29166667 </v>
   <v>      -0.37500000       0.45833333       0.29166667 </v>
   <v>      -0.29166667       0.45833333       0.29166667 </v>
   <v>      -0.45833333      -0.45833333       0.29166667 </v>
   <v>      -0.37500000      -0.45833333       0.29166667 </v>
   <v>      -0.29166667      -0.45833333       0.29166667 </v>
   <v>      -0.37500000      -0.37500000       0.29166667 </v>
   <v>      -0.29166667      -0.37500000       0.29166667 </v>
   <v>      -0.29166667      -0.29166667       0.29166667 </v>
   <v>      -0.37500000       0.37500000       0.37500000 </v>
   <v>      -0.45833333       0.45833333       0.37500000 </v>
   <v>      -0.37500000       0.45833333       0.37500000 </v>
   <v>      -0.45833333      -0.45833333       0.37500000 </v>
   <v>      -0.37500000      -0.45833333       0.37500000 </v>
   <v>      -0.37500000      -0.37500000       0.37500000 </v>
   <v>      -0.45833333       0.45833333       0.45833333 </v>
   <v>      -0.45833333      -0.45833333       0.45833333 </v>
  </varray>
  <varray name="weights" >
   <v>       0.00462963 </v>
   <v>       0.00925926 </v>
   <v>       0.00925926 </v>
   <v>       0.00925926 </v>
   <v>       0.00925926 </v>
   <v>       0.00462963 </v>
   <v>       0.00231481 </v>
   <v>       0.00462963 </v>
   <v>       0.00925926 </v>
   <v>       0.00925926 </v>
   <v>       0.00925926 </v>
   <v>       0.00925926 </v>
   <v>       0.00925926 </v>
   <v>       0.00925926 </v>
   <v>       0.00925926 </v>
   <v>       0.00462963 </v>
   <v>       0.00462963 </v>
   <v>       0.00462963 </v>
   <v>       0.00462963 </v>
   <v>       0.00925926 </v>
   <v>       0.00925926 </v>
   <v>       0.00925926 </v>
   <v>       0.00925926 </v>
   <v>       0.00925926 </v>
   <v>       0.00462963 </v>
   <v>       0.00462963 </v>
   <v>       0.00925926 </v>
   <v>       0.00462963 </v>
   <v>       0.00462963 </v>
   <v>       0.00925926 </v>
   <v>       0.00925926 </v>
   <v>       0.00925926 </v>
   <v>       0.00462963 </v>
   <v>       0.00462963 </v>
   <v>       0.00925926 </v>
   <v>       0.00925926 </v>
   <v>       0.00462963 </v>
   <v>       0.00462963 </v>
   <v>       0.00925926 </v>
   <v>       0.00462963 </v>
   <v>       0.00462963 </v>
   <v>       0.00925926 </v>
   <v>       0.00925926 </v>
   <v>       0.00925926 </v>
   <v>       0.00462963 </v>
   <v>       0.00231481 </v>
   <v>       0.00462963 </v>
   <v>       0.00925926 </v>
   <v>       0.00925926 </v>
   <v>       0.00925926 </v>
   <v>       0.00925926 </v>
   <v>       0.00462963 </v>
   <v>       0.00462963 </v>
   <v>       0.00925926 </v>
   <v>       0.00925926 </v>
   <v>       0.00925926 </v>
   <v>       0.00925926 </v>
   <v>       0.00462963 </v>
   <v>       0.00462963 </v>
   <v>       0.00925926 </v>
   <v>       0.00925926 </v>
   <v>       0.00925926 </v>
   <v>       0.00462963 </v>
   <v>       0.00462963 </v>
   <v>       0.00925926 </v>
   <v>       0.00925926 </v>
   <v>       0.00462963 </v>
   <v>       0.00462963 </v>
   <v>       0.00925926 </v>
   <v>       0.00462963 </v>
   <v>       0.00462963 </v>
   <v>       0.00462963 </v>
   <v>       0.00115741 </v>
   <v>       0.00462963 </v>
   <v>       0.00925926 </v>
   <v>       0.00925926 </v>
   <v>       0.00462963 </v>
   <v>       0.00231481 </v>
   <v>       0.00462963 </v>
   <v>       0.00925926 </v>
   <v>       0.00925926 </v>
   <v>       0.00925926 </v>
   <v>       0.00462963 </v>
   <v>       0.00462963 </v>
   <v>       0.00462963 </v>
   <v>       0.00462963 </v>
   <v>       0.00925926 </v>
   <v>       0.00462963 </v>
   <v>       0.00462963 </v>
   <v>       0.00925926 </v>
   <v>       0.00462963 </v>
   <v>       0.00231481 </v>
   <v>       0.00462963 </v>
   <v>       0.00925926 </v>
   <v>       0.00925926 </v>
   <v>       0.00462963 </v>
   <v>       0.00462963 </v>
   <v>       0.00925926 </v>
   <v>       0.00925926 </v>
   <v>       0.00925926 </v>
   <v>       0.00462963 </v>
   <v>       0.00462963 </v>
   <v>       0.00925926 </v>
   <v>       0.00925926 </v>
   <v>       0.00925926 </v>
   <v>       0.00462963 </v>
   <v>       0.00462963 </v>
   <v>       0.00925926 </v>
   <v>       0.00925926 </v>
   <v>       0.00462963 </v>
   <v>       0.00462963 </v>
   <v>       0.00925926 </v>
   <v>       0.00462963 </v>
   <v>       0.00462963 </v>
   <v>       0.00462963 </v>
   <v>       0.00115741 </v>
   <v>       0.00462963 </v>
   <v>       0.00462963 </v>
   <v>       0.00231481 </v>
   <v>       0.00231481 </v>
   <v>       0.00462963 </v>
   <v>       0.00462963 </v>
   <v>       0.00462963 </v>
   <v>       0.00925926 </v>
   <v>       0.00462963 </v>
   <v>       0.00462963 </v>
   <v>       0.00925926 </v>
   <v>       0.00925926 </v>
   <v>       0.00462963 </v>
   <v>       0.00462963 </v>
   <v>       0.00925926 </v>
   <v>       0.00925926 </v>
   <v>       0.00462963 </v>
   <v>       0.00462963 </v>
   <v>       0.00925926 </v>
   <v>       0.00462963 </v>
   <v>       0.00462963 </v>
   <v>       0.00462963 </v>
   <v>       0.00115741 </v>
   <v>       0.00231481 </v>
   <v>       0.00462963 </v>
   <v>       0.00462963 </v>
   <v>       0.00462963 </v>
   <v>       0.00925926 </v>
   <v>       0.00462963 </v>
   <v>       0.00462963 </v>
   <v>       0.00925926 </v>
   <v>       0.00462963 </v>
   <v>       0.00462963 </v>
   <v>       0.00462963 </v>
   <v>       0.00115741 </v>
   <v>       0.00231481 </v>
   <v>       0.00462963 </v>
   <v>       0.00462963 </v>
   <v>       0.00462963 </v>
   <v>       0.00462963 </v>
   <v>       0.00115741 </v>
   <v>       0.00231481 </v>
   <v>       0.00115741 </v>
  </varray>
 </kpoints>
 <parameters>
  <separator name="general" >
   <i type="string" name="SYSTEM">unknown system</i>
   <i type="logical" name="LCOMPAT"> F  </i>
  </separator>
  <separator name="electronic" >
   <i type="string" name="PREC">normal</i>
   <i name="ENMAX">    150.00000000</i>
   <i name="ENAUG">    322.06900000</i>
   <i name="EDIFF">      0.00040000</i>
   <i type="int" name="IALGO">    38</i>
   <i type="int" name="IWAVPR">    11</i>
   <i type="int" name="NBANDS">     8</i>
   <i name="NELECT">      8.00000000</i>
   <i type="int" name="TURBO">     0</i>
   <i type="int" name="IRESTART">     0</i>
   <i type="int" name="NREBOOT">     0</i>
   <i type="int" name="NMIN">     0</i>
   <i name="EREF">      0.00000000</i>
   <separator name="electronic smearing" >
    <i type="int" name="ISMEAR">     0</i>
    <i name="SIGMA">      0.20000000</i>
    <i name="KSPACING">      0.50000000</i>
    <i type="logical" name="KGAMMA"> T  </i>
   </separator>
   <separator name="electronic projectors" >
    <i type="logical" name="LREAL"> F  </i>
    <v name="ROPT">      0.00000000</v>
    <i type="int" name="LMAXPAW">  -100</i>
    <i type="int" name="LMAXMIX">     2</i>
    <i type="logical" name="NLSPLINE"> F  </i>
   </separator>
   <separator name="electronic startup" >
    <i type="int" name="ISTART">     1</i>
    <i type="int" name="ICHARG">     0</i>
    <i type="int" name="INIWAV">     1</i>
   </separator>
   <separator name="electronic spin" >
    <i type="int" name="ISPIN">     1</i>
    <i type="logical" name="LNONCOLLINEAR"> F  </i>
    <v name="MAGMOM">      1.00000000      1.00000000</v>
    <i name="NUPDOWN">     -1.00000000</i>
    <i type="logical" name="LSORBIT"> F  </i>
    <v name="SAXIS">      0.00000000      0.00000000      1.00000000</v>
    <i type="logical" name="LSPIRAL"> F  </i>
    <v name="QSPIRAL">      0.00000000      0.00000000      0.00000000</v>
    <i type="logical" name="LZEROZ"> F  </i>
   </separator>
   <separator name="electronic exchange-correlation" >
    <i type="logical" name="LASPH"> F  </i>
    <i type="logical" name="LMETAGGA"> F  </i>
   </separator>
   <separator name="electronic convergence" >
    <i type="int" name="NELM">    60</i>
    <i type="int" name="NELMDL">     0</i>
    <i type="int" name="NELMIN">     2</i>
    <i name="ENINI">    150.00000000</i>
    <separator name="electronic convergence detail" >
     <i type="logical" name="LDIAG"> T  </i>
     <i type="logical" name="LSUBROT"> F  </i>
     <i name="WEIMIN">      0.00100000</i>
     <i name="EBREAK">      0.00001250</i>
     <i name="DEPER">      0.30000000</i>
     <i type="int" name="NRMM">     4</i>
     <i name="TIME">      0.40000000</i>
    </separator>
   </separator>
   <separator name="electronic mixer" >
    <i name="AMIX">      0.40000000</i>
    <i name="BMIX">      1.00000000</i>
    <i name="AMIN">      0.10000000</i>
    <i name="AMIX_MAG">      1.60000000</i>
    <i name="BMIX_MAG">      1.00000000</i>
    <separator name="electronic mixer details" >
     <i type="int" name="IMIX">     4</i>
     <i type="logical" name="MIXFIRST"> F  </i>
     <i type="int" name="MAXMIX">   -45</i>
     <i name="WC">    100.00000000</i>
     <i type="int" name="INIMIX">     1</i>
     <i type="int" name="MIXPRE">     1</i>
     <i type="int" name="MREMOVE">     5</i>
    </separator>
   </separator>
   <separator name="electronic dipolcorrection" >
    <i type="logical" name="LDIPOL"> F  </i>
    <i type="logical" name="LMONO"> F  </i>
    <i type="int" name="IDIPOL">     0</i>
    <i name="EPSILON">      1.00000000</i>
    <v name="DIPOL">   -100.00000000   -100.00000000   -100.00000000</v>
    <i name="EFIELD">      0.00000000</i>
   </separator>
  </separator>
  <separator name="grids" >
   <i type="int" name="NGX">    12</i>
   <i type="int" name="NGY">    12</i>
   <i type="int" name="NGZ">    12</i>
   <i type="int" name="NGXF">    24</i>
   <i type="int" name="NGYF">    24</i>
   <i type="int" name="NGZF">    24</i>
   <i type="logical" name="ADDGRID"> F  </i>
  </separator>
  <separator name="ionic" >
   <i type="int" name="NSW">    15</i>
   <i type="int" name="IBRION">     2</i>
   <i type="int" name="MDALGO">     0</i>
   <i type="int" name="ISIF">     2</i>
   <i name="PSTRESS">      0.00000000</i>
   <i name="EDIFFG">     -0.01000000</i>
   <i type="int" name="NFREE">     1</i>
   <i name="POTIM">      0.50000000</i>
   <i name="SMASS">     -3.00000000</i>
   <i name="SCALEE">      1.00000000</i>
  </separator>
  <separator name="ionic md" >
   <i name="TEBEG">      0.00010000</i>
   <i name="TEEND">      0.00010000</i>
   <i type="int" name="NBLOCK">     1</i>
   <i type="int" name="KBLOCK">    15</i>
   <i type="int" name="NPACO">   256</i>
   <i name="APACO">     16.00000000</i>
  </separator>
  <separator name="symmetry" >
   <i type="int" name="ISYM">     2</i>
   <i name="SYMPREC">      0.00001000</i>
  </separator>
  <separator name="dos" >
   <i type="int" name="LORBIT">     0</i>
   <v name="RWIGS">     -1.00000000</v>
   <i type="int" name="NEDOS">   301</i>
   <i name="EMIN">     10.00000000</i>
   <i name="EMAX">    -10.00000000</i>
   <i name="EFERMI">      0.00000000</i>
  </separator>
  <separator name="writing" >
   <i type="int" name="NWRITE">     2</i>
   <i type="logical" name="LWAVE"> T  </i>
   <i type="logical" name="LDOWNSAMPLE"> F  </i>
   <i type="logical" name="LCHARG"> T  </i>
   <i type="logical" name="LPARD"> F  </i>
   <i type="logical" name="LVTOT"> F  </i>
   <i type="logical" name="LVHAR"> F  </i>
   <i type="logical" name="LELF"> F  </i>
   <i type="logical" name="LOPTICS"> F  </i>
   <v name="STM">      0.00000000      0.00000000      0.00000000      0.00000000      0.00000000      0.00000000      0.00000000</v>
  </separator>
  <separator name="performance" >
   <i type="int" name="NPAR">     8</i>
   <i type="int" name="NSIM">     4</i>
   <i type="int" name="NBLK">    -1</i>
   <i type="logical" name="LPLANE"> T  </i>
   <i type="logical" name="LSCALAPACK"> T  </i>
   <i type="logical" name="LSCAAWARE"> F  </i>
   <i type="logical" name="LSCALU"> F  </i>
   <i type="logical" name="LASYNC"> F  </i>
   <i type="logical" name="LORBITALREAL"> F  </i>
  </separator>
  <separator name="miscellaneous" >
   <i type="int" name="IDIOT">     3</i>
   <i type="int" name="ISPECIAL">     0</i>
   <i type="logical" name="LMUSIC"> F  </i>
   <v name="POMASS">     28.08500000</v>
   <v name="DARWINR">      0.00000000</v>
   <v name="DARWINV">      1.00000000</v>
   <i type="logical" name="LCORR"> T  </i>
  </separator>
  <i type="logical" name="GGA_COMPAT"> T  </i>
  <i type="logical" name="LBERRY"> F  </i>
  <i type="int" name="ICORELEVEL">     0</i>
  <i type="logical" name="LDAU"> F  </i>
  <i type="int" name="I_CONSTRAINED_M">     0</i>
  <separator name="electronic exchange-correlation" >
   <i type="string" name="GGA">--</i>
   <i type="int" name="VOSKOWN">     0</i>
   <i type="logical" name="LHFCALC"> F  </i>
   <i type="string" name="PRECFOCK"></i>
   <i type="logical" name="LSYMGRAD"> F  </i>
   <i type="logical" name="LHFONE"> F  </i>
   <i type="logical" name="LRHFCALC"> F  </i>
   <i type="logical" name="LTHOMAS"> F  </i>
   <i type="logical" name="LMODELHF"> F  </i>
   <i name="ENCUT4O">     -1.00000000</i>
   <i type="int" name="EXXOEP">     0</i>
   <i type="int" name="FOURORBIT">     0</i>
   <i name="AEXX">      0.00000000</i>
   <i name="HFALPHA">      0.00000000</i>
   <i name="MCALPHA">      0.00000000</i>
   <i name="ALDAX">      1.00000000</i>
   <i name="AGGAX">      1.00000000</i>
   <i name="ALDAC">      1.00000000</i>
   <i name="AGGAC">      1.00000000</i>
   <i type="int" name="NKREDX">     1</i>
   <i type="int" name="NKREDY">     1</i>
   <i type="int" name="NKREDZ">     1</i>
   <i type="logical" name="SHIFTRED"> F  </i>
   <i type="logical" name="ODDONLY"> F  </i>
   <i type="logical" name="EVENONLY"> F  </i>
   <i type="int" name="LMAXFOCK">     0</i>
   <i type="int" name="NMAXFOCKAE">     0</i>
   <i type="logical" name="LFOCKAEDFT"> F  </i>
   <i name="HFSCREEN">      0.00000000</i>
   <i name="HFSCREENC">      0.00000000</i>
   <i type="int" name="NBANDSGWLOW">     0</i>
  </separator>
  <separator name="vdW DFT" >
   <i type="logical" name="LUSE_VDW"> F  </i>
   <i name="Zab_VDW">     -0.84910000</i>
   <i name="PARAM1">      0.12340000</i>
   <i name="PARAM2">      1.00000000</i>
   <i name="PARAM3">      0.00000000</i>
  </separator>
  <separator name="model GW" >
   <i type="int" name="MODEL_GW">     0</i>
   <i name="MODEL_EPS0">      9.17662200</i>
   <i name="MODEL_ALPHA">      1.00000000</i>
  </separator>
  <separator name="linear response parameters" >
   <i type="logical" name="LEPSILON"> F  </i>
   <i type="logical" name="LRPA"> F  </i>
   <i type="logical" name="LNABLA"> F  </i>
   <i type="logical" name="LVEL"> F  </i>
   <i type="int" name="KINTER">     0</i>
   <i name="CSHIFT">      0.10000000</i>
   <i name="OMEGAMAX">     -1.00000000</i>
   <i name="DEG_THRESHOLD">      0.00200000</i>
   <i name="RTIME">     -0.10000000</i>
   <i name="WPLASMAI">      0.00000000</i>
   <v name="DFIELD">      0.00000000      0.00000000      0.00000000</v>
   <v name="WPLASMA">      0.00000000      0.00000000      0.00000000      0.00000000      0.00000000      0.00000000      0.00000000      0.00000000      0.00000000</v>
  </separator>
  <separator name="orbital magnetization" >
   <i type="logical" name="NUCIND"> F  </i>
   <v name="MAGPOS">      0.00000000      0.00000000      0.00000000</v>
   <i type="logical" name="LNICSALL"> T  </i>
   <i type="logical" name="ORBITALMAG"> F  </i>
   <i type="logical" name="LMAGBLOCH"> F  </i>
   <i type="logical" name="LCHIMAG"> F  </i>
   <i type="logical" name="LGAUGE"> T  </i>
   <i type="int" name="MAGATOM">     0</i>
   <v name="MAGDIPOL">      0.00000000      0.00000000      0.00000000</v>
   <v name="AVECCONST">      0.00000000      0.00000000      0.00000000</v>
  </separator>
  <separator name="response functions" >
   <i type="logical" name="LADDER"> F  </i>
   <i type="logical" name="LRPAFORCE"> F  </i>
   <i type="logical" name="LFXC"> F  </i>
   <i type="logical" name="LHARTREE"> T  </i>
   <i type="int" name="IBSE">     0</i>
   <v type="int" name="KPOINT">    -1     0     0     0</v>
   <i type="logical" name="LTCTE"> F  </i>
   <i type="logical" name="LTETE"> F  </i>
   <i type="logical" name="LTRIPLET"> F  </i>
   <i type="logical" name="LFXCEPS"> F  </i>
   <i type="logical" name="LFXHEG"> F  </i>
   <i type="int" name="NATURALO">     2</i>
   <i type="logical" name="L2ORDER"> F  </i>
   <i type="logical" name="LMP2LT"> F  </i>
   <i type="logical" name="LUSEW"> F  </i>
   <i name="ENCUTGW">     -2.00000000</i>
   <i name="ENCUTGWSOFT">     -2.00000000</i>
   <i name="ENCUTLF">     -1.00000000</i>
   <i type="int" name="LMAXMP2">    -1</i>
   <i name="SCISSOR">      0.00000000</i>
   <i type="int" name="NOMEGA">     0</i>
   <i type="int" name="NOMEGAR">     0</i>
   <i type="int" name="NBANDSGW">    -1</i>
   <i type="int" name="NBANDSO">    -1</i>
   <i type="int" name="NBANDSV">    -1</i>
   <i type="int" name="NELM">     1</i>
   <i type="int" name="NELMHF">     1</i>
   <i type="int" name="DIM">     3</i>
   <i type="int" name="ANTIRES">     0</i>
   <i name="OMEGAMAX">    -30.00000000</i>
   <i name="OMEGAMIN">    -30.00000000</i>
   <i name="OMEGATL">   -200.00000000</i>
   <i type="int" name="OMEGAGRID">   140</i>
   <i name="CSHIFT">     -0.10000000</i>
   <i type="logical" name="SELFENERGY"> F  </i>
   <i type="logical" name="LSPECTRAL"> F  </i>
   <i type="logical" name="LSPECTRALGW"> F  </i>
   <i type="logical" name="LSINGLES"> F  </i>
   <i type="logical" name="LFERMIGW"> F  </i>
   <i type="logical" name="ODDONLYGW"> F  </i>
   <i type="logical" name="EVENONLYGW"> F  </i>
   <i type="int" name="NKREDLFX">     1</i>
   <i type="int" name="NKREDLFY">     1</i>
   <i type="int" name="NKREDLFZ">     1</i>
   <i type="int" name="MAXMEM">  2800</i>
   <i type="int" name="TELESCOPE">     0</i>
   <i type="int" name="TAUPAR">     1</i>
   <i type="int" name="OMEGAPAR">    -1</i>
   <i name="LAMBDA">      1.00000000</i>
  </separator>
  <separator name="External order field" >
   <i name="OFIELD_KAPPA">      0.00000000</i>
   <v name="OFIELD_K">      0.00000000      0.00000000      0.00000000</v>
   <i name="OFIELD_Q6_NEAR">      0.00000000</i>
   <i name="OFIELD_Q6_FAR">      0.00000000</i>
   <i name="OFIELD_A">      0.00000000</i>
  </separator>
 </parameters>
 <atominfo>
  <atoms>       2 </atoms>
  <types>       1 </types>
  <array name="atoms" >
   <dimension dim="1">ion</dimension>
   <field type="string">element</field>
   <field type="int">atomtype</field>
   <set>
    <rc><c>Si</c><c>   1</c></rc>
    <rc><c>Si</c><c>   1</c></rc>
   </set>
  </array>
  <array name="atomtypes" >
   <dimension dim="1">type</dimension>
   <field type="int">atomspertype</field>
   <field type="string">element</field>
   <field>mass</field>
   <field>valence</field>
   <field type="string">pseudopotential</field>
   <set>
    <rc><c>   2</c><c>Si</c><c>     28.08500000</c><c>      4.00000000</c><c> PAW_PBE Si 05Jan2001                   </c></rc>
   </set>
  </array>
 </atominfo>
 <structure name="initialpos" >
  <crystal>
   <varray name="basis" >
    <v>      -2.45000000       2.45000000       1.27400000 </v>
    <v>       2.45000000      -2.45000000       1.27400000 </v>
    <v>       2.45000000       2.45000000      -1.27400000 </v>
   </varray>
   <i name="volume">     30.58874000 </i>
   <varray name="rec_basis" >
    <v>       0.00000000       0.20408163       0.39246468 </v>
    <v>       0.20408163       0.00000000       0.39246468 </v>
    <v>       0.20408163       0.20408163      -0.00000000 </v>
   </varray>
  </crystal>
  <varray name="positions" >
   <v>       0.25000000       0.75000000       0.50000000 </v>
   <v>       0.00000000       0.00000000       0.00000000 </v>
  </varray>
 </structure>
 <calculation>
  <scstep>
   <time name="dav">    0.62    0.64</time>
   <time name="total">    0.67    0.75</time>
   <energy>
    <i name="alphaZ">      4.40202223 </i>
    <i name="ewald">   -265.18101312 </i>
    <i name="hartreedc">     -2.50793011 </i>
    <i name="XCdc">    -17.53801394 </i>
    <i name="pawpsdc">     72.34748493 </i>
    <i name="pawaedc">    -37.27330369 </i>
    <i name="eentropy">     -0.01388339 </i>
    <i name="bandstr">     29.55046630 </i>
    <i name="atom">    206.09183643 </i>
    <i name="e_fr_energy">    -10.12233436 </i>
    <i name="e_wo_entrp">    -10.10845097 </i>
    <i name="e_0_energy">    -10.11539266 </i>
   </energy>
  </scstep>
  <scstep>
   <time name="dav">    0.60    0.60</time>
   <time name="total">    0.62    0.64</time>
   <energy>
    <i name="alphaZ">      4.40202223 </i>
    <i name="ewald">   -265.18101312 </i>
    <i name="hartreedc">     -2.50803945 </i>
    <i name="XCdc">    -17.53798026 </i>
    <i name="pawpsdc">     72.34777245 </i>
    <i name="pawaedc">    -37.27358627 </i>
    <i name="eentropy">     -0.01388338 </i>
    <i name="bandstr">     29.55053698 </i>
    <i name="atom">    206.09183643 </i>
    <i name="e_fr_energy">    -10.12233438 </i>
    <i name="e_wo_entrp">    -10.10845100 </i>
    <i name="e_0_energy">    -10.11539269 </i>
   </energy>
  </scstep>
  <structure>
   <crystal>
    <varray name="basis" >
     <v>      -2.45000000       2.45000000       1.27400000 </v>
     <v>       2.45000000      -2.45000000       1.27400000 </v>
     <v>       2.45000000       2.45000000      -1.27400000 </v>
    </varray>
    <i name="volume">     30.58874000 </i>
    <varray name="rec_basis" >
     <v>       0.00000000       0.20408163       0.39246468 </v>
     <v>       0.20408163       0.00000000       0.39246468 </v>
     <v>       0.20408163       0.20408163      -0.00000000 </v>
    </varray>
   </crystal>
   <varray name="positions" >
    <v>       0.25000000       0.75000000       0.50000000 </v>
    <v>       0.00000000       0.00000000       0.00000000 </v>
   </varray>
  </structure>
  <varray name="forces" >
   <v>       0.00000000       0.00000000       0.00000000 </v>
   <v>      -0.00000000      -0.00000000      -0.00000000 </v>
  </varray>
  <varray name="stress" >
   <v>     -21.58794264       0.00000000       0.00000000 </v>
   <v>      -0.00000000     -21.58794264       0.00000000 </v>
   <v>       0.00000000       0.00000000      62.58475834 </v>
  </varray>
  <energy>
   <i name="e_fr_energy">    -10.12233438 </i>
   <i name="e_wo_entrp">    -10.11539269 </i>
   <i name="e_0_energy">     -0.01388338 </i>
  </energy>
  <time name="totalsc">    2.16    5.18</time>
  <eigenvalues>
   <array>
    <dimension dim="1">band</dimension>
    <dimension dim="2">kpoint</dimension>
    <dimension dim="3">spin</dimension>
    <field>eigene</field>
    <field>occ</field>
    <set>
     <set comment="spin 1">
      <set comment="kpoint 1">
       <r>   -4.3779    1.0000 </r>
       <r>    4.9749    1.0000 </r>
       <r>    6.5196    1.0000 </r>
       <r>    7.5246    1.0000 </r>
       <r>   11.3287    0.0000 </r>
       <r>   15.4873    0.0000 </r>
       <r>   16.5767    0.0000 </r>
       <r>   17.3504    0.0000 </r>
      </set>
      <set comment="kpoint 2">
       <r>   -3.7907    1.0000 </r>
       <r>    4.6470    1.0000 </r>
       <r>    6.6884    1.0000 </r>
       <r>    8.6573    0.9995 </r>
       <r>   12.4151    0.0000 </r>
       <r>   13.9602    0.0000 </r>
       <r>   14.2056    0.0000 </r>
       <r>   16.0462    0.0000 </r>
      </set>
      <set comment="kpoint 3">
       <r>   -2.8164    1.0000 </r>
       <r>    4.6427    1.0000 </r>
       <r>    6.8625    1.0000 </r>
       <r>    9.6878    0.0000 </r>
       <r>   11.5240    0.0000 </r>
       <r>   12.1441    0.0000 </r>
       <r>   13.9566    0.0000 </r>
       <r>   14.8019    0.0000 </r>
      </set>
      <set comment="kpoint 4">
       <r>   -1.4624    1.0000 </r>
       <r>    4.9802    1.0000 </r>
       <r>    7.1810    1.0000 </r>
       <r>    7.5758    1.0000 </r>
       <r>   10.1135    0.0000 </r>
       <r>   12.7065    0.0000 </r>
       <r>   13.2094    0.0000 </r>
       <r>   14.1248    0.0000 </r>
      </set>
      <set comment="kpoint 5">
       <r>    0.2586    1.0000 </r>
       <r>    4.7445    1.0000 </r>
       <r>    5.7693    1.0000 </r>
       <r>    7.5648    1.0000 </r>
       <r>    8.7270    0.9974 </r>
       <r>   11.5216    0.0000 </r>
       <r>   13.6934    0.0000 </r>
       <r>   14.4729    0.0000 </r>
      </set>
      <set comment="kpoint 6">
       <r>    2.0852    1.0000 </r>
       <r>    2.6334    1.0000 </r>
       <r>    6.6047    1.0000 </r>
       <r>    6.8497    1.0000 </r>
       <r>    8.6450    0.9996 </r>
       <r>   10.7767    0.0000 </r>
       <r>   13.5662    0.0000 </r>
       <r>   14.6487    0.0000 </r>
      </set>
      <set comment="kpoint 7">
       <r>   -4.5740    1.0000 </r>
       <r>    5.3493    1.0000 </r>
       <r>    6.1351    1.0000 </r>
       <r>    7.2298    1.0000 </r>
       <r>   10.9083    0.0000 </r>
       <r>   15.8946    0.0000 </r>
       <r>   17.4129    0.0000 </r>
       <r>   18.1333    0.0000 </r>
      </set>
      <set comment="kpoint 8">
       <r>   -2.8983    1.0000 </r>
       <r>    4.6426    1.0000 </r>
       <r>    7.7439    1.0000 </r>
       <r>    9.1692    0.3678 </r>
       <r>   11.5946    0.0000 </r>
       <r>   11.7277    0.0000 </r>
       <r>   13.9683    0.0000 </r>
       <r>   15.3288    0.0000 </r>
      </set>
      <set comment="kpoint 9">
       <r>   -1.6247    1.0000 </r>
       <r>    4.9367    1.0000 </r>
       <r>    7.9571    1.0000 </r>
       <r>    8.3449    1.0000 </r>
       <r>    9.7054    0.0000 </r>
       <r>   11.4896    0.0000 </r>
       <r>   13.6937    0.0000 </r>
       <r>   14.3974    0.0000 </r>
      </set>
      <set comment="kpoint 10">
       <r>    0.0198    1.0000 </r>
       <r>    5.3195    1.0000 </r>
       <r>    5.7411    1.0000 </r>
       <r>    7.1122    1.0000 </r>
       <r>    9.5355    0.0017 </r>
       <r>   12.0590    0.0000 </r>
       <r>   13.1092    0.0000 </r>
       <r>   14.0837    0.0000 </r>
      </set>
      <set comment="kpoint 11">
       <r>    1.9685    1.0000 </r>
       <r>    3.0589    1.0000 </r>
       <r>    5.6991    1.0000 </r>
       <r>    6.5359    1.0000 </r>
       <r>    9.5490    0.0013 </r>
       <r>   11.5368    0.0000 </r>
       <r>   12.9402    0.0000 </r>
       <r>   15.3473    0.0000 </r>
      </set>
      <set comment="kpoint 12">
       <r>    0.8157    1.0000 </r>
       <r>    4.2267    1.0000 </r>
       <r>    4.7451    1.0000 </r>
       <r>    7.5440    1.0000 </r>
       <r>    9.0705    0.6408 </r>
       <r>   12.1941    0.0000 </r>
       <r>   13.0984    0.0000 </r>
       <r>   15.3388    0.0000 </r>
      </set>
      <set comment="kpoint 13">
       <r>   -0.9763    1.0000 </r>
       <r>    3.7171    1.0000 </r>
       <r>    7.0302    1.0000 </r>
       <r>    7.6319    1.0000 </r>
       <r>    9.8983    0.0000 </r>
       <r>   12.7542    0.0000 </r>
       <r>   13.3575    0.0000 </r>
       <r>   14.5752    0.0000 </r>
      </set>
      <set comment="kpoint 14">
       <r>   -2.4073    1.0000 </r>
       <r>    3.2845    1.0000 </r>
       <r>    7.1798    1.0000 </r>
       <r>    9.6945    0.0000 </r>
       <r>   11.5419    0.0000 </r>
       <r>   11.7676    0.0000 </r>
       <r>   13.5840    0.0000 </r>
       <r>   15.6626    0.0000 </r>
      </set>
      <set comment="kpoint 15">
       <r>   -3.4612    1.0000 </r>
       <r>    3.2074    1.0000 </r>
       <r>    6.9785    1.0000 </r>
       <r>    9.3119    0.0891 </r>
       <r>   12.8462    0.0000 </r>
       <r>   13.6457    0.0000 </r>
       <r>   14.1123    0.0000 </r>
       <r>   15.4470    0.0000 </r>
      </set>
      <set comment="kpoint 16">
       <r>   -4.1300    1.0000 </r>
       <r>    3.4848    1.0000 </r>
       <r>    6.7514    1.0000 </r>
       <r>    8.2837    1.0000 </r>
       <r>   12.6998    0.0000 </r>
       <r>   14.0214    0.0000 </r>
       <r>   15.5500    0.0000 </r>
       <r>   17.1199    0.0000 </r>
      </set>
      <set comment="kpoint 17">
       <r>   -4.4086    1.0000 </r>
       <r>    4.0669    1.0000 </r>
       <r>    6.1477    1.0000 </r>
       <r>    8.1492    1.0000 </r>
       <r>   11.8549    0.0000 </r>
       <r>   14.3779    0.0000 </r>
       <r>   16.5653    0.0000 </r>
       <r>   19.1480    0.0000 </r>
      </set>
      <set comment="kpoint 18">
       <r>   -4.2952    1.0000 </r>
       <r>    4.6643    1.0000 </r>
       <r>    5.8484    1.0000 </r>
       <r>    8.3959    1.0000 </r>
       <r>   11.7288    0.0000 </r>
       <r>   14.4674    0.0000 </r>
       <r>   16.6895    0.0000 </r>
       <r>   17.5050    0.0000 </r>
      </set>
      <set comment="kpoint 19">
       <r>   -0.0608    1.0000 </r>
       <r>    5.4715    1.0000 </r>
       <r>    6.2689    1.0000 </r>
       <r>    6.3279    1.0000 </r>
       <r>   10.2381    0.0000 </r>
       <r>   12.4436    0.0000 </r>
       <r>   12.8342    0.0000 </r>
       <r>   13.1001    0.0000 </r>
      </set>
      <set comment="kpoint 20">
       <r>    1.8392    1.0000 </r>
       <r>    3.7955    1.0000 </r>
       <r>    4.6934    1.0000 </r>
       <r>    6.4341    1.0000 </r>
       <r>   10.2870    0.0000 </r>
       <r>   11.7482    0.0000 </r>
       <r>   13.1282    0.0000 </r>
       <r>   14.6741    0.0000 </r>
      </set>
      <set comment="kpoint 21">
       <r>    1.5248    1.0000 </r>
       <r>    3.3437    1.0000 </r>
       <r>    4.2858    1.0000 </r>
       <r>    7.5031    1.0000 </r>
       <r>    9.5691    0.0008 </r>
       <r>   11.5094    0.0000 </r>
       <r>   14.0813    0.0000 </r>
       <r>   15.9024    0.0000 </r>
      </set>
      <set comment="kpoint 22">
       <r>   -0.3304    1.0000 </r>
       <r>    2.5095    1.0000 </r>
       <r>    6.7706    1.0000 </r>
       <r>    8.0449    1.0000 </r>
       <r>    9.6960    0.0000 </r>
       <r>   11.7704    0.0000 </r>
       <r>   14.0499    0.0000 </r>
       <r>   15.6056    0.0000 </r>
      </set>
      <set comment="kpoint 23">
       <r>   -1.8364    1.0000 </r>
       <r>    1.9899    1.0000 </r>
       <r>    7.6739    1.0000 </r>
       <r>    9.5153    0.0027 </r>
       <r>   10.9238    0.0000 </r>
       <r>   12.1414    0.0000 </r>
       <r>   12.8124    0.0000 </r>
       <r>   15.4884    0.0000 </r>
      </set>
      <set comment="kpoint 24">
       <r>   -2.9686    1.0000 </r>
       <r>    1.8353    1.0000 </r>
       <r>    7.4326    1.0000 </r>
       <r>    9.9017    0.0000 </r>
       <r>   11.7985    0.0000 </r>
       <r>   13.1764    0.0000 </r>
       <r>   14.5035    0.0000 </r>
       <r>   15.0068    0.0000 </r>
      </set>
      <set comment="kpoint 25">
       <r>   -3.7177    1.0000 </r>
       <r>    2.0499    1.0000 </r>
       <r>    7.1376    1.0000 </r>
       <r>    8.8968    0.9440 </r>
       <r>   12.6170    0.0000 </r>
       <r>   14.3798    0.0000 </r>
       <r>   14.5616    0.0000 </r>
       <r>   16.8256    0.0000 </r>
      </set>
      <set comment="kpoint 26">
       <r>   -4.0783    1.0000 </r>
       <r>    2.6165    1.0000 </r>
       <r>    6.4425    1.0000 </r>
       <r>    8.8287    0.9808 </r>
       <r>   12.8940    0.0000 </r>
       <r>   13.5135    0.0000 </r>
       <r>   15.3206    0.0000 </r>
       <r>   19.2235    0.0000 </r>
      </set>
      <set comment="kpoint 27">
       <r>   -4.0476    1.0000 </r>
       <r>    3.4832    1.0000 </r>
       <r>    5.7829    1.0000 </r>
       <r>    9.3041    0.0983 </r>
       <r>   12.9147    0.0000 </r>
       <r>   13.0375    0.0000 </r>
       <r>   16.0787    0.0000 </r>
       <r>   17.2005    0.0000 </r>
      </set>
      <set comment="kpoint 28">
       <r>   -3.6260    1.0000 </r>
       <r>    4.3432    1.0000 </r>
       <r>    5.7382    1.0000 </r>
       <r>    9.7855    0.0000 </r>
       <r>   13.0779    0.0000 </r>
       <r>   13.0982    0.0000 </r>
       <r>   13.7117    0.0000 </r>
       <r>   15.9040    0.0000 </r>
      </set>
      <set comment="kpoint 29">
       <r>    2.3435    1.0000 </r>
       <r>    2.4110    1.0000 </r>
       <r>    4.1838    1.0000 </r>
       <r>    7.4799    1.0000 </r>
       <r>    9.9748    0.0000 </r>
       <r>   10.9486    0.0000 </r>
       <r>   15.3005    0.0000 </r>
       <r>   15.3939    0.0000 </r>
      </set>
      <set comment="kpoint 30">
       <r>    0.4705    1.0000 </r>
       <r>    1.4212    1.0000 </r>
       <r>    6.6322    1.0000 </r>
       <r>    8.4096    1.0000 </r>
       <r>    9.6010    0.0003 </r>
       <r>   11.0915    0.0000 </r>
       <r>   14.6829    0.0000 </r>
       <r>   15.8480    0.0000 </r>
      </set>
      <set comment="kpoint 31">
       <r>   -1.1062    1.0000 </r>
       <r>    0.8144    1.0000 </r>
       <r>    8.2877    1.0000 </r>
       <r>    9.3091    0.0923 </r>
       <r>   10.1989    0.0000 </r>
       <r>   12.2260    0.0000 </r>
       <r>   12.8834    0.0000 </r>
       <r>   14.6584    0.0000 </r>
      </set>
      <set comment="kpoint 32">
       <r>   -2.3143    1.0000 </r>
       <r>    0.5819    1.0000 </r>
       <r>    8.0400    1.0000 </r>
       <r>   10.4519    0.0000 </r>
       <r>   10.7943    0.0000 </r>
       <r>   12.6891    0.0000 </r>
       <r>   14.1753    0.0000 </r>
       <r>   14.2656    0.0000 </r>
      </set>
      <set comment="kpoint 33">
       <r>   -3.1425    1.0000 </r>
       <r>    0.7250    1.0000 </r>
       <r>    7.6769    1.0000 </r>
       <r>    9.5412    0.0015 </r>
       <r>   11.3486    0.0000 </r>
       <r>   13.2165    0.0000 </r>
       <r>   16.1813    0.0000 </r>
       <r>   16.5869    0.0000 </r>
      </set>
      <set comment="kpoint 34">
       <r>   -3.5842    1.0000 </r>
       <r>    1.2377    1.0000 </r>
       <r>    6.9062    1.0000 </r>
       <r>    9.4538    0.0094 </r>
       <r>   11.5373    0.0000 </r>
       <r>   14.0898    0.0000 </r>
       <r>   15.5502    0.0000 </r>
       <r>   18.9900    0.0000 </r>
      </set>
      <set comment="kpoint 35">
       <r>   -3.6359    1.0000 </r>
       <r>    2.1023    1.0000 </r>
       <r>    6.1186    1.0000 </r>
       <r>    9.9901    0.0000 </r>
       <r>   11.6257    0.0000 </r>
       <r>   14.6456    0.0000 </r>
       <r>   15.2692    0.0000 </r>
       <r>   16.6506    0.0000 </r>
      </set>
      <set comment="kpoint 36">
       <r>   -3.2973    1.0000 </r>
       <r>    3.2576    1.0000 </r>
       <r>    5.6626    1.0000 </r>
       <r>   10.5882    0.0000 </r>
       <r>   11.8650    0.0000 </r>
       <r>   13.2308    0.0000 </r>
       <r>   14.4269    0.0000 </r>
       <r>   15.8238    0.0000 </r>
      </set>
      <set comment="kpoint 37">
       <r>   -2.5711    1.0000 </r>
       <r>    4.3916    1.0000 </r>
       <r>    5.8936    1.0000 </r>
       <r>    9.6518    0.0001 </r>
       <r>   11.8672    0.0000 </r>
       <r>   12.3724    0.0000 </r>
       <r>   14.1456    0.0000 </r>
       <r>   14.3555    0.0000 </r>
      </set>
      <set comment="kpoint 38">
       <r>   -0.2226    1.0000 </r>
       <r>   -0.2179    1.0000 </r>
       <r>    8.9049    0.9372 </r>
       <r>    8.9565    0.8784 </r>
       <r>    9.8080    0.0000 </r>
       <r>   12.1189    0.0000 </r>
       <r>   13.3588    0.0000 </r>
       <r>   14.0593    0.0000 </r>
      </set>
      <set comment="kpoint 39">
       <r>   -1.5012    1.0000 </r>
       <r>   -0.5338    1.0000 </r>
       <r>    8.7895    0.9906 </r>
       <r>    9.6743    0.0000 </r>
       <r>   11.2329    0.0000 </r>
       <r>   12.1183    0.0000 </r>
       <r>   13.7470    0.0000 </r>
       <r>   14.1046    0.0000 </r>
      </set>
      <set comment="kpoint 40">
       <r>   -2.4066    1.0000 </r>
       <r>   -0.4672    1.0000 </r>
       <r>    8.3739    1.0000 </r>
       <r>   10.1925    0.0000 </r>
       <r>   10.3082    0.0000 </r>
       <r>   12.1313    0.0000 </r>
       <r>   16.4134    0.0000 </r>
       <r>   16.4321    0.0000 </r>
      </set>
      <set comment="kpoint 41">
       <r>   -2.9281    1.0000 </r>
       <r>   -0.0225    1.0000 </r>
       <r>    7.5266    1.0000 </r>
       <r>   10.1447    0.0000 </r>
       <r>   10.3148    0.0000 </r>
       <r>   12.9339    0.0000 </r>
       <r>   17.6748    0.0000 </r>
       <r>   18.8424    0.0000 </r>
      </set>
      <set comment="kpoint 42">
       <r>   -3.0613    1.0000 </r>
       <r>    0.7934    1.0000 </r>
       <r>    6.6495    1.0000 </r>
       <r>   10.3417    0.0000 </r>
       <r>   10.6645    0.0000 </r>
       <r>   14.1748    0.0000 </r>
       <r>   16.0013    0.0000 </r>
       <r>   16.8507    0.0000 </r>
      </set>
      <set comment="kpoint 43">
       <r>   -2.8058    1.0000 </r>
       <r>    1.9561    1.0000 </r>
       <r>    6.0458    1.0000 </r>
       <r>   10.5097    0.0000 </r>
       <r>   11.1855    0.0000 </r>
       <r>   12.9935    0.0000 </r>
       <r>   15.1948    0.0000 </r>
       <r>   16.4421    0.0000 </r>
      </set>
      <set comment="kpoint 44">
       <r>   -2.1633    1.0000 </r>
       <r>    3.3991    1.0000 </r>
       <r>    5.8481    1.0000 </r>
       <r>    9.2979    0.1061 </r>
       <r>   10.9917    0.0000 </r>
       <r>   13.0255    0.0000 </r>
       <r>   13.7411    0.0000 </r>
       <r>   15.5008    0.0000 </r>
      </set>
      <set comment="kpoint 45">
       <r>   -1.1389    1.0000 </r>
       <r>    4.7849    1.0000 </r>
       <r>    6.3446    1.0000 </r>
       <r>    6.9763    1.0000 </r>
       <r>   10.4079    0.0000 </r>
       <r>   12.9750    0.0000 </r>
       <r>   13.0698    0.0000 </r>
       <r>   14.2611    0.0000 </r>
      </set>
      <set comment="kpoint 46">
       <r>   -1.5133    1.0000 </r>
       <r>   -1.5133    1.0000 </r>
       <r>    9.2161    0.2518 </r>
       <r>    9.2161    0.2518 </r>
       <r>   11.1501    0.0000 </r>
       <r>   11.1501    0.0000 </r>
       <r>   16.3863    0.0000 </r>
       <r>   16.3863    0.0000 </r>
      </set>
      <set comment="kpoint 47">
       <r>   -2.1127    1.0000 </r>
       <r>   -1.1422    1.0000 </r>
       <r>    8.3043    1.0000 </r>
       <r>    9.2377    0.2056 </r>
       <r>   10.9548    0.0000 </r>
       <r>   11.8846    0.0000 </r>
       <r>   18.6773    0.0000 </r>
       <r>   18.7333    0.0000 </r>
      </set>
      <set comment="kpoint 48">
       <r>   -2.3265    1.0000 </r>
       <r>   -0.3921    1.0000 </r>
       <r>    7.3435    1.0000 </r>
       <r>    9.1980    0.2942 </r>
       <r>   11.3943    0.0000 </r>
       <r>   13.1807    0.0000 </r>
       <r>   15.8530    0.0000 </r>
       <r>   17.2244    0.0000 </r>
      </set>
      <set comment="kpoint 49">
       <r>   -2.1535    1.0000 </r>
       <r>    0.7250    1.0000 </r>
       <r>    6.6399    1.0000 </r>
       <r>    9.3673    0.0411 </r>
       <r>   11.4221    0.0000 </r>
       <r>   13.1012    0.0000 </r>
       <r>   15.0678    0.0000 </r>
       <r>   15.5146    0.0000 </r>
      </set>
      <set comment="kpoint 50">
       <r>   -1.5949    1.0000 </r>
       <r>    2.1825    1.0000 </r>
       <r>    6.2822    1.0000 </r>
       <r>    8.9532    0.8829 </r>
       <r>    9.9076    0.0000 </r>
       <r>   13.1866    0.0000 </r>
       <r>   13.9215    0.0000 </r>
       <r>   16.5277    0.0000 </r>
      </set>
      <set comment="kpoint 51">
       <r>   -0.6555    1.0000 </r>
       <r>    3.8945    1.0000 </r>
       <r>    6.2802    1.0000 </r>
       <r>    6.6031    1.0000 </r>
       <r>   10.0578    0.0000 </r>
       <r>   12.1160    0.0000 </r>
       <r>   13.8102    0.0000 </r>
       <r>   15.3042    0.0000 </r>
      </set>
      <set comment="kpoint 52">
       <r>    0.6545    1.0000 </r>
       <r>    4.2200    1.0000 </r>
       <r>    5.6678    1.0000 </r>
       <r>    7.0452    1.0000 </r>
       <r>    8.9711    0.8563 </r>
       <r>   11.5186    0.0000 </r>
       <r>   12.6512    0.0000 </r>
       <r>   15.5442    0.0000 </r>
      </set>
      <set comment="kpoint 53">
       <r>   -1.4359    1.0000 </r>
       <r>   -1.4345    1.0000 </r>
       <r>    8.1862    1.0000 </r>
       <r>    8.2082    1.0000 </r>
       <r>   12.1387    0.0000 </r>
       <r>   12.3378    0.0000 </r>
       <r>   15.7827    0.0000 </r>
       <r>   17.2080    0.0000 </r>
      </set>
      <set comment="kpoint 54">
       <r>   -1.3438    1.0000 </r>
       <r>   -0.3808    1.0000 </r>
       <r>    7.4050    1.0000 </r>
       <r>    8.3170    1.0000 </r>
       <r>   11.4989    0.0000 </r>
       <r>   13.5060    0.0000 </r>
       <r>   14.7012    0.0000 </r>
       <r>   14.9711    0.0000 </r>
      </set>
      <set comment="kpoint 55">
       <r>   -0.8685    1.0000 </r>
       <r>    1.0342    1.0000 </r>
       <r>    6.9302    1.0000 </r>
       <r>    8.5266    1.0000 </r>
       <r>    9.0775    0.6220 </r>
       <r>   13.0193    0.0000 </r>
       <r>   14.5830    0.0000 </r>
       <r>   16.3626    0.0000 </r>
      </set>
      <set comment="kpoint 56">
       <r>   -0.0138    1.0000 </r>
       <r>    2.7759    1.0000 </r>
       <r>    6.1704    1.0000 </r>
       <r>    6.8966    1.0000 </r>
       <r>    9.2895    0.1174 </r>
       <r>   11.5971    0.0000 </r>
       <r>   14.9338    0.0000 </r>
       <r>   16.1542    0.0000 </r>
      </set>
      <set comment="kpoint 57">
       <r>    1.2040    1.0000 </r>
       <r>    3.8172    1.0000 </r>
       <r>    4.8877    1.0000 </r>
       <r>    7.1076    1.0000 </r>
       <r>    9.0463    0.7025 </r>
       <r>   11.4628    0.0000 </r>
       <r>   12.4139    0.0000 </r>
       <r>   16.5492    0.0000 </r>
      </set>
      <set comment="kpoint 58">
       <r>    1.8096    1.0000 </r>
       <r>    2.9056    1.0000 </r>
       <r>    6.6536    1.0000 </r>
       <r>    7.7405    1.0000 </r>
       <r>    7.8500    1.0000 </r>
       <r>   10.6255    0.0000 </r>
       <r>   12.7391    0.0000 </r>
       <r>   15.4483    0.0000 </r>
      </set>
      <set comment="kpoint 59">
       <r>    0.0063    1.0000 </r>
       <r>    0.0161    1.0000 </r>
       <r>    7.7152    1.0000 </r>
       <r>    7.7280    1.0000 </r>
       <r>    8.8840    0.9535 </r>
       <r>   12.9567    0.0000 </r>
       <r>   15.0834    0.0000 </r>
       <r>   15.8791    0.0000 </r>
      </set>
      <set comment="kpoint 60">
       <r>    0.7795    1.0000 </r>
       <r>    1.7165    1.0000 </r>
       <r>    6.0354    1.0000 </r>
       <r>    7.5510    1.0000 </r>
       <r>    8.4317    1.0000 </r>
       <r>   11.3710    0.0000 </r>
       <r>   15.9733    0.0000 </r>
       <r>   16.7644    0.0000 </r>
      </set>
      <set comment="kpoint 61">
       <r>    1.8979    1.0000 </r>
       <r>    3.4475    1.0000 </r>
       <r>    4.0035    1.0000 </r>
       <r>    7.5464    1.0000 </r>
       <r>    8.8417    0.9761 </r>
       <r>   10.7084    0.0000 </r>
       <r>   13.6366    0.0000 </r>
       <r>   16.4657    0.0000 </r>
      </set>
      <set comment="kpoint 62">
       <r>    1.5245    1.0000 </r>
       <r>    3.4910    1.0000 </r>
       <r>    6.0325    1.0000 </r>
       <r>    7.4640    1.0000 </r>
       <r>    8.5946    0.9999 </r>
       <r>   11.0874    0.0000 </r>
       <r>   11.8339    0.0000 </r>
       <r>   15.5816    0.0000 </r>
      </set>
      <set comment="kpoint 63">
       <r>   -0.1414    1.0000 </r>
       <r>    5.2914    1.0000 </r>
       <r>    6.6458    1.0000 </r>
       <r>    7.7483    1.0000 </r>
       <r>    8.4134    1.0000 </r>
       <r>   11.0698    0.0000 </r>
       <r>   13.0628    0.0000 </r>
       <r>   14.5186    0.0000 </r>
      </set>
      <set comment="kpoint 64">
       <r>    2.6330    1.0000 </r>
       <r>    2.7913    1.0000 </r>
       <r>    3.7218    1.0000 </r>
       <r>    7.8628    1.0000 </r>
       <r>    8.6281    0.9998 </r>
       <r>   10.4100    0.0000 </r>
       <r>   14.7641    0.0000 </r>
       <r>   15.5056    0.0000 </r>
      </set>
      <set comment="kpoint 65">
       <r>    1.3745    1.0000 </r>
       <r>    4.2380    1.0000 </r>
       <r>    5.1127    1.0000 </r>
       <r>    7.4399    1.0000 </r>
       <r>    9.1745    0.3540 </r>
       <r>   10.7087    0.0000 </r>
       <r>   12.5595    0.0000 </r>
       <r>   14.2401    0.0000 </r>
      </set>
      <set comment="kpoint 66">
       <r>   -0.3823    1.0000 </r>
       <r>    5.9521    1.0000 </r>
       <r>    6.8479    1.0000 </r>
       <r>    7.4938    1.0000 </r>
       <r>    8.9220    0.9208 </r>
       <r>   11.3528    0.0000 </r>
       <r>   12.0611    0.0000 </r>
       <r>   13.5031    0.0000 </r>
      </set>
      <set comment="kpoint 67">
       <r>   -1.7876    1.0000 </r>
       <r>    6.0202    1.0000 </r>
       <r>    7.3020    1.0000 </r>
       <r>    8.0452    1.0000 </r>
       <r>   10.1172    0.0000 </r>
       <r>   12.0360    0.0000 </r>
       <r>   12.5716    0.0000 </r>
       <r>   14.3702    0.0000 </r>
      </set>
      <set comment="kpoint 68">
       <r>   -0.4633    1.0000 </r>
       <r>    6.6565    1.0000 </r>
       <r>    6.7424    1.0000 </r>
       <r>    6.8883    1.0000 </r>
       <r>    9.5454    0.0014 </r>
       <r>   11.4349    0.0000 </r>
       <r>   12.2429    0.0000 </r>
       <r>   12.3139    0.0000 </r>
      </set>
      <set comment="kpoint 69">
       <r>   -1.9505    1.0000 </r>
       <r>    6.3143    1.0000 </r>
       <r>    8.0208    1.0000 </r>
       <r>    8.5733    0.9999 </r>
       <r>    9.7816    0.0000 </r>
       <r>   11.0455    0.0000 </r>
       <r>   12.8224    0.0000 </r>
       <r>   13.5982    0.0000 </r>
      </set>
      <set comment="kpoint 70">
       <r>   -3.0625    1.0000 </r>
       <r>    5.7976    1.0000 </r>
       <r>    6.9201    1.0000 </r>
       <r>    9.1954    0.3007 </r>
       <r>   11.6968    0.0000 </r>
       <r>   12.4185    0.0000 </r>
       <r>   12.8533    0.0000 </r>
       <r>   15.0235    0.0000 </r>
      </set>
      <set comment="kpoint 71">
       <r>   -3.1446    1.0000 </r>
       <r>    6.0961    1.0000 </r>
       <r>    7.5362    1.0000 </r>
       <r>    8.5053    1.0000 </r>
       <r>   11.9540    0.0000 </r>
       <r>   12.1730    0.0000 </r>
       <r>   12.6459    0.0000 </r>
       <r>   15.0032    0.0000 </r>
      </set>
      <set comment="kpoint 72">
       <r>   -3.9557    1.0000 </r>
       <r>    5.9170    1.0000 </r>
       <r>    6.6728    1.0000 </r>
       <r>    7.7597    1.0000 </r>
       <r>   11.5295    0.0000 </r>
       <r>   14.4707    0.0000 </r>
       <r>   14.6802    0.0000 </r>
       <r>   16.6835    0.0000 </r>
      </set>
      <set comment="kpoint 73">
       <r>   -4.4607    1.0000 </r>
       <r>    6.3546    1.0000 </r>
       <r>    6.4421    1.0000 </r>
       <r>    6.4421    1.0000 </r>
       <r>   10.8186    0.0000 </r>
       <r>   16.6833    0.0000 </r>
       <r>   17.1023    0.0000 </r>
       <r>   17.3647    0.0000 </r>
      </set>
      <set comment="kpoint 74">
       <r>   -2.4887    1.0000 </r>
       <r>    3.2303    1.0000 </r>
       <r>    8.0819    1.0000 </r>
       <r>    9.6028    0.0003 </r>
       <r>   11.2498    0.0000 </r>
       <r>   11.3457    0.0000 </r>
       <r>   14.4344    0.0000 </r>
       <r>   15.1278    0.0000 </r>
      </set>
      <set comment="kpoint 75">
       <r>   -1.1372    1.0000 </r>
       <r>    3.5999    1.0000 </r>
       <r>    7.6985    1.0000 </r>
       <r>    8.2490    1.0000 </r>
       <r>    9.8313    0.0000 </r>
       <r>   11.9779    0.0000 </r>
       <r>   13.9875    0.0000 </r>
       <r>   14.8537    0.0000 </r>
      </set>
      <set comment="kpoint 76">
       <r>    0.5805    1.0000 </r>
       <r>    4.2788    1.0000 </r>
       <r>    5.1741    1.0000 </r>
       <r>    6.8223    1.0000 </r>
       <r>   10.1618    0.0000 </r>
       <r>   13.0178    0.0000 </r>
       <r>   13.9162    0.0000 </r>
       <r>   14.1613    0.0000 </r>
      </set>
      <set comment="kpoint 77">
       <r>    2.4051    1.0000 </r>
       <r>    2.9329    1.0000 </r>
       <r>    5.3138    1.0000 </r>
       <r>    5.5756    1.0000 </r>
       <r>   10.6007    0.0000 </r>
       <r>   12.3829    0.0000 </r>
       <r>   13.9156    0.0000 </r>
       <r>   14.5477    0.0000 </r>
      </set>
      <set comment="kpoint 78">
       <r>   -4.2435    1.0000 </r>
       <r>    3.7582    1.0000 </r>
       <r>    5.1777    1.0000 </r>
       <r>    9.3678    0.0408 </r>
       <r>   12.5046    0.0000 </r>
       <r>   12.9375    0.0000 </r>
       <r>   17.6893    0.0000 </r>
       <r>   18.2466    0.0000 </r>
      </set>
      <set comment="kpoint 79">
       <r>    0.5012    1.0000 </r>
       <r>    4.2378    1.0000 </r>
       <r>    5.9255    1.0000 </r>
       <r>    5.9649    1.0000 </r>
       <r>   10.9687    0.0000 </r>
       <r>   13.0431    0.0000 </r>
       <r>   13.9893    0.0000 </r>
       <r>   14.0967    0.0000 </r>
      </set>
      <set comment="kpoint 80">
       <r>    2.4367    1.0000 </r>
       <r>    3.5056    1.0000 </r>
       <r>    4.3913    1.0000 </r>
       <r>    5.3485    1.0000 </r>
       <r>   11.4508    0.0000 </r>
       <r>   13.0654    0.0000 </r>
       <r>   13.8389    0.0000 </r>
       <r>   14.7966    0.0000 </r>
      </set>
      <set comment="kpoint 81">
       <r>    1.2961    1.0000 </r>
       <r>    3.1656    1.0000 </r>
       <r>    4.9257    1.0000 </r>
       <r>    6.6373    1.0000 </r>
       <r>   10.8567    0.0000 </r>
       <r>   12.8257    0.0000 </r>
       <r>   14.1846    0.0000 </r>
       <r>   15.0861    0.0000 </r>
      </set>
      <set comment="kpoint 82">
       <r>   -0.4903    1.0000 </r>
       <r>    2.3692    1.0000 </r>
       <r>    7.4647    1.0000 </r>
       <r>    8.1478    1.0000 </r>
       <r>   10.2526    0.0000 </r>
       <r>   12.4823    0.0000 </r>
       <r>   13.0595    0.0000 </r>
       <r>   14.8264    0.0000 </r>
      </set>
      <set comment="kpoint 83">
       <r>   -1.9169    1.0000 </r>
       <r>    1.9219    1.0000 </r>
       <r>    8.5225    1.0000 </r>
       <r>    9.8121    0.0000 </r>
       <r>   11.0327    0.0000 </r>
       <r>   11.2548    0.0000 </r>
       <r>   13.3023    0.0000 </r>
       <r>   14.3865    0.0000 </r>
      </set>
      <set comment="kpoint 84">
       <r>   -3.9140    1.0000 </r>
       <r>    2.6669    1.0000 </r>
       <r>    5.0997    1.0000 </r>
       <r>   10.3224    0.0000 </r>
       <r>   11.4668    0.0000 </r>
       <r>   13.9049    0.0000 </r>
       <r>   16.7897    0.0000 </r>
       <r>   18.6692    0.0000 </r>
      </set>
      <set comment="kpoint 85">
       <r>   -3.8007    1.0000 </r>
       <r>    3.2246    1.0000 </r>
       <r>    4.7728    1.0000 </r>
       <r>   10.6156    0.0000 </r>
       <r>   11.5622    0.0000 </r>
       <r>   13.7590    0.0000 </r>
       <r>   15.8202    0.0000 </r>
       <r>   17.9216    0.0000 </r>
      </set>
      <set comment="kpoint 86">
       <r>    2.1474    1.0000 </r>
       <r>    2.1754    1.0000 </r>
       <r>    4.8457    1.0000 </r>
       <r>    6.5743    1.0000 </r>
       <r>   11.3896    0.0000 </r>
       <r>   12.2059    0.0000 </r>
       <r>   14.6084    0.0000 </r>
       <r>   15.6229    0.0000 </r>
      </set>
      <set comment="kpoint 87">
       <r>    0.3151    1.0000 </r>
       <r>    1.2705    1.0000 </r>
       <r>    7.3393    1.0000 </r>
       <r>    8.0760    1.0000 </r>
       <r>   10.8733    0.0000 </r>
       <r>   11.9360    0.0000 </r>
       <r>   13.2971    0.0000 </r>
       <r>   14.2525    0.0000 </r>
      </set>
      <set comment="kpoint 88">
       <r>   -1.1859    1.0000 </r>
       <r>    0.7403    1.0000 </r>
       <r>    9.0088    0.7873 </r>
       <r>    9.7271    0.0000 </r>
       <r>   11.0039    0.0000 </r>
       <r>   11.4007    0.0000 </r>
       <r>   12.5599    0.0000 </r>
       <r>   13.5095    0.0000 </r>
      </set>
      <set comment="kpoint 89">
       <r>   -3.4209    1.0000 </r>
       <r>    1.3598    1.0000 </r>
       <r>    5.4875    1.0000 </r>
       <r>   10.1077    0.0000 </r>
       <r>   11.0621    0.0000 </r>
       <r>   15.6355    0.0000 </r>
       <r>   15.8276    0.0000 </r>
       <r>   18.6192    0.0000 </r>
      </set>
      <set comment="kpoint 90">
       <r>   -3.3905    1.0000 </r>
       <r>    2.2180    1.0000 </r>
       <r>    4.7234    1.0000 </r>
       <r>   10.1449    0.0000 </r>
       <r>   11.5845    0.0000 </r>
       <r>   15.0864    0.0000 </r>
       <r>   15.5619    0.0000 </r>
       <r>   17.5544    0.0000 </r>
      </set>
      <set comment="kpoint 91">
       <r>   -2.9703    1.0000 </r>
       <r>    3.0629    1.0000 </r>
       <r>    4.6846    1.0000 </r>
       <r>   10.4253    0.0000 </r>
       <r>   11.4267    0.0000 </r>
       <r>   13.3737    0.0000 </r>
       <r>   15.3102    0.0000 </r>
       <r>   16.2394    0.0000 </r>
      </set>
      <set comment="kpoint 92">
       <r>   -0.2981    1.0000 </r>
       <r>   -0.2981    1.0000 </r>
       <r>    9.4422    0.0117 </r>
       <r>    9.4422    0.0117 </r>
       <r>   11.2123    0.0000 </r>
       <r>   11.2124    0.0000 </r>
       <r>   12.7618    0.0000 </r>
       <r>   12.7619    0.0000 </r>
      </set>
      <set comment="kpoint 93">
       <r>   -2.7666    1.0000 </r>
       <r>    0.1225    1.0000 </r>
       <r>    6.0886    1.0000 </r>
       <r>    8.8825    0.9545 </r>
       <r>   11.7964    0.0000 </r>
       <r>   14.5309    0.0000 </r>
       <r>   17.7783    0.0000 </r>
       <r>   18.4375    0.0000 </r>
      </set>
      <set comment="kpoint 94">
       <r>   -2.8184    1.0000 </r>
       <r>    0.9889    1.0000 </r>
       <r>    5.1711    1.0000 </r>
       <r>    8.8518    0.9717 </r>
       <r>   12.3249    0.0000 </r>
       <r>   14.8908    0.0000 </r>
       <r>   16.7038    0.0000 </r>
       <r>   17.2883    0.0000 </r>
      </set>
      <set comment="kpoint 95">
       <r>   -2.4812    1.0000 </r>
       <r>    2.1438    1.0000 </r>
       <r>    4.6857    1.0000 </r>
       <r>    9.1320    0.4703 </r>
       <r>   11.4192    0.0000 </r>
       <r>   13.9687    0.0000 </r>
       <r>   16.1322    0.0000 </r>
       <r>   17.0821    0.0000 </r>
      </set>
      <set comment="kpoint 96">
       <r>   -1.7582    1.0000 </r>
       <r>    3.2747    1.0000 </r>
       <r>    4.9360    1.0000 </r>
       <r>    8.8258    0.9817 </r>
       <r>    9.8066    0.0000 </r>
       <r>   13.8986    0.0000 </r>
       <r>   14.8998    0.0000 </r>
       <r>   15.5453    0.0000 </r>
      </set>
      <set comment="kpoint 97">
       <r>   -1.9542    1.0000 </r>
       <r>   -0.9884    1.0000 </r>
       <r>    6.8609    1.0000 </r>
       <r>    7.7920    1.0000 </r>
       <r>   12.6023    0.0000 </r>
       <r>   13.5136    0.0000 </r>
       <r>   18.2447    0.0000 </r>
       <r>   18.3023    0.0000 </r>
      </set>
      <set comment="kpoint 98">
       <r>   -2.0873    1.0000 </r>
       <r>   -0.1706    1.0000 </r>
       <r>    5.8428    1.0000 </r>
       <r>    7.6950    1.0000 </r>
       <r>   12.9883    0.0000 </r>
       <r>   14.4930    0.0000 </r>
       <r>   16.0331    0.0000 </r>
       <r>   18.1338    0.0000 </r>
      </set>
      <set comment="kpoint 99">
       <r>   -1.8332    1.0000 </r>
       <r>    0.9977    1.0000 </r>
       <r>    5.1987    1.0000 </r>
       <r>    7.9275    1.0000 </r>
       <r>   11.2636    0.0000 </r>
       <r>   14.6478    0.0000 </r>
       <r>   16.0873    0.0000 </r>
       <r>   17.2548    0.0000 </r>
      </set>
      <set comment="kpoint 100">
       <r>   -1.1944    1.0000 </r>
       <r>    2.4437    1.0000 </r>
       <r>    4.9958    1.0000 </r>
       <r>    8.2782    1.0000 </r>
       <r>    8.7845    0.9914 </r>
       <r>   14.1481    0.0000 </r>
       <r>   15.6309    0.0000 </r>
       <r>   16.5921    0.0000 </r>
      </set>
      <set comment="kpoint 101">
       <r>   -0.1767    1.0000 </r>
       <r>    3.8375    1.0000 </r>
       <r>    5.5258    1.0000 </r>
       <r>    6.0954    1.0000 </r>
       <r>    9.2544    0.1737 </r>
       <r>   12.4010    0.0000 </r>
       <r>   13.9064    0.0000 </r>
       <r>   16.6082    0.0000 </r>
      </set>
      <set comment="kpoint 102">
       <r>   -1.2034    1.0000 </r>
       <r>   -1.2008    1.0000 </r>
       <r>    6.6864    1.0000 </r>
       <r>    6.6932    1.0000 </r>
       <r>   13.3976    0.0000 </r>
       <r>   14.1889    0.0000 </r>
       <r>   15.7775    0.0000 </r>
       <r>   18.1478    0.0000 </r>
      </set>
      <set comment="kpoint 103">
       <r>   -1.0304    1.0000 </r>
       <r>   -0.0806    1.0000 </r>
       <r>    5.9401    1.0000 </r>
       <r>    6.8551    1.0000 </r>
       <r>   11.1610    0.0000 </r>
       <r>   15.3432    0.0000 </r>
       <r>   16.0223    0.0000 </r>
       <r>   16.4746    0.0000 </r>
      </set>
      <set comment="kpoint 104">
       <r>   -0.4756    1.0000 </r>
       <r>    1.3830    1.0000 </r>
       <r>    5.5699    1.0000 </r>
       <r>    7.3246    1.0000 </r>
       <r>    8.4109    1.0000 </r>
       <r>   14.0984    0.0000 </r>
       <r>   16.3606    0.0000 </r>
       <r>   17.5941    0.0000 </r>
      </set>
      <set comment="kpoint 105">
       <r>    0.4565    1.0000 </r>
       <r>    3.1048    1.0000 </r>
       <r>    5.5698    1.0000 </r>
       <r>    5.8679    1.0000 </r>
       <r>    8.1955    1.0000 </r>
       <r>   12.4861    0.0000 </r>
       <r>   14.7981    0.0000 </r>
       <r>   17.4399    0.0000 </r>
      </set>
      <set comment="kpoint 106">
       <r>    1.7370    1.0000 </r>
       <r>    3.4557    1.0000 </r>
       <r>    4.9211    1.0000 </r>
       <r>    6.4234    1.0000 </r>
       <r>    8.9049    0.9372 </r>
       <r>   11.2665    0.0000 </r>
       <r>   12.3875    0.0000 </r>
       <r>   17.0552    0.0000 </r>
      </set>
      <set comment="kpoint 107">
       <r>    0.3831    1.0000 </r>
       <r>    0.3969    1.0000 </r>
       <r>    6.3696    1.0000 </r>
       <r>    6.3706    1.0000 </r>
       <r>    8.3212    1.0000 </r>
       <r>   14.0667    0.0000 </r>
       <r>   16.8135    0.0000 </r>
       <r>   17.7382    0.0000 </r>
      </set>
      <set comment="kpoint 108">
       <r>    1.2346    1.0000 </r>
       <r>    2.1398    1.0000 </r>
       <r>    5.5656    1.0000 </r>
       <r>    6.3480    1.0000 </r>
       <r>    7.2029    1.0000 </r>
       <r>   12.4326    0.0000 </r>
       <r>   16.0654    0.0000 </r>
       <r>   17.2603    0.0000 </r>
      </set>
      <set comment="kpoint 109">
       <r>    2.3797    1.0000 </r>
       <r>    3.2490    1.0000 </r>
       <r>    4.2815    1.0000 </r>
       <r>    6.6300    1.0000 </r>
       <r>    8.1477    1.0000 </r>
       <r>   11.1956    0.0000 </r>
       <r>   13.3334    0.0000 </r>
       <r>   16.2353    0.0000 </r>
      </set>
      <set comment="kpoint 110">
       <r>    1.2175    1.0000 </r>
       <r>    4.0865    1.0000 </r>
       <r>    6.1575    1.0000 </r>
       <r>    7.5098    1.0000 </r>
       <r>    8.4799    1.0000 </r>
       <r>   10.9082    0.0000 </r>
       <r>   11.3397    0.0000 </r>
       <r>   14.8550    0.0000 </r>
      </set>
      <set comment="kpoint 111">
       <r>    2.8175    1.0000 </r>
       <r>    3.2990    1.0000 </r>
       <r>    3.6492    1.0000 </r>
       <r>    7.2183    1.0000 </r>
       <r>    7.4087    1.0000 </r>
       <r>   11.1469    0.0000 </r>
       <r>   14.3637    0.0000 </r>
       <r>   15.2130    0.0000 </r>
      </set>
      <set comment="kpoint 112">
       <r>    1.0617    1.0000 </r>
       <r>    4.8114    1.0000 </r>
       <r>    5.6010    1.0000 </r>
       <r>    7.6844    1.0000 </r>
       <r>    8.3410    1.0000 </r>
       <r>   10.5013    0.0000 </r>
       <r>   12.2151    0.0000 </r>
       <r>   13.7038    0.0000 </r>
      </set>
      <set comment="kpoint 113">
       <r>   -0.6243    1.0000 </r>
       <r>    6.5976    1.0000 </r>
       <r>    7.4915    1.0000 </r>
       <r>    8.2498    1.0000 </r>
       <r>    8.2763    1.0000 </r>
       <r>   11.0981    0.0000 </r>
       <r>   11.2550    0.0000 </r>
       <r>   12.7360    0.0000 </r>
      </set>
      <set comment="kpoint 114">
       <r>   -0.7059    1.0000 </r>
       <r>    7.2401    1.0000 </r>
       <r>    7.3044    1.0000 </r>
       <r>    7.9103    1.0000 </r>
       <r>    8.8593    0.9682 </r>
       <r>   10.5768    0.0000 </r>
       <r>   11.7979    0.0000 </r>
       <r>   11.8467    0.0000 </r>
      </set>
      <set comment="kpoint 115">
       <r>   -2.1139    1.0000 </r>
       <r>    7.4730    1.0000 </r>
       <r>    8.0754    1.0000 </r>
       <r>    8.6576    0.9995 </r>
       <r>    9.8031    0.0000 </r>
       <r>   10.5949    0.0000 </r>
       <r>   12.5554    0.0000 </r>
       <r>   12.9835    0.0000 </r>
      </set>
      <set comment="kpoint 116">
       <r>   -3.2268    1.0000 </r>
       <r>    7.4499    1.0000 </r>
       <r>    7.4662    1.0000 </r>
       <r>    7.4663    1.0000 </r>
       <r>   12.0642    0.0000 </r>
       <r>   12.1265    0.0000 </r>
       <r>   12.5055    0.0000 </r>
       <r>   14.7896    0.0000 </r>
      </set>
      <set comment="kpoint 117">
       <r>    1.2197    1.0000 </r>
       <r>    3.0994    1.0000 </r>
       <r>    5.7189    1.0000 </r>
       <r>    5.7388    1.0000 </r>
       <r>   11.7699    0.0000 </r>
       <r>   13.3371    0.0000 </r>
       <r>   14.2426    0.0000 </r>
       <r>   14.5497    0.0000 </r>
      </set>
      <set comment="kpoint 118">
       <r>    3.0311    1.0000 </r>
       <r>    3.4696    1.0000 </r>
       <r>    4.1267    1.0000 </r>
       <r>    4.4933    1.0000 </r>
       <r>   12.5052    0.0000 </r>
       <r>   13.8870    0.0000 </r>
       <r>   14.5212    0.0000 </r>
       <r>   14.6609    0.0000 </r>
      </set>
      <set comment="kpoint 119">
       <r>   -3.5857    1.0000 </r>
       <r>    2.4719    1.0000 </r>
       <r>    4.1122    1.0000 </r>
       <r>    9.9991    0.0000 </r>
       <r>   11.7320    0.0000 </r>
       <r>   14.8690    0.0000 </r>
       <r>   17.7239    0.0000 </r>
       <r>   18.2378    0.0000 </r>
      </set>
      <set comment="kpoint 120">
       <r>    2.0877    1.0000 </r>
       <r>    2.0877    1.0000 </r>
       <r>    5.6559    1.0000 </r>
       <r>    5.6559    1.0000 </r>
       <r>   12.6436    0.0000 </r>
       <r>   12.6437    0.0000 </r>
       <r>   14.4232    0.0000 </r>
       <r>   14.4232    0.0000 </r>
      </set>
      <set comment="kpoint 121">
       <r>   -3.0954    1.0000 </r>
       <r>    1.5473    1.0000 </r>
       <r>    4.1113    1.0000 </r>
       <r>    8.6256    0.9998 </r>
       <r>   12.7684    0.0000 </r>
       <r>   16.4606    0.0000 </r>
       <r>   17.0088    0.0000 </r>
       <r>   18.3690    0.0000 </r>
      </set>
      <set comment="kpoint 122">
       <r>   -2.9827    1.0000 </r>
       <r>    2.0914    1.0000 </r>
       <r>    3.7893    1.0000 </r>
       <r>    8.7223    0.9976 </r>
       <r>   12.8439    0.0000 </r>
       <r>   15.2121    0.0000 </r>
       <r>   16.3198    0.0000 </r>
       <r>   18.6109    0.0000 </r>
      </set>
      <set comment="kpoint 123">
       <r>   -2.4452    1.0000 </r>
       <r>    0.3950    1.0000 </r>
       <r>    4.6260    1.0000 </r>
       <r>    7.3863    1.0000 </r>
       <r>   13.6007    0.0000 </r>
       <r>   16.1430    0.0000 </r>
       <r>   17.8408    0.0000 </r>
       <r>   18.2039    0.0000 </r>
      </set>
      <set comment="kpoint 124">
       <r>   -2.4150    1.0000 </r>
       <r>    1.2516    1.0000 </r>
       <r>    3.8485    1.0000 </r>
       <r>    7.4172    1.0000 </r>
       <r>   13.4803    0.0000 </r>
       <r>   15.3098    0.0000 </r>
       <r>   17.9840    0.0000 </r>
       <r>   18.3218    0.0000 </r>
      </set>
      <set comment="kpoint 125">
       <r>   -1.9969    1.0000 </r>
       <r>    2.0933    1.0000 </r>
       <r>    3.8184    1.0000 </r>
       <r>    7.7883    1.0000 </r>
       <r>   11.1596    0.0000 </r>
       <r>   15.3238    0.0000 </r>
       <r>   17.0339    0.0000 </r>
       <r>   17.6384    0.0000 </r>
      </set>
      <set comment="kpoint 126">
       <r>   -1.6399    1.0000 </r>
       <r>   -0.6872    1.0000 </r>
       <r>    5.3750    1.0000 </r>
       <r>    6.3013    1.0000 </r>
       <r>   14.4113    0.0000 </r>
       <r>   15.2605    0.0000 </r>
       <r>   17.9310    0.0000 </r>
       <r>   18.0110    0.0000 </r>
      </set>
      <set comment="kpoint 127">
       <r>   -1.6915    1.0000 </r>
       <r>    0.1813    1.0000 </r>
       <r>    4.4349    1.0000 </r>
       <r>    6.2597    1.0000 </r>
       <r>   13.6533    0.0000 </r>
       <r>   15.7380    0.0000 </r>
       <r>   17.5336    0.0000 </r>
       <r>   19.0861    0.0000 </r>
      </set>
      <set comment="kpoint 128">
       <r>   -1.3567    1.0000 </r>
       <r>    1.3368    1.0000 </r>
       <r>    3.9454    1.0000 </r>
       <r>    6.5674    1.0000 </r>
       <r>   10.9195    0.0000 </r>
       <r>   16.3902    0.0000 </r>
       <r>   17.1969    0.0000 </r>
       <r>   18.6029    0.0000 </r>
      </set>
      <set comment="kpoint 129">
       <r>   -0.6386    1.0000 </r>
       <r>    2.4691    1.0000 </r>
       <r>    4.2084    1.0000 </r>
       <r>    7.1858    1.0000 </r>
       <r>    8.2596    1.0000 </r>
       <r>   14.9698    0.0000 </r>
       <r>   16.6444    0.0000 </r>
       <r>   17.2507    0.0000 </r>
      </set>
      <set comment="kpoint 130">
       <r>   -0.8218    1.0000 </r>
       <r>   -0.8182    1.0000 </r>
       <r>    5.2584    1.0000 </r>
       <r>    5.2593    1.0000 </r>
       <r>   13.6781    0.0000 </r>
       <r>   16.1354    0.0000 </r>
       <r>   17.0200    0.0000 </r>
       <r>   19.1085    0.0000 </r>
      </set>
      <set comment="kpoint 131">
       <r>   -0.5685    1.0000 </r>
       <r>    0.3500    1.0000 </r>
       <r>    4.6033    1.0000 </r>
       <r>    5.4981    1.0000 </r>
       <r>   10.7932    0.0000 </r>
       <r>   17.1365    0.0000 </r>
       <r>   17.2712    0.0000 </r>
       <r>   18.3444    0.0000 </r>
      </set>
      <set comment="kpoint 132">
       <r>    0.0656    1.0000 </r>
       <r>    1.8006    1.0000 </r>
       <r>    4.4039    1.0000 </r>
       <r>    6.0813    1.0000 </r>
       <r>    8.0155    1.0000 </r>
       <r>   15.2703    0.0000 </r>
       <r>   17.4444    0.0000 </r>
       <r>   18.2494    0.0000 </r>
      </set>
      <set comment="kpoint 133">
       <r>    1.0738    1.0000 </r>
       <r>    3.1985    1.0000 </r>
       <r>    4.9511    1.0000 </r>
       <r>    5.4857    1.0000 </r>
       <r>    7.0655    1.0000 </r>
       <r>   13.3733    0.0000 </r>
       <r>   14.9626    0.0000 </r>
       <r>   17.8991    0.0000 </r>
      </set>
      <set comment="kpoint 134">
       <r>    0.8896    1.0000 </r>
       <r>    0.9093    1.0000 </r>
       <r>    5.1237    1.0000 </r>
       <r>    5.1309    1.0000 </r>
       <r>    7.9369    1.0000 </r>
       <r>   15.3009    0.0000 </r>
       <r>   18.1369    0.0000 </r>
       <r>   18.5401    0.0000 </r>
      </set>
      <set comment="kpoint 135">
       <r>    1.8168    1.0000 </r>
       <r>    2.6260    1.0000 </r>
       <r>    5.1235    1.0000 </r>
       <r>    5.4012    1.0000 </r>
       <r>    6.0727    1.0000 </r>
       <r>   13.6706    0.0000 </r>
       <r>   15.8659    0.0000 </r>
       <r>   17.1908    0.0000 </r>
      </set>
      <set comment="kpoint 136">
       <r>    2.7340    1.0000 </r>
       <r>    3.3404    1.0000 </r>
       <r>    4.4603    1.0000 </r>
       <r>    6.0211    1.0000 </r>
       <r>    7.1971    1.0000 </r>
       <r>   12.0772    0.0000 </r>
       <r>   13.4316    0.0000 </r>
       <r>   15.5207    0.0000 </r>
      </set>
      <set comment="kpoint 137">
       <r>    2.7565    1.0000 </r>
       <r>    3.8705    1.0000 </r>
       <r>    4.0543    1.0000 </r>
       <r>    6.3449    1.0000 </r>
       <r>    6.3936    1.0000 </r>
       <r>   12.3508    0.0000 </r>
       <r>   14.1182    0.0000 </r>
       <r>   14.6735    0.0000 </r>
      </set>
      <set comment="kpoint 138">
       <r>    0.9040    1.0000 </r>
       <r>    5.4502    1.0000 </r>
       <r>    5.8759    1.0000 </r>
       <r>    7.3276    1.0000 </r>
       <r>    7.6892    1.0000 </r>
       <r>   11.1590    0.0000 </r>
       <r>   12.2184    0.0000 </r>
[...]
       <r>    1.9818    1.0000 </r>
       <r>    3.7608    1.0000 </r>
       <r>    4.9786    1.0000 </r>
       <r>    7.7846    1.0000 </r>
       <r>   16.2196    0.0000 </r>
       <r>   17.7619    0.0000 </r>
       <r>   18.9309    0.0000 </r>
      </set>
      <set comment="kpoint 149">
       <r>    1.4630    1.0000 </r>
       <r>    1.4905    1.0000 </r>
       <r>    4.0997    1.0000 </r>
       <r>    4.1043    1.0000 </r>
       <r>    7.7095    1.0000 </r>
       <r>   16.5209    0.0000 </r>
       <r>   18.4592    0.0000 </r>
       <r>   18.5610    0.0000 </r>
      </set>
      <set comment="kpoint 150">
       <r>    2.4594    1.0000 </r>
       <r>    2.8796    1.0000 </r>
       <r>    4.6588    1.0000 </r>
       <r>    4.9954    1.0000 </r>
       <r>    5.3104    1.0000 </r>
       <r>   14.7117    0.0000 </r>
       <r>   15.9104    0.0000 </r>
       <r>   16.5888    0.0000 </r>
      </set>
      <set comment="kpoint 151">
       <r>    2.7084    1.0000 </r>
       <r>    4.2123    1.0000 </r>
       <r>    4.3843    1.0000 </r>
       <r>    5.8826    1.0000 </r>
       <r>    5.8826    1.0000 </r>
       <r>   13.2789    0.0000 </r>
       <r>   14.0305    0.0000 </r>
       <r>   14.0305    0.0000 </r>
      </set>
      <set comment="kpoint 152">
       <r>   -1.3403    1.0000 </r>
       <r>    0.8365    1.0000 </r>
       <r>    2.6359    1.0000 </r>
       <r>    4.7745    1.0000 </r>
       <r>   16.0185    0.0000 </r>
       <r>   16.6670    0.0000 </r>
       <r>   18.5255    0.0000 </r>
       <r>   20.0218    0.0000 </r>
      </set>
      <set comment="kpoint 153">
       <r>   -0.5817    1.0000 </r>
       <r>    0.2447    1.0000 </r>
       <r>    2.9063    1.0000 </r>
       <r>    3.7201    1.0000 </r>
       <r>   16.3363    0.0000 </r>
       <r>   16.5011    0.0000 </r>
       <r>   19.2556    0.0000 </r>
       <r>   19.9147    0.0000 </r>
      </set>
      <set comment="kpoint 154">
       <r>   -0.4708    1.0000 </r>
       <r>    0.7822    1.0000 </r>
       <r>    2.5917    1.0000 </r>
       <r>    3.8275    1.0000 </r>
       <r>   13.4067    0.0000 </r>
       <r>   18.7669    0.0000 </r>
       <r>   19.9324    0.0000 </r>
       <r>   20.5009    0.0000 </r>
      </set>
      <set comment="kpoint 155">
       <r>    0.2711    1.0000 </r>
       <r>    0.2766    1.0000 </r>
       <r>    2.9376    1.0000 </r>
       <r>    2.9381    1.0000 </r>
       <r>   13.3534    0.0000 </r>
       <r>   19.2648    0.0000 </r>
       <r>   20.3159    0.0000 </r>
       <r>   20.4045    0.0000 </r>
      </set>
      <set comment="kpoint 156">
       <r>    0.6863    1.0000 </r>
       <r>    1.1123    1.0000 </r>
       <r>    2.9170    1.0000 </r>
       <r>    3.3382    1.0000 </r>
       <r>   10.3886    0.0000 </r>
       <r>   19.0461    0.0000 </r>
       <r>   20.1920    0.0000 </r>
       <r>   20.2534    0.0000 </r>
      </set>
      <set comment="kpoint 157">
       <r>    1.8023    1.0000 </r>
       <r>    1.8376    1.0000 </r>
       <r>    3.6070    1.0000 </r>
       <r>    3.6070    1.0000 </r>
       <r>    7.6321    1.0000 </r>
       <r>   17.2242    0.0000 </r>
       <r>   18.4051    0.0000 </r>
       <r>   18.4051    0.0000 </r>
      </set>
      <set comment="kpoint 158">
       <r>    0.0803    1.0000 </r>
       <r>    0.5072    1.0000 </r>
       <r>    2.3310    1.0000 </r>
       <r>    2.7527    1.0000 </r>
       <r>   16.4042    0.0000 </r>
       <r>   16.4429    0.0000 </r>
       <r>   20.5060    0.0000 </r>
       <r>   20.9472    0.0000 </r>
      </set>
      <set comment="kpoint 159">
       <r>    0.6145    1.0000 </r>
       <r>    0.6205    1.0000 </r>
       <r>    2.4397    1.0000 </r>
       <r>    2.4397    1.0000 </r>
       <r>   13.2990    0.0000 </r>
       <r>   19.5205    0.0000 </r>
       <r>   21.0798    0.0000 </r>
       <r>   21.0799    0.0000 </r>
      </set>
     </set>
    </set>
   </array>
  </eigenvalues>
  <separator name="orbital magnetization" >
   <v name="MAGDIPOLOUT">      0.00000000      0.00000000      0.00000000</v>
  </separator>
  <dos>
   <i name="efermi">      9.12149511 </i>
   <total>
    <array>
     <dimension dim="1">gridpoints</dimension>
     <dimension dim="2">spin</dimension>
     <field>energy</field>
     <field>total</field>
     <field>integrated</field>
     <set>
      <set comment="spin 1">
       <r>    -6.5740     0.0000     0.0000 </r>
       <r>    -6.4752     0.0000     0.0000 </r>
       <r>    -6.3763     0.0000     0.0000 </r>
       <r>    -6.2775     0.0000     0.0000 </r>
       <r>    -6.1786     0.0000     0.0000 </r>
       <r>    -6.0798     0.0000     0.0000 </r>
       <r>    -5.9809     0.0000     0.0000 </r>
       <r>    -5.8821     0.0000     0.0000 </r>
       <r>    -5.7833     0.0000     0.0000 </r>
       <r>    -5.6844     0.0000     0.0000 </r>
       <r>    -5.5856     0.0000     0.0000 </r>
       <r>    -5.4867     0.0000     0.0000 </r>
       <r>    -5.3879     0.0000     0.0000 </r>
       <r>    -5.2890     0.0000     0.0000 </r>
       <r>    -5.1902     0.0000     0.0000 </r>
       <r>    -5.0913     0.0000     0.0000 </r>
       <r>    -4.9925     0.0001     0.0000 </r>
       <r>    -4.8936     0.0005     0.0001 </r>
       <r>    -4.7948     0.0028     0.0003 </r>
       <r>    -4.6959     0.0101     0.0013 </r>
       <r>    -4.5971     0.0268     0.0040 </r>
       <r>    -4.4983     0.0544     0.0094 </r>
       <r>    -4.3994     0.0860     0.0179 </r>
       <r>    -4.3006     0.1099     0.0287 </r>
       <r>    -4.2017     0.1268     0.0413 </r>
       <r>    -4.1029     0.1475     0.0558 </r>
       <r>    -4.0040     0.1684     0.0725 </r>
       <r>    -3.9052     0.1816     0.0904 </r>
       <r>    -3.8063     0.1954     0.1098 </r>
       <r>    -3.7075     0.2150     0.1310 </r>
       <r>    -3.6086     0.2307     0.1538 </r>
       <r>    -3.5098     0.2359     0.1771 </r>
       <r>    -3.4109     0.2329     0.2002 </r>
       <r>    -3.3121     0.2246     0.2224 </r>
       <r>    -3.2133     0.2270     0.2448 </r>
       <r>    -3.1144     0.2625     0.2707 </r>
       <r>    -3.0156     0.3196     0.3023 </r>
       <r>    -2.9167     0.3579     0.3377 </r>
       <r>    -2.8179     0.3469     0.3720 </r>
       <r>    -2.7190     0.2908     0.4007 </r>
       <r>    -2.6202     0.2444     0.4249 </r>
       <r>    -2.5213     0.2666     0.4513 </r>
       <r>    -2.4225     0.3329     0.4842 </r>
       <r>    -2.3236     0.3688     0.5206 </r>
       <r>    -2.2248     0.3625     0.5565 </r>
       <r>    -2.1259     0.3588     0.5919 </r>
       <r>    -2.0271     0.3727     0.6288 </r>
       <r>    -1.9282     0.3886     0.6672 </r>
       <r>    -1.8294     0.3933     0.7060 </r>
       <r>    -1.7306     0.3852     0.7441 </r>
       <r>    -1.6317     0.3796     0.7816 </r>
       <r>    -1.5329     0.3863     0.8198 </r>
       <r>    -1.4340     0.3974     0.8591 </r>
       <r>    -1.3352     0.4145     0.9001 </r>
       <r>    -1.2363     0.4551     0.9451 </r>
       <r>    -1.1375     0.4959     0.9941 </r>
       <r>    -1.0386     0.4756     1.0411 </r>
       <r>    -0.9398     0.3975     1.0804 </r>
       <r>    -0.8409     0.3361     1.1136 </r>
       <r>    -0.7421     0.3430     1.1475 </r>
       <r>    -0.6432     0.4140     1.1884 </r>
       <r>    -0.5444     0.5110     1.2389 </r>
       <r>    -0.4456     0.5842     1.2967 </r>
       <r>    -0.3467     0.5971     1.3557 </r>
       <r>    -0.2479     0.5588     1.4109 </r>
       <r>    -0.1490     0.5216     1.4625 </r>
       <r>    -0.0502     0.5191     1.5138 </r>
       <r>     0.0487     0.5209     1.5653 </r>
       <r>     0.1475     0.4952     1.6142 </r>
       <r>     0.2464     0.4721     1.6609 </r>
       <r>     0.3452     0.4788     1.7082 </r>
       <r>     0.4441     0.4977     1.7574 </r>
       <r>     0.5429     0.5230     1.8091 </r>
       <r>     0.6418     0.5750     1.8660 </r>
       <r>     0.7406     0.6437     1.9296 </r>
       <r>     0.8394     0.6698     1.9958 </r>
       <r>     0.9383     0.6228     2.0574 </r>
       <r>     1.0371     0.5589     2.1126 </r>
       <r>     1.1360     0.5527     2.1672 </r>
       <r>     1.2348     0.6111     2.2276 </r>
       <r>     1.3337     0.6626     2.2931 </r>
       <r>     1.4325     0.6312     2.3555 </r>
       <r>     1.5314     0.5225     2.4072 </r>
       <r>     1.6302     0.4193     2.4486 </r>
       <r>     1.7291     0.4108     2.4892 </r>
       <r>     1.8279     0.4973     2.5384 </r>
       <r>     1.9268     0.5944     2.5971 </r>
       <r>     2.0256     0.6459     2.6610 </r>
       <r>     2.1244     0.6464     2.7249 </r>
       <r>     2.2233     0.6020     2.7844 </r>
       <r>     2.3221     0.5564     2.8394 </r>
       <r>     2.4210     0.5493     2.8937 </r>
       <r>     2.5198     0.5455     2.9476 </r>
       <r>     2.6187     0.5124     2.9982 </r>
       <r>     2.7175     0.4740     3.0451 </r>
       <r>     2.8164     0.4536     3.0899 </r>
       <r>     2.9152     0.4580     3.1352 </r>
       <r>     3.0141     0.4996     3.1846 </r>
       <r>     3.1129     0.5940     3.2433 </r>
       <r>     3.2118     0.7194     3.3144 </r>
       <r>     3.3106     0.8031     3.3938 </r>
       <r>     3.4094     0.7949     3.4724 </r>
       <r>     3.5083     0.7130     3.5429 </r>
       <r>     3.6071     0.6148     3.6036 </r>
       <r>     3.7060     0.5730     3.6603 </r>
       <r>     3.8048     0.6025     3.7198 </r>
       <r>     3.9037     0.6338     3.7825 </r>
       <r>     4.0025     0.6317     3.8449 </r>
       <r>     4.1014     0.6376     3.9079 </r>
       <r>     4.2002     0.6761     3.9748 </r>
       <r>     4.2991     0.7003     4.0440 </r>
       <r>     4.3979     0.6596     4.1092 </r>
       <r>     4.4968     0.6002     4.1685 </r>
       <r>     4.5956     0.6231     4.2301 </r>
       <r>     4.6945     0.7255     4.3018 </r>
       <r>     4.7933     0.8063     4.3815 </r>
       <r>     4.8921     0.8278     4.4633 </r>
       <r>     4.9910     0.8142     4.5438 </r>
       <r>     5.0898     0.7724     4.6202 </r>
       <r>     5.1887     0.7209     4.6914 </r>
       <r>     5.2875     0.6851     4.7591 </r>
       <r>     5.3864     0.6725     4.8256 </r>
       <r>     5.4852     0.6886     4.8937 </r>
       <r>     5.5841     0.7317     4.9660 </r>
       <r>     5.6829     0.7854     5.0436 </r>
       <r>     5.7818     0.8385     5.1265 </r>
       <r>     5.8806     0.8892     5.2144 </r>
       <r>     5.9795     0.9302     5.3063 </r>
       <r>     6.0783     0.9381     5.3991 </r>
       <r>     6.1771     0.8970     5.4877 </r>
       <r>     6.2760     0.8394     5.5707 </r>
       <r>     6.3748     0.8021     5.6500 </r>
       <r>     6.4737     0.8057     5.7296 </r>
       <r>     6.5725     0.8754     5.8162 </r>
       <r>     6.6714     0.9595     5.9110 </r>
       <r>     6.7702     0.9636     6.0063 </r>
       <r>     6.8691     0.8923     6.0945 </r>
       <r>     6.9679     0.8037     6.1739 </r>
       <r>     7.0668     0.7421     6.2473 </r>
       <r>     7.1656     0.7468     6.3211 </r>
       <r>     7.2645     0.8298     6.4031 </r>
       <r>     7.3633     0.9819     6.5002 </r>
       <r>     7.4621     1.1500     6.6138 </r>
       <r>     7.5610     1.2230     6.7347 </r>
       <r>     7.6598     1.1455     6.8480 </r>
       <r>     7.7587     0.9719     6.9440 </r>
       <r>     7.8575     0.8008     7.0232 </r>
       <r>     7.9564     0.7245     7.0948 </r>
       <r>     8.0552     0.7594     7.1699 </r>
       <r>     8.1541     0.8417     7.2531 </r>
       <r>     8.2529     0.9148     7.3435 </r>
       <r>     8.3518     0.9323     7.4356 </r>
       <r>     8.4506     0.8625     7.5209 </r>
       <r>     8.5495     0.7507     7.5951 </r>
       <r>     8.6483     0.6800     7.6623 </r>
       <r>     8.7471     0.6833     7.7299 </r>
       <r>     8.8460     0.7267     7.8017 </r>
       <r>     8.9448     0.7435     7.8752 </r>
       <r>     9.0437     0.7157     7.9459 </r>
       <r>     9.1425     0.6949     8.0146 </r>
       <r>     9.2414     0.7006     8.0839 </r>
       <r>     9.3402     0.6896     8.1520 </r>
       <r>     9.4391     0.6611     8.2174 </r>
       <r>     9.5379     0.6779     8.2844 </r>
       <r>     9.6368     0.7430     8.3578 </r>
       <r>     9.7356     0.7809     8.4350 </r>
       <r>     9.8345     0.7444     8.5086 </r>
       <r>     9.9333     0.6635     8.5742 </r>
       <r>    10.0322     0.6082     8.6343 </r>
       <r>    10.1310     0.6135     8.6949 </r>
       <r>    10.2298     0.6419     8.7584 </r>
       <r>    10.3287     0.6469     8.8223 </r>
       <r>    10.4275     0.6378     8.8854 </r>
       <r>    10.5264     0.6413     8.9488 </r>
       <r>    10.6252     0.6513     9.0131 </r>
       <r>    10.7241     0.6558     9.0780 </r>
       <r>    10.8229     0.6743     9.1446 </r>
       <r>    10.9218     0.7280     9.2166 </r>
       <r>    11.0206     0.8056     9.2962 </r>
       <r>    11.1195     0.8858     9.3838 </r>
       <r>    11.2183     0.9632     9.4790 </r>
       <r>    11.3172     1.0578     9.5835 </r>
       <r>    11.4160     1.1734     9.6995 </r>
       <r>    11.5148     1.2285     9.8209 </r>
       <r>    11.6137     1.1426     9.9339 </r>
       <r>    11.7125     0.9850    10.0313 </r>
       <r>    11.8114     0.8678    10.1170 </r>
       <r>    11.9102     0.8005    10.1962 </r>
       <r>    12.0091     0.7827    10.2735 </r>
       <r>    12.1079     0.8270    10.3553 </r>
       <r>    12.2068     0.8716    10.4414 </r>
       <r>    12.3056     0.8669    10.5271 </r>
       <r>    12.4045     0.8472    10.6109 </r>
       <r>    12.5033     0.8301    10.6929 </r>
       <r>    12.6022     0.8148    10.7735 </r>
       <r>    12.7010     0.8443    10.8569 </r>
       <r>    12.7998     0.9508    10.9509 </r>
       <r>    12.8987     1.1102    11.0606 </r>
       <r>    12.9975     1.2578    11.1850 </r>
       <r>    13.0964     1.2987    11.3133 </r>
       <r>    13.1952     1.1874    11.4307 </r>
       <r>    13.2941     1.0148    11.5310 </r>
       <r>    13.3929     0.9130    11.6213 </r>
       <r>    13.4918     0.9250    11.7127 </r>
       <r>    13.5906     0.9979    11.8113 </r>
       <r>    13.6895     1.0376    11.9139 </r>
       <r>    13.7883     1.0131    12.0140 </r>
       <r>    13.8872     1.0163    12.1145 </r>
       <r>    13.9860     1.1246    12.2257 </r>
       <r>    14.0848     1.2651    12.3507 </r>
       <r>    14.1837     1.2927    12.4785 </r>
       <r>    14.2825     1.1764    12.5948 </r>
       <r>    14.3814     1.0514    12.6987 </r>
       <r>    14.4802     1.0283    12.8003 </r>
       <r>    14.5791     1.0629    12.9054 </r>
       <r>    14.6779     1.0624    13.0104 </r>
       <r>    14.7768     0.9958    13.1088 </r>
       <r>    14.8756     0.8972    13.1975 </r>
       <r>    14.9745     0.8120    13.2778 </r>
       <r>    15.0733     0.7652    13.3534 </r>
       <r>    15.1722     0.7812    13.4306 </r>
       <r>    15.2710     0.8614    13.5158 </r>
       <r>    15.3698     0.9411    13.6088 </r>
       <r>    15.4687     0.9610    13.7038 </r>
       <r>    15.5675     0.9203    13.7948 </r>
       <r>    15.6664     0.8403    13.8778 </r>
       <r>    15.7652     0.7824    13.9552 </r>
       <r>    15.8641     0.7976    14.0340 </r>
       <r>    15.9629     0.8421    14.1173 </r>
       <r>    16.0618     0.8461    14.2009 </r>
       <r>    16.1606     0.7936    14.2793 </r>
       <r>    16.2595     0.7415    14.3526 </r>
       <r>    16.3583     0.7675    14.4285 </r>
       <r>    16.4572     0.8470    14.5122 </r>
       <r>    16.5560     0.8711    14.5983 </r>
       <r>    16.6549     0.7901    14.6764 </r>
       <r>    16.7537     0.6404    14.7397 </r>
       <r>    16.8525     0.4863    14.7878 </r>
       <r>    16.9514     0.4020    14.8275 </r>
       <r>    17.0502     0.4461    14.8716 </r>
       <r>    17.1491     0.5866    14.9296 </r>
       <r>    17.2479     0.6960    14.9984 </r>
       <r>    17.3468     0.6830    15.0659 </r>
       <r>    17.4456     0.5906    15.1243 </r>
       <r>    17.5445     0.5019    15.1739 </r>
       <r>    17.6433     0.4363    15.2170 </r>
       <r>    17.7422     0.3838    15.2550 </r>
       <r>    17.8410     0.3521    15.2898 </r>
       <r>    17.9399     0.3551    15.3249 </r>
       <r>    18.0387     0.3921    15.3636 </r>
       <r>    18.1375     0.4522    15.4083 </r>
       <r>    18.2364     0.5091    15.4587 </r>
       <r>    18.3352     0.5175    15.5098 </r>
       <r>    18.4341     0.4668    15.5559 </r>
       <r>    18.5329     0.4041    15.5959 </r>
       <r>    18.6318     0.3586    15.6313 </r>
       <r>    18.7306     0.3157    15.6625 </r>
       <r>    18.8295     0.2792    15.6901 </r>
       <r>    18.9283     0.2791    15.7177 </r>
       <r>    19.0272     0.3156    15.7489 </r>
       <r>    19.1260     0.3455    15.7831 </r>
       <r>    19.2249     0.3252    15.8152 </r>
       <r>    19.3237     0.2476    15.8397 </r>
       <r>    19.4225     0.1525    15.8548 </r>
       <r>    19.5214     0.0961    15.8643 </r>
       <r>    19.6202     0.0994    15.8741 </r>
       <r>    19.7191     0.1390    15.8878 </r>
       <r>    19.8179     0.1696    15.9046 </r>
       <r>    19.9168     0.1595    15.9204 </r>
       <r>    20.0156     0.1224    15.9325 </r>
       <r>    20.1145     0.0947    15.9418 </r>
       <r>    20.2133     0.0933    15.9510 </r>
       <r>    20.3122     0.1044    15.9614 </r>
       <r>    20.4110     0.1062    15.9719 </r>
       <r>    20.5099     0.0899    15.9807 </r>
       <r>    20.6087     0.0602    15.9867 </r>
       <r>    20.7075     0.0310    15.9898 </r>
       <r>    20.8064     0.0161    15.9914 </r>
       <r>    20.9052     0.0164    15.9930 </r>
       <r>    21.0041     0.0219    15.9951 </r>
       <r>    21.1029     0.0224    15.9974 </r>
       <r>    21.2018     0.0159    15.9989 </r>
       <r>    21.3006     0.0077    15.9997 </r>
       <r>    21.3995     0.0025    15.9999 </r>
       <r>    21.4983     0.0005    16.0000 </r>
       <r>    21.5972     0.0001    16.0000 </r>
       <r>    21.6960     0.0000    16.0000 </r>
       <r>    21.7949     0.0000    16.0000 </r>
       <r>    21.8937     0.0000    16.0000 </r>
       <r>    21.9925     0.0000    16.0000 </r>
       <r>    22.0914     0.0000    16.0000 </r>
       <r>    22.1902     0.0000    16.0000 </r>
       <r>    22.2891     0.0000    16.0000 </r>
       <r>    22.3879     0.0000    16.0000 </r>
       <r>    22.4868     0.0000    16.0000 </r>
       <r>    22.5856     0.0000    16.0000 </r>
       <r>    22.6845     0.0000    16.0000 </r>
       <r>    22.7833     0.0000    16.0000 </r>
       <r>    22.8822     0.0000    16.0000 </r>
       <r>    22.9810     0.0000    16.0000 </r>
       <r>    23.0799     0.0000    16.0000 </r>
      </set>
     </set>
    </array>
   </total>
  </dos>
 </calculation>
 <structure name="finalpos" >
  <crystal>
   <varray name="basis" >
    <v>      -2.45000000       2.45000000       1.27400000 </v>
    <v>       2.45000000      -2.45000000       1.27400000 </v>
    <v>       2.45000000       2.45000000      -1.27400000 </v>
   </varray>
   <i name="volume">     30.58874000 </i>
   <varray name="rec_basis" >
    <v>       0.00000000       0.20408163       0.39246468 </v>
    <v>       0.20408163       0.00000000       0.39246468 </v>
    <v>       0.20408163       0.20408163      -0.00000000 </v>
   </varray>
  </crystal>
  <varray name="positions" >
   <v>       0.25000000       0.75000000       0.50000000 </v>
   <v>       0.00000000       0.00000000       0.00000000 </v>
  </varray>
 </structure>
</modeling>
