unknown system                          
           1
    -2.450000    2.450000    1.274000
     2.450000   -2.450000    1.274000
     2.450000    2.450000   -1.274000
   Si
   2
Direct configuration=     1
   0.25000000  0.75000000  0.50000000
   0.00000000  0.00000000  0.00000000
unknown system                          
           1
    -2.436203    2.436203    1.295532
     2.436203   -2.436203    1.295532
     2.436203    2.436203   -1.295532
   Si
   2
Direct configuration=     2
   0.25000000  0.75000000  0.50000000
   0.00000000  0.00000000  0.00000000
unknown system                          
           1
    -2.394810    2.394810    1.360127
     2.394810   -2.394810    1.360127
     2.394810    2.394810   -1.360127
   Si
   2
Direct configuration=     3
   0.25000000  0.75000000  0.50000000
   0.00000000  0.00000000  0.00000000
unknown system                          
           1
    -2.409078    2.409078    1.337861
     2.409078   -2.409078    1.337861
     2.409078    2.409078   -1.337861
   Si
   2
Direct configuration=     4
   0.25000000  0.75000000  0.50000000
   0.00000000  0.00000000  0.00000000
unknown system                          
           1
    -2.378841    2.378841    1.340144
     2.378841   -2.378841    1.340144
     2.378841    2.378841   -1.340144
   Si
   2
Direct configuration=     5
   0.25000000  0.75000000  0.50000000
   0.00000000  0.00000000  0.00000000
unknown system                          
           1
    -2.394877    2.394877    1.338933
     2.394877   -2.394877    1.338933
     2.394877    2.394877   -1.338933
   Si
   2
Direct configuration=     6
   0.25000000  0.75000000  0.50000000
   0.00000000  0.00000000  0.00000000
