 vasp.5.4.4.18Apr17-6-g9f103f2a35 (build Dec 09 2018 21:25:21) complex          
  
 executed on IFC18.0.1.163_CrayMP date 2019.03.19  13:13:54
 running on    8 total cores
 distrk:  each k-point on    8 cores,    1 groups
 distr:  one band on NCORES_PER_BAND=   1 cores,    8 groups


--------------------------------------------------------------------------------------------------------


 INCAR:
 POTCAR:   PAW_PBE Si 05Jan2001                   

 ----------------------------------------------------------------------------- 
|                                                                             |
|           W    W    AA    RRRRR   N    N  II  N    N   GGGG   !!!           |
|           W    W   A  A   R    R  NN   N  II  NN   N  G    G  !!!           |
|           W    W  A    A  R    R  N N  N  II  N N  N  G       !!!           |
|           W WW W  AAAAAA  RRRRR   N  N N  II  N  N N  G  GGG   !            |
|           WW  WW  A    A  R   R   N   NN  II  N   NN  G    G                |
|           W    W  A    A  R    R  N    N  II  N    N   GGGG   !!!           |
|                                                                             |
|      For optimal performance we recommend to set                            |
|        NCORE= 4 - approx SQRT( number of cores)                             |
|      NCORE specifies how many cores store one orbital (NPAR=cpu/NCORE).     |
|      This setting can  greatly improve the performance of VASP for DFT.     |
|      The default,   NCORE=1            might be grossly inefficient         |
|      on modern multi-core architectures or massively parallel machines.     |
|      Do your own testing !!!!                                               |
|      Unfortunately you need to use the default for GW and RPA calculations. |
|      (for HF NCORE is supported but not extensively tested yet)             |
|                                                                             |
 ----------------------------------------------------------------------------- 

 POTCAR:   PAW_PBE Si 05Jan2001                   
   VRHFIN =Si: s2p2                                                             
   LEXCH  = PE                                                                  
   EATOM  =   103.0669 eV,    7.5752 Ry                                         
                                                                                
   TITEL  = PAW_PBE Si 05Jan2001                                                
   LULTRA =        F    use ultrasoft PP ?                                      
   IUNSCR =        1    unscreen: 0-lin 1-nonlin 2-no                           
   RPACOR =    1.500    partial core radius                                     
   POMASS =   28.085; ZVAL   =    4.000    mass and valenz                      
   RCORE  =    1.900    outmost cutoff radius                                   
   RWIGS  =    2.480; RWIGS  =    1.312    wigner-seitz radius (au A)           
   ENMAX  =  245.345; ENMIN  =  184.009 eV                                      
   ICORE  =        2    local potential                                         
   LCOR   =        T    correct aug charges                                     
   LPAW   =        T    paw PP                                                  
   EAUG   =  322.069                                                            
   DEXC   =    -.007                                                            
   RMAX   =    2.944    core radius for proj-oper                               
   RAUG   =    1.300    factor for augmentation sphere                          
   RDEP   =    1.993    radius for radial grids                                 
   QCUT   =   -4.246; QGAM   =    8.493    optimization parameters              
                                                                                
   Description                                                                  
     l     E      TYP  RCUT    TYP  RCUT                                        
     0   .000     23  1.900                                                     
     0   .000     23  1.900                                                     
     1   .000     23  1.900                                                     
     1   .000     23  1.900                                                     
     2   .000      7  1.900                                                     
  local pseudopotential read in
  partial core-charges read in
  atomic valenz-charges read in
  non local Contribution for L=           0  read in
    real space projection operators read in
  non local Contribution for L=           0  read in
    real space projection operators read in
  non local Contribution for L=           1  read in
    real space projection operators read in
  non local Contribution for L=           1  read in
    real space projection operators read in
    PAW grid and wavefunctions read in
 
   number of l-projection  operators is LMAX  =           4
   number of lm-projection operators is LMMAX =           8
 
 PAW_PBE Si 05Jan2001                   :
 energy of atom  1       EATOM= -103.0669
 kinetic energy error for atom=    0.0052 (will be added to EATOM!!)
 
 
 POSCAR: Si2                                     
  positions in direct lattice
  No initial velocities read in
 exchange correlation table for  LEXCH =        8
   RHO(1)=    0.500       N(1)  =     2000
   RHO(2)=  100.500       N(2)  =     4000
 


--------------------------------------------------------------------------------------------------------


 ion  position               nearest neighbor table
   1  0.250  0.750  0.500-   2 2.53   2 2.53   2 2.53   2 2.53   2 3.11   2 3.11   2 3.11   2 3.11

   2  0.000  0.000  0.000-   1 2.53   1 2.53   1 2.53   1 2.53   1 3.11   1 3.11   1 3.11   1 3.11

 
  LATTYP: Found a body centered tetragonal cell.
 ALAT       =     4.9000000000
 C/A-ratio  =     0.5200000000
  
  Lattice vectors:
  
 A1 = (  -2.4500000000,   2.4500000000,   1.2740000000)
 A2 = (   2.4500000000,  -2.4500000000,   1.2740000000)
 A3 = (   2.4500000000,   2.4500000000,  -1.2740000000)


Analysis of symmetry for initial positions (statically):
=====================================================================
 Subroutine PRICEL returns:
 Original cell was already a primitive cell.
 

 Routine SETGRP: Setting up the symmetry group for a 
 body centered tetragonal supercell.


 Subroutine GETGRP returns: Found 16 space group operations
 (whereof  8 operations were pure point group operations)
 out of a pool of 16 trial point group operations.


The static configuration has the point symmetry D_2d.
 The point group associated with its full space group is D_4h.


Analysis of symmetry for dynamics (positions and initial velocities):
=====================================================================
 Subroutine PRICEL returns:
 Original cell was already a primitive cell.
 

 Routine SETGRP: Setting up the symmetry group for a 
 body centered tetragonal supercell.


 Subroutine GETGRP returns: Found 16 space group operations
 (whereof  8 operations were pure point group operations)
 out of a pool of 16 trial point group operations.


The dynamic configuration has the point symmetry D_2d.
 The point group associated with its full space group is D_4h.


 Subroutine INISYM returns: Found 16 space group operations
 (whereof  8 operations are pure point group operations),
 and found     1 'primitive' translations

 
 
 KPOINTS: Automatic kpoint scheme                 

Automatic generation of k-mesh.
Space group operators:
 irot       det(A)        alpha          n_x          n_y          n_z        tau_x        tau_y        tau_z
    1     1.000000     0.000000     1.000000     0.000000     0.000000     0.000000     0.000000     0.000000
    2    -1.000000    90.000000    -0.000000    -0.000000    -1.000000     0.000000     0.000000     0.000000
    3     1.000000   180.000000    -0.000000    -0.000000    -1.000000     0.000000     0.000000     0.000000
    4    -1.000000    90.000000    -0.000000     0.000000     1.000000     0.000000     0.000000     0.000000
    5    -1.000000   180.000000     0.000000    -1.000000     0.000000     0.000000     0.000000     0.000000
    6     1.000000   180.000000     0.707107     0.707107    -0.000000     0.000000     0.000000     0.000000
    7    -1.000000   180.000000     1.000000     0.000000     0.000000     0.000000     0.000000     0.000000
    8     1.000000   180.000000     0.707107    -0.707107     0.000000     0.000000     0.000000     0.000000
    9    -1.000000     0.000000     1.000000     0.000000     0.000000     0.250000     0.750000     0.500000
   10     1.000000    90.000000    -0.000000    -0.000000    -1.000000     0.250000     0.750000     0.500000
   11    -1.000000   180.000000    -0.000000    -0.000000    -1.000000     0.250000     0.750000     0.500000
   12     1.000000    90.000000    -0.000000     0.000000     1.000000     0.250000     0.750000     0.500000
   13     1.000000   180.000000     0.000000    -1.000000     0.000000     0.250000     0.750000     0.500000
   14    -1.000000   180.000000     0.707107     0.707107    -0.000000     0.250000     0.750000     0.500000
   15     1.000000   180.000000     1.000000     0.000000     0.000000     0.250000     0.750000     0.500000
   16    -1.000000   180.000000     0.707107    -0.707107     0.000000     0.250000     0.750000     0.500000
 
 Subroutine IBZKPT returns following result:
 ===========================================
 
 Found     28 irreducible k-points:
 
 Following reciprocal coordinates:
            Coordinates               Weight
  0.083333  0.083333  0.083333    128.000000
  0.250000  0.083333  0.083333    256.000000
  0.416667  0.083333  0.083333    128.000000
 -0.083333  0.083333  0.083333     64.000000
  0.250000  0.250000  0.083333    128.000000
  0.416667  0.250000  0.083333    256.000000
 -0.416667  0.250000  0.083333    128.000000
 -0.250000  0.250000  0.083333    128.000000
 -0.083333  0.250000  0.083333    128.000000
  0.416667  0.416667  0.083333     64.000000
 -0.416667  0.416667  0.083333    128.000000
 -0.250000  0.416667  0.083333    256.000000
 -0.083333  0.416667  0.083333    128.000000
 -0.416667 -0.416667  0.083333    128.000000
 -0.250000 -0.416667  0.083333    256.000000
 -0.083333 -0.416667  0.083333    128.000000
 -0.250000 -0.250000  0.083333    128.000000
 -0.083333 -0.250000  0.083333    128.000000
 -0.083333 -0.083333  0.083333     32.000000
  0.250000  0.250000  0.250000     32.000000
 -0.250000  0.250000  0.250000     64.000000
 -0.416667  0.416667  0.250000    128.000000
 -0.250000  0.416667  0.250000    128.000000
 -0.416667 -0.416667  0.250000    128.000000
 -0.250000 -0.416667  0.250000    128.000000
 -0.250000 -0.250000  0.250000     32.000000
 -0.416667  0.416667  0.416667     64.000000
 -0.416667 -0.416667  0.416667     32.000000
 
 Following cartesian coordinates:
            Coordinates               Weight
  0.034014  0.034014  0.065411    128.000000
  0.034014  0.068027  0.130822    256.000000
  0.034014  0.102041  0.196232    128.000000
  0.034014  0.000000 -0.000000     64.000000
  0.068027  0.068027  0.196232    128.000000
  0.068027  0.102041  0.261643    256.000000
  0.068027 -0.068027 -0.065411    128.000000
  0.068027 -0.034014  0.000000    128.000000
  0.068027  0.000000  0.065411    128.000000
  0.102041  0.102041  0.327054     64.000000
  0.102041 -0.068027 -0.000000    128.000000
  0.102041 -0.034014  0.065411    256.000000
  0.102041  0.000000  0.130822    128.000000
 -0.068027 -0.068027 -0.327054    128.000000
 -0.068027 -0.034014 -0.261643    256.000000
 -0.068027  0.000000 -0.196232    128.000000
 -0.034014 -0.034014 -0.196232    128.000000
 -0.034014  0.000000 -0.130822    128.000000
 -0.000000  0.000000 -0.065411     32.000000
  0.102041  0.102041  0.196232     32.000000
  0.102041  0.000000  0.000000     64.000000
  0.136054 -0.034014 -0.000000    128.000000
  0.136054  0.000000  0.065411    128.000000
 -0.034014 -0.034014 -0.327054    128.000000
 -0.034014  0.000000 -0.261643    128.000000
 -0.000000  0.000000 -0.196232     32.000000
  0.170068  0.000000 -0.000000     64.000000
  0.000000  0.000000 -0.327054     32.000000
 


--------------------------------------------------------------------------------------------------------




 Dimension of arrays:
   k-points           NKPTS =     28   k-points in BZ     NKDIM =     28   number of bands    NBANDS=      8
   number of dos      NEDOS =    301   number of ions     NIONS =      2
   non local maximal  LDIM  =      4   non local SUM 2l+1 LMDIM =      8
   total plane-waves  NPLWV =   2744
   max r-space proj   IRMAX =      1   max aug-charges    IRDMAX=   3198
   dimension x,y,z NGX =    14 NGY =   14 NGZ =   14
   dimension x,y,z NGXF=    28 NGYF=   28 NGZF=   28
   support grid    NGXF=    28 NGYF=   28 NGZF=   28
   ions per type =               2
   NGX,Y,Z   is equivalent  to a cutoff of   6.30,  6.30,  6.30 a.u.
   NGXF,Y,Z  is equivalent  to a cutoff of  12.61, 12.61, 12.61 a.u.

 SYSTEM =  unknown system                          
 POSCAR =  Si2                                     

 Startparameter for this run:
   NWRITE =      2    write-flag & timer
   PREC   = normal    normal or accurate (medium, high low for compatibility)
   ISTART =      1    job   : 0-new  1-cont  2-samecut
   ICHARG =      0    charge: 1-file 2-atom 10-const
   ISPIN  =      1    spin polarized calculation?
   LNONCOLLINEAR =      F non collinear calculations
   LSORBIT =      F    spin-orbit coupling
   INIWAV =      1    electr: 0-lowe 1-rand  2-diag
   LASPH  =      F    aspherical Exc in radial PAW
   METAGGA=      F    non-selfconsistent MetaGGA calc.

 Electronic Relaxation 1
   ENCUT  =  250.0 eV  18.37 Ry    4.29 a.u.   4.76  4.76  4.76*2*pi/ulx,y,z
   ENINI  =  250.0     initial cutoff
   ENAUG  =  322.1 eV  augmentation charge cutoff
   NELM   =     60;   NELMIN=  2; NELMDL=  0     # of ELM steps 
   EDIFF  = 0.4E-03   stopping-criterion for ELM
   LREAL  =      F    real-space projection
   NLSPLINE    = F    spline interpolate recip. space projectors
   LCOMPAT=      F    compatible to vasp.4.4
   GGA_COMPAT  = T    GGA compatible to vasp.4.4-vasp.4.6
   LMAXPAW     = -100 max onsite density
   LMAXMIX     =    2 max onsite mixed and CHGCAR
   VOSKOWN=      0    Vosko Wilk Nusair interpolation
   ROPT   =    0.00000
 Ionic relaxation
   EDIFFG = -.1E-01   stopping-criterion for IOM
   NSW    =     15    number of steps for IOM
   NBLOCK =      1;   KBLOCK =     15    inner block; outer block 
   IBRION =      2    ionic relax: 0-MD 1-quasi-New 2-CG
   NFREE  =      1    steps in history (QN), initial steepest desc. (CG)
   ISIF   =      2    stress and relaxation
   IWAVPR =     11    prediction:  0-non 1-charg 2-wave 3-comb
   ISYM   =      2    0-nonsym 1-usesym 2-fastsym
   LCORR  =      T    Harris-Foulkes like correction to forces

   POTIM  = 0.5000    time-step for ionic-motion
   TEIN   =    0.0    initial temperature
   TEBEG  =    0.0;   TEEND  =   0.0 temperature during run
   SMASS  =  -3.00    Nose mass-parameter (am)
   estimated Nose-frequenzy (Omega)   =  0.10E-29 period in steps =****** mass=  -0.311E-27a.u.
   SCALEE = 1.0000    scale energy and forces
   NPACO  =    256;   APACO  = 16.0  distance and # of slots for P.C.
   PSTRESS=    0.0 pullay stress

  Mass of Ions in am
   POMASS =  28.09
  Ionic Valenz
   ZVAL   =   4.00
  Atomic Wigner-Seitz radii
   RWIGS  =  -1.00
  virtual crystal weights 
   VCA    =   1.00
   NELECT =       8.0000    total number of electrons
   NUPDOWN=      -1.0000    fix difference up-down

 DOS related values:
   EMIN   =  10.00;   EMAX   =-10.00  energy-range for DOS
   EFERMI =   0.00
   ISMEAR =     0;   SIGMA  =   0.20  broadening in eV -4-tet -1-fermi 0-gaus

 Electronic relaxation 2 (details)
   IALGO  =     38    algorithm
   LDIAG  =      T    sub-space diagonalisation (order eigenvalues)
   LSUBROT=      F    optimize rotation matrix (better conditioning)
   TURBO    =      0    0=normal 1=particle mesh
   IRESTART =      0    0=no restart 2=restart with 2 vectors
   NREBOOT  =      0    no. of reboots
   NMIN     =      0    reboot dimension
   EREF     =   0.00    reference energy to select bands
   IMIX   =      4    mixing-type and parameters
     AMIX     =   0.40;   BMIX     =  1.00
     AMIX_MAG =   1.60;   BMIX_MAG =  1.00
     AMIN     =   0.10
     WC   =   100.;   INIMIX=   1;  MIXPRE=   1;  MAXMIX= -45

 Intra band minimization:
   WEIMIN = 0.0010     energy-eigenvalue tresh-hold
   EBREAK =  0.13E-04  absolut break condition
   DEPER  =   0.30     relativ break condition  

   TIME   =   0.40     timestep for ELM

  volume/ion in A,a.u.               =      15.29       103.21
  Fermi-wavevector in a.u.,A,eV,Ry     =   1.046930  1.978411 14.912834  1.096062
  Thomas-Fermi vector in A             =   2.181789
 
 Write flags
   LWAVE        =      T    write WAVECAR
   LDOWNSAMPLE  =      F    k-point downsampling of WAVECAR
   LCHARG       =      T    write CHGCAR
   LVTOT        =      F    write LOCPOT, total local potential
   LVHAR        =      F    write LOCPOT, Hartree potential only
   LELF         =      F    write electronic localiz. function (ELF)
   LORBIT       =      0    0 simple, 1 ext, 2 COOP (PROOUT), +10 PAW based schemes


 Dipole corrections
   LMONO  =      F    monopole corrections only (constant potential shift)
   LDIPOL =      F    correct potential (dipole corrections)
   IDIPOL =      0    1-x, 2-y, 3-z, 4-all directions 
   EPSILON=  1.0000000 bulk dielectric constant

 Exchange correlation treatment:
   GGA     =    --    GGA type
   LEXCH   =     8    internal setting for exchange type
   VOSKOWN=      0    Vosko Wilk Nusair interpolation
   LHFCALC =     F    Hartree Fock is set to
   LHFONE  =     F    Hartree Fock one center treatment
   AEXX    =    0.0000 exact exchange contribution

 Linear response parameters
   LEPSILON=     F    determine dielectric tensor
   LRPA    =     F    only Hartree local field effects (RPA)
   LNABLA  =     F    use nabla operator in PAW spheres
   LVEL    =     F    velocity operator in full k-point grid
   LINTERFAST=   F  fast interpolation
   KINTER  =     0    interpolate to denser k-point grid
   CSHIFT  =0.1000    complex shift for real part using Kramers Kronig
   OMEGAMAX=  -1.0    maximum frequency
   DEG_THRESHOLD= 0.2000000E-02 threshold for treating states as degnerate
   RTIME   =   -0.100 relaxation time in fs
  (WPLASMAI=    0.000 imaginary part of plasma frequency in eV, 0.658/RTIME)
   DFIELD  = 0.0000000 0.0000000 0.0000000 field for delta impulse in time
 
 Orbital magnetization related:
   ORBITALMAG=     F  switch on orbital magnetization
   LCHIMAG   =     F  perturbation theory with respect to B field
   DQ        =  0.001000  dq finite difference perturbation B field
   LLRAUG    =     F  two centre corrections for induced B field



--------------------------------------------------------------------------------------------------------


 conjugate gradient relaxation of ions
 charge density and potential will be updated during run
 non-spin polarized calculation
 Variant of blocked Davidson
 Davidson routine will perform the subspace rotation
 perform sub-space diagonalisation
    after iterative eigenvector-optimisation
 modified Broyden-mixing scheme, WC =      100.0
 initial mixing is a Kerker type mixing with AMIX =  0.4000 and BMIX =      1.0000
 Hartree-type preconditioning will be used
 using additional bands            4
 reciprocal scheme for non local part
 use partial core corrections
 calculate Harris-corrections to forces 
   (improved forces if not selfconsistent)
 use gradient corrections 
 use of overlap-Matrix (Vanderbilt PP)
 Gauss-broadening in eV      SIGMA  =   0.20


--------------------------------------------------------------------------------------------------------


  energy-cutoff  :      250.00
  volume of cell :       30.59
      direct lattice vectors                 reciprocal lattice vectors
    -2.450000000  2.450000000  1.274000000     0.000000000  0.204081633  0.392464678
     2.450000000 -2.450000000  1.274000000     0.204081633  0.000000000  0.392464678
     2.450000000  2.450000000 -1.274000000     0.204081633  0.204081633 -0.000000000

  length of vectors
     3.691622408  3.691622408  3.691622408     0.442354876  0.442354876  0.288615013


 
 old parameters found on file WAVECAR:
  energy-cutoff  :      250.00
  volume of cell :       30.59
      direct lattice vectors                 reciprocal lattice vectors
    -2.450000000  2.450000000  1.274000000     0.000000000  0.204081633  0.392464678
     2.450000000 -2.450000000  1.274000000     0.204081633  0.000000000  0.392464678
     2.450000000  2.450000000 -1.274000000     0.204081633  0.204081633 -0.000000000

  length of vectors

 
 k-points in units of 2pi/SCALE and weight: Automatic kpoint scheme                 
   0.03401361  0.03401361  0.06541078       0.037
   0.03401361  0.06802721  0.13082156       0.074
   0.03401361  0.10204082  0.19623234       0.037
   0.03401361 -0.00000000 -0.00000000       0.019
   0.06802721  0.06802721  0.19623234       0.037
   0.06802721  0.10204082  0.26164312       0.074
   0.06802721 -0.06802721 -0.06541078       0.037
   0.06802721 -0.03401361 -0.00000000       0.037
   0.06802721  0.00000000  0.06541078       0.037
   0.10204082  0.10204082  0.32705390       0.019
   0.10204082 -0.06802721 -0.00000000       0.037
   0.10204082 -0.03401361  0.06541078       0.074
   0.10204082  0.00000000  0.13082156       0.037
  -0.06802721 -0.06802721 -0.32705390       0.037
  -0.06802721 -0.03401361 -0.26164312       0.074
  -0.06802721 -0.00000000 -0.19623234       0.037
  -0.03401361 -0.03401361 -0.19623234       0.037
  -0.03401361 -0.00000000 -0.13082156       0.037
   0.00000000  0.00000000 -0.06541078       0.009
   0.10204082  0.10204082  0.19623234       0.009
   0.10204082  0.00000000 -0.00000000       0.019
   0.13605442 -0.03401361 -0.00000000       0.037
   0.13605442  0.00000000  0.06541078       0.037
  -0.03401361 -0.03401361 -0.32705390       0.037
  -0.03401361  0.00000000 -0.26164312       0.037
   0.00000000  0.00000000 -0.19623234       0.009
   0.17006803  0.00000000 -0.00000000       0.019
  -0.00000000 -0.00000000 -0.32705390       0.009
 
 k-points in reciprocal lattice and weights: Automatic kpoint scheme                 
   0.08333333  0.08333333  0.08333333       0.037
   0.25000000  0.08333333  0.08333333       0.074
   0.41666667  0.08333333  0.08333333       0.037
  -0.08333333  0.08333333  0.08333333       0.019
   0.25000000  0.25000000  0.08333333       0.037
   0.41666667  0.25000000  0.08333333       0.074
  -0.41666667  0.25000000  0.08333333       0.037
  -0.25000000  0.25000000  0.08333333       0.037
  -0.08333333  0.25000000  0.08333333       0.037
   0.41666667  0.41666667  0.08333333       0.019
  -0.41666667  0.41666667  0.08333333       0.037
  -0.25000000  0.41666667  0.08333333       0.074
  -0.08333333  0.41666667  0.08333333       0.037
  -0.41666667 -0.41666667  0.08333333       0.037
  -0.25000000 -0.41666667  0.08333333       0.074
  -0.08333333 -0.41666667  0.08333333       0.037
  -0.25000000 -0.25000000  0.08333333       0.037
  -0.08333333 -0.25000000  0.08333333       0.037
  -0.08333333 -0.08333333  0.08333333       0.009
   0.25000000  0.25000000  0.25000000       0.009
  -0.25000000  0.25000000  0.25000000       0.019
  -0.41666667  0.41666667  0.25000000       0.037
  -0.25000000  0.41666667  0.25000000       0.037
  -0.41666667 -0.41666667  0.25000000       0.037
  -0.25000000 -0.41666667  0.25000000       0.037
  -0.25000000 -0.25000000  0.25000000       0.009
  -0.41666667  0.41666667  0.41666667       0.019
  -0.41666667 -0.41666667  0.41666667       0.009
 
 position of ions in fractional coordinates (direct lattice) 
   0.25000000  0.75000000  0.50000000
   0.00000000  0.00000000  0.00000000
 
 position of ions in cartesian coordinates  (Angst):
   2.45000000  0.00000000  0.63700000
   0.00000000  0.00000000  0.00000000
 


--------------------------------------------------------------------------------------------------------


 k-point  1 :   0.0833 0.0833 0.0833  plane waves:     275
 k-point  2 :   0.2500 0.0833 0.0833  plane waves:     272
 k-point  3 :   0.4167 0.0833 0.0833  plane waves:     276
 k-point  4 :  -0.0833 0.0833 0.0833  plane waves:     275
 k-point  5 :   0.2500 0.2500 0.0833  plane waves:     271
 k-point  6 :   0.4167 0.2500 0.0833  plane waves:     271
 k-point  7 :  -0.4167 0.2500 0.0833  plane waves:     276
 k-point  8 :  -0.2500 0.2500 0.0833  plane waves:     278
 k-point  9 :  -0.0833 0.2500 0.0833  plane waves:     271
 k-point 10 :   0.4167 0.4167 0.0833  plane waves:     280
 k-point 11 :  -0.4167 0.4167 0.0833  plane waves:     277
 k-point 12 :  -0.2500 0.4167 0.0833  plane waves:     272
 k-point 13 :  -0.0833 0.4167 0.0833  plane waves:     277
 k-point 14 :  -0.4167-0.4167 0.0833  plane waves:     272
 k-point 15 :  -0.2500-0.4167 0.0833  plane waves:     275
 k-point 16 :  -0.0833-0.4167 0.0833  plane waves:     279
 k-point 17 :  -0.2500-0.2500 0.0833  plane waves:     277
 k-point 18 :  -0.0833-0.2500 0.0833  plane waves:     273
 k-point 19 :  -0.0833-0.0833 0.0833  plane waves:     275
 k-point 20 :   0.2500 0.2500 0.2500  plane waves:     268
 k-point 21 :  -0.2500 0.2500 0.2500  plane waves:     272
 k-point 22 :  -0.4167 0.4167 0.2500  plane waves:     271
 k-point 23 :  -0.2500 0.4167 0.2500  plane waves:     277
 k-point 24 :  -0.4167-0.4167 0.2500  plane waves:     278
 k-point 25 :  -0.2500-0.4167 0.2500  plane waves:     277
 k-point 26 :  -0.2500-0.2500 0.2500  plane waves:     267
 k-point 27 :  -0.4167 0.4167 0.4167  plane waves:     280
 k-point 28 :  -0.4167-0.4167 0.4167  plane waves:     280

 maximum and minimum number of plane-waves per node :       280      267

 maximum number of plane-waves:       280
 maximum index in each direction: 
   IXMAX=    5   IYMAX=    5   IZMAX=    4
   IXMIN=   -5   IYMIN=   -5   IZMIN=   -5


 serial   3D FFT for wavefunctions
 parallel 3D FFT for charge:
    minimum data exchange during FFTs selected (reduces bandwidth)


 total amount of memory used by VASP MPI-rank0    31037. kBytes
=======================================================================

   base      :      30000. kBytes
   nonl-proj :        510. kBytes
   fftplans  :        119. kBytes
   grid      :        270. kBytes
   one-center:          6. kBytes
   wavefun   :        132. kBytes
 
     INWAV:  cpu time    0.0440: real time    0.0915
 Broyden mixing: mesh for mixing (old mesh)
   NGX =  9   NGY =  9   NGZ =  9
  (NGX  = 28   NGY  = 28   NGZ  = 28)
  gives a total of    729 points

 charge density for first step will be calculated from the start-wavefunctions


--------------------------------------------------------------------------------------------------------


 Maximum index for augmentation-charges          442 (set IRDMAX)


--------------------------------------------------------------------------------------------------------


 initial charge from wavefunction
 First call to EWALD:  gamma=   0.567
 Maximum number of real-space cells 4x 4x 3
 Maximum number of reciprocal cells 3x 3x 3

    FEWALD:  cpu time    0.0080: real time    0.0064


--------------------------------------- Iteration      1(   1)  ---------------------------------------


    POTLOK:  cpu time    0.0200: real time    0.0270
    SETDIJ:  cpu time    0.0040: real time    0.0059
     EDDAV:  cpu time    0.1120: real time    0.1155
       DOS:  cpu time    0.0040: real time    0.0023
    CHARGE:  cpu time    0.0080: real time    0.0097
    MIXING:  cpu time    0.0000: real time    0.0016
    --------------------------------------------
      LOOP:  cpu time    0.1480: real time    0.1627

 eigenvalue-minimisations  :   248
 total energy-change (2. order) :-0.1027464E+02  (-0.1614267E-04)
 number of electron       7.9999993 magnetization 
 augmentation part       -0.4713352 magnetization 

 Broyden mixing:
  rms(total) = 0.86310E-03    rms(broyden)= 0.86294E-03
  rms(prec ) = 0.26068E-02
  weight for this iteration     100.00

 Free energy of the ion-electron system (eV)
  ---------------------------------------------------
  alpha Z        PSCENC =         4.40202223
  Ewald energy   TEWEN  =      -265.18101312
  -Hartree energ DENC   =        -2.50403550
  -exchange      EXHF   =         0.00000000
  -V(xc)+E(xc)   XCENC  =       -17.57299811
  PAW double counting   =        70.69968694      -35.61704538
  entropy T*S    EENTRO =        -0.01137055
  eigenvalues    EBANDS =        29.38661564
  atomic energy  EATOM  =       206.12349923
  Solvation  Ediel_sol  =         0.00000000
  ---------------------------------------------------
  free energy    TOTEN  =       -10.27463863 eV

  energy without entropy =      -10.26326807  energy(sigma->0) =      -10.26895335


--------------------------------------------------------------------------------------------------------




--------------------------------------- Iteration      1(   2)  ---------------------------------------


    POTLOK:  cpu time    0.0160: real time    0.0249
    SETDIJ:  cpu time    0.0080: real time    0.0056
     EDDAV:  cpu time    0.1120: real time    0.1140
       DOS:  cpu time    0.0000: real time    0.0019
    --------------------------------------------
      LOOP:  cpu time    0.1360: real time    0.1464

 eigenvalue-minimisations  :   248
 total energy-change (2. order) : 0.1885528E-05  (-0.1070519E-05)
 number of electron       7.9999993 magnetization 
 augmentation part       -0.4713352 magnetization 

 Free energy of the ion-electron system (eV)
  ---------------------------------------------------
  alpha Z        PSCENC =         4.40202223
  Ewald energy   TEWEN  =      -265.18101312
  -Hartree energ DENC   =        -2.50278616
  -exchange      EXHF   =         0.00000000
  -V(xc)+E(xc)   XCENC  =       -17.57305624
  PAW double counting   =        70.69474686      -35.61188993
  entropy T*S    EENTRO =        -0.01137009
  eigenvalues    EBANDS =        29.38521048
  atomic energy  EATOM  =       206.12349923
  Solvation  Ediel_sol  =         0.00000000
  ---------------------------------------------------
  free energy    TOTEN  =       -10.27463674 eV

  energy without entropy =      -10.26326665  energy(sigma->0) =      -10.26895169


--------------------------------------------------------------------------------------------------------




 average (electrostatic) potential at core
  the test charge radii are     0.9892
  (the norm of the test charge is              1.0000)
       1 -80.5539       2 -80.5539
 
 
 
 E-fermi :   9.1617     XC(G=0): -10.8919     alpha+bet :-15.6819


 k-point     1 :       0.0833    0.0833    0.0833
  band No.  band energies     occupation 
      1      -3.6665      2.00000
      2       3.9129      2.00000
      3       7.1262      2.00000
      4       8.6350      1.99980
      5      12.8330      0.00000
      6      13.7227      0.00000
      7      13.9620      0.00000
      8      15.7940      0.00000

 k-point     2 :       0.2500    0.0833    0.0833
  band No.  band energies     occupation 
      1      -1.3411      2.00000
      2       4.2847      2.00000
      3       7.4977      2.00000
      4       7.9772      2.00000
      5       9.7365      0.00005
      6      12.3076      0.00000
      7      13.5660      0.00000
      8      14.3693      0.00000

 k-point     3 :       0.4167    0.0833    0.0833
  band No.  band energies     occupation 
      1       2.1932      2.00000
      2       2.7389      2.00000
      3       6.0313      2.00000
      4       6.1243      2.00000
      5       9.5791      0.00316
      6      11.3609      0.00000
      7      13.6664      0.00000
      8      14.5167      0.00000

 k-point     4 :      -0.0833    0.0833    0.0833
  band No.  band energies     occupation 
      1      -4.4492      2.00000
      2       4.5105      2.00000
      3       5.6964      2.00000
      4       8.2501      2.00000
      5      11.4601      0.00000
      6      14.3327      0.00000
      7      17.5053      0.00000
      8      18.1512      0.00000

 k-point     5 :       0.2500    0.2500    0.0833
  band No.  band energies     occupation 
      1       2.0980      2.00000
      2       3.9968      2.00000
      3       4.0998      2.00000
      4       5.8514      2.00000
      5      10.9863      0.00000
      6      12.2040      0.00000
      7      13.8123      0.00000
      8      14.3091      0.00000

 k-point     6 :       0.4167    0.2500    0.0833
  band No.  band energies     occupation 
      1      -0.0508      2.00000
      2       1.8513      2.00000
      3       7.0000      2.00000
      4       8.3090      2.00000
      5       9.9661      0.00000
      6      11.7839      0.00000
      7      13.5612      0.00000
      8      15.2080      0.00000

 k-point     7 :      -0.4167    0.2500    0.0833
  band No.  band energies     occupation 
      1      -2.6820      2.00000
      2       1.1709      2.00000
      3       8.0205      2.00000
      4       9.8380      0.00000
      5      11.4455      0.00000
      6      12.9186      0.00000
      7      14.0913      0.00000
      8      14.3263      0.00000

 k-point     8 :      -0.2500    0.2500    0.0833
  band No.  band energies     occupation 
      1      -3.7896      2.00000
      2       1.9486      2.00000
      3       5.9618      2.00000
      4       9.8375      0.00000
      5      11.4502      0.00000
      6      14.4915      0.00000
      7      15.3389      0.00000
      8      18.9065      0.00000

 k-point     9 :      -0.0833    0.2500    0.0833
  band No.  band energies     occupation 
      1      -3.3381      2.00000
      2       3.6574      2.00000
      3       5.1796      2.00000
      4      10.6835      0.00000
      5      11.8098      0.00000
      6      13.2482      0.00000
      7      14.0134      0.00000
      8      15.9470      0.00000

 k-point    10 :       0.4167    0.4167    0.0833
  band No.  band energies     occupation 
      1      -1.0579      2.00000
      2      -1.0578      2.00000
      3       9.4765      0.02604
      4       9.4765      0.02603
      5      11.3627      0.00000
      6      11.3627      0.00000
      7      13.7242      0.00000
      8      13.7242      0.00000

 k-point    11 :      -0.4167    0.4167    0.0833
  band No.  band energies     occupation 
      1      -2.4804      2.00000
      2      -0.5455      2.00000
      3       7.1803      2.00000
      4       9.0256      1.66406
      5      11.2491      0.00000
      6      13.0818      0.00000
      7      18.2372      0.00000
      8      18.5367      0.00000

 k-point    12 :      -0.2500    0.4167    0.0833
  band No.  band energies     occupation 
      1      -2.3589      2.00000
      2       1.4333      2.00000
      3       5.5740      2.00000
      4       9.1787      0.90427
      5      11.3760      0.00000
      6      13.4757      0.00000
      7      15.5417      0.00000
      8      16.7441      0.00000

 k-point    13 :      -0.0833    0.4167    0.0833
  band No.  band energies     occupation 
      1      -0.6973      2.00000
      2       4.2665      2.00000
      3       5.8822      2.00000
      4       6.4765      2.00000
      5      10.0787      0.00000
      6      12.3074      0.00000
      7      13.3456      0.00000
      8      15.3930      0.00000

 k-point    14 :      -0.4167   -0.4167    0.0833
  band No.  band energies     occupation 
      1      -0.7503      2.00000
      2      -0.7454      2.00000
      3       7.0613      2.00000
      4       7.0797      2.00000
      5      11.2839      0.00000
      6      14.4923      0.00000
      7      15.2885      0.00000
      8      15.3867      0.00000

 k-point    15 :      -0.2500   -0.4167    0.0833
  band No.  band energies     occupation 
      1       0.5735      2.00000
      2       2.4110      2.00000
      3       5.8097      2.00000
      4       6.5612      2.00000
      5       8.2418      2.00000
      6      11.8463      0.00000
      7      15.4016      0.00000
      8      16.9835      0.00000

 k-point    16 :      -0.0833   -0.4167    0.0833
  band No.  band energies     occupation 
      1       1.4757      2.00000
      2       3.4423      2.00000
      3       6.3802      2.00000
      4       7.6096      2.00000
      5       8.1969      2.00000
      6      10.8022      0.00000
      7      11.6427      0.00000
      8      15.6948      0.00000

 k-point    17 :      -0.2500   -0.2500    0.0833
  band No.  band energies     occupation 
      1       1.1704      2.00000
      2       4.8869      2.00000
      3       4.9350      2.00000
      4       7.7350      2.00000
      5       8.7176      1.99831
      6      10.2826      0.00000
      7      12.6545      0.00000
      8      13.4896      0.00000

 k-point    18 :      -0.0833   -0.2500    0.0833
  band No.  band energies     occupation 
      1      -1.9918      2.00000
      2       6.7148      2.00000
      3       7.7214      2.00000
      4       8.4929      2.00000
      5       9.8850      0.00000
      6      11.1344      0.00000
      7      12.3848      0.00000
      8      13.5605      0.00000

 k-point    19 :      -0.0833   -0.0833    0.0833
  band No.  band energies     occupation 
      1      -3.9961      2.00000
      2       6.7598      2.00000
      3       6.8260      2.00000
      4       6.8260      2.00000
      5      11.1603      0.00000
      6      14.5185      0.00000
      7      14.7961      0.00000
      8      16.7259      0.00000

 k-point    20 :       0.2500    0.2500    0.2500
  band No.  band energies     occupation 
      1       3.4017      2.00000
      2       3.4018      2.00000
      3       4.0630      2.00000
      4       4.0630      2.00000
      5      13.2271      0.00000
      6      13.2271      0.00000
      7      15.0342      0.00000
      8      15.0342      0.00000

 k-point    21 :      -0.2500    0.2500    0.2500
  band No.  band energies     occupation 
      1      -3.1367      2.00000
      2       1.9342      2.00000
      3       3.6313      2.00000
      4       8.5471      1.99999
      5      12.9006      0.00000
      6      16.0496      0.00000
      7      17.2889      0.00000
      8      18.2871      0.00000

 k-point    22 :      -0.4167    0.4167    0.2500
  band No.  band energies     occupation 
      1      -1.8461      2.00000
      2       0.0256      2.00000
      3       4.2735      2.00000
      4       6.0924      2.00000
      5      14.7553      0.00000
      6      16.1988      0.00000
      7      17.8372      0.00000
      8      18.1967      0.00000

 k-point    23 :      -0.2500    0.4167    0.2500
  band No.  band energies     occupation 
      1      -1.3996      2.00000
      2       1.7169      2.00000
      3       3.4707      2.00000
      4       6.5047      2.00000
      5      10.8341      0.00000
      6      16.4955      0.00000
      7      17.5194      0.00000
      8      18.3908      0.00000

 k-point    24 :      -0.4167   -0.4167    0.2500
  band No.  band energies     occupation 
      1       0.1373      2.00000
      2       0.1478      2.00000
      3       4.3961      2.00000
      4       4.3984      2.00000
      5      10.5743      0.00000
      6      17.6479      0.00000
      7      18.2461      0.00000
      8      19.0245      0.00000

 k-point    25 :      -0.2500   -0.4167    0.2500
  band No.  band energies     occupation 
      1       1.7702      2.00000
      2       2.9903      2.00000
      3       4.7439      2.00000
      4       5.2544      2.00000
      5       6.0052      2.00000
      6      13.9644      0.00000
      7      15.3600      0.00000
      8      17.2600      0.00000

 k-point    26 :      -0.2500   -0.2500    0.2500
  band No.  band energies     occupation 
      1       0.8557      2.00000
      2       5.7793      2.00000
      3       5.8712      2.00000
      4       7.2716      2.00000
      5       7.2716      2.00000
      6      11.5901      0.00000
      7      12.2734      0.00000
      8      12.2734      0.00000

 k-point    27 :      -0.4167    0.4167    0.4167
  band No.  band energies     occupation 
      1      -0.6271      2.00000
      2       0.6199      2.00000
      3       2.4372      2.00000
      4       3.6669      2.00000
      5      16.2091      0.00000
      6      16.4161      0.00000
      7      19.3941      0.00000
      8      20.4938      0.00000

 k-point    28 :      -0.4167   -0.4167    0.4167
  band No.  band energies     occupation 
      1       1.0525      2.00000
      2       1.0702      2.00000
      3       2.8685      2.00000
      4       2.8685      2.00000
      5      10.2944      0.00000
      6      19.1887      0.00000
      7      20.3268      0.00000
      8      20.3268      0.00000


--------------------------------------------------------------------------------------------------------


 soft charge-density along one line, spin component           1
         0         1         2         3         4         5         6         7         8         9
 total charge-density along one line
 
 pseudopotential strength for first ion, spin component:           1
 18.066  -0.003   0.000  -0.000  -0.000  -0.000   0.000   0.000
 -0.003   0.005  -0.000   0.000   0.000   0.000  -0.000  -0.000
  0.000  -0.000   4.117   0.000   0.000  -0.006  -0.000  -0.000
 -0.000   0.000   0.000   4.118   0.000  -0.000  -0.006  -0.000
 -0.000   0.000   0.000   0.000   4.117  -0.000  -0.000  -0.006
 -0.000   0.000  -0.006  -0.000  -0.000   0.005   0.000   0.000
  0.000  -0.000  -0.000  -0.006  -0.000   0.000   0.005   0.000
  0.000  -0.000  -0.000  -0.000  -0.006   0.000   0.000   0.005
 total augmentation occupancy for first ion, spin component:           1
  1.606  -0.556   0.000   0.000  -0.000   0.000   0.000   0.000
 -0.556   0.941  -0.000   0.000   0.000   0.000   0.000   0.000
  0.000  -0.000   0.902   0.000  -0.000  -0.543   0.000   0.000
  0.000   0.000   0.000   0.857   0.000   0.000  -0.545   0.000
  0.000  -0.000  -0.000   0.000   0.902   0.000   0.000  -0.543
  0.000   0.000  -0.543   0.000   0.000   0.416   0.000  -0.000
  0.000   0.000   0.000  -0.545   0.000   0.000   0.439  -0.000
  0.000  -0.000   0.000   0.000  -0.543  -0.000  -0.000   0.416


------------------------ aborting loop because EDIFF is reached ----------------------------------------


    CHARGE:  cpu time    0.0200: real time    0.0171
    FORLOC:  cpu time    0.0000: real time    0.0003
    FORNL :  cpu time    0.0080: real time    0.0088
    STRESS:  cpu time    0.0720: real time    0.0701
    FORCOR:  cpu time    0.0120: real time    0.0110
    FORHAR:  cpu time    0.0000: real time    0.0027
    MIXING:  cpu time    0.0000: real time    0.0008
    OFIELD:  cpu time    0.0040: real time    0.0004

  FORCE on cell =-STRESS in cart. coord.  units (eV):
  Direction    XX          YY          ZZ          XY          YZ          ZX
  --------------------------------------------------------------------------------------
  Alpha Z     4.40202     4.40202     4.40202
  Ewald     -90.96023   -90.96023   -83.26083    -0.00000     0.00000     0.00000
  Hartree     0.55322     0.55322     1.39456     0.00000     0.00000     0.00000
  E(xc)     -25.42535   -25.42535   -25.38857     0.00005     0.00001     0.00001
  Local     -11.14878   -11.14878   -17.64510    -0.00002    -0.00005    -0.00005
  n-local    76.80033    76.76292    76.64036     1.07243    -0.54343    -0.37171
  augment   -12.04121   -12.04121   -11.91069     0.00004     0.00005     0.00005
  Kinetic    57.27183    58.08092    55.84565     1.98084    -1.11800    -3.32741
  Fock        0.00000     0.00000     0.00000     0.00000     0.00000     0.00000
  -------------------------------------------------------------------------------------
  Total      -0.16232    -0.16232     0.07741    -0.00000     0.00000    -0.00000
  in kB      -8.50185    -8.50185     4.05444    -0.00000     0.00000    -0.00000
  external pressure =       -4.32 kB  Pullay stress =        0.00 kB


 VOLUME and BASIS-vectors are now :
 -----------------------------------------------------------------------------
  energy-cutoff  :      250.00
  volume of cell :       30.59
      direct lattice vectors                 reciprocal lattice vectors
    -2.450000000  2.450000000  1.274000000     0.000000000  0.204081633  0.392464678
     2.450000000 -2.450000000  1.274000000     0.204081633  0.000000000  0.392464678
     2.450000000  2.450000000 -1.274000000     0.204081633  0.204081633 -0.000000000

  length of vectors
     3.691622408  3.691622408  3.691622408     0.442354876  0.442354876  0.288615013


 FORCES acting on ions
    electron-ion (+dipol)            ewald-force                    non-local-force                 convergence-correction
 -----------------------------------------------------------------------------------------------
   0.966E-05 -.966E-05 0.296E-14   0.198E-14 0.156E-15 0.342E-17   0.586E-16 -.594E-16 -.136E-16   -.624E-08 0.624E-08 -.118E-15
   -.966E-05 0.966E-05 0.488E-14   -.185E-14 0.943E-16 0.891E-15   -.674E-16 0.991E-16 0.179E-16   0.624E-08 -.624E-08 0.608E-16
 -----------------------------------------------------------------------------------------------
   -.121E-13 0.138E-13 0.784E-14   0.139E-15 0.250E-15 0.894E-15   -.885E-17 0.397E-16 0.432E-17   -.605E-17 0.924E-16 -.569E-16
 
 
 POSITION                                       TOTAL-FORCE (eV/Angst)
 -----------------------------------------------------------------------------------
      2.45000      0.00000      0.63700        -0.000000      0.000000      0.000000
      0.00000      0.00000      0.00000         0.000000     -0.000000     -0.000000
 -----------------------------------------------------------------------------------
    total drift:                               -0.000000      0.000000      0.000000


--------------------------------------------------------------------------------------------------------



  FREE ENERGIE OF THE ION-ELECTRON SYSTEM (eV)
  ---------------------------------------------------
  free  energy   TOTEN  =       -10.27463674 eV

  energy  without entropy=      -10.26326665  energy(sigma->0) =      -10.26895169
 


--------------------------------------------------------------------------------------------------------


    POTLOK:  cpu time    0.0200: real time    0.0328


--------------------------------------------------------------------------------------------------------




--------------------------------------------------------------------------------------------------------


  
 reached required accuracy - stopping structural energy minimisation
 writing wavefunctions
     LOOP+:  cpu time    0.7120: real time    1.1747
    4ORBIT:  cpu time    0.0000: real time    0.0000

 total amount of memory used by VASP MPI-rank0    31037. kBytes
=======================================================================

   base      :      30000. kBytes
   nonl-proj :        510. kBytes
   fftplans  :        119. kBytes
   grid      :        270. kBytes
   one-center:          6. kBytes
   wavefun   :        132. kBytes
 
  
  
 General timing and accounting informations for this job:
 ========================================================
  
                  Total CPU time used (sec):        4.036
                            User time (sec):        3.100
                          System time (sec):        0.936
                         Elapsed time (sec):        5.637
  
                   Maximum memory used (kb):        8932.
                   Average memory used (kb):           0.
  
                          Minor page faults:        37927
                          Major page faults:           36
                 Voluntary context switches:        23294
