unknown system                          
   1.00000000000000     
    -2.407116    2.407116    1.326701
     2.407116   -2.407116    1.326701
     2.407116    2.407116   -1.326701
   Si
     2
Direct
  0.250000  0.750000  0.500000
  0.000000  0.000000  0.000000
 
   28   28   28
 -5.5841     -4.0470     -.43009E-01  4.9103      9.1180      11.448      11.704      10.499      8.7853      7.1622    
  5.8069      4.7792      4.0753      3.6687      3.5361      3.6687      4.0753      4.7792      5.8069      7.1622    
  8.7853      10.499      11.704      11.448      9.1180      4.9103     -.43031E-01 -4.0470     -4.0470     -4.8455    
 -2.6933      1.5541      6.3004      9.9695      11.669      11.435      10.005      8.2942      6.7395      5.4757    
  4.5416      3.9240      3.5957      3.5361      3.7406      4.2214      5.0038      6.1113      7.5370      9.2010    
  10.877      11.852      11.213      8.5038      4.1343     -.61174     -.43031E-01 -2.6933     -2.7635     -.23273    
  3.8785      8.0214      10.849      11.763      11.019      9.4251      7.7562      6.2939      5.1369      4.3041    
  3.7758      3.5253      3.5361      3.8074      4.3542      5.2020      6.3703      7.8409      9.5167      11.128    
  11.918      11.064      8.2803      4.1343      4.9103      1.5540     -.23273     0.29189      2.8991      6.5094    
  9.7389      11.549      11.645      10.461      8.7973      7.2018      5.8505      4.8089      4.0793      3.6381    
  3.4612      3.5362      3.8655      4.4661      5.3622      6.5679      8.0548      9.7138      11.253      11.936    
  11.064      8.5038      9.1180      6.3004      3.8786      2.8991      3.7998      6.1777      9.0031      11.148    
  11.914      11.285      9.8034      8.1570      6.6609      5.4323      4.5078      3.8778      3.5175      3.4065    
  3.5362      3.9119      4.5507      5.4747      6.6917      8.1652      9.7808      11.253      11.918      11.213    
  11.448      9.9695      8.0214      6.5094      6.1777      7.2055      9.1061      10.992      12.041      11.883    
  10.718      9.1152      7.5381      6.1603      5.0585      4.2468      3.7081      3.4190      3.3635      3.5363    
  3.9442      4.6035      5.5326      6.7338      8.1652      9.7138      11.128      11.852      11.704      11.669    
  10.849      9.7389      9.0031      9.1062      10.039      11.318      12.258      12.348      11.497      10.037    
  8.4484      6.9723      5.7228      4.7444      4.0356      3.5762      3.3464      3.3339      3.5364      3.9607    
  4.6214      5.5326      6.6917      8.0548      9.5167      10.877      10.499      11.435      11.763      11.549    
  11.148      10.992      11.318      12.004      12.639      12.765      12.142      10.883      9.3549      7.8417    
  6.4867      5.3661      4.5009      3.8808      3.4864      3.3019      3.3188      3.5364      3.9607      4.6035    
  5.4747      6.5679      7.8409      9.2010      8.7853      10.005      11.019      11.645      11.914      12.041    
  12.258      12.639      13.022      13.105      12.641      11.602      10.213      8.7351      7.3303      6.1035    
  5.1030      4.3351      3.7865      3.4410      3.2869      3.3188      3.5364      3.9442      4.5507      5.3622    
  6.3703      7.5370      7.1622      8.2942      9.4251      10.461      11.285      11.883      12.348      12.765    
  13.105      13.217      12.918      12.131      10.961      9.6056      8.2241      6.9430      5.8391      4.9420    
  4.2513      3.7549      3.4410      3.3019      3.3339      3.5363      3.9119      4.4661      5.2020      6.1113    
  5.8069      6.7395      7.7562      8.7973      9.8034      10.718      11.497      12.142      12.641      12.918    
  12.859      12.382      11.520      10.388      9.1230      7.8604      6.7018      5.7042      4.8878      4.2513    
  3.7865      3.4864      3.3464      3.3635      3.5362      3.8655      4.3542      5.0038      4.7792      5.4758    
  6.2939      7.2018      8.1570      9.1152      10.037      10.883      11.602      12.131      12.382      12.281    
  11.806      11.000      9.9608      8.8130      7.6715      6.6199      5.7042      4.9420      4.3351      3.8808    
  3.5762      3.4190      3.4065      3.5362      3.8074      4.2214      4.0753      4.5416      5.1369      5.8505    
  6.6609      7.5381      8.4484      9.3549      10.213      10.961      11.520      11.806      11.756      11.358    
  10.653      9.7332      8.7061      7.6715      6.7018      5.8391      5.1030      4.5009      4.0356      3.7081    
  3.5175      3.4612      3.5361      3.7406      3.6687      3.9240      4.3041      4.8089      5.4323      6.1603    
  6.9723      7.8417      8.7351      9.6057      10.388      11.000      11.358      11.401      11.114      10.532    
  9.7332      8.8130      7.8604      6.9430      6.1035      5.3661      4.7444      4.2468      3.8778      3.6381    
  3.5253      3.5361      3.5361      3.5957      3.7757      4.0793      4.5078      5.0585      5.7228      6.4867    
  7.3303      8.2241      9.1230      9.9608      10.653      11.114      11.276      11.114      10.653      9.9608    
  9.1230      8.2241      7.3303      6.4867      5.7228      5.0585      4.5078      4.0793      3.7758      3.5957    
  3.6687      3.5361      3.5253      3.6381      3.8778      4.2467      4.7444      5.3661      6.1035      6.9430    
  7.8604      8.8130      9.7332      10.532      11.114      11.401      11.358      11.000      10.388      9.6056    
  8.7351      7.8417      6.9723      6.1603      5.4323      4.8089      4.3041      3.9240      4.0753      3.7406    
  3.5361      3.4612      3.5175      3.7080      4.0355      4.5008      5.1030      5.8391      6.7018      7.6715    
  8.7061      9.7332      10.653      11.358      11.756      11.806      11.520      10.961      10.213      9.3549    
  8.4484      7.5381      6.6609      5.8505      5.1369      4.5416      4.7792      4.2214      3.8074      3.5362    
  3.4064      3.4190      3.5762      3.8807      4.3351      4.9419      5.7042      6.6199      7.6715      8.8130    
  9.9608      11.000      11.806      12.281      12.382      12.131      11.602      10.883      10.037      9.1152    
  8.1570      7.2018      6.2939      5.4757      5.8069      5.0037      4.3541      3.8655      3.5362      3.3634    
  3.3463      3.4864      3.7865      4.2512      4.8878      5.7042      6.7018      7.8604      9.1230      10.388    
  11.520      12.382      12.859      12.918      12.641      12.142      11.497      10.718      9.8034      8.7973    
  7.7562      6.7395      7.1622      6.1112      5.2020      4.4660      3.9119      3.5363      3.3338      3.3018    
  3.4409      3.7548      4.2512      4.9419      5.8391      6.9430      8.2241      9.6057      10.961      12.131    
  12.918      13.217      13.105      12.765      12.348      11.883      11.285      10.461      9.4251      8.2942    
  8.7853      7.5370      6.3703      5.3622      4.5507      3.9441      3.5363      3.3188      3.2869      3.4409    
  3.7865      4.3351      5.1030      6.1035      7.3303      8.7351      10.213      11.602      12.641      13.105    
  13.022      12.639      12.258      12.041      11.914      11.645      11.019      10.005      10.499      9.2010    
  7.8408      6.5679      5.4746      4.6034      3.9606      3.5363      3.3188      3.3018      3.4864      3.8807    
  4.5008      5.3661      6.4867      7.8417      9.3549      10.883      12.142      12.765      12.639      12.004    
  11.318      10.992      11.148      11.549      11.763      11.435      11.704      10.877      9.5166      8.0547    
  6.6916      5.5326      4.6213      3.9606      3.5363      3.3338      3.3463      3.5762      4.0355      4.7444    
  5.7228      6.9723      8.4484      10.037      11.497      12.348      12.258      11.318      10.039      9.1061    
  9.0031      9.7389      10.849      11.669      11.448      11.852      11.128      9.7138      8.1651      6.7338    
  5.5326      4.6034      3.9441      3.5363      3.3634      3.4190      3.7080      4.2467      5.0585      6.1603    
  7.5381      9.1152      10.718      11.883      12.041      10.992      9.1062      7.2055      6.1777      6.5094    
  8.0214      9.9695      9.1180      11.213      11.918      11.253      9.7808      8.1651      6.6916      5.4746    
  4.5507      3.9119      3.5362      3.4064      3.5175      3.8778      4.5078      5.4323      6.6609      8.1570    
  9.8034      11.285      11.914      11.148      9.0031      6.1777      3.7998      2.8991      3.8785      6.3004    
  4.9103      8.5038      11.064      11.936      11.253      9.7138      8.0547      6.5679      5.3622      4.4660    
  3.8655      3.5362      3.4612      3.6381      4.0793      4.8089      5.8505      7.2018      8.7973      10.461    
  11.645      11.549      9.7389      6.5094      2.8991     0.29189     -.23273      1.5541     -.43009E-01  4.1343    
  8.2803      11.064      11.918      11.128      9.5166      7.8408      6.3703      5.2020      4.3541      3.8074    
  3.5361      3.5253      3.7757      4.3041      5.1369      6.2939      7.7562      9.4251      11.019      11.763    
  10.849      8.0214      3.8786     -.23273     -2.7635     -2.6933     -4.0470     -.61171      4.1343      8.5038    
  11.213      11.852      10.877      9.2010      7.5370      6.1112      5.0037      4.2214      3.7406      3.5361    
  3.5957      3.9240      4.5416      5.4758      6.7395      8.2942      10.005      11.435      11.669      9.9695    
  6.3004      1.5540     -2.6933     -4.8455     -4.0469     -2.9311     0.57019      5.1013      9.0568      11.302    
  11.572      10.402      8.6992      7.0706      5.7003      4.6514      3.9224      3.4865      3.3187      3.4081    
  3.7612      4.4002      5.3528      6.6298      8.1879      9.8850      11.250      11.384      9.6199      6.0133    
  1.5118     -2.3347     -2.9311     -4.0469     -2.3347      1.5117      6.0132      9.6199      11.384      11.250    
  9.8849      8.1879      6.6298      5.3527      4.4001      3.7612      3.4081      3.3187      3.4865      3.9225    
  4.6515      5.7004      7.0707      8.6992      10.402      11.572      11.302      9.0568      5.1013     0.57019    
 0.66950     -2.2289     -2.6933     -.55399      3.3047      7.3932      10.330      11.420      10.825      9.2976    
  7.6424      6.1769      5.0081      4.1602      3.6151      3.3457      3.3338      3.5774      4.0910      4.9015    
  6.0323      7.4751      9.1484      10.826      11.816      11.270      8.8056      4.8621      5.3592      1.7973    
 -.35548     -.23271      2.0824      5.6041      8.9476      10.990      11.321      10.290      8.6756      7.0909    
  5.7353      4.6837      3.9431      3.4910      3.3024      3.3634      3.6764      4.2586      5.1367      6.3300    
  7.8196      9.5094      11.141      12.006      11.354      8.9529      9.4814      6.4982      3.7422      2.3500    
  2.8991      5.1085      7.9918      10.368      11.425      11.031      9.6682      8.0507      6.5600      5.3261    
  4.3944      3.7586      3.3944      3.2801      3.4065      3.7792      4.4167      5.3443      6.5756      8.0824    
  9.7591      11.338      12.150      11.567      11.862      10.274      8.0501      6.1444      5.4161      6.1777    
  8.0277      10.074      11.405      11.530      10.551      9.0128      7.4519      6.0740      4.9671      4.1522    
  3.6143      3.3294      3.2801      3.4614      3.8808      4.5570      5.5121      6.7536      8.2459      9.8799    
  11.404      12.234      12.221      12.150      11.145      9.7083      8.5807      8.3464      9.1062      10.422    
  11.566      11.923      11.292      9.9405      8.3775      6.9064      5.6534      4.6724      3.9662      3.5153    
  3.2983      3.3024      3.5255      3.9763      4.6717      5.6298      6.8519      8.2977      9.8608      11.327    
  11.096      12.069      12.319      11.889      11.163      10.661      10.727      11.318      12.032      12.346    
  11.925      10.793      9.3013      7.7960      6.4385      5.3146      4.4519      3.8420      3.4646      3.3020    
  3.3458      3.5959      4.0606      4.7541      5.6894      6.8629      8.2325      9.7000      9.4056      10.712    
  11.744      12.277      12.335      12.175      12.112      12.305      12.639      12.797      12.464      11.533    
  10.180      8.7080      7.3000      6.0689      5.0698      4.3123      3.7828      3.4630      3.3399      3.4081    
  3.6689      4.1289      4.7987      5.6865      6.7848      8.0532      7.7710      8.9955      10.195      11.241    
  11.976      12.392      12.624      12.825      13.029      13.105      12.842      12.106      10.952      9.5933    
  8.2048      6.9176      5.8139      4.9271      4.2571      3.7894      3.5099      3.4099      3.4865      3.7407    
  4.1770      4.8023      5.6205      6.6222      6.3856      7.4047      8.4963      9.5846      10.591      11.431    
  12.064      12.528      12.862      13.029      12.918      12.422      11.537      10.384      9.1034      7.8311    
  6.6717      5.6850      4.8914      4.2872      3.8610      3.6034      3.5093      3.5773      3.8074      4.2019    
  4.7642      5.4953      5.3191      6.0910      6.9787      7.9404      8.9204      9.8618      10.718      11.449    
  12.028      12.421      12.565      12.382      11.844      10.994      9.9261      8.7622      7.6182      6.5787    
  5.6893      4.9645      4.4020      3.9955      3.7403      3.6343      3.6762      3.8654      4.2018      4.6866    
  4.5744      5.1033      5.7577      6.5207      7.3624      8.2430      9.1205      9.9556      10.710      11.336    
  11.771      11.946      11.806      11.339      10.588      9.6416      8.6082      7.5867      6.6474      5.8287    
  5.1450      4.5987      4.1892      3.9163      3.7799      3.7790      3.9117      4.1769      4.1287      4.4348    
  4.8620      5.4068      6.0581      6.7956      7.5913      8.4139      9.2293      9.9967      10.662      11.155    
  11.404      11.358      11.004      10.383      9.5709      8.6629      7.7446      6.8782      6.1002      5.4288    
  4.8725      4.4367      4.1254      3.9403      3.8806      3.9440      3.9605      4.0604      4.2764      4.6095    
  5.0583      5.6160      6.2694      6.9994      7.7831      8.5917      9.3849      10.106      10.681      11.036    
  11.114      10.897      10.413      9.7295      8.9279      8.0860      7.2625      6.4953      5.8078      5.2154    
  4.7300      4.3599      4.1086      3.9761      4.0604      3.9605      3.9761      4.1086      4.3599      4.7301    
  5.2154      5.8078      6.4954      7.2625      8.0860      8.9279      9.7295      10.413      10.897      11.114    
  11.036      10.681      10.106      9.3849      8.5917      7.7831      6.9994      6.2694      5.6160      5.0582    
  4.6095      4.2764      4.4348      4.1288      3.9440      3.8807      3.9404      4.1255      4.4367      4.8725    
  5.4288      6.1003      6.8782      7.7445      8.6629      9.5709      10.383      11.004      11.358      11.404    
  11.155      10.661      9.9967      9.2293      8.4139      7.5913      6.7956      6.0581      5.4067      4.8619    
  5.1034      4.5744      4.1770      3.9118      3.7790      3.7800      3.9163      4.1892      4.5988      5.1450    
  5.8287      6.6474      7.5867      8.6082      9.6416      10.588      11.339      11.806      11.946      11.771    
  11.336      10.710      9.9556      9.1205      8.2430      7.3624      6.5207      5.7577      6.0910      5.3191    
  4.6866      4.2019      3.8655      3.6763      3.6343      3.7403      3.9955      4.4020      4.9645      5.6893    
  6.5787      7.6182      8.7622      9.9261      10.994      11.844      12.382      12.565      12.421      12.027    
  11.449      10.718      9.8617      8.9204      7.9405      6.9788      7.4047      6.3857      5.4954      4.7642    
  4.2019      3.8074      3.5773      3.5094      3.6034      3.8610      4.2872      4.8914      5.6850      6.6717    
  7.8311      9.1034      10.384      11.537      12.422      12.918      13.029      12.862      12.528      12.064    
  11.431      10.591      9.5846      8.4964      8.9955      7.7711      6.6222      5.6206      4.8023      4.1770    
  3.7407      3.4865      3.4099      3.5098      3.7894      4.2570      4.9271      5.8138      6.9175      8.2048    
  9.5933      10.952      12.106      12.842      13.105      13.029      12.825      12.624      12.392      11.976    
  11.241      10.195      10.712      9.4056      8.0533      6.7849      5.6865      4.7987      4.1288      3.6689    
  3.4081      3.3398      3.4629      3.7827      4.3123      5.0697      6.0689      7.3000      8.7080      10.180    
  11.533      12.464      12.797      12.639      12.305      12.112      12.175      12.335      12.277      11.744    
  12.069      11.096      9.7000      8.2326      6.8629      5.6894      4.7541      4.0605      3.5958      3.3457    
  3.3020      3.4645      3.8420      4.4519      5.3146      6.4384      7.7960      9.3013      10.793      11.925    
  12.346      12.031      11.318      10.727      10.661      11.163      11.889      12.319      12.150      12.221    
  11.327      9.8608      8.2977      6.8518      5.6297      4.6717      3.9762      3.5254      3.3023      3.2982    
  3.5152      3.9661      4.6723      5.6534      6.9063      8.3775      9.9405      11.292      11.923      11.566    
  10.421      9.1061      8.3464      8.5807      9.7083      11.145      10.274      11.862      12.234      11.404    
  9.8798      8.2458      6.7536      5.5120      4.5569      3.8807      3.4613      3.2800      3.3293      3.6142    
  4.1522      4.9671      6.0740      7.4519      9.0128      10.551      11.530      11.405      10.074      8.0277    
  6.1777      5.4161      6.1444      8.0501      6.4982      9.4814      11.567      12.150      11.338      9.7591    
  8.0823      6.5755      5.3442      4.4166      3.7791      3.4064      3.2800      3.3943      3.7586      4.3943    
  5.3261      6.5600      8.0507      9.6682      11.031      11.425      10.368      7.9918      5.1085      2.8991    
  2.3500      3.7422      1.7974      5.3592      8.9529      11.354      12.006      11.141      9.5093      7.8195    
  6.3299      5.1366      4.2585      3.6763      3.3634      3.3023      3.4909      3.9430      4.6837      5.7353    
  7.0909      8.6756      10.290      11.321      10.990      8.9476      5.6041      2.0825     -.23264     -.35542    
 -2.2288     0.66953      4.8621      8.8056      11.270      11.816      10.826      9.1484      7.4751      6.0323    
  4.9014      4.0909      3.5773      3.3338      3.3457      3.6151      4.1602      5.0081      6.1770      7.6424    
  9.2976      10.825      11.420      10.330      7.3932      3.3048     -.55394     -2.6932     -.42837E-01 0.66963    
  3.3721      6.9689      10.098      11.767      11.734      10.466      8.7639      7.1469      5.7801      4.7233    
  3.9750      3.5094      3.3019      3.3399      3.6271      4.1817      5.0300      6.1885      7.6315      9.2544    
  10.764      11.426      10.570      8.0886      4.6512      1.5119     0.57031     -.61155     0.57030      3.6180    
  7.2952      10.244      11.599      11.285      9.8864      8.2093      6.6686      5.3984      4.4412      3.7874    
  3.4100      3.2869      3.4100      3.7874      4.4413      5.3984      6.6686      8.2092      9.8864      11.285    
  11.599      10.244      7.2952      3.6180      3.3721     0.66962     -.42855E-01  1.5119      4.6512      8.0886    
  10.570      11.426      10.764      9.2544      7.6315      6.1885      5.0300      4.1817      3.6271      3.3399    
  3.3019      3.5095      3.9750      4.7233      5.7801      7.1469      8.7638      10.466      11.734      11.767    
  10.098      6.9690      7.2123      3.9798      1.7974      1.5542      3.3048      6.2472      9.1442      10.934    
  11.184      10.171      8.6043      7.0591      5.7296      4.6919      3.9558      3.5006      3.3021      3.3463    
  3.6344      4.1819      5.0149      6.1562      7.5980      9.2648      10.963      12.118      11.985      10.226    
  10.640      7.9962      5.3311      3.7423      3.8787      5.6042      8.0793      10.209      11.185      10.821    
  9.5251      7.9656      6.5177      5.3123      4.3983      3.7728      3.4132      3.2983      3.4190      3.7800    
  4.3991      5.3019      6.5064      7.9954      9.6812      11.353      12.433      12.268      12.586      11.267    
  9.1666      7.1671      6.1444      6.5094      7.9918      9.7989      11.049      11.212      10.323      8.8655    
  7.3642      6.0295      4.9532      4.1607      3.6400      3.3685      3.3293      3.5175      3.9404      4.6165    
  5.5689      6.8099      8.3135      9.9836      11.609      12.660      12.763      12.867      11.965      10.483    
  9.1425      8.5807      9.0031      10.074      11.118      11.506      10.975      9.7258      8.2373      6.8234    
  5.6132      4.6654      3.9875      3.5620      3.3684      3.3943      3.6381      4.1086      4.8231      5.8007    
  7.0471      8.5291      10.148      11.709      11.632      12.702      13.019      12.563      11.680      10.908    
  10.661      10.992      11.566      11.873      11.534      10.512      9.1056      7.6681      6.3641      5.2834    
  4.4584      3.8841      3.5414      3.4130      3.4909      3.7758      4.2764      5.0073      5.9825      7.2010    
  8.6248      10.158      10.008      11.372      12.443      12.960      12.907      12.531      12.189      12.112    
  12.258      12.346      12.047      11.202      9.9326      8.5305      7.1834      6.0039      5.0509      4.3379    
  3.8530      3.5781      3.5004      3.6150      3.9241      4.4348      5.1578      6.1016      7.2594      8.5912    
  8.4288      9.7077      10.941      11.981      12.644      12.901      12.901      12.844      12.825      12.765    
  12.464      11.761      10.665      9.3650      8.0377      6.8074      5.7571      4.9230      4.3068      3.8943    
  3.6705      3.6269      3.7611      4.0753      4.5744      5.2646      6.1489      7.2167      7.0751      8.1488    
  9.2775      10.373      11.340      12.076      12.534      12.775      12.880      12.862      12.640      12.106    
  11.228      10.107      8.8774      7.6616      6.5607      5.6344      4.9040      4.3654      4.0059      3.8148    
  3.7872      3.9223      4.2214      4.6866      5.3200      6.1205      6.0179      6.8448      7.7717      8.7485    
  9.7090      10.585      11.322      11.878      12.250      12.441      12.421      12.131      11.537      10.677    
  9.6350      8.5177      7.4325      6.4596      5.6428      4.9950      4.5119      4.1842      4.0059      3.9748    
  4.0908      4.3541      4.7642      5.3201      5.2647      5.8484      6.5426      7.3248      8.1581      8.9947    
  9.7852      10.488      11.071      11.506      11.754      11.771      11.520      10.994      10.231      9.3088    
  8.3260      7.3730      6.5147      5.7851      5.1950      4.7426      4.4238      4.2369      4.1817      4.2584    
  4.4660      4.8023      4.7987      5.1579      5.6244      6.1899      6.8387      7.5450      8.2754      8.9944    
  9.6684      10.264      10.743      11.057      11.155      11.000      10.588      9.9561      9.1751      8.3296    
  7.4963      6.7299      6.0603      5.4997      5.0516      4.7175      4.4994      4.3990      4.4166      4.5506    
  4.6034      4.7541      5.0074      5.3611      5.8100      6.3437      6.9452      7.5920      8.2591      8.9191    
  9.5392      10.076      10.475      10.681      10.653      10.383      9.8985      9.2602      8.5399      7.8041    
  7.1016      6.4621      5.9018      5.4305      5.0556      4.7830      4.6165      4.5569      4.6717      4.6213    
  4.6718      4.8232      5.0752      5.4253      5.8669      6.3895      6.9789      7.6182      8.2860      8.9510    
  9.5673      10.076      10.413      10.532      10.413      10.076      9.5673      8.9510      8.2860      7.6182    
  6.9789      6.3894      5.8669      5.4252      5.0752      4.8232      5.0074      4.7541      4.6034      4.5570    
  4.6166      4.7831      5.0556      5.4305      5.9019      6.4621      7.1016      7.8041      8.5399      9.2602    
  9.8986      10.383      10.653      10.681      10.475      10.076      9.5392      8.9192      8.2591      7.5920    
  6.9452      6.3437      5.8100      5.3611      5.6244      5.1580      4.7988      4.5507      4.4166      4.3991    
  4.4995      4.7176      5.0517      5.4998      6.0603      6.7299      7.4963      8.3296      9.1751      9.9561    
  10.588      11.000      11.155      11.057      10.743      10.264      9.6685      8.9944      8.2754      7.5450    
  6.8387      6.1900      6.5426      5.8485      5.2648      4.8024      4.4660      4.2585      4.1818      4.2370    
  4.4239      4.7426      5.1950      5.7852      6.5147      7.3730      8.3260      9.3088      10.231      10.994    
  11.520      11.771      11.754      11.506      11.071      10.488      9.7852      8.9947      8.1581      7.3248    
  7.7717      6.8448      6.0180      5.3202      4.7643      4.3542      4.0909      3.9748      4.0059      4.1842    
  4.5119      4.9951      5.6428      6.4596      7.4325      8.5177      9.6350      10.677      11.537      12.131    
  12.421      12.441      12.250      11.878      11.322      10.585      9.7090      8.7486      9.2775      8.1489    
  7.0752      6.1206      5.3201      4.6866      4.2214      3.9223      3.7873      3.8149      4.0059      4.3654    
  4.9040      5.6344      6.5607      7.6617      8.8774      10.107      11.228      12.106      12.640      12.862    
  12.880      12.775      12.534      12.076      11.340      10.373      10.941      9.7078      8.4289      7.2168    
  6.1490      5.2647      4.5744      4.0753      3.7611      3.6269      3.6705      3.8943      4.3068      4.9230    
  5.7571      6.8074      8.0377      9.3651      10.665      11.761      12.464      12.764      12.825      12.844    
  12.901      12.901      12.644      11.981      12.443      11.372      10.008      8.5913      7.2595      6.1016    
  5.1578      4.4348      3.9241      3.6150      3.5004      3.5781      3.8530      4.3379      5.0509      6.0039    
  7.1834      8.5306      9.9326      11.202      12.047      12.346      12.258      12.112      12.189      12.531    
  12.906      12.960      13.019      12.702      11.632      10.158      8.6249      7.2011      5.9825      5.0073    
  4.2764      3.7758      3.4909      3.4130      3.5413      3.8841      4.4584      5.2834      6.3641      7.6681    
  9.1056      10.512      11.534      11.873      11.566      10.992      10.661      10.908      11.680      12.562    
  11.965      12.867      12.763      11.709      10.148      8.5291      7.0472      5.8007      4.8231      4.1086    
  3.6381      3.3943      3.3684      3.5620      3.9875      4.6654      5.6132      6.8234      8.2373      9.7257    
  10.974      11.506      11.118      10.074      9.0030      8.5807      9.1425      10.483      9.1665      11.267    
  12.586      12.660      11.609      9.9836      8.3135      6.8099      5.5689      4.6165      3.9404      3.5175    
  3.3293      3.3684      3.6399      4.1607      4.9532      6.0295      7.3642      8.8654      10.323      11.212    
  11.049      9.7988      7.9918      6.5094      6.1444      7.1671      5.3311      7.9961      10.640      12.268    
  12.433      11.353      9.6812      7.9954      6.5064      5.3018      4.3991      3.7800      3.4190      3.2983    
  3.4131      3.7728      4.3982      5.3123      6.5177      7.9656      9.5251      10.821      11.185      10.209    
  8.0792      5.6042      3.8787      3.7423      1.7975      3.9798      7.2123      10.226      11.985      12.118    
  10.963      9.2648      7.5980      6.1562      5.0149      4.1818      3.6344      3.3463      3.3020      3.5005    
  3.9557      4.6919      5.7296      7.0591      8.6043      10.171      11.184      10.934      9.1441      6.2472    
  3.3049      1.5542      4.9105      5.3593      7.2122      9.6683      11.695      12.541      12.051      10.640    
  8.9636      7.3871      6.0481      4.9986      4.2370      3.7404      3.4864      3.4629      3.6706      4.1225    
  4.8406      5.8432      7.1204      8.6022      10.126      11.234      11.321      10.151      8.0886      6.0134    
  5.1014      4.1345      4.8622      6.9689      9.5244      11.470      12.129      11.468      9.9927      8.3559    
  6.8583      5.6168      4.6690      4.0060      3.6034      3.4409      3.5099      3.8150      4.3732      5.2085    
  6.3355      7.7310      9.3012      10.820      11.701      11.369      9.7196      7.2952      6.9690      4.8622    
  4.1345      5.1014      7.2952      9.7196      11.369      11.701      10.820      9.3012      7.7311      6.3355    
  5.2085      4.3732      3.8150      3.5099      3.4409      3.6034      4.0060      4.6690      5.6168      6.8582    
  8.3558      9.9927      11.468      12.129      11.470      9.5244      9.6683      7.2123      5.3593      4.9105    
  6.0134      8.0887      10.151      11.321      11.234      10.126      8.6022      7.1204      5.8432      4.8406    