 vasp.5.4.4.18Apr17-6-g9f103f2a35 (build Dec 09 2018 21:25:21) complex          
  
 executed on IFC18.0.1.163_CrayMP date 2019.03.20  09:15:30
 running on    8 total cores
 distrk:  each k-point on    8 cores,    1 groups
 distr:  one band on NCORES_PER_BAND=   1 cores,    8 groups


--------------------------------------------------------------------------------------------------------


 INCAR:
 POTCAR:   PAW_PBE Si 05Jan2001                   

 ----------------------------------------------------------------------------- 
|                                                                             |
|           W    W    AA    RRRRR   N    N  II  N    N   GGGG   !!!           |
|           W    W   A  A   R    R  NN   N  II  NN   N  G    G  !!!           |
|           W    W  A    A  R    R  N N  N  II  N N  N  G       !!!           |
|           W WW W  AAAAAA  RRRRR   N  N N  II  N  N N  G  GGG   !            |
|           WW  WW  A    A  R   R   N   NN  II  N   NN  G    G                |
|           W    W  A    A  R    R  N    N  II  N    N   GGGG   !!!           |
|                                                                             |
|      For optimal performance we recommend to set                            |
|        NCORE= 4 - approx SQRT( number of cores)                             |
|      NCORE specifies how many cores store one orbital (NPAR=cpu/NCORE).     |
|      This setting can  greatly improve the performance of VASP for DFT.     |
|      The default,   NCORE=1            might be grossly inefficient         |
|      on modern multi-core architectures or massively parallel machines.     |
|      Do your own testing !!!!                                               |
|      Unfortunately you need to use the default for GW and RPA calculations. |
|      (for HF NCORE is supported but not extensively tested yet)             |
|                                                                             |
 ----------------------------------------------------------------------------- 

 POTCAR:   PAW_PBE Si 05Jan2001                   
   VRHFIN =Si: s2p2                                                             
   LEXCH  = PE                                                                  
   EATOM  =   103.0669 eV,    7.5752 Ry                                         
                                                                                
   TITEL  = PAW_PBE Si 05Jan2001                                                
   LULTRA =        F    use ultrasoft PP ?                                      
   IUNSCR =        1    unscreen: 0-lin 1-nonlin 2-no                           
   RPACOR =    1.500    partial core radius                                     
   POMASS =   28.085; ZVAL   =    4.000    mass and valenz                      
   RCORE  =    1.900    outmost cutoff radius                                   
   RWIGS  =    2.480; RWIGS  =    1.312    wigner-seitz radius (au A)           
   ENMAX  =  245.345; ENMIN  =  184.009 eV                                      
   ICORE  =        2    local potential                                         
   LCOR   =        T    correct aug charges                                     
   LPAW   =        T    paw PP                                                  
   EAUG   =  322.069                                                            
   DEXC   =    -.007                                                            
   RMAX   =    2.944    core radius for proj-oper                               
   RAUG   =    1.300    factor for augmentation sphere                          
   RDEP   =    1.993    radius for radial grids                                 
   QCUT   =   -4.246; QGAM   =    8.493    optimization parameters              
                                                                                
   Description                                                                  
     l     E      TYP  RCUT    TYP  RCUT                                        
     0   .000     23  1.900                                                     
     0   .000     23  1.900                                                     
     1   .000     23  1.900                                                     
     1   .000     23  1.900                                                     
     2   .000      7  1.900                                                     
  local pseudopotential read in
  partial core-charges read in
  atomic valenz-charges read in
  non local Contribution for L=           0  read in
    real space projection operators read in
  non local Contribution for L=           0  read in
    real space projection operators read in
  non local Contribution for L=           1  read in
    real space projection operators read in
  non local Contribution for L=           1  read in
    real space projection operators read in
    PAW grid and wavefunctions read in
 
   number of l-projection  operators is LMAX  =           4
   number of lm-projection operators is LMMAX =           8
 
 PAW_PBE Si 05Jan2001                   :
 energy of atom  1       EATOM= -103.0669
 kinetic energy error for atom=    0.0107 (will be added to EATOM!!)
 
 
 POSCAR: Si2                                     
  positions in direct lattice
  No initial velocities read in
 exchange correlation table for  LEXCH =        8
   RHO(1)=    0.500       N(1)  =     2000
   RHO(2)=  100.500       N(2)  =     4000
 


--------------------------------------------------------------------------------------------------------


 ion  position               nearest neighbor table
   1  0.250  0.750  0.500-   2 2.53   2 2.53   2 2.53   2 2.53   2 3.11   2 3.11   2 3.11   2 3.11

   2  0.000  0.000  0.000-   1 2.53   1 2.53   1 2.53   1 2.53   1 3.11   1 3.11   1 3.11   1 3.11

 
  LATTYP: Found a body centered tetragonal cell.
 ALAT       =     4.9000000000
 C/A-ratio  =     0.5200000000
  
  Lattice vectors:
  
 A1 = (  -2.4500000000,   2.4500000000,   1.2740000000)
 A2 = (   2.4500000000,  -2.4500000000,   1.2740000000)
 A3 = (   2.4500000000,   2.4500000000,  -1.2740000000)


Analysis of symmetry for initial positions (statically):
=====================================================================
 Subroutine PRICEL returns:
 Original cell was already a primitive cell.
 

 Routine SETGRP: Setting up the symmetry group for a 
 body centered tetragonal supercell.


 Subroutine GETGRP returns: Found 16 space group operations
 (whereof  8 operations were pure point group operations)
 out of a pool of 16 trial point group operations.


The static configuration has the point symmetry D_2d.
 The point group associated with its full space group is D_4h.


Analysis of symmetry for dynamics (positions and initial velocities):
=====================================================================
 Subroutine PRICEL returns:
 Original cell was already a primitive cell.
 

 Routine SETGRP: Setting up the symmetry group for a 
 body centered tetragonal supercell.


 Subroutine GETGRP returns: Found 16 space group operations
 (whereof  8 operations were pure point group operations)
 out of a pool of 16 trial point group operations.


The dynamic configuration has the point symmetry D_2d.
 The point group associated with its full space group is D_4h.


 Subroutine INISYM returns: Found 16 space group operations
 (whereof  8 operations are pure point group operations),
 and found     1 'primitive' translations

 
 
 KPOINTS: Automatic kpoint scheme                 

Automatic generation of k-mesh.
Space group operators:
 irot       det(A)        alpha          n_x          n_y          n_z        tau_x        tau_y        tau_z
    1     1.000000     0.000000     1.000000     0.000000     0.000000     0.000000     0.000000     0.000000
    2    -1.000000    90.000000    -0.000000    -0.000000    -1.000000     0.000000     0.000000     0.000000
    3     1.000000   180.000000    -0.000000    -0.000000    -1.000000     0.000000     0.000000     0.000000
    4    -1.000000    90.000000    -0.000000     0.000000     1.000000     0.000000     0.000000     0.000000
    5    -1.000000   180.000000     0.000000    -1.000000     0.000000     0.000000     0.000000     0.000000
    6     1.000000   180.000000     0.707107     0.707107    -0.000000     0.000000     0.000000     0.000000
    7    -1.000000   180.000000     1.000000     0.000000     0.000000     0.000000     0.000000     0.000000
    8     1.000000   180.000000     0.707107    -0.707107     0.000000     0.000000     0.000000     0.000000
    9    -1.000000     0.000000     1.000000     0.000000     0.000000     0.250000     0.750000     0.500000
   10     1.000000    90.000000    -0.000000    -0.000000    -1.000000     0.250000     0.750000     0.500000
   11    -1.000000   180.000000    -0.000000    -0.000000    -1.000000     0.250000     0.750000     0.500000
   12     1.000000    90.000000    -0.000000     0.000000     1.000000     0.250000     0.750000     0.500000
   13     1.000000   180.000000     0.000000    -1.000000     0.000000     0.250000     0.750000     0.500000
   14    -1.000000   180.000000     0.707107     0.707107    -0.000000     0.250000     0.750000     0.500000
   15     1.000000   180.000000     1.000000     0.000000     0.000000     0.250000     0.750000     0.500000
   16    -1.000000   180.000000     0.707107    -0.707107     0.000000     0.250000     0.750000     0.500000
 
 Subroutine IBZKPT returns following result:
 ===========================================
 
 Found     40 irreducible k-points:
 
 Following reciprocal coordinates:
            Coordinates               Weight
  0.000000  0.000000  0.000000      1.000000
  0.142857 -0.000000  0.000000      8.000000
  0.285714 -0.000000  0.000000      8.000000
  0.428571 -0.000000  0.000000      8.000000
  0.142857  0.142857  0.000000      8.000000
  0.285714  0.142857  0.000000     16.000000
  0.428571  0.142857  0.000000     16.000000
 -0.428571  0.142857 -0.000000     16.000000
 -0.285714  0.142857 -0.000000     16.000000
 -0.142857  0.142857 -0.000000      4.000000
  0.285714  0.285714  0.000000      8.000000
  0.428571  0.285714  0.000000     16.000000
 -0.428571  0.285714 -0.000000     16.000000
 -0.285714  0.285714 -0.000000      4.000000
  0.428571  0.428571  0.000000      8.000000
 -0.428571  0.428571  0.000000      4.000000
  0.142857  0.142857  0.142857      8.000000
  0.285714  0.142857  0.142857     16.000000
 -0.142857  0.142857  0.142857      4.000000
  0.285714  0.285714  0.142857      8.000000
  0.428571  0.285714  0.142857      8.000000
 -0.285714  0.285714  0.142857      8.000000
 -0.142857  0.285714  0.142857      8.000000
 -0.428571  0.428571  0.142857      8.000000
 -0.285714  0.428571  0.142857     16.000000
 -0.142857  0.428571  0.142857      8.000000
 -0.428571 -0.428571  0.142857      8.000000
 -0.285714 -0.428571  0.142857     16.000000
 -0.142857 -0.428571  0.142857      8.000000
 -0.285714 -0.285714  0.142857      8.000000
 -0.142857 -0.285714  0.142857      8.000000
 -0.142857 -0.142857  0.142857      2.000000
 -0.285714  0.285714  0.285714      4.000000
 -0.428571  0.428571  0.285714      8.000000
 -0.285714  0.428571  0.285714      8.000000
 -0.428571 -0.428571  0.285714      8.000000
 -0.285714 -0.428571  0.285714      8.000000
 -0.285714 -0.285714  0.285714      2.000000
 -0.428571  0.428571  0.428571      4.000000
 -0.428571 -0.428571  0.428571      2.000000
 
 Following cartesian coordinates:
            Coordinates               Weight
  0.000000  0.000000  0.000000      1.000000
  0.000000  0.029155  0.056066      8.000000
  0.000000  0.058309  0.112133      8.000000
  0.000000  0.087464  0.168199      8.000000
  0.029155  0.029155  0.112133      8.000000
  0.029155  0.058309  0.168199     16.000000
  0.029155  0.087464  0.224266     16.000000
  0.029155 -0.087464 -0.112133     16.000000
  0.029155 -0.058309 -0.056066     16.000000
  0.029155 -0.029155  0.000000      4.000000
  0.058309  0.058309  0.224266      8.000000
  0.058309  0.087464  0.280332     16.000000
  0.058309 -0.087464 -0.056066     16.000000
  0.058309 -0.058309  0.000000      4.000000
  0.087464  0.087464  0.336398      8.000000
  0.087464 -0.087464  0.000000      4.000000
  0.058309  0.058309  0.112133      8.000000
  0.058309  0.087464  0.168199     16.000000
  0.058309 -0.000000 -0.000000      4.000000
  0.087464  0.087464  0.224266      8.000000
  0.087464  0.116618  0.280332      8.000000
  0.087464 -0.029155 -0.000000      8.000000
  0.087464  0.000000  0.056066      8.000000
  0.116618 -0.058309  0.000000      8.000000
  0.116618 -0.029155  0.056066     16.000000
  0.116618  0.000000  0.112133      8.000000
 -0.058309 -0.058309 -0.336398      8.000000
 -0.058309 -0.029155 -0.280332     16.000000
 -0.058309  0.000000 -0.224266      8.000000
 -0.029155 -0.029155 -0.224266      8.000000
 -0.029155 -0.000000 -0.168199      8.000000
  0.000000  0.000000 -0.112133      2.000000
  0.116618  0.000000 -0.000000      4.000000
  0.145773 -0.029155  0.000000      8.000000
  0.145773  0.000000  0.056066      8.000000
 -0.029155 -0.029155 -0.336398      8.000000
 -0.029155  0.000000 -0.280332      8.000000
  0.000000  0.000000 -0.224266      2.000000
  0.174927 -0.000000  0.000000      4.000000
 -0.000000  0.000000 -0.336398      2.000000
 


--------------------------------------------------------------------------------------------------------




 Dimension of arrays:
   k-points           NKPTS =     40   k-points in BZ     NKDIM =     40   number of bands    NBANDS=      8
   number of dos      NEDOS =    301   number of ions     NIONS =      2
   non local maximal  LDIM  =      4   non local SUM 2l+1 LMDIM =      8
   total plane-waves  NPLWV =   2744
   max r-space proj   IRMAX =      1   max aug-charges    IRDMAX=   3198
   dimension x,y,z NGX =    14 NGY =   14 NGZ =   14
   dimension x,y,z NGXF=    28 NGYF=   28 NGZF=   28
   support grid    NGXF=    28 NGYF=   28 NGZF=   28
   ions per type =               2
   NGX,Y,Z   is equivalent  to a cutoff of   6.30,  6.30,  6.30 a.u.
   NGXF,Y,Z  is equivalent  to a cutoff of  12.61, 12.61, 12.61 a.u.

 SYSTEM =  unknown system                          
 POSCAR =  Si2                                     

 Startparameter for this run:
   NWRITE =      2    write-flag & timer
   PREC   = normal    normal or accurate (medium, high low for compatibility)
   ISTART =      0    job   : 0-new  1-cont  2-samecut
   ICHARG =      2    charge: 1-file 2-atom 10-const
   ISPIN  =      1    spin polarized calculation?
   LNONCOLLINEAR =      F non collinear calculations
   LSORBIT =      F    spin-orbit coupling
   INIWAV =      1    electr: 0-lowe 1-rand  2-diag
   LASPH  =      F    aspherical Exc in radial PAW
   METAGGA=      F    non-selfconsistent MetaGGA calc.

 Electronic Relaxation 1
   ENCUT  =  200.0 eV  14.70 Ry    3.83 a.u.   4.26  4.26  4.26*2*pi/ulx,y,z
   ENINI  =  200.0     initial cutoff
   ENAUG  =  322.1 eV  augmentation charge cutoff
   NELM   =     60;   NELMIN=  2; NELMDL= -5     # of ELM steps 
   EDIFF  = 0.4E-03   stopping-criterion for ELM
   LREAL  =      F    real-space projection
   NLSPLINE    = F    spline interpolate recip. space projectors
   LCOMPAT=      F    compatible to vasp.4.4
   GGA_COMPAT  = T    GGA compatible to vasp.4.4-vasp.4.6
   LMAXPAW     = -100 max onsite density
   LMAXMIX     =    2 max onsite mixed and CHGCAR
   VOSKOWN=      0    Vosko Wilk Nusair interpolation
   ROPT   =    0.00000
 Ionic relaxation
   EDIFFG = -.1E-01   stopping-criterion for IOM
   NSW    =     15    number of steps for IOM
   NBLOCK =      1;   KBLOCK =     15    inner block; outer block 
   IBRION =      2    ionic relax: 0-MD 1-quasi-New 2-CG
   NFREE  =      1    steps in history (QN), initial steepest desc. (CG)
   ISIF   =      3    stress and relaxation
   IWAVPR =     11    prediction:  0-non 1-charg 2-wave 3-comb
   ISYM   =      2    0-nonsym 1-usesym 2-fastsym
   LCORR  =      T    Harris-Foulkes like correction to forces

   POTIM  = 0.5000    time-step for ionic-motion
   TEIN   =    0.0    initial temperature
   TEBEG  =    0.0;   TEEND  =   0.0 temperature during run
   SMASS  =  -3.00    Nose mass-parameter (am)
   estimated Nose-frequenzy (Omega)   =  0.10E-29 period in steps =****** mass=  -0.311E-27a.u.
   SCALEE = 1.0000    scale energy and forces
   NPACO  =    256;   APACO  = 16.0  distance and # of slots for P.C.
   PSTRESS=    0.0 pullay stress

  Mass of Ions in am
   POMASS =  28.09
  Ionic Valenz
   ZVAL   =   4.00
  Atomic Wigner-Seitz radii
   RWIGS  =  -1.00
  virtual crystal weights 
   VCA    =   1.00
   NELECT =       8.0000    total number of electrons
   NUPDOWN=      -1.0000    fix difference up-down

 DOS related values:
   EMIN   =  10.00;   EMAX   =-10.00  energy-range for DOS
   EFERMI =   0.00
   ISMEAR =     0;   SIGMA  =   0.20  broadening in eV -4-tet -1-fermi 0-gaus

 Electronic relaxation 2 (details)
   IALGO  =     38    algorithm
   LDIAG  =      T    sub-space diagonalisation (order eigenvalues)
   LSUBROT=      F    optimize rotation matrix (better conditioning)
   TURBO    =      0    0=normal 1=particle mesh
   IRESTART =      0    0=no restart 2=restart with 2 vectors
   NREBOOT  =      0    no. of reboots
   NMIN     =      0    reboot dimension
   EREF     =   0.00    reference energy to select bands
   IMIX   =      4    mixing-type and parameters
     AMIX     =   0.40;   BMIX     =  1.00
     AMIX_MAG =   1.60;   BMIX_MAG =  1.00
     AMIN     =   0.10
     WC   =   100.;   INIMIX=   1;  MIXPRE=   1;  MAXMIX= -45

 Intra band minimization:
   WEIMIN = 0.0010     energy-eigenvalue tresh-hold
   EBREAK =  0.13E-04  absolut break condition
   DEPER  =   0.30     relativ break condition  

   TIME   =   0.40     timestep for ELM

  volume/ion in A,a.u.               =      15.29       103.21
  Fermi-wavevector in a.u.,A,eV,Ry     =   1.046930  1.978411 14.912834  1.096062
  Thomas-Fermi vector in A             =   2.181789
 
 Write flags
   LWAVE        =      T    write WAVECAR
   LDOWNSAMPLE  =      F    k-point downsampling of WAVECAR
   LCHARG       =      T    write CHGCAR
   LVTOT        =      F    write LOCPOT, total local potential
   LVHAR        =      F    write LOCPOT, Hartree potential only
   LELF         =      F    write electronic localiz. function (ELF)
   LORBIT       =      0    0 simple, 1 ext, 2 COOP (PROOUT), +10 PAW based schemes


 Dipole corrections
   LMONO  =      F    monopole corrections only (constant potential shift)
   LDIPOL =      F    correct potential (dipole corrections)
   IDIPOL =      0    1-x, 2-y, 3-z, 4-all directions 
   EPSILON=  1.0000000 bulk dielectric constant

 Exchange correlation treatment:
   GGA     =    --    GGA type
   LEXCH   =     8    internal setting for exchange type
   VOSKOWN=      0    Vosko Wilk Nusair interpolation
   LHFCALC =     F    Hartree Fock is set to
   LHFONE  =     F    Hartree Fock one center treatment
   AEXX    =    0.0000 exact exchange contribution

 Linear response parameters
   LEPSILON=     F    determine dielectric tensor
   LRPA    =     F    only Hartree local field effects (RPA)
   LNABLA  =     F    use nabla operator in PAW spheres
   LVEL    =     F    velocity operator in full k-point grid
   LINTERFAST=   F  fast interpolation
   KINTER  =     0    interpolate to denser k-point grid
   CSHIFT  =0.1000    complex shift for real part using Kramers Kronig
   OMEGAMAX=  -1.0    maximum frequency
   DEG_THRESHOLD= 0.2000000E-02 threshold for treating states as degnerate
   RTIME   =   -0.100 relaxation time in fs
  (WPLASMAI=    0.000 imaginary part of plasma frequency in eV, 0.658/RTIME)
   DFIELD  = 0.0000000 0.0000000 0.0000000 field for delta impulse in time
 
 Orbital magnetization related:
   ORBITALMAG=     F  switch on orbital magnetization
   LCHIMAG   =     F  perturbation theory with respect to B field
   DQ        =  0.001000  dq finite difference perturbation B field
   LLRAUG    =     F  two centre corrections for induced B field



--------------------------------------------------------------------------------------------------------


 conjugate gradient relaxation of ions
 charge density and potential will be updated during run
 non-spin polarized calculation
 Variant of blocked Davidson
 Davidson routine will perform the subspace rotation
 perform sub-space diagonalisation
    after iterative eigenvector-optimisation
 modified Broyden-mixing scheme, WC =      100.0
 initial mixing is a Kerker type mixing with AMIX =  0.4000 and BMIX =      1.0000
 Hartree-type preconditioning will be used
 using additional bands            4
 reciprocal scheme for non local part
 use partial core corrections
 calculate Harris-corrections to forces 
   (improved forces if not selfconsistent)
 use gradient corrections 
 use of overlap-Matrix (Vanderbilt PP)
 Gauss-broadening in eV      SIGMA  =   0.20


--------------------------------------------------------------------------------------------------------


  energy-cutoff  :      200.00
  volume of cell :       30.59
      direct lattice vectors                 reciprocal lattice vectors
    -2.450000000  2.450000000  1.274000000     0.000000000  0.204081633  0.392464678
     2.450000000 -2.450000000  1.274000000     0.204081633  0.000000000  0.392464678
     2.450000000  2.450000000 -1.274000000     0.204081633  0.204081633 -0.000000000

  length of vectors
     3.691622408  3.691622408  3.691622408     0.442354876  0.442354876  0.288615013


 
 k-points in units of 2pi/SCALE and weight: Automatic kpoint scheme                 
   0.00000000  0.00000000  0.00000000       0.003
   0.00000000  0.02915452  0.05606638       0.023
   0.00000000  0.05830904  0.11213277       0.023
   0.00000000  0.08746356  0.16819915       0.023
   0.02915452  0.02915452  0.11213277       0.023
   0.02915452  0.05830904  0.16819915       0.047
   0.02915452  0.08746356  0.22426553       0.047
   0.02915452 -0.08746356 -0.11213277       0.047
   0.02915452 -0.05830904 -0.05606638       0.047
   0.02915452 -0.02915452  0.00000000       0.012
   0.05830904  0.05830904  0.22426553       0.023
   0.05830904  0.08746356  0.28033191       0.047
   0.05830904 -0.08746356 -0.05606638       0.047
   0.05830904 -0.05830904  0.00000000       0.012
   0.08746356  0.08746356  0.33639830       0.023
   0.08746356 -0.08746356  0.00000000       0.012
   0.05830904  0.05830904  0.11213277       0.023
   0.05830904  0.08746356  0.16819915       0.047
   0.05830904 -0.00000000  0.00000000       0.012
   0.08746356  0.08746356  0.22426553       0.023
   0.08746356  0.11661808  0.28033191       0.023
   0.08746356 -0.02915452  0.00000000       0.023
   0.08746356  0.00000000  0.05606638       0.023
   0.11661808 -0.05830904  0.00000000       0.023
   0.11661808 -0.02915452  0.05606638       0.047
   0.11661808  0.00000000  0.11213277       0.023
  -0.05830904 -0.05830904 -0.33639830       0.023
  -0.05830904 -0.02915452 -0.28033191       0.047
  -0.05830904 -0.00000000 -0.22426553       0.023
  -0.02915452 -0.02915452 -0.22426553       0.023
  -0.02915452 -0.00000000 -0.16819915       0.023
  -0.00000000 -0.00000000 -0.11213277       0.006
   0.11661808  0.00000000  0.00000000       0.012
   0.14577259 -0.02915452  0.00000000       0.023
   0.14577259 -0.00000000  0.05606638       0.023
  -0.02915452 -0.02915452 -0.33639830       0.023
  -0.02915452 -0.00000000 -0.28033191       0.023
   0.00000000  0.00000000 -0.22426553       0.006
   0.17492711 -0.00000000 -0.00000000       0.012
   0.00000000 -0.00000000 -0.33639830       0.006
 
 k-points in reciprocal lattice and weights: Automatic kpoint scheme                 
   0.00000000  0.00000000  0.00000000       0.003
   0.14285714 -0.00000000  0.00000000       0.023
   0.28571429 -0.00000000  0.00000000       0.023
   0.42857143 -0.00000000  0.00000000       0.023
   0.14285714  0.14285714  0.00000000       0.023
   0.28571429  0.14285714  0.00000000       0.047
   0.42857143  0.14285714  0.00000000       0.047
  -0.42857143  0.14285714 -0.00000000       0.047
  -0.28571429  0.14285714 -0.00000000       0.047
  -0.14285714  0.14285714 -0.00000000       0.012
   0.28571429  0.28571429  0.00000000       0.023
   0.42857143  0.28571429  0.00000000       0.047
  -0.42857143  0.28571429 -0.00000000       0.047
  -0.28571429  0.28571429 -0.00000000       0.012
   0.42857143  0.42857143  0.00000000       0.023
  -0.42857143  0.42857143  0.00000000       0.012
   0.14285714  0.14285714  0.14285714       0.023
   0.28571429  0.14285714  0.14285714       0.047
  -0.14285714  0.14285714  0.14285714       0.012
   0.28571429  0.28571429  0.14285714       0.023
   0.42857143  0.28571429  0.14285714       0.023
  -0.28571429  0.28571429  0.14285714       0.023
  -0.14285714  0.28571429  0.14285714       0.023
  -0.42857143  0.42857143  0.14285714       0.023
  -0.28571429  0.42857143  0.14285714       0.047
  -0.14285714  0.42857143  0.14285714       0.023
  -0.42857143 -0.42857143  0.14285714       0.023
  -0.28571429 -0.42857143  0.14285714       0.047
  -0.14285714 -0.42857143  0.14285714       0.023
  -0.28571429 -0.28571429  0.14285714       0.023
  -0.14285714 -0.28571429  0.14285714       0.023
  -0.14285714 -0.14285714  0.14285714       0.006
  -0.28571429  0.28571429  0.28571429       0.012
  -0.42857143  0.42857143  0.28571429       0.023
  -0.28571429  0.42857143  0.28571429       0.023
  -0.42857143 -0.42857143  0.28571429       0.023
  -0.28571429 -0.42857143  0.28571429       0.023
  -0.28571429 -0.28571429  0.28571429       0.006
  -0.42857143  0.42857143  0.42857143       0.012
  -0.42857143 -0.42857143  0.42857143       0.006
 
 position of ions in fractional coordinates (direct lattice) 
   0.25000000  0.75000000  0.50000000
   0.00000000  0.00000000  0.00000000
 
 position of ions in cartesian coordinates  (Angst):
   2.45000000  0.00000000  0.63700000
   0.00000000  0.00000000  0.00000000
 


--------------------------------------------------------------------------------------------------------


 k-point  1 :   0.0000 0.0000 0.0000  plane waves:     183
 k-point  2 :   0.1429-0.0000 0.0000  plane waves:     196
 k-point  3 :   0.2857-0.0000 0.0000  plane waves:     198
 k-point  4 :   0.4286-0.0000 0.0000  plane waves:     202
 k-point  5 :   0.1429 0.1429 0.0000  plane waves:     198
 k-point  6 :   0.2857 0.1429 0.0000  plane waves:     201
 k-point  7 :   0.4286 0.1429 0.0000  plane waves:     201
 k-point  8 :  -0.4286 0.1429-0.0000  plane waves:     200
 k-point  9 :  -0.2857 0.1429-0.0000  plane waves:     198
 k-point 10 :  -0.1429 0.1429-0.0000  plane waves:     192
 k-point 11 :   0.2857 0.2857 0.0000  plane waves:     199
 k-point 12 :   0.4286 0.2857 0.0000  plane waves:     198
 k-point 13 :  -0.4286 0.2857-0.0000  plane waves:     195
 k-point 14 :  -0.2857 0.2857-0.0000  plane waves:     192
 k-point 15 :   0.4286 0.4286 0.0000  plane waves:     192
 k-point 16 :  -0.4286 0.4286 0.0000  plane waves:     190
 k-point 17 :   0.1429 0.1429 0.1429  plane waves:     199
 k-point 18 :   0.2857 0.1429 0.1429  plane waves:     203
 k-point 19 :  -0.1429 0.1429 0.1429  plane waves:     197
 k-point 20 :   0.2857 0.2857 0.1429  plane waves:     195
 k-point 21 :   0.4286 0.2857 0.1429  plane waves:     195
 k-point 22 :  -0.2857 0.2857 0.1429  plane waves:     191
 k-point 23 :  -0.1429 0.2857 0.1429  plane waves:     195
 k-point 24 :  -0.4286 0.4286 0.1429  plane waves:     190
 k-point 25 :  -0.2857 0.4286 0.1429  plane waves:     192
 k-point 26 :  -0.1429 0.4286 0.1429  plane waves:     199
 k-point 27 :  -0.4286-0.4286 0.1429  plane waves:     191
 k-point 28 :  -0.2857-0.4286 0.1429  plane waves:     196
 k-point 29 :  -0.1429-0.4286 0.1429  plane waves:     195
 k-point 30 :  -0.2857-0.2857 0.1429  plane waves:     195
 k-point 31 :  -0.1429-0.2857 0.1429  plane waves:     202
 k-point 32 :  -0.1429-0.1429 0.1429  plane waves:     203
 k-point 33 :  -0.2857 0.2857 0.2857  plane waves:     192
 k-point 34 :  -0.4286 0.4286 0.2857  plane waves:     193
 k-point 35 :  -0.2857 0.4286 0.2857  plane waves:     197
 k-point 36 :  -0.4286-0.4286 0.2857  plane waves:     196
 k-point 37 :  -0.2857-0.4286 0.2857  plane waves:     199
 k-point 38 :  -0.2857-0.2857 0.2857  plane waves:     191
 k-point 39 :  -0.4286 0.4286 0.4286  plane waves:     198
 k-point 40 :  -0.4286-0.4286 0.4286  plane waves:     199

 maximum and minimum number of plane-waves per node :       203      183

 maximum number of plane-waves:       203
 maximum index in each direction: 
   IXMAX=    4   IYMAX=    4   IZMAX=    4
   IXMIN=   -4   IYMIN=   -4   IZMIN=   -4


 serial   3D FFT for wavefunctions
 parallel 3D FFT for charge:
    minimum data exchange during FFTs selected (reduces bandwidth)


 total amount of memory used by VASP MPI-rank0    31077. kBytes
=======================================================================

   base      :      30000. kBytes
   nonl-proj :        539. kBytes
   fftplans  :        119. kBytes
   grid      :        270. kBytes
   one-center:          6. kBytes
   wavefun   :        143. kBytes
 
     INWAV:  cpu time    0.0000: real time    0.0081
 Broyden mixing: mesh for mixing (old mesh)
   NGX =  9   NGY =  9   NGZ =  9
  (NGX  = 28   NGY  = 28   NGZ  = 28)
  gives a total of    729 points

 initial charge density was supplied:
 charge density of overlapping atoms calculated
 number of electron       8.0000000 magnetization 
 keeping initial charge density in first step


--------------------------------------------------------------------------------------------------------


 Maximum index for augmentation-charges          442 (set IRDMAX)


--------------------------------------------------------------------------------------------------------


 First call to EWALD:  gamma=   0.567
 Maximum number of real-space cells 4x 4x 3
 Maximum number of reciprocal cells 3x 3x 3

    FEWALD:  cpu time    0.0040: real time    0.0074


--------------------------------------- Iteration      1(   1)  ---------------------------------------


    POTLOK:  cpu time    0.0280: real time    0.0519
    SETDIJ:  cpu time    0.0080: real time    0.0091
     EDDAV:  cpu time    0.3200: real time    0.3226
       DOS:  cpu time    0.0000: real time    0.0029
    --------------------------------------------
      LOOP:  cpu time    0.3560: real time    0.3873

 eigenvalue-minimisations  :   648
 total energy-change (2. order) :-0.2758068E+01  (-0.2058843E+03)
 number of electron       8.0000000 magnetization 
 augmentation part        8.0000000 magnetization 

 Free energy of the ion-electron system (eV)
  ---------------------------------------------------
  alpha Z        PSCENC =         4.40202223
  Ewald energy   TEWEN  =      -265.18101312
  -Hartree energ DENC   =        -2.30415367
  -exchange      EXHF   =         0.00000000
  -V(xc)+E(xc)   XCENC  =       -17.81545108
  PAW double counting   =        65.95520812      -30.76852678
  entropy T*S    EENTRO =        -0.01661193
  eigenvalues    EBANDS =        36.85798547
  atomic energy  EATOM  =       206.11247263
  Solvation  Ediel_sol  =         0.00000000
  ---------------------------------------------------
  free energy    TOTEN  =        -2.75806813 eV

  energy without entropy =       -2.74145620  energy(sigma->0) =       -2.74976216


--------------------------------------------------------------------------------------------------------




--------------------------------------- Iteration      1(   2)  ---------------------------------------


     EDDAV:  cpu time    0.4960: real time    0.5056
       DOS:  cpu time    0.0040: real time    0.0027
    --------------------------------------------
      LOOP:  cpu time    0.5000: real time    0.5083

 eigenvalue-minimisations  :   984
 total energy-change (2. order) :-0.7414050E+01  (-0.7090009E+01)
 number of electron       8.0000000 magnetization 
 augmentation part        8.0000000 magnetization 

 Free energy of the ion-electron system (eV)
  ---------------------------------------------------
  alpha Z        PSCENC =         4.40202223
  Ewald energy   TEWEN  =      -265.18101312
  -Hartree energ DENC   =        -2.30415367
  -exchange      EXHF   =         0.00000000
  -V(xc)+E(xc)   XCENC  =       -17.81545108
  PAW double counting   =        65.95520812      -30.76852678
  entropy T*S    EENTRO =        -0.01579509
  eigenvalues    EBANDS =        29.44311816
  atomic energy  EATOM  =       206.11247263
  Solvation  Ediel_sol  =         0.00000000
  ---------------------------------------------------
  free energy    TOTEN  =       -10.17211860 eV

  energy without entropy =      -10.15632352  energy(sigma->0) =      -10.16422106


--------------------------------------------------------------------------------------------------------




--------------------------------------- Iteration      1(   3)  ---------------------------------------


     EDDAV:  cpu time    0.4120: real time    0.4178
       DOS:  cpu time    0.0040: real time    0.0030
    --------------------------------------------
      LOOP:  cpu time    0.4160: real time    0.4208

 eigenvalue-minimisations  :   816
 total energy-change (2. order) :-0.5170653E-01  (-0.5165816E-01)
 number of electron       8.0000000 magnetization 
 augmentation part        8.0000000 magnetization 

 Free energy of the ion-electron system (eV)
  ---------------------------------------------------
  alpha Z        PSCENC =         4.40202223
  Ewald energy   TEWEN  =      -265.18101312
  -Hartree energ DENC   =        -2.30415367
  -exchange      EXHF   =         0.00000000
  -V(xc)+E(xc)   XCENC  =       -17.81545108
  PAW double counting   =        65.95520812      -30.76852678
  entropy T*S    EENTRO =        -0.01615171
  eigenvalues    EBANDS =        29.39176825
  atomic energy  EATOM  =       206.11247263
  Solvation  Ediel_sol  =         0.00000000
  ---------------------------------------------------
  free energy    TOTEN  =       -10.22382514 eV

  energy without entropy =      -10.20767342  energy(sigma->0) =      -10.21574928


--------------------------------------------------------------------------------------------------------




--------------------------------------- Iteration      1(   4)  ---------------------------------------


     EDDAV:  cpu time    0.5120: real time    0.5158
       DOS:  cpu time    0.0000: real time    0.0027
    --------------------------------------------
      LOOP:  cpu time    0.5120: real time    0.5184

 eigenvalue-minimisations  :   992
 total energy-change (2. order) :-0.7057826E-04  (-0.7057720E-04)
 number of electron       8.0000000 magnetization 
 augmentation part        8.0000000 magnetization 

 Free energy of the ion-electron system (eV)
  ---------------------------------------------------
  alpha Z        PSCENC =         4.40202223
  Ewald energy   TEWEN  =      -265.18101312
  -Hartree energ DENC   =        -2.30415367
  -exchange      EXHF   =         0.00000000
  -V(xc)+E(xc)   XCENC  =       -17.81545108
  PAW double counting   =        65.95520812      -30.76852678
  entropy T*S    EENTRO =        -0.01615212
  eigenvalues    EBANDS =        29.39169808
  atomic energy  EATOM  =       206.11247263
  Solvation  Ediel_sol  =         0.00000000
  ---------------------------------------------------
  free energy    TOTEN  =       -10.22389571 eV

  energy without entropy =      -10.20774359  energy(sigma->0) =      -10.21581965


--------------------------------------------------------------------------------------------------------




--------------------------------------- Iteration      1(   5)  ---------------------------------------


     EDDAV:  cpu time    0.4040: real time    0.4069
       DOS:  cpu time    0.0000: real time    0.0027
    CHARGE:  cpu time    0.0160: real time    0.0146
    MIXING:  cpu time    0.0000: real time    0.0019
    --------------------------------------------
      LOOP:  cpu time    0.4200: real time    0.4261

 eigenvalue-minimisations  :   792
 total energy-change (2. order) :-0.6013951E-07  (-0.5955104E-07)
 number of electron       7.9999993 magnetization 
 augmentation part       -0.4683915 magnetization 

 Broyden mixing:
  rms(total) = 0.14879E+00    rms(broyden)= 0.14877E+00
  rms(prec ) = 0.33365E+00
  weight for this iteration     100.00

 Free energy of the ion-electron system (eV)
  ---------------------------------------------------
  alpha Z        PSCENC =         4.40202223
  Ewald energy   TEWEN  =      -265.18101312
  -Hartree energ DENC   =        -2.30415367
  -exchange      EXHF   =         0.00000000
  -V(xc)+E(xc)   XCENC  =       -17.81545108
  PAW double counting   =        65.95520812      -30.76852678
  entropy T*S    EENTRO =        -0.01615212
  eigenvalues    EBANDS =        29.39169801
  atomic energy  EATOM  =       206.11247263
  Solvation  Ediel_sol  =         0.00000000
  ---------------------------------------------------
  free energy    TOTEN  =       -10.22389578 eV

  energy without entropy =      -10.20774366  energy(sigma->0) =      -10.21581972


--------------------------------------------------------------------------------------------------------




--------------------------------------- Iteration      1(   6)  ---------------------------------------


    POTLOK:  cpu time    0.0200: real time    0.0230
    SETDIJ:  cpu time    0.0080: real time    0.0086
     EDDAV:  cpu time    0.3920: real time    0.3940
       DOS:  cpu time    0.0040: real time    0.0027
    CHARGE:  cpu time    0.0120: real time    0.0134
    MIXING:  cpu time    0.0040: real time    0.0016
    --------------------------------------------
      LOOP:  cpu time    0.4400: real time    0.4434

 eigenvalue-minimisations  :   800
 total energy-change (2. order) : 0.6132389E-02  (-0.1731276E-03)
 number of electron       7.9999993 magnetization 
 augmentation part       -0.4699929 magnetization 

 Broyden mixing:
  rms(total) = 0.93091E-01    rms(broyden)= 0.93090E-01
  rms(prec ) = 0.20900E+00
  weight for this iteration     100.00

 eigenvalues of (default mixing * dielectric matrix)
  average eigenvalue GAMMA=   2.6671
  2.6671

 Free energy of the ion-electron system (eV)
  ---------------------------------------------------
  alpha Z        PSCENC =         4.40202223
  Ewald energy   TEWEN  =      -265.18101312
  -Hartree energ DENC   =        -2.33548823
  -exchange      EXHF   =         0.00000000
  -V(xc)+E(xc)   XCENC  =       -17.72674613
  PAW double counting   =        68.14337800      -32.99721794
  entropy T*S    EENTRO =        -0.01614538
  eigenvalues    EBANDS =        29.38097456
  atomic energy  EATOM  =       206.11247263
  Solvation  Ediel_sol  =         0.00000000
  ---------------------------------------------------
  free energy    TOTEN  =       -10.21776339 eV

  energy without entropy =      -10.20161800  energy(sigma->0) =      -10.20969070


--------------------------------------------------------------------------------------------------------




--------------------------------------- Iteration      1(   7)  ---------------------------------------


    POTLOK:  cpu time    0.0160: real time    0.0241
    SETDIJ:  cpu time    0.0080: real time    0.0086
     EDDAV:  cpu time    0.3600: real time    0.3589
       DOS:  cpu time    0.0040: real time    0.0027
    CHARGE:  cpu time    0.0120: real time    0.0133
    MIXING:  cpu time    0.0000: real time    0.0013
    --------------------------------------------
      LOOP:  cpu time    0.4000: real time    0.4089

 eigenvalue-minimisations  :   736
 total energy-change (2. order) : 0.4778076E-02  (-0.5166756E-03)
 number of electron       7.9999993 magnetization 
 augmentation part       -0.4730053 magnetization 

 Broyden mixing:
  rms(total) = 0.33583E-02    rms(broyden)= 0.33537E-02
  rms(prec ) = 0.85868E-02
  weight for this iteration     100.00

 eigenvalues of (default mixing * dielectric matrix)
  average eigenvalue GAMMA=   2.6027
  2.6027  2.6027

 Free energy of the ion-electron system (eV)
  ---------------------------------------------------
  alpha Z        PSCENC =         4.40202223
  Ewald energy   TEWEN  =      -265.18101312
  -Hartree energ DENC   =        -2.48336729
  -exchange      EXHF   =         0.00000000
  -V(xc)+E(xc)   XCENC  =       -17.56265328
  PAW double counting   =        71.66789227      -36.59113982
  entropy T*S    EENTRO =        -0.01612313
  eigenvalues    EBANDS =        29.43892419
  atomic energy  EATOM  =       206.11247263
  Solvation  Ediel_sol  =         0.00000000
  ---------------------------------------------------
  free energy    TOTEN  =       -10.21298531 eV

  energy without entropy =      -10.19686218  energy(sigma->0) =      -10.20492374


--------------------------------------------------------------------------------------------------------




--------------------------------------- Iteration      1(   8)  ---------------------------------------


    POTLOK:  cpu time    0.0200: real time    0.0247
    SETDIJ:  cpu time    0.0080: real time    0.0086
     EDDAV:  cpu time    0.2240: real time    0.2223
       DOS:  cpu time    0.0000: real time    0.0029
    --------------------------------------------
      LOOP:  cpu time    0.2520: real time    0.2585

 eigenvalue-minimisations  :   408
 total energy-change (2. order) : 0.1694783E-04  (-0.7391247E-05)
 number of electron       7.9999993 magnetization 
 augmentation part       -0.4730053 magnetization 

 Free energy of the ion-electron system (eV)
  ---------------------------------------------------
  alpha Z        PSCENC =         4.40202223
  Ewald energy   TEWEN  =      -265.18101312
  -Hartree energ DENC   =        -2.50242401
  -exchange      EXHF   =         0.00000000
  -V(xc)+E(xc)   XCENC  =       -17.56333142
  PAW double counting   =        71.45562201      -36.37910682
  entropy T*S    EENTRO =        -0.01611821
  eigenvalues    EBANDS =        29.45890835
  atomic energy  EATOM  =       206.11247263
  Solvation  Ediel_sol  =         0.00000000
  ---------------------------------------------------
  free energy    TOTEN  =       -10.21296836 eV

  energy without entropy =      -10.19685015  energy(sigma->0) =      -10.20490926


--------------------------------------------------------------------------------------------------------




 average (electrostatic) potential at core
  the test charge radii are     0.9892
  (the norm of the test charge is              1.0000)
       1 -80.5454       2 -80.5454
 
 
 
 E-fermi :   9.0094     XC(G=0): -10.8929     alpha+bet :-15.6819


 k-point     1 :       0.0000    0.0000    0.0000
  band No.  band energies     occupation 
      1      -4.6139      2.00000
      2       6.2035      2.00000
      3       6.3027      2.00000
      4       6.3027      2.00000
      5      10.5991      0.00000
      6      16.9498      0.00000
      7      17.3766      0.00000
      8      17.3766      0.00000

 k-point     2 :       0.1429   -0.0000    0.0000
  band No.  band energies     occupation 
      1      -4.0382      2.00000
      2       5.1671      2.00000
      3       6.2415      2.00000
      4       8.3308      2.00000
      5      11.7320      0.00000
      6      14.5848      0.00000
      7      14.9613      0.00000
      8      16.6415      0.00000

 k-point     3 :       0.2857   -0.0000    0.0000
  band No.  band energies     occupation 
      1      -2.3226      2.00000
      2       5.1473      2.00000
      3       6.5439      2.00000
      4       8.9764      1.18464
      5      11.2381      0.00000
      6      12.1717      0.00000
      7      13.5685      0.00000
      8      14.4275      0.00000

 k-point     4 :       0.4286   -0.0000    0.0000
  band No.  band energies     occupation 
      1       0.4898      2.00000
      2       4.3638      2.00000
      3       6.2326      2.00000
      4       7.4710      2.00000
      5       8.4598      1.99990
      6      10.9758      0.00000
      7      13.5926      0.00000
      8      14.5391      0.00000

 k-point     5 :       0.1429    0.1429    0.0000
  band No.  band energies     occupation 
      1      -2.5626      2.00000
      2       5.4385      2.00000
      3       7.9461      2.00000
      4       9.0911      0.56360
      5      10.6968      0.00000
      6      11.1667      0.00000
      7      13.6632      0.00000
      8      14.4434      0.00000

 k-point     6 :       0.2857    0.1429    0.0000
  band No.  band energies     occupation 
      1       0.0221      2.00000
      2       5.4577      2.00000
      3       6.3284      2.00000
      4       6.8950      2.00000
      5       9.4366      0.00252
      6      11.5780      0.00000
      7      12.3796      0.00000
      8      13.6938      0.00000

 k-point     7 :       0.4286    0.1429    0.0000
  band No.  band energies     occupation 
      1       1.4124      2.00000
      2       3.6578      2.00000
      3       4.6523      2.00000
      4       7.5390      2.00000
      5       8.8545      1.72668
      6      11.5508      0.00000
      7      12.6706      0.00000
      8      16.1583      0.00000

 k-point     8 :      -0.4286    0.1429   -0.0000
  band No.  band energies     occupation 
      1      -1.6050      2.00000
      2       3.2232      2.00000
      3       6.7268      2.00000
      4       8.2937      2.00000
      5      10.6942      0.00000
      6      12.5694      0.00000
      7      13.3011      0.00000
      8      15.3187      0.00000

 k-point     9 :      -0.2857    0.1429   -0.0000
  band No.  band energies     occupation 
      1      -3.5541      2.00000
      2       2.9631      2.00000
      3       6.3990      2.00000
      4       9.6895      0.00000
      5      12.4817      0.00000
      6      13.8021      0.00000
      7      14.3560      0.00000
      8      16.0371      0.00000

 k-point    10 :      -0.1429    0.1429   -0.0000
  band No.  band energies     occupation 
      1      -4.3710      2.00000
      2       3.7552      2.00000
      3       6.5289      2.00000
      4       7.9451      2.00000
      5      12.0298      0.00000
      6      14.3555      0.00000
      7      15.9103      0.00000
      8      19.4565      0.00000

 k-point    11 :       0.2857    0.2857    0.0000
  band No.  band energies     occupation 
      1       2.6511      2.00000
      2       2.8195      2.00000
      3       3.6485      2.00000
      4       7.6786      2.00000
      5       9.3387      0.01987
      6      10.4943      0.00000
      7      14.6592      0.00000
      8      15.3185      0.00000

 k-point    12 :       0.4286    0.2857    0.0000
  band No.  band energies     occupation 
      1      -0.4195      2.00000
      2       1.2108      2.00000
      3       7.5973      2.00000
      4       8.0202      2.00000
      5       9.2909      0.04655
      6      11.8149      0.00000
      7      14.4125      0.00000
      8      15.9651      0.00000

 k-point    13 :      -0.4286    0.2857   -0.0000
  band No.  band energies     occupation 
      1      -2.5910      2.00000
      2       0.7118      2.00000
      3       7.2801      2.00000
      4      10.3586      0.00000
      5      10.7890      0.00000
      6      13.2081      0.00000
      7      14.7885      0.00000
      8      15.2251      0.00000

 k-point    14 :      -0.2857    0.2857   -0.0000
  band No.  band energies     occupation 
      1      -3.6441      2.00000
      2       1.3137      2.00000
      3       7.2069      2.00000
      4       9.0079      1.00818
      5      11.9326      0.00000
      6      13.7890      0.00000
      7      15.2981      0.00000
      8      19.0458      0.00000

 k-point    15 :       0.4286    0.4286    0.0000
  band No.  band energies     occupation 
      1      -1.1619      2.00000
      2      -1.1603      2.00000
      3       8.6010      1.99611
      4       8.6433      1.99037
      5      11.7515      0.00000
      6      12.3185      0.00000
      7      14.1778      0.00000
      8      15.0792      0.00000

 k-point    16 :      -0.4286    0.4286    0.0000
  band No.  band energies     occupation 
      1      -2.4412      2.00000
      2      -0.7783      2.00000
      3       8.3372      2.00000
      4       9.9150      0.00000
      5      10.2528      0.00000
      6      11.8519      0.00000
      7      18.8097      0.00000
      8      18.8350      0.00000

 k-point    17 :       0.1429    0.1429    0.1429
  band No.  band energies     occupation 
      1      -1.8428      2.00000
      2       3.0538      2.00000
      3       8.3670      1.99999
      4       9.2105      0.15504
      5      10.2901      0.00000
      6      11.1911      0.00000
      7      14.1243      0.00000
      8      14.8355      0.00000

 k-point    18 :       0.2857    0.1429    0.1429
  band No.  band energies     occupation 
      1       0.9606      2.00000
      2       4.1146      2.00000
      3       4.9153      2.00000
      4       6.3516      2.00000
      5      10.6259      0.00000
      6      13.2026      0.00000
      7      13.9139      0.00000
      8      14.2474      0.00000

 k-point    19 :      -0.1429    0.1429    0.1429
  band No.  band energies     occupation 
      1      -4.1287      2.00000
      2       3.4539      2.00000
      3       4.9304      2.00000
      4       9.8475      0.00000
      5      12.2535      0.00000
      6      12.8930      0.00000
      7      17.7779      0.00000
      8      18.0813      0.00000

 k-point    20 :       0.2857    0.2857    0.1429
  band No.  band energies     occupation 
      1       2.3308      2.00000
      2       2.3610      2.00000
      3       4.6633      2.00000
      4       6.1569      2.00000
      5      11.7023      0.00000
      6      12.5269      0.00000
      7      14.4903      0.00000
      8      15.4768      0.00000

 k-point    21 :       0.4286    0.2857    0.1429
  band No.  band energies     occupation 
      1      -0.6515      2.00000
      2       0.9929      2.00000
      3       8.7035      1.96947
      4       8.9240      1.45401
      5      10.6864      0.00000
      6      11.7103      0.00000
      7      12.5781      0.00000
      8      13.6224      0.00000

 k-point    22 :      -0.2857    0.2857    0.1429
  band No.  band energies     occupation 
      1      -3.4042      2.00000
      2       1.4847      2.00000
      3       5.1282      2.00000
      4       9.8445      0.00000
      5      11.3603      0.00000
      6      15.6992      0.00000
      7      16.0221      0.00000
      8      18.5187      0.00000

 k-point    23 :      -0.1429    0.2857    0.1429
  band No.  band energies     occupation 
      1      -3.0732      2.00000
      2       2.8208      2.00000
      3       4.4509      2.00000
      4      10.1077      0.00000
      5      11.7283      0.00000
      6      13.7671      0.00000
      7      15.3040      0.00000
      8      16.9692      0.00000

 k-point    24 :      -0.4286    0.4286    0.1429
  band No.  band energies     occupation 
      1      -2.2071      2.00000
      2      -0.5579      2.00000
      3       6.2261      2.00000
      4       7.8172      2.00000
      5      12.6628      0.00000
      6      14.2145      0.00000
      7      18.0869      0.00000
      8      18.2267      0.00000

 k-point    25 :      -0.2857    0.4286    0.1429
  band No.  band energies     occupation 
      1      -2.1185      2.00000
      2       1.1000      2.00000
      3       4.8050      2.00000
      4       7.9128      2.00000
      5      11.9448      0.00000
      6      14.5451      0.00000
      7      16.8404      0.00000
      8      17.4592      0.00000

 k-point    26 :      -0.1429    0.4286    0.1429
  band No.  band energies     occupation 
      1      -0.8964      2.00000
      2       3.2880      2.00000
      3       4.9669      2.00000
      4       7.4492      2.00000
      5       8.9892      1.11369
      6      13.4176      0.00000
      7      15.0108      0.00000
      8      16.0698      0.00000

 k-point    27 :      -0.4286   -0.4286    0.1429
  band No.  band energies     occupation 
      1      -0.7104      2.00000
      2      -0.7053      2.00000
      3       6.1112      2.00000
      4       6.1152      2.00000
      5      11.8522      0.00000
      6      15.5184      0.00000
      7      16.2765      0.00000
      8      16.8070      0.00000

 k-point    28 :      -0.2857   -0.4286    0.1429
  band No.  band energies     occupation 
      1       0.2662      2.00000
      2       1.8243      2.00000
      3       5.5008      2.00000
      4       6.8265      2.00000
      5       7.2654      2.00000
      6      13.5598      0.00000
      7      16.6340      0.00000
      8      17.6012      0.00000

 k-point    29 :      -0.1429   -0.4286    0.1429
  band No.  band energies     occupation 
      1       2.2514      2.00000
      2       3.0693      2.00000
      3       4.9394      2.00000
      4       6.4524      2.00000
      5       8.5781      1.99771
      6      11.1527      0.00000
      7      12.3529      0.00000
      8      16.5030      0.00000

 k-point    30 :      -0.2857   -0.2857    0.1429
  band No.  band energies     occupation 
      1       2.6151      2.00000
      2       3.6677      2.00000
      3       3.8335      2.00000
      4       7.1082      2.00000
      5       7.2580      2.00000
      6      11.1962      0.00000
      7      13.9383      0.00000
      8      14.7874      0.00000

 k-point    31 :      -0.1429   -0.2857    0.1429
  band No.  band energies     occupation 
      1      -0.4508      2.00000
      2       6.5090      2.00000
      3       7.3597      2.00000
      4       8.2290      2.00000
      5       8.3118      2.00000
      6      10.7580      0.00000
      7      11.1950      0.00000
      8      12.5007      0.00000

 k-point    32 :      -0.1429   -0.1429    0.1429
  band No.  band energies     occupation 
      1      -2.8035      2.00000
      2       7.7740      2.00000
      3       7.7740      2.00000
      4       7.7803      2.00000
      5      11.1002      0.00000
      6      11.5294      0.00000
      7      12.4054      0.00000
      8      13.7718      0.00000

 k-point    33 :      -0.2857    0.2857    0.2857
  band No.  band energies     occupation 
      1      -2.6890      2.00000
      2       1.5452      2.00000
      3       3.2815      2.00000
      4       7.4138      2.00000
      5      13.9881      0.00000
      6      17.1212      0.00000
      7      17.3353      0.00000
      8      18.1181      0.00000

 k-point    34 :      -0.4286    0.4286    0.2857
  band No.  band energies     occupation 
      1      -1.5145      2.00000
      2       0.0614      2.00000
      3       3.8306      2.00000
      4       5.3745      2.00000
      5      15.5108      0.00000
      6      16.4561      0.00000
      7      17.9887      0.00000
      8      18.5537      0.00000

 k-point    35 :      -0.2857    0.4286    0.2857
  band No.  band energies     occupation 
      1      -1.1869      2.00000
      2       1.3858      2.00000
      3       3.1603      2.00000
      4       5.6827      2.00000
      5      11.5216      0.00000
      6      17.2394      0.00000
      7      18.4673      0.00000
      8      19.2050      0.00000

 k-point    36 :      -0.4286   -0.4286    0.2857
  band No.  band energies     occupation 
      1       0.1429      2.00000
      2       0.1524      2.00000
      3       3.9215      2.00000
      4       3.9256      2.00000
      5      11.3414      0.00000
      6      18.6630      0.00000
      7      18.7872      0.00000
      8      19.4497      0.00000

 k-point    37 :      -0.2857   -0.4286    0.2857
  band No.  band energies     occupation 
      1       1.3509      2.00000
      2       2.3403      2.00000
      3       4.1051      2.00000
      4       5.0662      2.00000
      5       6.6438      2.00000
      6      15.4018      0.00000
      7      16.8252      0.00000
      8      18.1484      0.00000

 k-point    38 :      -0.2857   -0.2857    0.2857
  band No.  band energies     occupation 
      1       2.4413      2.00000
      2       4.4207      2.00000
      3       4.5529      2.00000
      4       6.0587      2.00000
      5       6.0587      2.00000
      6      13.0194      0.00000
      7      13.6950      0.00000
      8      13.6950      0.00000

 k-point    39 :      -0.4286    0.4286    0.4286
  band No.  band energies     occupation 
      1      -0.4184      2.00000
      2       0.5787      2.00000
      3       2.3983      2.00000
      4       3.3828      2.00000
      5      16.3086      0.00000
      6      16.4468      0.00000
      7      19.7195      0.00000
      8      20.6442      0.00000

 k-point    40 :      -0.4286   -0.4286    0.4286
  band No.  band energies     occupation 
      1       0.8957      2.00000
      2       0.9105      2.00000
      3       2.7161      2.00000
      4       2.7161      2.00000
      5      11.1494      0.00000
      6      19.7798      0.00000
      7      20.7239      0.00000
      8      20.7239      0.00000


--------------------------------------------------------------------------------------------------------


 soft charge-density along one line, spin component           1
         0         1         2         3         4         5         6         7         8         9
 total charge-density along one line
 
 pseudopotential strength for first ion, spin component:           1
 18.066  -0.003   0.000  -0.000  -0.000  -0.000   0.000   0.000
 -0.003   0.005  -0.000   0.000   0.000   0.000  -0.000  -0.000
  0.000  -0.000   4.117   0.000   0.000  -0.006  -0.000  -0.000
 -0.000   0.000   0.000   4.118   0.000  -0.000  -0.006  -0.000
 -0.000   0.000   0.000   0.000   4.117  -0.000  -0.000  -0.006
 -0.000   0.000  -0.006  -0.000  -0.000   0.005   0.000   0.000
  0.000  -0.000  -0.000  -0.006  -0.000   0.000   0.005   0.000
  0.000  -0.000  -0.000  -0.000  -0.006   0.000   0.000   0.005
 total augmentation occupancy for first ion, spin component:           1
  1.621  -0.630   0.000   0.000   0.000   0.000   0.000   0.000
 -0.630   1.071   0.000   0.000   0.000   0.000   0.000   0.000
  0.000   0.000   0.879   0.000  -0.000  -0.627   0.000   0.000
  0.000   0.000   0.000   0.875   0.000   0.000  -0.643   0.000
  0.000   0.000  -0.000   0.000   0.879   0.000   0.000  -0.627
  0.000   0.000  -0.627   0.000   0.000   0.530   0.000  -0.000
  0.000   0.000   0.000  -0.643   0.000   0.000   0.576  -0.000
  0.000   0.000   0.000   0.000  -0.627  -0.000  -0.000   0.530


------------------------ aborting loop because EDIFF is reached ----------------------------------------


    CHARGE:  cpu time    0.0120: real time    0.0130
    FORLOC:  cpu time    0.0040: real time    0.0005
    FORNL :  cpu time    0.0080: real time    0.0097
    STRESS:  cpu time    0.0800: real time    0.0785
    FORCOR:  cpu time    0.0120: real time    0.0123
    FORHAR:  cpu time    0.0040: real time    0.0036
    MIXING:  cpu time    0.0000: real time    0.0009
    OFIELD:  cpu time    0.0000: real time    0.0005

  FORCE on cell =-STRESS in cart. coord.  units (eV):
  Direction    XX          YY          ZZ          XY          YZ          ZX
  --------------------------------------------------------------------------------------
  Alpha Z     4.40202     4.40202     4.40202
  Ewald     -90.96023   -90.96023   -83.26083    -0.00000     0.00000     0.00000
  Hartree     0.55044     0.55044     1.40532     0.00000     0.00000     0.00000
  E(xc)     -25.44447   -25.44447   -25.39414     0.00003     0.00001     0.00001
  Local     -11.29988   -11.29988   -17.71735    -0.00005    -0.00005    -0.00005
  n-local    77.34836    77.31989    76.80517     0.92758    -0.23722    -0.46241
  augment   -12.03956   -12.03956   -12.01608     0.00005     0.00005     0.00005
  Kinetic    60.59587    52.86792    57.49083     3.79714    -1.25068    -3.56789
  Fock        0.00000     0.00000     0.00000     0.00000     0.00000     0.00000
  -------------------------------------------------------------------------------------
  Total      -0.72565    -0.72565     1.71493    -0.00000     0.00000    -0.00000
  in kB     -38.00806   -38.00806    89.82480    -0.00000     0.00000    -0.00000
  external pressure =        4.60 kB  Pullay stress =        0.00 kB


 VOLUME and BASIS-vectors are now :
 -----------------------------------------------------------------------------
  energy-cutoff  :      200.00
  volume of cell :       30.59
      direct lattice vectors                 reciprocal lattice vectors
    -2.450000000  2.450000000  1.274000000     0.000000000  0.204081633  0.392464678
     2.450000000 -2.450000000  1.274000000     0.204081633  0.000000000  0.392464678
     2.450000000  2.450000000 -1.274000000     0.204081633  0.204081633 -0.000000000

  length of vectors
     3.691622408  3.691622408  3.691622408     0.442354876  0.442354876  0.288615013


 FORCES acting on ions
    electron-ion (+dipol)            ewald-force                    non-local-force                 convergence-correction
 -----------------------------------------------------------------------------------------------
   0.135E-05 -.135E-05 -.662E-14   0.198E-14 0.156E-15 0.342E-17   -.208E-16 0.226E-16 -.134E-17   -.447E-07 0.447E-07 -.264E-15
   -.135E-05 0.135E-05 0.471E-14   -.185E-14 0.943E-16 0.891E-15   0.300E-16 -.307E-16 -.383E-17   0.447E-07 -.447E-07 -.676E-16
 -----------------------------------------------------------------------------------------------
   -.124E-13 0.125E-13 -.192E-14   0.139E-15 0.250E-15 0.894E-15   0.919E-17 -.815E-17 -.516E-17   -.161E-15 -.281E-15 -.331E-15
 
 
 POSITION                                       TOTAL-FORCE (eV/Angst)
 -----------------------------------------------------------------------------------
      2.45000      0.00000      0.63700        -0.000000     -0.000000      0.000000
      0.00000      0.00000      0.00000         0.000000      0.000000     -0.000000
 -----------------------------------------------------------------------------------
    total drift:                               -0.000000      0.000000     -0.000000


--------------------------------------------------------------------------------------------------------



  FREE ENERGIE OF THE ION-ELECTRON SYSTEM (eV)
  ---------------------------------------------------
  free  energy   TOTEN  =       -10.21296836 eV

  energy  without entropy=      -10.19685015  energy(sigma->0) =      -10.20490926
 


--------------------------------------------------------------------------------------------------------


    POTLOK:  cpu time    0.0320: real time    0.0537


--------------------------------------------------------------------------------------------------------




--------------------------------------------------------------------------------------------------------


    WAVPRE:  cpu time    0.4520: real time    0.6882
    FEWALD:  cpu time    0.0040: real time    0.0008
    GENKIN:  cpu time    0.0120: real time    0.0127
    ORTHCH:  cpu time    0.0240: real time    0.0245
     LOOP+:  cpu time    4.0120: real time    4.3979


--------------------------------------- Iteration      2(   1)  ---------------------------------------


    POTLOK:  cpu time    0.0160: real time    0.0219
    SETDIJ:  cpu time    0.0080: real time    0.0085
     EDDAV:  cpu time    0.4520: real time    0.4519
       DOS:  cpu time    0.0040: real time    0.0028
    CHARGE:  cpu time    0.0120: real time    0.0132
    MIXING:  cpu time    0.0000: real time    0.0011
    --------------------------------------------
      LOOP:  cpu time    0.4960: real time    0.5002

 eigenvalue-minimisations  :   912
 total energy-change (2. order) :-0.8122681E-01  (-0.2377888E+00)
 number of electron       7.9999986 magnetization 
 augmentation part       -0.4718561 magnetization 

 Broyden mixing:
  rms(total) = 0.94199E-01    rms(broyden)= 0.94179E-01
  rms(prec ) = 0.29029E+00
  weight for this iteration     100.00

 Free energy of the ion-electron system (eV)
  ---------------------------------------------------
  alpha Z        PSCENC =         4.37911880
  Ewald energy   TEWEN  =      -264.82923009
  -Hartree energ DENC   =        -2.46928251
  -exchange      EXHF   =         0.00000000
  -V(xc)+E(xc)   XCENC  =       -17.59135378
  PAW double counting   =        71.45489409      -36.37871855
  entropy T*S    EENTRO =        -0.01057412
  eigenvalues    EBANDS =        29.03846141
  atomic energy  EATOM  =       206.11247263
  Solvation  Ediel_sol  =         0.00000000
  ---------------------------------------------------
  free energy    TOTEN  =       -10.29421212 eV

  energy without entropy =      -10.28363800  energy(sigma->0) =      -10.28892506


--------------------------------------------------------------------------------------------------------




--------------------------------------- Iteration      2(   2)  ---------------------------------------


    POTLOK:  cpu time    0.0200: real time    0.0249
    SETDIJ:  cpu time    0.0080: real time    0.0086
     EDDAV:  cpu time    0.3640: real time    0.3623
       DOS:  cpu time    0.0000: real time    0.0027
    CHARGE:  cpu time    0.0160: real time    0.0132
    MIXING:  cpu time    0.0000: real time    0.0011
    --------------------------------------------
      LOOP:  cpu time    0.4040: real time    0.4129

 eigenvalue-minimisations  :   752
 total energy-change (2. order) : 0.2521389E-01  (-0.5049103E-02)
 number of electron       7.9999986 magnetization 
 augmentation part       -0.4723584 magnetization 

 Broyden mixing:
  rms(total) = 0.52487E-01    rms(broyden)= 0.52485E-01
  rms(prec ) = 0.16144E+00
  weight for this iteration     100.00

 eigenvalues of (default mixing * dielectric matrix)
  average eigenvalue GAMMA=   2.2554
  2.2554

 Free energy of the ion-electron system (eV)
  ---------------------------------------------------
  alpha Z        PSCENC =         4.37911880
  Ewald energy   TEWEN  =      -264.82923009
  -Hartree energ DENC   =        -2.46300262
  -exchange      EXHF   =         0.00000000
  -V(xc)+E(xc)   XCENC  =       -17.59121508
  PAW double counting   =        71.47947710      -36.40397958
  entropy T*S    EENTRO =        -0.01058500
  eigenvalues    EBANDS =        29.05794561
  atomic energy  EATOM  =       206.11247263
  Solvation  Ediel_sol  =         0.00000000
  ---------------------------------------------------
  free energy    TOTEN  =       -10.26899823 eV

  energy without entropy =      -10.25841323  energy(sigma->0) =      -10.26370573


--------------------------------------------------------------------------------------------------------




--------------------------------------- Iteration      2(   3)  ---------------------------------------


    POTLOK:  cpu time    0.0200: real time    0.0238
    SETDIJ:  cpu time    0.0080: real time    0.0087
     EDDAV:  cpu time    0.3960: real time    0.3972
       DOS:  cpu time    0.0040: real time    0.0027
    CHARGE:  cpu time    0.0120: real time    0.0132
    MIXING:  cpu time    0.0000: real time    0.0012
    --------------------------------------------
      LOOP:  cpu time    0.4400: real time    0.4468

 eigenvalue-minimisations  :   824
 total energy-change (2. order) : 0.1188495E-01  (-0.3248595E-02)
 number of electron       7.9999986 magnetization 
 augmentation part       -0.4722949 magnetization 

 Broyden mixing:
  rms(total) = 0.47294E-02    rms(broyden)= 0.47288E-02
  rms(prec ) = 0.10936E-01
  weight for this iteration     100.00

 eigenvalues of (default mixing * dielectric matrix)
  average eigenvalue GAMMA=   1.3230
  2.2265  0.4196

 Free energy of the ion-electron system (eV)
  ---------------------------------------------------
  alpha Z        PSCENC =         4.37911880
  Ewald energy   TEWEN  =      -264.82923009
  -Hartree energ DENC   =        -2.49356852
  -exchange      EXHF   =         0.00000000
  -V(xc)+E(xc)   XCENC  =       -17.58889384
  PAW double counting   =        71.47905814      -36.40414036
  entropy T*S    EENTRO =        -0.01061637
  eigenvalues    EBANDS =        29.09868631
  atomic energy  EATOM  =       206.11247263
  Solvation  Ediel_sol  =         0.00000000
  ---------------------------------------------------
  free energy    TOTEN  =       -10.25711328 eV

  energy without entropy =      -10.24649691  energy(sigma->0) =      -10.25180510


--------------------------------------------------------------------------------------------------------




--------------------------------------- Iteration      2(   4)  ---------------------------------------


    POTLOK:  cpu time    0.0200: real time    0.0248
    SETDIJ:  cpu time    0.0080: real time    0.0086
     EDDAV:  cpu time    0.3080: real time    0.3091
       DOS:  cpu time    0.0040: real time    0.0026
    --------------------------------------------
      LOOP:  cpu time    0.3400: real time    0.3451

 eigenvalue-minimisations  :   648
 total energy-change (2. order) :-0.9553453E-04  (-0.1147688E-03)
 number of electron       7.9999986 magnetization 
 augmentation part       -0.4722949 magnetization 

 Free energy of the ion-electron system (eV)
  ---------------------------------------------------
  alpha Z        PSCENC =         4.37911880
  Ewald energy   TEWEN  =      -264.82923009
  -Hartree energ DENC   =        -2.49163366
  -exchange      EXHF   =         0.00000000
  -V(xc)+E(xc)   XCENC  =       -17.58934805
  PAW double counting   =        71.47093354      -36.39573090
  entropy T*S    EENTRO =        -0.01061544
  eigenvalues    EBANDS =        29.09682435
  atomic energy  EATOM  =       206.11247263
  Solvation  Ediel_sol  =         0.00000000
  ---------------------------------------------------
  free energy    TOTEN  =       -10.25720882 eV

  energy without entropy =      -10.24659338  energy(sigma->0) =      -10.25190110


--------------------------------------------------------------------------------------------------------




 average (electrostatic) potential at core
  the test charge radii are     0.9892
  (the norm of the test charge is              1.0000)
       1 -80.6032       2 -80.6032
 
 
 
 E-fermi :   8.9763     XC(G=0): -10.8726     alpha+bet :-15.6003


 k-point     1 :       0.0000    0.0000    0.0000
  band No.  band energies     occupation 
      1      -4.6184      2.00000
      2       6.5677      2.00000
      3       6.5677      2.00000
      4       6.9752      2.00000
      5      10.7452      0.00000
      6      16.7280      0.00000
      7      17.8539      0.00000
      8      17.8539      0.00000

 k-point     2 :       0.1429   -0.0000    0.0000
  band No.  band energies     occupation 
      1      -4.0751      2.00000
      2       5.5824      2.00000
      3       6.4197      2.00000
      4       8.8630      1.57703
      5      11.8750      0.00000
      6      13.9539      0.00000
      7      14.4932      0.00000
      8      16.5195      0.00000

 k-point     3 :       0.2857   -0.0000    0.0000
  band No.  band energies     occupation 
      1      -2.4571      2.00000
      2       5.3867      2.00000
      3       6.5284      2.00000
      4       8.4849      1.99949
      5      10.9874      0.00000
      6      12.3465      0.00000
      7      13.0163      0.00000
      8      14.6058      0.00000

 k-point     4 :       0.4286   -0.0000    0.0000
  band No.  band energies     occupation 
      1       0.1809      2.00000
      2       3.8836      2.00000
      3       6.4184      2.00000
      4       7.1650      2.00000
      5       8.2988      2.00000
      6      10.6959      0.00000
      7      13.6061      0.00000
      8      14.5306      0.00000

 k-point     5 :       0.1429    0.1429    0.0000
  band No.  band energies     occupation 
      1      -2.7065      2.00000
      2       5.6224      2.00000
      3       7.9130      2.00000
      4       9.2314      0.07133
      5      10.3149      0.00000
      6      10.8182      0.00000
      7      13.4369      0.00000
      8      14.0106      0.00000

 k-point     6 :       0.2857    0.1429    0.0000
  band No.  band energies     occupation 
      1      -0.2998      2.00000
      2       5.0114      2.00000
      3       6.2642      2.00000
      4       6.7389      2.00000
      5       9.2793      0.03219
      6      11.4268      0.00000
      7      12.2031      0.00000
      8      13.9273      0.00000

 k-point     7 :       0.4286    0.1429    0.0000
  band No.  band energies     occupation 
      1       1.1190      2.00000
      2       3.1553      2.00000
      3       4.6382      2.00000
      4       7.3757      2.00000
      5       8.7265      1.92276
      6      11.4959      0.00000
      7      12.5646      0.00000
      8      16.1796      0.00000

 k-point     8 :      -0.4286    0.1429   -0.0000
  band No.  band energies     occupation 
      1      -1.7113      2.00000
      2       3.3254      2.00000
      3       6.7221      2.00000
      4       7.7249      2.00000
      5      10.5242      0.00000
      6      12.5659      0.00000
      7      13.5788      0.00000
      8      14.9145      0.00000

 k-point     9 :      -0.2857    0.1429   -0.0000
  band No.  band energies     occupation 
      1      -3.5719      2.00000
      2       3.2275      2.00000
      3       6.6239      2.00000
      4      10.1669      0.00000
      5      12.4705      0.00000
      6      13.4997      0.00000
      7      14.2970      0.00000
      8      15.4790      0.00000

 k-point    10 :      -0.1429    0.1429   -0.0000
  band No.  band energies     occupation 
      1      -4.3659      2.00000
      2       4.1110      2.00000
      3       6.7988      2.00000
      4       8.5194      1.99877
      5      12.2885      0.00000
      6      14.6267      0.00000
      7      16.5472      0.00000
      8      18.0241      0.00000

 k-point    11 :       0.2857    0.2857    0.0000
  band No.  band energies     occupation 
      1       2.1963      2.00000
      2       2.6311      2.00000
      3       3.4346      2.00000
      4       7.4919      2.00000
      5       9.3183      0.01561
      6      10.4206      0.00000
      7      14.5831      0.00000
      8      15.3741      0.00000

 k-point    12 :       0.4286    0.2857    0.0000
  band No.  band energies     occupation 
      1      -0.4786      2.00000
      2       1.2192      2.00000
      3       7.0085      2.00000
      4       7.9981      2.00000
      5       9.4233      0.00158
      6      11.4265      0.00000
      7      14.8038      0.00000
      8      16.2774      0.00000

 k-point    13 :      -0.4286    0.2857   -0.0000
  band No.  band energies     occupation 
      1      -2.5705      2.00000
      2       0.8693      2.00000
      3       7.5277      2.00000
      4      10.5473      0.00000
      5      11.2062      0.00000
      6      12.8192      0.00000
      7      14.3628      0.00000
      8      15.0046      0.00000

 k-point    14 :      -0.2857    0.2857   -0.0000
  band No.  band energies     occupation 
      1      -3.6103      2.00000
      2       1.5528      2.00000
      3       7.4904      2.00000
      4       9.5605      0.00004
      5      12.2597      0.00000
      6      14.4415      0.00000
      7      15.6584      0.00000
      8      17.5915      0.00000

 k-point    15 :       0.4286    0.4286    0.0000
  band No.  band energies     occupation 
      1      -1.0846      2.00000
      2      -1.0809      2.00000
      3       8.8733      1.53367
      4       8.8823      1.49408
      5      11.6872      0.00000
      6      12.8523      0.00000
      7      13.8421      0.00000
      8      14.1761      0.00000

 k-point    16 :      -0.4286    0.4286    0.0000
  band No.  band energies     occupation 
      1      -2.3595      2.00000
      2      -0.6287      2.00000
      3       8.6406      1.98239
      4      10.2381      0.00000
      5      10.8259      0.00000
      6      12.4655      0.00000
      7      17.3543      0.00000
      8      17.4507      0.00000

 k-point    17 :       0.1429    0.1429    0.1429
  band No.  band energies     occupation 
      1      -1.9587      2.00000
      2       3.1349      2.00000
      3       8.1155      2.00000
      4       8.8060      1.77153
      5      10.1177      0.00000
      6      11.3373      0.00000
      7      14.4712      0.00000
      8      14.9110      0.00000

 k-point    18 :       0.2857    0.1429    0.1429
  band No.  band energies     occupation 
      1       0.6679      2.00000
      2       3.8041      2.00000
      3       4.6704      2.00000
      4       6.0654      2.00000
      5      10.5971      0.00000
      6      13.1742      0.00000
      7      14.0395      0.00000
      8      14.1848      0.00000

 k-point    19 :      -0.1429    0.1429    0.1429
  band No.  band energies     occupation 
      1      -4.1140      2.00000
      2       3.8735      2.00000
      3       5.0984      2.00000
      4      10.4641      0.00000
      5      12.6627      0.00000
      6      13.1537      0.00000
      7      17.3197      0.00000
      8      18.2697      0.00000

 k-point    20 :       0.2857    0.2857    0.1429
  band No.  band energies     occupation 
      1       2.0463      2.00000
      2       2.1258      2.00000
      3       4.3126      2.00000
      4       5.8433      2.00000
      5      11.7494      0.00000
      6      12.5910      0.00000
      7      14.6280      0.00000
      8      15.5175      0.00000

 k-point    21 :       0.4286    0.2857    0.1429
  band No.  band energies     occupation 
      1      -0.7206      2.00000
      2       0.9892      2.00000
      3       8.1808      2.00000
      4       8.3566      1.99999
      5      10.8349      0.00000
      6      12.0689      0.00000
      7      12.7915      0.00000
      8      13.9413      0.00000

 k-point    22 :      -0.2857    0.2857    0.1429
  band No.  band energies     occupation 
      1      -3.3605      2.00000
      2       1.7498      2.00000
      3       5.3716      2.00000
      4      10.2337      0.00000
      5      11.9306      0.00000
      6      15.9976      0.00000
      7      16.1091      0.00000
      8      17.2768      0.00000

 k-point    23 :      -0.1429    0.2857    0.1429
  band No.  band energies     occupation 
      1      -3.0716      2.00000
      2       3.1648      2.00000
      3       4.5352      2.00000
      4      10.3568      0.00000
      5      11.5707      0.00000
      6      13.6978      0.00000
      7      15.4726      0.00000
      8      16.1877      0.00000

 k-point    24 :      -0.4286    0.4286    0.1429
  band No.  band energies     occupation 
      1      -2.1145      2.00000
      2      -0.3946      2.00000
      3       6.5207      2.00000
      4       8.1599      2.00000
      5      13.1795      0.00000
      6      14.6263      0.00000
      7      16.7939      0.00000
      8      17.0121      0.00000

 k-point    25 :      -0.2857    0.4286    0.1429
  band No.  band energies     occupation 
      1      -2.0774      2.00000
      2       1.2966      2.00000
      3       4.9783      2.00000
      4       8.1890      2.00000
      5      11.1137      0.00000
      6      15.0108      0.00000
      7      16.0426      0.00000
      8      17.8995      0.00000

 k-point    26 :      -0.1429    0.4286    0.1429
  band No.  band energies     occupation 
      1      -0.9738      2.00000
      2       3.4625      2.00000
      3       4.9010      2.00000
      4       6.7554      2.00000
[...]
      6      10.8354      0.00000
      7      13.4623      0.00000
      8      14.0475      0.00000

 k-point     6 :       0.2857    0.1429    0.0000
  band No.  band energies     occupation 
      1      -0.2699      2.00000
      2       5.0515      2.00000
      3       6.2790      2.00000
      4       6.7427      2.00000
      5       9.2904      0.02126
      6      11.4386      0.00000
      7      12.2141      0.00000
      8      13.9016      0.00000

 k-point     7 :       0.4286    0.1429    0.0000
  band No.  band energies     occupation 
      1       1.1466      2.00000
      2       3.1998      2.00000
      3       4.6401      2.00000
      4       7.3881      2.00000
      5       8.7354      1.89511
      6      11.4985      0.00000
      7      12.5696      0.00000
      8      16.1732      0.00000

 k-point     8 :      -0.4286    0.1429   -0.0000
  band No.  band energies     occupation 
      1      -1.7016      2.00000
      2       3.3158      2.00000
      3       6.7257      2.00000
      4       7.7710      2.00000
      5      10.5451      0.00000
      6      12.5601      0.00000
      7      13.5472      0.00000
      8      14.9466      0.00000

 k-point     9 :      -0.2857    0.1429   -0.0000
  band No.  band energies     occupation 
      1      -3.5704      2.00000
      2       3.2022      2.00000
      3       6.6007      2.00000
      4      10.1216      0.00000
      5      12.4907      0.00000
      6      13.5304      0.00000
      7      14.2895      0.00000
      8      15.5156      0.00000

 k-point    10 :      -0.1429    0.1429   -0.0000
  band No.  band energies     occupation 
      1      -4.3664      2.00000
      2       4.0772      2.00000
      3       6.7712      2.00000
      4       8.4625      1.99962
      5      12.2601      0.00000
      6      14.6081      0.00000
      7      16.4864      0.00000
      8      18.1520      0.00000

 k-point    11 :       0.2857    0.2857    0.0000
  band No.  band energies     occupation 
      1       2.2403      2.00000
      2       2.6483      2.00000
      3       3.4513      2.00000
      4       7.5075      2.00000
      5       9.3163      0.01292
      6      10.4241      0.00000
      7      14.5863      0.00000
      8      15.3649      0.00000

 k-point    12 :       0.4286    0.2857    0.0000
  band No.  band energies     occupation 
      1      -0.4734      2.00000
      2       1.2180      2.00000
      3       7.0704      2.00000
      4       7.9906      2.00000
      5       9.4111      0.00160
      6      11.4564      0.00000
      7      14.7628      0.00000
      8      16.2483      0.00000

 k-point    13 :      -0.4286    0.2857   -0.0000
  band No.  band energies     occupation 
      1      -2.5727      2.00000
      2       0.8540      2.00000
      3       7.5029      2.00000
      4      10.5360      0.00000
      5      11.1692      0.00000
      6      12.8568      0.00000
      7      14.4373      0.00000
      8      14.9673      0.00000

 k-point    14 :      -0.2857    0.2857   -0.0000
  band No.  band energies     occupation 
      1      -3.6136      2.00000
      2       1.5297      2.00000
      3       7.4616      2.00000
      4       9.5059      0.00013
      5      12.2300      0.00000
      6      14.3771      0.00000
      7      15.6237      0.00000
      8      17.7222      0.00000

 k-point    15 :       0.4286    0.4286    0.0000
  band No.  band energies     occupation 
      1      -1.0923      2.00000
      2      -1.0888      2.00000
      3       8.8466      1.59610
      4       8.8608      1.53741
      5      11.7101      0.00000
      6      12.8009      0.00000
      7      13.8471      0.00000
      8      14.2547      0.00000

 k-point    16 :      -0.4286    0.4286    0.0000
  band No.  band energies     occupation 
      1      -2.3675      2.00000
      2      -0.6433      2.00000
      3       8.6103      1.98778
      4      10.2068      0.00000
      5      10.7691      0.00000
      6      12.4047      0.00000
      7      17.4848      0.00000
      8      17.5762      0.00000

 k-point    17 :       0.1429    0.1429    0.1429
  band No.  band energies     occupation 
      1      -1.9481      2.00000
      2       3.1269      2.00000
      3       8.1435      2.00000
      4       8.8494      1.58511
      5      10.1259      0.00000
      6      11.3125      0.00000
      7      14.4344      0.00000
      8      14.9039      0.00000

 k-point    18 :       0.2857    0.1429    0.1429
  band No.  band energies     occupation 
      1       0.6950      2.00000
      2       3.8356      2.00000
      3       4.6895      2.00000
      4       6.0896      2.00000
      5      10.5961      0.00000
      6      13.1741      0.00000
      7      14.0291      0.00000
      8      14.1798      0.00000

 k-point    19 :      -0.1429    0.1429    0.1429
  band No.  band energies     occupation 
      1      -4.1154      2.00000
      2       3.8335      2.00000
      3       5.0803      2.00000
      4      10.4036      0.00000
      5      12.6249      0.00000
      6      13.1254      0.00000
      7      17.4068      0.00000
      8      17.8158      0.00000

 k-point    20 :       0.2857    0.2857    0.1429
  band No.  band energies     occupation 
      1       2.0734      2.00000
      2       2.1476      2.00000
      3       4.3430      2.00000
      4       5.8707      2.00000
      5      11.7408      0.00000
      6      12.5814      0.00000
      7      14.6105      0.00000
      8      15.5101      0.00000

 k-point    21 :       0.4286    0.2857    0.1429
  band No.  band energies     occupation 
      1      -0.7145      2.00000
      2       0.9890      2.00000
      3       8.2310      2.00000
      4       8.4103      1.99991
      5      10.8165      0.00000
      6      12.0317      0.00000
      7      12.7652      0.00000
      8      13.9062      0.00000

 k-point    22 :      -0.2857    0.2857    0.1429
  band No.  band energies     occupation 
      1      -3.3648      2.00000
      2       1.7244      2.00000
      3       5.3463      2.00000
      4      10.1957      0.00000
      5      11.8760      0.00000
      6      15.9754      0.00000
      7      16.1388      0.00000
      8      17.3893      0.00000

 k-point    23 :      -0.1429    0.2857    0.1429
  band No.  band energies     occupation 
      1      -3.0719      2.00000
      2       3.1320      2.00000
      3       4.5249      2.00000
      4      10.3399      0.00000
      5      11.6008      0.00000
      6      13.6757      0.00000
      7      15.4582      0.00000
      8      16.2590      0.00000

 k-point    24 :      -0.4286    0.4286    0.1429
  band No.  band energies     occupation 
      1      -2.1235      2.00000
      2      -0.4104      2.00000
      3       6.4908      2.00000
      4       8.1257      2.00000
      5      13.1327      0.00000
      6      14.5992      0.00000
      7      16.9111      0.00000
      8      17.1080      0.00000

 k-point    25 :      -0.2857    0.4286    0.1429
  band No.  band energies     occupation 
      1      -2.0815      2.00000
      2       1.2778      2.00000
      3       4.9598      2.00000
      4       8.1623      2.00000
      5      11.1939      0.00000
      6      14.9616      0.00000
      7      16.1145      0.00000
      8      17.8649      0.00000

 k-point    26 :      -0.1429    0.4286    0.1429
  band No.  band energies     occupation 
      1      -0.9669      2.00000
      2       3.4471      2.00000
      3       4.9047      2.00000
      4       6.8169      2.00000
      5       9.1669      0.15275
      6      13.1323      0.00000
      7      14.4484      0.00000
      8      16.4734      0.00000

 k-point    27 :      -0.4286   -0.4286    0.1429
  band No.  band energies     occupation 
      1      -0.6205      2.00000
      2      -0.6097      2.00000
      3       6.3131      2.00000
      4       6.3318      2.00000
      5      11.0111      0.00000
      6      15.7843      0.00000
      7      16.3011      0.00000
      8      16.7395      0.00000

 k-point    28 :      -0.2857   -0.4286    0.1429
  band No.  band energies     occupation 
      1       0.2407      2.00000
      2       1.8713      2.00000
      3       5.4666      2.00000
      4       6.3428      2.00000
      5       7.2829      2.00000
      6      13.1548      0.00000
      7      16.3468      0.00000
      8      17.8274      0.00000

 k-point    29 :      -0.1429   -0.4286    0.1429
  band No.  band energies     occupation 
      1       1.8797      2.00000
      2       2.7426      2.00000
      3       5.0478      2.00000
      4       6.1896      2.00000
      5       8.5308      1.99784
      6      11.1013      0.00000
      7      12.1106      0.00000
      8      16.6379      0.00000

 k-point    30 :      -0.2857   -0.2857    0.1429
  band No.  band energies     occupation 
      1       2.0326      2.00000
      2       3.5677      2.00000
      3       3.8342      2.00000
      4       6.9825      2.00000
      5       7.1495      2.00000
      6      11.0905      0.00000
      7      13.8322      0.00000
      8      14.7996      0.00000

 k-point    31 :      -0.1429   -0.2857    0.1429
  band No.  band energies     occupation 
      1      -0.7572      2.00000
      2       6.2003      2.00000
      3       7.3247      2.00000
      4       7.8358      2.00000
      5       8.2569      2.00000
      6      10.6207      0.00000
      7      11.1370      0.00000
      8      12.6980      0.00000

 k-point    32 :      -0.1429   -0.1429    0.1429
  band No.  band energies     occupation 
      1      -2.9425      2.00000
      2       7.7882      2.00000
      3       7.7882      2.00000
      4       8.3800      1.99996
      5      10.7400      0.00000
      6      10.9665      0.00000
      7      12.3962      0.00000
      8      13.2608      0.00000

 k-point    33 :      -0.2857    0.2857    0.2857
  band No.  band energies     occupation 
      1      -2.6221      2.00000
      2       1.8660      2.00000
      3       3.3623      2.00000
      4       7.7170      2.00000
      5      14.3328      0.00000
      6      15.9784      0.00000
      7      17.0894      0.00000
      8      17.6658      0.00000

 k-point    34 :      -0.4286    0.4286    0.2857
  band No.  band energies     occupation 
      1      -1.3996      2.00000
      2       0.2551      2.00000
      3       4.0035      2.00000
      4       5.6166      2.00000
      5      15.1339      0.00000
      6      15.4770      0.00000
      7      17.6843      0.00000
      8      18.8469      0.00000

 k-point    35 :      -0.2857    0.4286    0.2857
  band No.  band energies     occupation 
      1      -1.1105      2.00000
      2       1.6511      2.00000
      3       3.1868      2.00000
      4       5.8808      2.00000
      5      10.5930      0.00000
      6      17.7274      0.00000
      7      17.8879      0.00000
      8      18.8955      0.00000

 k-point    36 :      -0.4286   -0.4286    0.2857
  band No.  band energies     occupation 
      1       0.2842      2.00000
      2       0.3052      2.00000
      3       4.0404      2.00000
      4       4.0569      2.00000
      5      10.3826      0.00000
      6      17.9816      0.00000
      7      19.2798      0.00000
      8      19.9227      0.00000

 k-point    37 :      -0.2857   -0.4286    0.2857
  band No.  band energies     occupation 
      1       1.3802      2.00000
      2       2.4690      2.00000
      3       4.0166      2.00000
      4       5.0296      2.00000
      5       6.0664      2.00000
      6      15.1619      0.00000
      7      16.3742      0.00000
      8      18.0089      0.00000

 k-point    38 :      -0.2857   -0.2857    0.2857
  band No.  band energies     occupation 
      1       1.8608      2.00000
      2       4.4547      2.00000
      3       4.6898      2.00000
      4       5.7910      2.00000
      5       5.7910      2.00000
      6      13.1587      0.00000
      7      13.5781      0.00000
      8      13.5781      0.00000

 k-point    39 :      -0.4286    0.4286    0.4286
  band No.  band energies     occupation 
      1      -0.2402      2.00000
      2       0.8682      2.00000
      3       2.4471      2.00000
      4       3.5401      2.00000
      5      15.1168      0.00000
      6      15.1716      0.00000
      7      20.3010      0.00000
      8      21.2465      0.00000

 k-point    40 :      -0.4286   -0.4286    0.4286
  band No.  band energies     occupation 
      1       1.1340      2.00000
      2       1.1711      2.00000
      3       2.7272      2.00000
      4       2.7272      2.00000
      5      10.1664      0.00000
      6      19.0878      0.00000
      7      20.5502      0.00000
      8      20.5502      0.00000


--------------------------------------------------------------------------------------------------------


 soft charge-density along one line, spin component           1
         0         1         2         3         4         5         6         7         8         9
 total charge-density along one line
 
 pseudopotential strength for first ion, spin component:           1
 18.073  -0.003   0.000  -0.000  -0.000  -0.000   0.000   0.000
 -0.003   0.005  -0.000   0.000   0.000   0.000  -0.000  -0.000
  0.000  -0.000   4.118   0.000   0.000  -0.006  -0.000  -0.000
 -0.000   0.000   0.000   4.119   0.000  -0.000  -0.006  -0.000
 -0.000   0.000   0.000   0.000   4.118  -0.000  -0.000  -0.006
 -0.000   0.000  -0.006  -0.000  -0.000   0.005   0.000   0.000
  0.000  -0.000  -0.000  -0.006  -0.000   0.000   0.005   0.000
  0.000  -0.000  -0.000  -0.000  -0.006   0.000   0.000   0.005
 total augmentation occupancy for first ion, spin component:           1
  1.618  -0.637   0.000   0.000   0.000   0.000   0.000  -0.000
 -0.637   1.055   0.000   0.000   0.000   0.000   0.000   0.000
  0.000   0.000   0.903   0.000   0.000  -0.645   0.000   0.000
  0.000   0.000   0.000   0.830   0.000   0.000  -0.607   0.000
  0.000   0.000   0.000   0.000   0.903   0.000   0.000  -0.645
  0.000  -0.000  -0.645   0.000   0.000   0.545   0.000   0.000
  0.000   0.000   0.000  -0.607   0.000  -0.000   0.538   0.000
 -0.000   0.000   0.000   0.000  -0.645   0.000   0.000   0.545


------------------------ aborting loop because EDIFF is reached ----------------------------------------


    CHARGE:  cpu time    0.0160: real time    0.0128
    FORLOC:  cpu time    0.0000: real time    0.0005
    FORNL :  cpu time    0.0080: real time    0.0096
    STRESS:  cpu time    0.0800: real time    0.0782
    FORCOR:  cpu time    0.0120: real time    0.0120
    FORHAR:  cpu time    0.0040: real time    0.0033
    MIXING:  cpu time    0.0000: real time    0.0007
    OFIELD:  cpu time    0.0000: real time    0.0004

  FORCE on cell =-STRESS in cart. coord.  units (eV):
  Direction    XX          YY          ZZ          XY          YZ          ZX
  --------------------------------------------------------------------------------------
  Alpha Z     4.38091     4.38091     4.38091
  Ewald     -87.95206   -87.95206   -88.96697    -0.00000     0.00000    -0.00000
  Hartree     0.75685     0.75685     0.96671     0.00000     0.00000     0.00000
  E(xc)     -25.44181   -25.44181   -25.31534     0.00003     0.00001     0.00001
  Local     -14.40074   -14.40074   -11.60563    -0.00005    -0.00005    -0.00005
  n-local    77.84539    77.85700    75.66887     1.03661    -0.28363    -0.50385
  augment   -12.08869   -12.08869   -11.89013     0.00004     0.00005     0.00005
  Kinetic    60.50938    53.21531    56.75948     3.76797    -0.90174    -3.13793
  Fock        0.00000     0.00000     0.00000     0.00000     0.00000     0.00000
  -------------------------------------------------------------------------------------
  Total      -0.03201    -0.03201    -0.00210     0.00000     0.00000    -0.00000
  in kB      -1.66840    -1.66840    -0.10964     0.00000     0.00000    -0.00000
  external pressure =       -1.15 kB  Pullay stress =        0.00 kB


 VOLUME and BASIS-vectors are now :
 -----------------------------------------------------------------------------
  energy-cutoff  :      200.00
  volume of cell :       30.74
      direct lattice vectors                 reciprocal lattice vectors
    -2.411301112  2.411301112  1.321557862    -0.000000000  0.207356932  0.378341361
     2.411301112 -2.411301112  1.321557862     0.207356932 -0.000000000  0.378341361
     2.411301112  2.411301112 -1.321557862     0.207356932  0.207356932  0.000000000

  length of vectors
     3.657220432  3.657220432  3.657220432     0.431438388  0.431438388  0.293246985


 FORCES acting on ions
    electron-ion (+dipol)            ewald-force                    non-local-force                 convergence-correction
 -----------------------------------------------------------------------------------------------
   0.111E-05 -.111E-05 0.111E-13   0.295E-15 0.102E-14 0.143E-15   -.193E-18 -.106E-16 0.284E-18   0.260E-10 -.260E-10 -.168E-15
   -.111E-05 0.111E-05 -.706E-14   -.298E-15 -.804E-15 -.136E-15   -.730E-17 0.170E-16 -.245E-18   -.260E-10 0.260E-10 0.955E-16
 -----------------------------------------------------------------------------------------------
   -.191E-13 0.114E-13 0.403E-14   -.350E-17 0.219E-15 0.688E-17   -.750E-17 0.638E-17 0.384E-19   -.108E-15 -.192E-15 -.723E-16
 
 
 POSITION                                       TOTAL-FORCE (eV/Angst)
 -----------------------------------------------------------------------------------
      2.41130      0.00000      0.66078        -0.000000      0.000000      0.000000
      0.00000      0.00000     -0.00000         0.000000     -0.000000     -0.000000
 -----------------------------------------------------------------------------------
    total drift:                               -0.000000      0.000000      0.000000


--------------------------------------------------------------------------------------------------------



  FREE ENERGIE OF THE ION-ELECTRON SYSTEM (eV)
  ---------------------------------------------------
  free  energy   TOTEN  =       -10.25755560 eV

  energy  without entropy=      -10.24688960  energy(sigma->0) =      -10.25222260
 
 d Force = 0.0000000E+00[ 0.000E+00, 0.000E+00]  d Energy = 0.2026346E-07-0.203E-07
 d Force = 0.0000000E+00[ 0.000E+00, 0.000E+00]  d Ewald  =-0.8262393E-05 0.826E-05


--------------------------------------------------------------------------------------------------------


    POTLOK:  cpu time    0.0320: real time    0.0531


--------------------------------------------------------------------------------------------------------




--------------------------------------------------------------------------------------------------------


 writing wavefunctions
     LOOP+:  cpu time    0.7480: real time    1.2961
    4ORBIT:  cpu time    0.0000: real time    0.0000

 total amount of memory used by VASP MPI-rank0    31077. kBytes
=======================================================================

   base      :      30000. kBytes
   nonl-proj :        539. kBytes
   fftplans  :        119. kBytes
   grid      :        270. kBytes
   one-center:          6. kBytes
   wavefun   :        143. kBytes
 
  
  
 General timing and accounting informations for this job:
 ========================================================
  
                  Total CPU time used (sec):       20.348
                            User time (sec):       17.544
                          System time (sec):        2.804
                         Elapsed time (sec):       26.043
  
                   Maximum memory used (kb):       10008.
                   Average memory used (kb):           0.
  
                          Minor page faults:        38174
                          Major page faults:           27
                 Voluntary context switches:        49249
