 running on    8 total cores
 distrk:  each k-point on    8 cores,    1 groups
 distr:  one band on    1 cores,    8 groups
 using from now: INCAR     
 vasp.5.4.4.18Apr17-6-g9f103f2a35 (build Dec 09 2018 21:25:21) complex          
  
 POSCAR found type information on POSCAR  Si
 POSCAR found :  1 types and       2 ions
 scaLAPACK will be used

 ----------------------------------------------------------------------------- 
|                                                                             |
|           W    W    AA    RRRRR   N    N  II  N    N   GGGG   !!!           |
|           W    W   A  A   R    R  NN   N  II  NN   N  G    G  !!!           |
|           W    W  A    A  R    R  N N  N  II  N N  N  G       !!!           |
|           W WW W  AAAAAA  RRRRR   N  N N  II  N  N N  G  GGG   !            |
|           WW  WW  A    A  R   R   N   NN  II  N   NN  G    G                |
|           W    W  A    A  R    R  N    N  II  N    N   GGGG   !!!           |
|                                                                             |
|      For optimal performance we recommend to set                            |
|        NCORE= 4 - approx SQRT( number of cores)                             |
|      NCORE specifies how many cores store one orbital (NPAR=cpu/NCORE).     |
|      This setting can  greatly improve the performance of VASP for DFT.     |
|      The default,   NCORE=1            might be grossly inefficient         |
|      on modern multi-core architectures or massively parallel machines.     |
|      Do your own testing !!!!                                               |
|      Unfortunately you need to use the default for GW and RPA calculations. |
|      (for HF NCORE is supported but not extensively tested yet)             |
|                                                                             |
 ----------------------------------------------------------------------------- 

 LDA part: xc-table for Pade appr. of Perdew
 POSCAR, INCAR and KPOINTS ok, starting setup
 FFT: planning ...
 WAVECAR not read
 entering main loop
       N       E                     dE             d eps       ncg     rms          rms(c)
DAV:   1    -0.275806813002E+01   -0.27581E+01   -0.20588E+03   648   0.387E+02
DAV:   2    -0.101721186045E+02   -0.74141E+01   -0.70900E+01   984   0.479E+01
DAV:   3    -0.102238251367E+02   -0.51707E-01   -0.51658E-01   816   0.514E+00
DAV:   4    -0.102238957150E+02   -0.70578E-04   -0.70577E-04   992   0.187E-01
DAV:   5    -0.102238957751E+02   -0.60140E-07   -0.59551E-07   792   0.341E-03    0.149E+00
DAV:   6    -0.102177633863E+02    0.61324E-02   -0.17313E-03   800   0.302E-01    0.931E-01
DAV:   7    -0.102129853099E+02    0.47781E-02   -0.51668E-03   736   0.539E-01    0.336E-02
DAV:   8    -0.102129683620E+02    0.16948E-04   -0.73912E-05   408   0.652E-02
   1 F= -.10212968E+02 E0= -.10204909E+02  d E =-.102130E+02
 curvature:   0.00 expect dE= 0.000E+00 dE for cont linesearch  0.000E+00
 trial: gam= 0.00000 g(F)=  0.442E-46 g(S)=  0.963E-01 ort = 0.000E+00 (trialstep = 0.100E+01)
 search vector abs. value=  0.963E-01
 bond charge predicted
       N       E                     dE             d eps       ncg     rms          rms(c)
DAV:   1    -0.102942121217E+02   -0.81227E-01   -0.23779E+00   912   0.887E+00    0.942E-01
DAV:   2    -0.102689982291E+02    0.25214E-01   -0.50491E-02   752   0.169E+00    0.525E-01
DAV:   3    -0.102571132833E+02    0.11885E-01   -0.32486E-02   824   0.974E-01    0.473E-02
DAV:   4    -0.102572088178E+02   -0.95535E-04   -0.11477E-03   648   0.265E-01
   2 F= -.10257209E+02 E0= -.10251901E+02  d E =-.442405E-01
 trial-energy change:   -0.044240  1 .order   -0.042964   -0.096344    0.010417
 step:   0.9024(harm=  0.9024)  dis= 0.00000  next Energy=   -10.256440 (dE=-0.435E-01)
 bond charge predicted
       N       E                     dE             d eps       ncg     rms          rms(c)
DAV:   1    -0.102579954845E+02   -0.88220E-03   -0.21493E-02   880   0.828E-01    0.101E-01
DAV:   2    -0.102576952567E+02    0.30023E-03   -0.48519E-04   584   0.163E-01
   3 F= -.10257695E+02 E0= -.10252358E+02  d E =-.447269E-01
 curvature:  -0.45 expect dE=-0.917E-04 dE for cont linesearch -0.740E-04
 ZBRENT: interpolating
 opt :   0.8667  next Energy=   -10.257766 (dE=-0.448E-01)
 bond charge predicted
       N       E                     dE             d eps       ncg     rms          rms(c)
DAV:   1    -0.102574948362E+02    0.50065E-03   -0.15594E-03   896   0.231E-01    0.306E-02
DAV:   2    -0.102574687505E+02    0.26086E-04   -0.34938E-05   352   0.424E-02
   4 F= -.10257469E+02 E0= -.10252138E+02  d E =-.445004E-01
 curvature:  -0.43 expect dE=-0.626E-04 dE for cont linesearch -0.424E-04
 ZBRENT: interpolating
 opt :   0.8823  next Energy=   -10.257493 (dE=-0.445E-01)
 bond charge predicted
       N       E                     dE             d eps       ncg     rms          rms(c)
DAV:   1    -0.102575230530E+02   -0.28217E-04   -0.81830E-04   544   0.161E-01    0.146E-02
DAV:   2    -0.102575183533E+02    0.46998E-05   -0.25485E-05   336   0.397E-02
   5 F= -.10257518E+02 E0= -.10252187E+02  d E =-.445500E-01
 curvature:  -0.24 expect dE=-0.443E-04 dE for cont linesearch -0.339E-04
 ZBRENT: bisectioning
 opt :   0.8923  next Energy=   -10.257557 (dE=-0.446E-01)
 bond charge predicted
       N       E                     dE             d eps       ncg     rms          rms(c)
DAV:   1    -0.102575430431E+02   -0.19990E-04   -0.17113E-04   408   0.750E-02    0.867E-03
DAV:   2    -0.102575411726E+02    0.18706E-05   -0.59285E-06   336   0.188E-02
   6 F= -.10257541E+02 E0= -.10252209E+02  d E =-.445728E-01
 curvature:  -0.28 expect dE=-0.274E-04 dE for cont linesearch -0.162E-04
 ZBRENT: bisectioning
 opt :   0.8974  next Energy=   -10.257551 (dE=-0.446E-01)
 bond charge predicted
       N       E                     dE             d eps       ncg     rms          rms(c)
DAV:   1    -0.102575498285E+02   -0.67853E-05   -0.42451E-05   344   0.379E-02    0.450E-03
DAV:   2    -0.102575493419E+02    0.48660E-06   -0.16577E-06   328   0.987E-03
   7 F= -.10257549E+02 E0= -.10252217E+02  d E =-.445810E-01
 curvature:  -0.18 expect dE=-0.123E-04 dE for cont linesearch -0.529E-05
 ZBRENT: bisectioning
 opt :   0.8999  next Energy=   -10.257553 (dE=-0.446E-01)
 bond charge predicted
       N       E                     dE             d eps       ncg     rms          rms(c)
DAV:   1    -0.102575528493E+02   -0.30208E-05   -0.10739E-05   320   0.192E-02    0.229E-03
DAV:   2    -0.102575527212E+02    0.12806E-06   -0.43581E-07   320   0.504E-03
   8 F= -.10257553E+02 E0= -.10252220E+02  d E =-.445844E-01
 curvature:  -0.13 expect dE=-0.751E-05 dE for cont linesearch -0.249E-05
 ZBRENT: bisectioning
 opt :   0.9012  next Energy=   -10.257554 (dE=-0.446E-01)
 bond charge predicted
       N       E                     dE             d eps       ncg     rms          rms(c)
DAV:   1    -0.102575542660E+02   -0.14167E-05   -0.26933E-06   320   0.961E-03    0.116E-03
DAV:   2    -0.102575542332E+02    0.32766E-07   -0.10983E-07   320   0.252E-03
   9 F= -.10257554E+02 E0= -.10252221E+02  d E =-.445859E-01
 curvature:  -0.08 expect dE=-0.448E-05 dE for cont linesearch -0.125E-05
 ZBRENT: bisectioning
 opt :   0.9018  next Energy=   -10.257555 (dE=-0.446E-01)
 bond charge predicted
       N       E                     dE             d eps       ncg     rms          rms(c)
DAV:   1    -0.102575549540E+02   -0.68798E-06   -0.67351E-07   320   0.481E-03    0.580E-04
DAV:   2    -0.102575549439E+02    0.10069E-07   -0.27300E-08   320   0.125E-03
  10 F= -.10257555E+02 E0= -.10252222E+02  d E =-.445866E-01
 curvature:  -0.05 expect dE=-0.252E-05 dE for cont linesearch -0.631E-06
 ZBRENT: bisectioning
 opt :   0.9021  next Energy=   -10.257555 (dE=-0.446E-01)
 bond charge predicted
       N       E                     dE             d eps       ncg     rms          rms(c)
DAV:   1    -0.102575552919E+02   -0.33797E-06   -0.16822E-07   320   0.240E-03    0.291E-04
DAV:   2    -0.102575552886E+02    0.32992E-08   -0.67511E-09   320   0.619E-04
  11 F= -.10257555E+02 E0= -.10252222E+02  d E =-.445869E-01
 curvature:  -0.03 expect dE=-0.135E-05 dE for cont linesearch -0.319E-06
 ZBRENT: bisectioning
 opt :   0.9023  next Energy=   -10.257555 (dE=-0.446E-01)
 bond charge predicted
       N       E                     dE             d eps       ncg     rms          rms(c)
DAV:   1    -0.102575554589E+02   -0.16697E-06   -0.42018E-08   320   0.120E-03    0.147E-04
DAV:   2    -0.102575554582E+02    0.73538E-09   -0.16669E-09   320   0.306E-04
  12 F= -.10257555E+02 E0= -.10252222E+02  d E =-.445871E-01
 curvature:  -0.01 expect dE=-0.700E-06 dE for cont linesearch -0.161E-06
 ZBRENT: bisectioning
 opt :   0.9024  next Energy=   -10.257556 (dE=-0.446E-01)
 bond charge predicted
       N       E                     dE             d eps       ncg     rms          rms(c)
DAV:   1    -0.102575555431E+02   -0.84149E-07   -0.10488E-08   320   0.599E-04    0.767E-05
DAV:   2    -0.102575555417E+02    0.13182E-08   -0.41228E-10   320   0.152E-04
  13 F= -.10257556E+02 E0= -.10252223E+02  d E =-.445872E-01
 curvature:  -0.01 expect dE=-0.357E-06 dE for cont linesearch -0.808E-07
 ZBRENT: bisectioning
 opt :   0.9024  next Energy=   -10.257556 (dE=-0.446E-01)
 bond charge predicted
       N       E                     dE             d eps       ncg     rms          rms(c)
DAV:   1    -0.102575555842E+02   -0.41167E-07   -0.26176E-09   320   0.299E-04    0.442E-05
DAV:   2    -0.102575555845E+02   -0.25676E-09   -0.10218E-10   320   0.755E-05
  14 F= -.10257556E+02 E0= -.10252223E+02  d E =-.445872E-01
 curvature:  -0.00 expect dE=-0.180E-06 dE for cont linesearch -0.405E-07
 ZBRENT: bisectioning
 opt :   0.9024  next Energy=   -10.257556 (dE=-0.446E-01)
 bond charge predicted
       N       E                     dE             d eps       ncg     rms          rms(c)
DAV:   1    -0.102575556048E+02   -0.20537E-07   -0.65367E-10   320   0.150E-04    0.312E-05
DAV:   2    -0.102575556047E+02    0.16286E-10   -0.25382E-11   320   0.376E-05
  15 F= -.10257556E+02 E0= -.10252223E+02  d E =-.445872E-01
 curvature:  -0.00 expect dE=-0.906E-07 dE for cont linesearch -0.203E-07
 ZBRENT: bisectioning
 opt :   0.9024  next Energy=   -10.257556 (dE=-0.446E-01)
 writing wavefunctions
