<?xml version="1.0" encoding="ISO-8859-1"?>
<modeling>
 <generator>
  <i name="program" type="string">vasp </i>
  <i name="version" type="string">5.4.4.18Apr17-6-g9f103f2a35  </i>
  <i name="subversion" type="string">(build Dec 09 2018 21:25:21) complex            parallel </i>
  <i name="platform" type="string">IFC18.0.1.163_CrayMPICH7.7.0_MKL18.0.1.163 </i>
  <i name="date" type="string">2019 03 20 </i>
  <i name="time" type="string">09:15:30 </i>
 </generator>
 <incar>
  <i type="string" name="PREC">normal</i>
  <i type="int" name="IBRION">     2</i>
  <i name="EDIFF">      0.00040000</i>
  <i name="EDIFFG">     -0.01000000</i>
  <i type="int" name="NSW">    15</i>
  <i type="int" name="ISIF">     3</i>
  <i name="ENCUT">    200.00000000</i>
  <i type="int" name="NBANDS">     8</i>
  <i type="logical" name="LREAL"> F  </i>
  <i type="int" name="ISMEAR">     0</i>
  <i name="SIGMA">      0.20000000</i>
  <v type="int" name="KPOINT_BSE">    -1     0     0     0</v>
 </incar>
 <structure name="primitive_cell" >
  <crystal>
   <varray name="basis" >
    <v>      -2.45000000       2.45000000       1.27400000 </v>
    <v>       2.45000000      -2.45000000       1.27400000 </v>
    <v>       2.45000000       2.45000000      -1.27400000 </v>
   </varray>
   <i name="volume">     30.58874000 </i>
   <varray name="rec_basis" >
    <v>       0.00000000       0.20408163       0.39246468 </v>
    <v>       0.20408163       0.00000000       0.39246468 </v>
    <v>       0.20408163       0.20408163      -0.00000000 </v>
   </varray>
  </crystal>
  <varray name="positions" >
   <v>       0.25000000      -0.25000000      -0.50000000 </v>
   <v>       0.00000000       0.00000000       0.00000000 </v>
  </varray>
 </structure>
 <varray name="primitive_index" >
  <v type="int" >        1 </v>
  <v type="int" >        2 </v>
 </varray>
 <kpoints>
  <generation param="Monkhorst-Pack">
   <v type="int" name="divisions">       7        7        7 </v>
   <v name="usershift">      0.00000000       0.00000000       0.00000000 </v>
   <v name="genvec1">      0.14285714       0.00000000      -0.00000000 </v>
   <v name="genvec2">      0.00000000       0.14285714      -0.00000000 </v>
   <v name="genvec3">      0.00000000      -0.00000000       0.14285714 </v>
   <v name="shift">      0.00000000       0.00000000       0.00000000 </v>
  </generation>
  <varray name="kpointlist" >
   <v>       0.00000000       0.00000000       0.00000000 </v>
   <v>       0.14285714      -0.00000000       0.00000000 </v>
   <v>       0.28571429      -0.00000000       0.00000000 </v>
   <v>       0.42857143      -0.00000000       0.00000000 </v>
   <v>       0.14285714       0.14285714       0.00000000 </v>
   <v>       0.28571429       0.14285714       0.00000000 </v>
   <v>       0.42857143       0.14285714       0.00000000 </v>
   <v>      -0.42857143       0.14285714      -0.00000000 </v>
   <v>      -0.28571429       0.14285714      -0.00000000 </v>
   <v>      -0.14285714       0.14285714      -0.00000000 </v>
   <v>       0.28571429       0.28571429       0.00000000 </v>
   <v>       0.42857143       0.28571429       0.00000000 </v>
   <v>      -0.42857143       0.28571429      -0.00000000 </v>
   <v>      -0.28571429       0.28571429      -0.00000000 </v>
   <v>       0.42857143       0.42857143       0.00000000 </v>
   <v>      -0.42857143       0.42857143       0.00000000 </v>
   <v>       0.14285714       0.14285714       0.14285714 </v>
   <v>       0.28571429       0.14285714       0.14285714 </v>
   <v>      -0.14285714       0.14285714       0.14285714 </v>
   <v>       0.28571429       0.28571429       0.14285714 </v>
   <v>       0.42857143       0.28571429       0.14285714 </v>
   <v>      -0.28571429       0.28571429       0.14285714 </v>
   <v>      -0.14285714       0.28571429       0.14285714 </v>
   <v>      -0.42857143       0.42857143       0.14285714 </v>
   <v>      -0.28571429       0.42857143       0.14285714 </v>
   <v>      -0.14285714       0.42857143       0.14285714 </v>
   <v>      -0.42857143      -0.42857143       0.14285714 </v>
   <v>      -0.28571429      -0.42857143       0.14285714 </v>
   <v>      -0.14285714      -0.42857143       0.14285714 </v>
   <v>      -0.28571429      -0.28571429       0.14285714 </v>
   <v>      -0.14285714      -0.28571429       0.14285714 </v>
   <v>      -0.14285714      -0.14285714       0.14285714 </v>
   <v>      -0.28571429       0.28571429       0.28571429 </v>
   <v>      -0.42857143       0.42857143       0.28571429 </v>
   <v>      -0.28571429       0.42857143       0.28571429 </v>
   <v>      -0.42857143      -0.42857143       0.28571429 </v>
   <v>      -0.28571429      -0.42857143       0.28571429 </v>
   <v>      -0.28571429      -0.28571429       0.28571429 </v>
   <v>      -0.42857143       0.42857143       0.42857143 </v>
   <v>      -0.42857143      -0.42857143       0.42857143 </v>
  </varray>
  <varray name="weights" >
   <v>       0.00291545 </v>
   <v>       0.02332362 </v>
   <v>       0.02332362 </v>
   <v>       0.02332362 </v>
   <v>       0.02332362 </v>
   <v>       0.04664723 </v>
   <v>       0.04664723 </v>
   <v>       0.04664723 </v>
   <v>       0.04664723 </v>
   <v>       0.01166181 </v>
   <v>       0.02332362 </v>
   <v>       0.04664723 </v>
   <v>       0.04664723 </v>
   <v>       0.01166181 </v>
   <v>       0.02332362 </v>
   <v>       0.01166181 </v>
   <v>       0.02332362 </v>
   <v>       0.04664723 </v>
   <v>       0.01166181 </v>
   <v>       0.02332362 </v>
   <v>       0.02332362 </v>
   <v>       0.02332362 </v>
   <v>       0.02332362 </v>
   <v>       0.02332362 </v>
   <v>       0.04664723 </v>
   <v>       0.02332362 </v>
   <v>       0.02332362 </v>
   <v>       0.04664723 </v>
   <v>       0.02332362 </v>
   <v>       0.02332362 </v>
   <v>       0.02332362 </v>
   <v>       0.00583090 </v>
   <v>       0.01166181 </v>
   <v>       0.02332362 </v>
   <v>       0.02332362 </v>
   <v>       0.02332362 </v>
   <v>       0.02332362 </v>
   <v>       0.00583090 </v>
   <v>       0.01166181 </v>
   <v>       0.00583090 </v>
  </varray>
 </kpoints>
 <parameters>
  <separator name="general" >
   <i type="string" name="SYSTEM">unknown system</i>
   <i type="logical" name="LCOMPAT"> F  </i>
  </separator>
  <separator name="electronic" >
   <i type="string" name="PREC">normal</i>
   <i name="ENMAX">    200.00000000</i>
   <i name="ENAUG">    322.06900000</i>
   <i name="EDIFF">      0.00040000</i>
   <i type="int" name="IALGO">    38</i>
   <i type="int" name="IWAVPR">    11</i>
   <i type="int" name="NBANDS">     8</i>
   <i name="NELECT">      8.00000000</i>
   <i type="int" name="TURBO">     0</i>
   <i type="int" name="IRESTART">     0</i>
   <i type="int" name="NREBOOT">     0</i>
   <i type="int" name="NMIN">     0</i>
   <i name="EREF">      0.00000000</i>
   <separator name="electronic smearing" >
    <i type="int" name="ISMEAR">     0</i>
    <i name="SIGMA">      0.20000000</i>
    <i name="KSPACING">      0.50000000</i>
    <i type="logical" name="KGAMMA"> T  </i>
   </separator>
   <separator name="electronic projectors" >
    <i type="logical" name="LREAL"> F  </i>
    <v name="ROPT">      0.00000000</v>
    <i type="int" name="LMAXPAW">  -100</i>
    <i type="int" name="LMAXMIX">     2</i>
    <i type="logical" name="NLSPLINE"> F  </i>
   </separator>
   <separator name="electronic startup" >
    <i type="int" name="ISTART">     0</i>
    <i type="int" name="ICHARG">     2</i>
    <i type="int" name="INIWAV">     1</i>
   </separator>
   <separator name="electronic spin" >
    <i type="int" name="ISPIN">     1</i>
    <i type="logical" name="LNONCOLLINEAR"> F  </i>
    <v name="MAGMOM">      1.00000000      1.00000000</v>
    <i name="NUPDOWN">     -1.00000000</i>
    <i type="logical" name="LSORBIT"> F  </i>
    <v name="SAXIS">      0.00000000      0.00000000      1.00000000</v>
    <i type="logical" name="LSPIRAL"> F  </i>
    <v name="QSPIRAL">      0.00000000      0.00000000      0.00000000</v>
    <i type="logical" name="LZEROZ"> F  </i>
   </separator>
   <separator name="electronic exchange-correlation" >
    <i type="logical" name="LASPH"> F  </i>
    <i type="logical" name="LMETAGGA"> F  </i>
   </separator>
   <separator name="electronic convergence" >
    <i type="int" name="NELM">    60</i>
    <i type="int" name="NELMDL">    -5</i>
    <i type="int" name="NELMIN">     2</i>
    <i name="ENINI">    200.00000000</i>
    <separator name="electronic convergence detail" >
     <i type="logical" name="LDIAG"> T  </i>
     <i type="logical" name="LSUBROT"> F  </i>
     <i name="WEIMIN">      0.00100000</i>
     <i name="EBREAK">      0.00001250</i>
     <i name="DEPER">      0.30000000</i>
     <i type="int" name="NRMM">     4</i>
     <i name="TIME">      0.40000000</i>
    </separator>
   </separator>
   <separator name="electronic mixer" >
    <i name="AMIX">      0.40000000</i>
    <i name="BMIX">      1.00000000</i>
    <i name="AMIN">      0.10000000</i>
    <i name="AMIX_MAG">      1.60000000</i>
    <i name="BMIX_MAG">      1.00000000</i>
    <separator name="electronic mixer details" >
     <i type="int" name="IMIX">     4</i>
     <i type="logical" name="MIXFIRST"> F  </i>
     <i type="int" name="MAXMIX">   -45</i>
     <i name="WC">    100.00000000</i>
     <i type="int" name="INIMIX">     1</i>
     <i type="int" name="MIXPRE">     1</i>
     <i type="int" name="MREMOVE">     5</i>
    </separator>
   </separator>
   <separator name="electronic dipolcorrection" >
    <i type="logical" name="LDIPOL"> F  </i>
    <i type="logical" name="LMONO"> F  </i>
    <i type="int" name="IDIPOL">     0</i>
    <i name="EPSILON">      1.00000000</i>
    <v name="DIPOL">   -100.00000000   -100.00000000   -100.00000000</v>
    <i name="EFIELD">      0.00000000</i>
   </separator>
  </separator>
  <separator name="grids" >
   <i type="int" name="NGX">    14</i>
   <i type="int" name="NGY">    14</i>
   <i type="int" name="NGZ">    14</i>
   <i type="int" name="NGXF">    28</i>
   <i type="int" name="NGYF">    28</i>
   <i type="int" name="NGZF">    28</i>
   <i type="logical" name="ADDGRID"> F  </i>
  </separator>
  <separator name="ionic" >
   <i type="int" name="NSW">    15</i>
   <i type="int" name="IBRION">     2</i>
   <i type="int" name="MDALGO">     0</i>
   <i type="int" name="ISIF">     3</i>
   <i name="PSTRESS">      0.00000000</i>
   <i name="EDIFFG">     -0.01000000</i>
   <i type="int" name="NFREE">     1</i>
   <i name="POTIM">      0.50000000</i>
   <i name="SMASS">     -3.00000000</i>
   <i name="SCALEE">      1.00000000</i>
  </separator>
  <separator name="ionic md" >
   <i name="TEBEG">      0.00010000</i>
   <i name="TEEND">      0.00010000</i>
   <i type="int" name="NBLOCK">     1</i>
   <i type="int" name="KBLOCK">    15</i>
   <i type="int" name="NPACO">   256</i>
   <i name="APACO">     16.00000000</i>
  </separator>
  <separator name="symmetry" >
   <i type="int" name="ISYM">     2</i>
   <i name="SYMPREC">      0.00001000</i>
  </separator>
  <separator name="dos" >
   <i type="int" name="LORBIT">     0</i>
   <v name="RWIGS">     -1.00000000</v>
   <i type="int" name="NEDOS">   301</i>
   <i name="EMIN">     10.00000000</i>
   <i name="EMAX">    -10.00000000</i>
   <i name="EFERMI">      0.00000000</i>
  </separator>
  <separator name="writing" >
   <i type="int" name="NWRITE">     2</i>
   <i type="logical" name="LWAVE"> T  </i>
   <i type="logical" name="LDOWNSAMPLE"> F  </i>
   <i type="logical" name="LCHARG"> T  </i>
   <i type="logical" name="LPARD"> F  </i>
   <i type="logical" name="LVTOT"> F  </i>
   <i type="logical" name="LVHAR"> F  </i>
   <i type="logical" name="LELF"> F  </i>
   <i type="logical" name="LOPTICS"> F  </i>
   <v name="STM">      0.00000000      0.00000000      0.00000000      0.00000000      0.00000000      0.00000000      0.00000000</v>
  </separator>
  <separator name="performance" >
   <i type="int" name="NPAR">     8</i>
   <i type="int" name="NSIM">     4</i>
   <i type="int" name="NBLK">    -1</i>
   <i type="logical" name="LPLANE"> T  </i>
   <i type="logical" name="LSCALAPACK"> T  </i>
   <i type="logical" name="LSCAAWARE"> F  </i>
   <i type="logical" name="LSCALU"> F  </i>
   <i type="logical" name="LASYNC"> F  </i>
   <i type="logical" name="LORBITALREAL"> F  </i>
  </separator>
  <separator name="miscellaneous" >
   <i type="int" name="IDIOT">     3</i>
   <i type="int" name="ISPECIAL">     0</i>
   <i type="logical" name="LMUSIC"> F  </i>
   <v name="POMASS">     28.08500000</v>
   <v name="DARWINR">      0.00000000</v>
   <v name="DARWINV">      1.00000000</v>
   <i type="logical" name="LCORR"> T  </i>
  </separator>
  <i type="logical" name="GGA_COMPAT"> T  </i>
  <i type="logical" name="LBERRY"> F  </i>
  <i type="int" name="ICORELEVEL">     0</i>
  <i type="logical" name="LDAU"> F  </i>
  <i type="int" name="I_CONSTRAINED_M">     0</i>
  <separator name="electronic exchange-correlation" >
   <i type="string" name="GGA">--</i>
   <i type="int" name="VOSKOWN">     0</i>
   <i type="logical" name="LHFCALC"> F  </i>
   <i type="string" name="PRECFOCK"></i>
   <i type="logical" name="LSYMGRAD"> F  </i>
   <i type="logical" name="LHFONE"> F  </i>
   <i type="logical" name="LRHFCALC"> F  </i>
   <i type="logical" name="LTHOMAS"> F  </i>
   <i type="logical" name="LMODELHF"> F  </i>
   <i name="ENCUT4O">     -1.00000000</i>
   <i type="int" name="EXXOEP">     0</i>
   <i type="int" name="FOURORBIT">     0</i>
   <i name="AEXX">      0.00000000</i>
   <i name="HFALPHA">      0.00000000</i>
   <i name="MCALPHA">      0.00000000</i>
   <i name="ALDAX">      1.00000000</i>
   <i name="AGGAX">      1.00000000</i>
   <i name="ALDAC">      1.00000000</i>
   <i name="AGGAC">      1.00000000</i>
   <i type="int" name="NKREDX">     1</i>
   <i type="int" name="NKREDY">     1</i>
   <i type="int" name="NKREDZ">     1</i>
   <i type="logical" name="SHIFTRED"> F  </i>
   <i type="logical" name="ODDONLY"> F  </i>
   <i type="logical" name="EVENONLY"> F  </i>
   <i type="int" name="LMAXFOCK">     0</i>
   <i type="int" name="NMAXFOCKAE">     0</i>
   <i type="logical" name="LFOCKAEDFT"> F  </i>
   <i name="HFSCREEN">      0.00000000</i>
   <i name="HFSCREENC">      0.00000000</i>
   <i type="int" name="NBANDSGWLOW">     0</i>
  </separator>
  <separator name="vdW DFT" >
   <i type="logical" name="LUSE_VDW"> F  </i>
   <i name="Zab_VDW">     -0.84910000</i>
   <i name="PARAM1">      0.12340000</i>
   <i name="PARAM2">      1.00000000</i>
   <i name="PARAM3">      0.00000000</i>
  </separator>
  <separator name="model GW" >
   <i type="int" name="MODEL_GW">     0</i>
   <i name="MODEL_EPS0">      9.17662200</i>
   <i name="MODEL_ALPHA">      1.00000000</i>
  </separator>
  <separator name="linear response parameters" >
   <i type="logical" name="LEPSILON"> F  </i>
   <i type="logical" name="LRPA"> F  </i>
   <i type="logical" name="LNABLA"> F  </i>
   <i type="logical" name="LVEL"> F  </i>
   <i type="int" name="KINTER">     0</i>
   <i name="CSHIFT">      0.10000000</i>
   <i name="OMEGAMAX">     -1.00000000</i>
   <i name="DEG_THRESHOLD">      0.00200000</i>
   <i name="RTIME">     -0.10000000</i>
   <i name="WPLASMAI">      0.00000000</i>
   <v name="DFIELD">      0.00000000      0.00000000      0.00000000</v>
   <v name="WPLASMA">      0.00000000      0.00000000      0.00000000      0.00000000      0.00000000      0.00000000      0.00000000      0.00000000      0.00000000</v>
  </separator>
  <separator name="orbital magnetization" >
   <i type="logical" name="NUCIND"> F  </i>
   <v name="MAGPOS">      0.00000000      0.00000000      0.00000000</v>
   <i type="logical" name="LNICSALL"> T  </i>
   <i type="logical" name="ORBITALMAG"> F  </i>
   <i type="logical" name="LMAGBLOCH"> F  </i>
   <i type="logical" name="LCHIMAG"> F  </i>
   <i type="logical" name="LGAUGE"> T  </i>
   <i type="int" name="MAGATOM">     0</i>
   <v name="MAGDIPOL">      0.00000000      0.00000000      0.00000000</v>
   <v name="AVECCONST">      0.00000000      0.00000000      0.00000000</v>
  </separator>
  <separator name="response functions" >
   <i type="logical" name="LADDER"> F  </i>
   <i type="logical" name="LRPAFORCE"> F  </i>
   <i type="logical" name="LFXC"> F  </i>
   <i type="logical" name="LHARTREE"> T  </i>
   <i type="int" name="IBSE">     0</i>
   <v type="int" name="KPOINT">    -1     0     0     0</v>
   <i type="logical" name="LTCTE"> F  </i>
   <i type="logical" name="LTETE"> F  </i>
   <i type="logical" name="LTRIPLET"> F  </i>
   <i type="logical" name="LFXCEPS"> F  </i>
   <i type="logical" name="LFXHEG"> F  </i>
   <i type="int" name="NATURALO">     2</i>
   <i type="logical" name="L2ORDER"> F  </i>
   <i type="logical" name="LMP2LT"> F  </i>
   <i type="logical" name="LUSEW"> F  </i>
   <i name="ENCUTGW">     -2.00000000</i>
   <i name="ENCUTGWSOFT">     -2.00000000</i>
   <i name="ENCUTLF">     -1.00000000</i>
   <i type="int" name="LMAXMP2">    -1</i>
   <i name="SCISSOR">      0.00000000</i>
   <i type="int" name="NOMEGA">     0</i>
   <i type="int" name="NOMEGAR">     0</i>
   <i type="int" name="NBANDSGW">    -1</i>
   <i type="int" name="NBANDSO">    -1</i>
   <i type="int" name="NBANDSV">    -1</i>
   <i type="int" name="NELM">     1</i>
   <i type="int" name="NELMHF">     1</i>
   <i type="int" name="DIM">     3</i>
   <i type="int" name="ANTIRES">     0</i>
   <i name="OMEGAMAX">    -30.00000000</i>
   <i name="OMEGAMIN">    -30.00000000</i>
   <i name="OMEGATL">   -200.00000000</i>
   <i type="int" name="OMEGAGRID">   140</i>
   <i name="CSHIFT">     -0.10000000</i>
   <i type="logical" name="SELFENERGY"> F  </i>
   <i type="logical" name="LSPECTRAL"> F  </i>
   <i type="logical" name="LSPECTRALGW"> F  </i>
   <i type="logical" name="LSINGLES"> F  </i>
   <i type="logical" name="LFERMIGW"> F  </i>
   <i type="logical" name="ODDONLYGW"> F  </i>
   <i type="logical" name="EVENONLYGW"> F  </i>
   <i type="int" name="NKREDLFX">     1</i>
   <i type="int" name="NKREDLFY">     1</i>
   <i type="int" name="NKREDLFZ">     1</i>
   <i type="int" name="MAXMEM">  2800</i>
   <i type="int" name="TELESCOPE">     0</i>
   <i type="int" name="TAUPAR">     1</i>
   <i type="int" name="OMEGAPAR">    -1</i>
   <i name="LAMBDA">      1.00000000</i>
  </separator>
  <separator name="External order field" >
   <i name="OFIELD_KAPPA">      0.00000000</i>
   <v name="OFIELD_K">      0.00000000      0.00000000      0.00000000</v>
   <i name="OFIELD_Q6_NEAR">      0.00000000</i>
   <i name="OFIELD_Q6_FAR">      0.00000000</i>
   <i name="OFIELD_A">      0.00000000</i>
  </separator>
 </parameters>
 <atominfo>
  <atoms>       2 </atoms>
  <types>       1 </types>
  <array name="atoms" >
   <dimension dim="1">ion</dimension>
   <field type="string">element</field>
   <field type="int">atomtype</field>
   <set>
    <rc><c>Si</c><c>   1</c></rc>
    <rc><c>Si</c><c>   1</c></rc>
   </set>
  </array>
  <array name="atomtypes" >
   <dimension dim="1">type</dimension>
   <field type="int">atomspertype</field>
   <field type="string">element</field>
   <field>mass</field>
   <field>valence</field>
   <field type="string">pseudopotential</field>
   <set>
    <rc><c>   2</c><c>Si</c><c>     28.08500000</c><c>      4.00000000</c><c> PAW_PBE Si 05Jan2001                   </c></rc>
   </set>
  </array>
 </atominfo>
 <structure name="initialpos" >
  <crystal>
   <varray name="basis" >
    <v>      -2.45000000       2.45000000       1.27400000 </v>
    <v>       2.45000000      -2.45000000       1.27400000 </v>
    <v>       2.45000000       2.45000000      -1.27400000 </v>
   </varray>
   <i name="volume">     30.58874000 </i>
   <varray name="rec_basis" >
    <v>       0.00000000       0.20408163       0.39246468 </v>
    <v>       0.20408163       0.00000000       0.39246468 </v>
    <v>       0.20408163       0.20408163      -0.00000000 </v>
   </varray>
  </crystal>
  <varray name="positions" >
   <v>       0.25000000       0.75000000       0.50000000 </v>
   <v>       0.00000000       0.00000000       0.00000000 </v>
  </varray>
 </structure>
 <calculation>
  <scstep>
   <time name="dav">    0.32    0.32</time>
   <time name="total">    0.36    0.39</time>
   <energy>
    <i name="alphaZ">      4.40202223 </i>
    <i name="ewald">   -265.18101312 </i>
    <i name="hartreedc">     -2.30415367 </i>
    <i name="XCdc">    -17.81545108 </i>
    <i name="pawpsdc">     65.95520812 </i>
    <i name="pawaedc">    -30.76852678 </i>
    <i name="eentropy">     -0.01661193 </i>
    <i name="bandstr">     36.85798547 </i>
    <i name="atom">    206.11247263 </i>
    <i name="e_fr_energy">     -2.75806813 </i>
    <i name="e_wo_entrp">     -2.74145620 </i>
    <i name="e_0_energy">     -2.74976216 </i>
   </energy>
  </scstep>
  <scstep>
   <time name="dav">    0.50    0.51</time>
   <time name="total">    0.50    0.51</time>
   <energy>
    <i name="e_fr_energy">    -10.17211860 </i>
    <i name="e_wo_entrp">    -10.15632352 </i>
    <i name="e_0_energy">    -10.16422106 </i>
   </energy>
  </scstep>
  <scstep>
   <time name="dav">    0.41    0.42</time>
   <time name="total">    0.42    0.42</time>
   <energy>
    <i name="e_fr_energy">    -10.22382514 </i>
    <i name="e_wo_entrp">    -10.20767342 </i>
    <i name="e_0_energy">    -10.21574928 </i>
   </energy>
  </scstep>
  <scstep>
   <time name="dav">    0.51    0.52</time>
   <time name="total">    0.51    0.52</time>
   <energy>
    <i name="e_fr_energy">    -10.22389571 </i>
    <i name="e_wo_entrp">    -10.20774359 </i>
    <i name="e_0_energy">    -10.21581965 </i>
   </energy>
  </scstep>
  <scstep>
   <time name="dav">    0.40    0.41</time>
   <time name="total">    0.42    0.43</time>
   <energy>
    <i name="e_fr_energy">    -10.22389578 </i>
    <i name="e_wo_entrp">    -10.20774366 </i>
    <i name="e_0_energy">    -10.21581972 </i>
   </energy>
  </scstep>
  <scstep>
   <time name="dav">    0.39    0.39</time>
   <time name="total">    0.44    0.44</time>
   <energy>
    <i name="e_fr_energy">    -10.21776339 </i>
    <i name="e_wo_entrp">    -10.20161800 </i>
    <i name="e_0_energy">    -10.20969070 </i>
   </energy>
  </scstep>
  <scstep>
   <time name="dav">    0.36    0.36</time>
   <time name="total">    0.40    0.41</time>
   <energy>
    <i name="e_fr_energy">    -10.21298531 </i>
    <i name="e_wo_entrp">    -10.19686218 </i>
    <i name="e_0_energy">    -10.20492374 </i>
   </energy>
  </scstep>
  <scstep>
   <time name="dav">    0.22    0.22</time>
   <time name="total">    0.25    0.26</time>
   <energy>
    <i name="alphaZ">      4.40202223 </i>
    <i name="ewald">   -265.18101312 </i>
    <i name="hartreedc">     -2.50242401 </i>
    <i name="XCdc">    -17.56333142 </i>
    <i name="pawpsdc">     71.45562201 </i>
    <i name="pawaedc">    -36.37910682 </i>
    <i name="eentropy">     -0.01611821 </i>
    <i name="bandstr">     29.45890835 </i>
    <i name="atom">    206.11247263 </i>
    <i name="e_fr_energy">    -10.21296836 </i>
    <i name="e_wo_entrp">    -10.19685015 </i>
    <i name="e_0_energy">    -10.20490926 </i>
   </energy>
  </scstep>
  <structure>
   <crystal>
    <varray name="basis" >
     <v>      -2.45000000       2.45000000       1.27400000 </v>
     <v>       2.45000000      -2.45000000       1.27400000 </v>
     <v>       2.45000000       2.45000000      -1.27400000 </v>
    </varray>
    <i name="volume">     30.58874000 </i>
    <varray name="rec_basis" >
     <v>       0.00000000       0.20408163       0.39246468 </v>
     <v>       0.20408163       0.00000000       0.39246468 </v>
     <v>       0.20408163       0.20408163      -0.00000000 </v>
    </varray>
   </crystal>
   <varray name="positions" >
    <v>       0.25000000       0.75000000       0.50000000 </v>
    <v>       0.00000000       0.00000000       0.00000000 </v>
   </varray>
  </structure>
  <varray name="forces" >
   <v>      -0.00000000      -0.00000000       0.00000000 </v>
   <v>       0.00000000       0.00000000      -0.00000000 </v>
  </varray>
  <varray name="stress" >
   <v>     -38.00806411       0.00000000      -0.00000000 </v>
   <v>      -0.00000000     -38.00806411       0.00000000 </v>
   <v>       0.00000000       0.00000000      89.82479592 </v>
  </varray>
  <energy>
   <i name="e_fr_energy">    -10.21296836 </i>
   <i name="e_wo_entrp">    -10.20490926 </i>
   <i name="e_0_energy">     -0.01611821 </i>
  </energy>
  <time name="totalsc">    4.01    4.40</time>
 </calculation>
 <calculation>
  <scstep>
   <time name="dav">    0.45    0.45</time>
   <time name="total">    0.50    0.50</time>
   <energy>
    <i name="alphaZ">      4.37911880 </i>
    <i name="ewald">   -264.82923009 </i>
    <i name="hartreedc">     -2.46928251 </i>
    <i name="XCdc">    -17.59135378 </i>
    <i name="pawpsdc">     71.45489409 </i>
    <i name="pawaedc">    -36.37871855 </i>
    <i name="eentropy">     -0.01057412 </i>
    <i name="bandstr">     29.03846141 </i>
    <i name="atom">    206.11247263 </i>
    <i name="e_fr_energy">    -10.29421212 </i>
    <i name="e_wo_entrp">    -10.28363800 </i>
    <i name="e_0_energy">    -10.28892506 </i>
   </energy>
  </scstep>
  <scstep>
   <time name="dav">    0.36    0.36</time>
   <time name="total">    0.40    0.41</time>
   <energy>
    <i name="e_fr_energy">    -10.26899823 </i>
    <i name="e_wo_entrp">    -10.25841323 </i>
    <i name="e_0_energy">    -10.26370573 </i>
   </energy>
  </scstep>
  <scstep>
   <time name="dav">    0.40    0.40</time>
   <time name="total">    0.44    0.45</time>
   <energy>
    <i name="e_fr_energy">    -10.25711328 </i>
    <i name="e_wo_entrp">    -10.24649691 </i>
    <i name="e_0_energy">    -10.25180510 </i>
   </energy>
  </scstep>
  <scstep>
   <time name="dav">    0.31    0.31</time>
   <time name="total">    0.34    0.35</time>
   <energy>
    <i name="alphaZ">      4.37911880 </i>
    <i name="ewald">   -264.82923009 </i>
    <i name="hartreedc">     -2.49163366 </i>
    <i name="XCdc">    -17.58934805 </i>
    <i name="pawpsdc">     71.47093354 </i>
    <i name="pawaedc">    -36.39573090 </i>
    <i name="eentropy">     -0.01061544 </i>
    <i name="bandstr">     29.09682435 </i>
    <i name="atom">    206.11247263 </i>
    <i name="e_fr_energy">    -10.25720882 </i>
    <i name="e_wo_entrp">    -10.24659338 </i>
    <i name="e_0_energy">    -10.25190110 </i>
   </energy>
  </scstep>
  <structure>
   <crystal>
    <varray name="basis" >
     <v>      -2.40711612       2.40711612       1.32670088 </v>
     <v>       2.40711612      -2.40711612       1.32670088 </v>
     <v>       2.40711612       2.40711612      -1.32670088 </v>
    </varray>
    <i name="volume">     30.74872359 </i>
    <varray name="rec_basis" >
     <v>       0.00000000       0.20771744       0.37687470 </v>
     <v>       0.20771744       0.00000000       0.37687470 </v>
     <v>       0.20771744       0.20771744      -0.00000000 </v>
    </varray>
   </crystal>
   <varray name="positions" >
    <v>       0.25000000       0.75000000       0.50000000 </v>
    <v>       0.00000000       0.00000000       0.00000000 </v>
   </varray>
  </structure>
  <varray name="forces" >
   <v>       0.00000000       0.00000000      -0.00000000 </v>
   <v>      -0.00000000      -0.00000000       0.00000000 </v>
  </varray>
  <varray name="stress" >
   <v>       3.18175405       0.00000000       0.00000000 </v>
   <v>       0.00000000       3.18175405       0.00000000 </v>
   <v>      -0.00000000       0.00000000     -10.42807547 </v>
  </varray>
  <energy>
   <i name="e_fr_energy">    -10.25720882 </i>
   <i name="e_wo_entrp">    -10.25190110 </i>
   <i name="e_0_energy">     -0.01061544 </i>
  </energy>
  <time name="totalsc">    1.95    2.05</time>
 </calculation>
 <calculation>
  <scstep>
   <time name="dav">    0.43    0.43</time>
   <time name="total">    0.48    0.48</time>
   <energy>
    <i name="alphaZ">      4.38091388 </i>
    <i name="ewald">   -264.87086395 </i>
    <i name="hartreedc">     -2.48983039 </i>
    <i name="XCdc">    -17.58784014 </i>
    <i name="pawpsdc">     71.45960337 </i>
    <i name="pawaedc">    -36.38384776 </i>
    <i name="eentropy">     -0.01068222 </i>
    <i name="bandstr">     29.13207910 </i>
    <i name="atom">    206.11247263 </i>
    <i name="e_fr_energy">    -10.25799548 </i>
    <i name="e_wo_entrp">    -10.24731326 </i>
    <i name="e_0_energy">    -10.25265437 </i>
   </energy>
  </scstep>
  <scstep>
   <time name="dav">    0.29    0.29</time>
   <time name="total">    0.32    0.33</time>
   <energy>
    <i name="alphaZ">      4.38091388 </i>
    <i name="ewald">   -264.87086395 </i>
    <i name="hartreedc">     -2.48514120 </i>
    <i name="XCdc">    -17.58871713 </i>
    <i name="pawpsdc">     71.44346654 </i>
    <i name="pawaedc">    -36.36720550 </i>
    <i name="eentropy">     -0.01067446 </i>
    <i name="bandstr">     29.12805393 </i>
    <i name="atom">    206.11247263 </i>
    <i name="e_fr_energy">    -10.25769526 </i>
    <i name="e_wo_entrp">    -10.24702080 </i>
    <i name="e_0_energy">    -10.25235803 </i>
   </energy>
  </scstep>
  <structure>
   <crystal>
    <varray name="basis" >
     <v>      -2.41130027       2.41130027       1.32155890 </v>
     <v>       2.41130027      -2.41130027       1.32155890 </v>
     <v>       2.41130027       2.41130027      -1.32155890 </v>
    </varray>
    <i name="volume">     30.73612428 </i>
    <varray name="rec_basis" >
     <v>       0.00000000       0.20735700       0.37834106 </v>
     <v>       0.20735700       0.00000000       0.37834106 </v>
     <v>       0.20735700       0.20735700       0.00000000 </v>
    </varray>
   </crystal>
   <varray name="positions" >
    <v>       0.25000000       0.75000000       0.50000000 </v>
    <v>       0.00000000       0.00000000       0.00000000 </v>
   </varray>
  </structure>
  <varray name="forces" >
   <v>      -0.00000000      -0.00000000       0.00000000 </v>
   <v>       0.00000000       0.00000000      -0.00000000 </v>
  </varray>
  <varray name="stress" >
   <v>       0.28301750       0.00000000       0.00000000 </v>
   <v>       0.00000000       0.28301750      -0.00000000 </v>
   <v>       0.00000000       0.00000000      -4.76843831 </v>
  </varray>
  <energy>
   <i name="e_fr_energy">    -10.25769526 </i>
   <i name="e_wo_entrp">    -10.25235803 </i>
   <i name="e_0_energy">     -0.01067446 </i>
  </energy>
  <time name="totalsc">    1.06    1.16</time>
 </calculation>
 <calculation>
  <scstep>
   <time name="dav">    0.44    0.45</time>
   <time name="total">    0.49    0.49</time>
   <energy>
    <i name="alphaZ">      4.38159500 </i>
    <i name="ewald">   -264.88576235 </i>
    <i name="hartreedc">     -2.48017722 </i>
    <i name="XCdc">    -17.58880286 </i>
    <i name="pawpsdc">     71.42640719 </i>
    <i name="pawaedc">    -36.34959547 </i>
    <i name="eentropy">     -0.01066497 </i>
    <i name="bandstr">     29.13703323 </i>
    <i name="atom">    206.11247263 </i>
    <i name="e_fr_energy">    -10.25749484 </i>
    <i name="e_wo_entrp">    -10.24682986 </i>
    <i name="e_0_energy">    -10.25216235 </i>
   </energy>
  </scstep>
  <scstep>
   <time name="dav">    0.20    0.19</time>
   <time name="total">    0.22    0.23</time>
   <energy>
    <i name="alphaZ">      4.38159500 </i>
    <i name="ewald">   -264.88576235 </i>
    <i name="hartreedc">     -2.47938940 </i>
    <i name="XCdc">    -17.58889257 </i>
    <i name="pawpsdc">     71.42503311 </i>
    <i name="pawaedc">    -36.34818357 </i>
    <i name="eentropy">     -0.01066162 </i>
    <i name="bandstr">     29.13632003 </i>
    <i name="atom">    206.11247263 </i>
    <i name="e_fr_energy">    -10.25746875 </i>
    <i name="e_wo_entrp">    -10.24680713 </i>
    <i name="e_0_energy">    -10.25213794 </i>
   </energy>
  </scstep>
  <structure>
   <crystal>
    <varray name="basis" >
     <v>      -2.41283339       2.41283339       1.31967482 </v>
     <v>       2.41283339      -2.41283339       1.31967482 </v>
     <v>       2.41283339       2.41283339      -1.31967482 </v>
    </varray>
    <i name="volume">     30.73134640 </i>
    <varray name="rec_basis" >
     <v>       0.00000000       0.20722525       0.37888122 </v>
     <v>       0.20722525       0.00000000       0.37888122 </v>
     <v>       0.20722525       0.20722525      -0.00000000 </v>
    </varray>
   </crystal>
   <varray name="positions" >
    <v>       0.25000000       0.75000000       0.50000000 </v>
    <v>       0.00000000       0.00000000       0.00000000 </v>
   </varray>
  </structure>
  <varray name="forces" >
   <v>       0.00000000      -0.00000000      -0.00000000 </v>
   <v>      -0.00000000       0.00000000       0.00000000 </v>
  </varray>
  <varray name="stress" >
   <v>      -2.59595967       0.00000000       0.00000000 </v>
   <v>       0.00000000      -2.59595967       0.00000000 </v>
   <v>       0.00000000       0.00000000       1.67144784 </v>
  </varray>
  <energy>
   <i name="e_fr_energy">    -10.25746875 </i>
   <i name="e_wo_entrp">    -10.25213794 </i>
   <i name="e_0_energy">     -0.01066162 </i>
  </energy>
  <time name="totalsc">    0.98    1.09</time>
 </calculation>
 <calculation>
  <scstep>
   <time name="dav">    0.28    0.27</time>
   <time name="total">    0.32    0.32</time>
   <energy>
    <i name="alphaZ">      4.38129664 </i>
    <i name="ewald">   -264.87929397 </i>
    <i name="hartreedc">     -2.47841488 </i>
    <i name="XCdc">    -17.58928191 </i>
    <i name="pawpsdc">     71.42473871 </i>
    <i name="pawaedc">    -36.34788825 </i>
    <i name="eentropy">     -0.01066089 </i>
    <i name="bandstr">     29.12950887 </i>
    <i name="atom">    206.11247263 </i>
    <i name="e_fr_energy">    -10.25752305 </i>
    <i name="e_wo_entrp">    -10.24686216 </i>
    <i name="e_0_energy">    -10.25219261 </i>
   </energy>
  </scstep>
  <scstep>
   <time name="dav">    0.18    0.19</time>
   <time name="total">    0.21    0.22</time>
   <energy>
    <i name="alphaZ">      4.38129664 </i>
    <i name="ewald">   -264.87929397 </i>
    <i name="hartreedc">     -2.47891604 </i>
    <i name="XCdc">    -17.58920132 </i>
    <i name="pawpsdc">     71.42629672 </i>
    <i name="pawaedc">    -36.34949890 </i>
    <i name="eentropy">     -0.01066217 </i>
    <i name="bandstr">     29.12998806 </i>
    <i name="atom">    206.11247263 </i>
    <i name="e_fr_energy">    -10.25751835 </i>
    <i name="e_wo_entrp">    -10.24685619 </i>
    <i name="e_0_energy">    -10.25218727 </i>
   </energy>
  </scstep>
  <structure>
   <crystal>
    <varray name="basis" >
     <v>      -2.41216530       2.41216530       1.32049584 </v>
     <v>       2.41216530      -2.41216530       1.32049584 </v>
     <v>       2.41216530       2.41216530      -1.32049584 </v>
    </varray>
    <i name="volume">     30.73343910 </i>
    <varray name="rec_basis" >
     <v>       0.00000000       0.20728264       0.37864565 </v>
     <v>       0.20728264       0.00000000       0.37864565 </v>
     <v>       0.20728264       0.20728264      -0.00000000 </v>
    </varray>
   </crystal>
   <varray name="positions" >
    <v>       0.25000000       0.75000000       0.50000000 </v>
    <v>       0.00000000       0.00000000       0.00000000 </v>
   </varray>
  </structure>
  <varray name="forces" >
   <v>      -0.00000000       0.00000000      -0.00000000 </v>
   <v>       0.00000000      -0.00000000       0.00000000 </v>
  </varray>
  <varray name="stress" >
   <v>      -2.76260158       0.00000000      -0.00000000 </v>
   <v>       0.00000000      -2.76260158       0.00000000 </v>
   <v>       0.00000000       0.00000000       2.26951549 </v>
  </varray>
  <energy>
   <i name="e_fr_energy">    -10.25751835 </i>
   <i name="e_wo_entrp">    -10.25218727 </i>
   <i name="e_0_energy">     -0.01066217 </i>
  </energy>
  <time name="totalsc">    0.80    0.90</time>
 </calculation>
 <calculation>
  <scstep>
   <time name="dav">    0.22    0.22</time>
   <time name="total">    0.26    0.27</time>
   <energy>
    <i name="alphaZ">      4.38110476 </i>
    <i name="ewald">   -264.87508666 </i>
    <i name="hartreedc">     -2.47958210 </i>
    <i name="XCdc">    -17.58932735 </i>
    <i name="pawpsdc">     71.42786723 </i>
    <i name="pawaedc">    -36.35112162 </i>
    <i name="eentropy">     -0.01066415 </i>
    <i name="bandstr">     29.12679422 </i>
    <i name="atom">    206.11247263 </i>
    <i name="e_fr_energy">    -10.25754304 </i>
    <i name="e_wo_entrp">    -10.24687889 </i>
    <i name="e_0_energy">    -10.25221097 </i>
   </energy>
  </scstep>
  <scstep>
   <time name="dav">    0.18    0.19</time>
   <time name="total">    0.22    0.22</time>
   <energy>
    <i name="alphaZ">      4.38110476 </i>
    <i name="ewald">   -264.87508666 </i>
    <i name="hartreedc">     -2.47977376 </i>
    <i name="XCdc">    -17.58930672 </i>
    <i name="pawpsdc">     71.42828948 </i>
    <i name="pawaedc">    -36.35155611 </i>
    <i name="eentropy">     -0.01066483 </i>
    <i name="bandstr">     29.12698003 </i>
    <i name="atom">    206.11247263 </i>
    <i name="e_fr_energy">    -10.25754117 </i>
    <i name="e_wo_entrp">    -10.24687635 </i>
    <i name="e_0_energy">    -10.25220876 </i>
   </energy>
  </scstep>
  <structure>
   <crystal>
    <varray name="basis" >
     <v>      -2.41173279       2.41173279       1.32102737 </v>
     <v>       2.41173279      -2.41173279       1.32102737 </v>
     <v>       2.41173279       2.41173279      -1.32102737 </v>
    </varray>
    <i name="volume">     30.73478514 </i>
    <varray name="rec_basis" >
     <v>      -0.00000000       0.20731982       0.37849329 </v>
     <v>       0.20731982      -0.00000000       0.37849329 </v>
     <v>       0.20731982       0.20731982       0.00000000 </v>
    </varray>
   </crystal>
   <varray name="positions" >
    <v>       0.25000000       0.75000000       0.50000000 </v>
    <v>       0.00000000       0.00000000       0.00000000 </v>
   </varray>
  </structure>
  <varray name="forces" >
   <v>      -0.00000000      -0.00000000       0.00000000 </v>
   <v>       0.00000000       0.00000000      -0.00000000 </v>
  </varray>
  <varray name="stress" >
   <v>      -2.21974278       0.00000000       0.00000000 </v>
   <v>       0.00000000      -2.21974278      -0.00000000 </v>
   <v>      -0.00000000       0.00000000       1.09657841 </v>
  </varray>
  <energy>
   <i name="e_fr_energy">    -10.25754117 </i>
   <i name="e_wo_entrp">    -10.25220876 </i>
   <i name="e_0_energy">     -0.01066483 </i>
  </energy>
  <time name="totalsc">    0.75    0.84</time>
 </calculation>
 <calculation>
  <scstep>
   <time name="dav">    0.19    0.19</time>
   <time name="total">    0.24    0.24</time>
   <energy>
    <i name="alphaZ">      4.38100920 </i>
    <i name="ewald">   -264.87297723 </i>
    <i name="hartreedc">     -2.48001896 </i>
    <i name="XCdc">    -17.58940133 </i>
    <i name="pawpsdc">     71.42856580 </i>
    <i name="pawaedc">    -36.35184130 </i>
    <i name="eentropy">     -0.01066529 </i>
    <i name="bandstr">     29.12530666 </i>
    <i name="atom">    206.11247263 </i>
    <i name="e_fr_energy">    -10.25754983 </i>
    <i name="e_wo_entrp">    -10.24688454 </i>
    <i name="e_0_energy">    -10.25221718 </i>
   </energy>
  </scstep>
  <scstep>
   <time name="dav">    0.18    0.18</time>
   <time name="total">    0.21    0.22</time>
   <energy>
    <i name="alphaZ">      4.38100920 </i>
    <i name="ewald">   -264.87297723 </i>
    <i name="hartreedc">     -2.48010449 </i>
    <i name="XCdc">    -17.58939346 </i>
    <i name="pawpsdc">     71.42872989 </i>
    <i name="pawaedc">    -36.35200968 </i>
    <i name="eentropy">     -0.01066562 </i>
    <i name="bandstr">     29.12538942 </i>
    <i name="atom">    206.11247263 </i>
    <i name="e_fr_energy">    -10.25754934 </i>
    <i name="e_wo_entrp">    -10.24688372 </i>
    <i name="e_0_energy">    -10.25221653 </i>
   </energy>
  </scstep>
  <structure>
   <crystal>
    <varray name="basis" >
     <v>      -2.41151653       2.41151653       1.32129313 </v>
     <v>       2.41151653      -2.41151653       1.32129313 </v>
     <v>       2.41151653       2.41151653      -1.32129313 </v>
    </varray>
    <i name="volume">     30.73545557 </i>
    <varray name="rec_basis" >
     <v>      -0.00000000       0.20733841       0.37841716 </v>
     <v>       0.20733841      -0.00000000       0.37841716 </v>
     <v>       0.20733841       0.20733841       0.00000000 </v>
    </varray>
   </crystal>
   <varray name="positions" >
    <v>       0.25000000       0.75000000       0.50000000 </v>
    <v>       0.00000000       0.00000000       0.00000000 </v>
   </varray>
  </structure>
  <varray name="forces" >
   <v>      -0.00000000       0.00000000       0.00000000 </v>
   <v>       0.00000000      -0.00000000      -0.00000000 </v>
  </varray>
  <varray name="stress" >
   <v>      -1.94095405       0.00000000       0.00000000 </v>
   <v>       0.00000000      -1.94095405       0.00000000 </v>
   <v>       0.00000000      -0.00000000       0.49159876 </v>
  </varray>
  <energy>
   <i name="e_fr_energy">    -10.25754934 </i>
   <i name="e_wo_entrp">    -10.25221653 </i>
   <i name="e_0_energy">     -0.01066562 </i>
  </energy>
  <time name="totalsc">    0.72    0.82</time>
 </calculation>
 <calculation>
  <scstep>
   <time name="dav">    0.18    0.18</time>
   <time name="total">    0.22    0.23</time>
   <energy>
    <i name="alphaZ">      4.38096151 </i>
    <i name="ewald">   -264.87192107 </i>
    <i name="hartreedc">     -2.48021643 </i>
    <i name="XCdc">    -17.58944406 </i>
    <i name="pawpsdc">     71.42885011 </i>
    <i name="pawaedc">    -36.35213367 </i>
    <i name="eentropy">     -0.01066570 </i>
    <i name="bandstr">     29.12454384 </i>
    <i name="atom">    206.11247263 </i>
    <i name="e_fr_energy">    -10.25755285 </i>
    <i name="e_wo_entrp">    -10.24688715 </i>
    <i name="e_0_energy">    -10.25222000 </i>
   </energy>
  </scstep>
  <scstep>
   <time name="dav">    0.18    0.18</time>
   <time name="total">    0.21    0.22</time>
   <energy>
    <i name="alphaZ">      4.38096151 </i>
    <i name="ewald">   -264.87192107 </i>
    <i name="hartreedc">     -2.48025692 </i>
    <i name="XCdc">    -17.58944037 </i>
    <i name="pawpsdc">     71.42891874 </i>
    <i name="pawaedc">    -36.35220384 </i>
    <i name="eentropy">     -0.01066586 </i>
    <i name="bandstr">     29.12458247 </i>
    <i name="atom">    206.11247263 </i>
    <i name="e_fr_energy">    -10.25755272 </i>
    <i name="e_wo_entrp">    -10.24688686 </i>
    <i name="e_0_energy">    -10.25221979 </i>
   </energy>
  </scstep>
  <structure>
   <crystal>
    <varray name="basis" >
     <v>      -2.41140840       2.41140840       1.32142602 </v>
     <v>       2.41140840      -2.41140840       1.32142602 </v>
     <v>       2.41140840       2.41140840      -1.32142602 </v>
    </varray>
    <i name="volume">     30.73579014 </i>
    <varray name="rec_basis" >
     <v>      -0.00000000       0.20734771       0.37837911 </v>
     <v>       0.20734771      -0.00000000       0.37837911 </v>
     <v>       0.20734771       0.20734771      -0.00000000 </v>
    </varray>
   </crystal>
   <varray name="positions" >
    <v>       0.25000000       0.75000000       0.50000000 </v>
    <v>       0.00000000       0.00000000       0.00000000 </v>
   </varray>
  </structure>
  <varray name="forces" >
   <v>       0.00000000      -0.00000000      -0.00000000 </v>
   <v>      -0.00000000       0.00000000       0.00000000 </v>
  </varray>
  <varray name="stress" >
   <v>      -1.80403492       0.00000000      -0.00000000 </v>
   <v>       0.00000000      -1.80403492      -0.00000000 </v>
   <v>      -0.00000000      -0.00000000       0.19002909 </v>
  </varray>
  <energy>
   <i name="e_fr_energy">    -10.25755272 </i>
   <i name="e_wo_entrp">    -10.25221979 </i>
   <i name="e_0_energy">     -0.01066586 </i>
  </energy>
  <time name="totalsc">    0.70    0.81</time>
 </calculation>
 <calculation>
  <scstep>
   <time name="dav">    0.18    0.18</time>
   <time name="total">    0.22    0.23</time>
   <energy>
    <i name="alphaZ">      4.38093769 </i>
    <i name="ewald">   -264.87139263 </i>
    <i name="hartreedc">     -2.48031037 </i>
    <i name="XCdc">    -17.58946590 </i>
    <i name="pawpsdc">     71.42897069 </i>
    <i name="pawaedc">    -36.35225713 </i>
    <i name="eentropy">     -0.01066587 </i>
    <i name="bandstr">     29.12415662 </i>
    <i name="atom">    206.11247263 </i>
    <i name="e_fr_energy">    -10.25755427 </i>
    <i name="e_wo_entrp">    -10.24688840 </i>
    <i name="e_0_energy">    -10.25222133 </i>
   </energy>
  </scstep>
  <scstep>
   <time name="dav">    0.18    0.18</time>
   <time name="total">    0.21    0.22</time>
   <energy>
    <i name="alphaZ">      4.38093769 </i>
    <i name="ewald">   -264.87139263 </i>
    <i name="hartreedc">     -2.48033020 </i>
    <i name="XCdc">    -17.58946406 </i>
    <i name="pawpsdc">     71.42900291 </i>
    <i name="pawaedc">    -36.35228999 </i>
    <i name="eentropy">     -0.01066595 </i>
    <i name="bandstr">     29.12417537 </i>
    <i name="atom">    206.11247263 </i>
    <i name="e_fr_energy">    -10.25755423 </i>
    <i name="e_wo_entrp">    -10.24688829 </i>
    <i name="e_0_energy">    -10.25222126 </i>
   </energy>
  </scstep>
  <structure>
   <crystal>
    <varray name="basis" >
     <v>      -2.41135433       2.41135433       1.32149246 </v>
     <v>       2.41135433      -2.41135433       1.32149246 </v>
     <v>       2.41135433       2.41135433      -1.32149246 </v>
    </varray>
    <i name="volume">     30.73595727 </i>
    <varray name="rec_basis" >
     <v>       0.00000000       0.20735236       0.37836009 </v>
     <v>       0.20735236       0.00000000       0.37836009 </v>
     <v>       0.20735236       0.20735236       0.00000000 </v>
    </varray>
   </crystal>
   <varray name="positions" >
    <v>       0.25000000       0.75000000       0.50000000 </v>
    <v>       0.00000000       0.00000000       0.00000000 </v>
   </varray>
  </structure>
  <varray name="forces" >
   <v>       0.00000000      -0.00000000      -0.00000000 </v>
   <v>      -0.00000000       0.00000000       0.00000000 </v>
  </varray>
  <varray name="stress" >
   <v>      -1.73581938       0.00000000      -0.00000000 </v>
   <v>       0.00000000      -1.73581938       0.00000000 </v>
   <v>       0.00000000       0.00000000       0.03920557 </v>
  </varray>
  <energy>
   <i name="e_fr_energy">    -10.25755423 </i>
   <i name="e_wo_entrp">    -10.25222126 </i>
   <i name="e_0_energy">     -0.01066595 </i>
  </energy>
  <time name="totalsc">    0.70    0.80</time>
 </calculation>
 <calculation>
  <scstep>
   <time name="dav">    0.18    0.18</time>
   <time name="total">    0.22    0.23</time>
   <energy>
    <i name="alphaZ">      4.38092578 </i>
    <i name="ewald">   -264.87112832 </i>
    <i name="hartreedc">     -2.48035631 </i>
    <i name="XCdc">    -17.58947683 </i>
    <i name="pawpsdc">     71.42902792 </i>
    <i name="pawaedc">    -36.35231555 </i>
    <i name="eentropy">     -0.01066594 </i>
    <i name="bandstr">     29.12396167 </i>
    <i name="atom">    206.11247263 </i>
    <i name="e_fr_energy">    -10.25755495 </i>
    <i name="e_wo_entrp">    -10.24688901 </i>
    <i name="e_0_energy">    -10.25222198 </i>
   </energy>
  </scstep>
  <scstep>
   <time name="dav">    0.18    0.18</time>
   <time name="total">    0.21    0.22</time>
   <energy>
    <i name="alphaZ">      4.38092578 </i>
    <i name="ewald">   -264.87112832 </i>
    <i name="hartreedc">     -2.48036617 </i>
    <i name="XCdc">    -17.58947591 </i>
    <i name="pawpsdc">     71.42904352 </i>
    <i name="pawaedc">    -36.35233145 </i>
    <i name="eentropy">     -0.01066598 </i>
    <i name="bandstr">     29.12397095 </i>
    <i name="atom">    206.11247263 </i>
    <i name="e_fr_energy">    -10.25755494 </i>
    <i name="e_wo_entrp">    -10.24688897 </i>
    <i name="e_0_energy">    -10.25222195 </i>
   </energy>
  </scstep>
  <structure>
   <crystal>
    <varray name="basis" >
     <v>      -2.41132730       2.41132730       1.32152568 </v>
     <v>       2.41132730      -2.41132730       1.32152568 </v>
     <v>       2.41132730       2.41132730      -1.32152568 </v>
    </varray>
    <i name="volume">     30.73604079 </i>
    <varray name="rec_basis" >
     <v>       0.00000000       0.20735468       0.37835057 </v>
     <v>       0.20735468       0.00000000       0.37835057 </v>
     <v>       0.20735468       0.20735468       0.00000000 </v>
    </varray>
   </crystal>
   <varray name="positions" >
    <v>       0.25000000       0.75000000       0.50000000 </v>
    <v>       0.00000000       0.00000000       0.00000000 </v>
   </varray>
  </structure>
  <varray name="forces" >
   <v>       0.00000000       0.00000000      -0.00000000 </v>
   <v>      -0.00000000      -0.00000000       0.00000000 </v>
  </varray>
  <varray name="stress" >
   <v>      -1.70162904       0.00000000       0.00000000 </v>
   <v>       0.00000000      -1.70162904       0.00000000 </v>
   <v>      -0.00000000       0.00000000      -0.03632333 </v>
  </varray>
  <energy>
   <i name="e_fr_energy">    -10.25755494 </i>
   <i name="e_wo_entrp">    -10.25222195 </i>
   <i name="e_0_energy">     -0.01066598 </i>
  </energy>
  <time name="totalsc">    0.70    0.80</time>
 </calculation>
 <calculation>
  <scstep>
   <time name="dav">    0.18    0.18</time>
   <time name="total">    0.22    0.23</time>
   <energy>
    <i name="alphaZ">      4.38091983 </i>
    <i name="ewald">   -264.87099614 </i>
    <i name="hartreedc">     -2.48037909 </i>
    <i name="XCdc">    -17.58948231 </i>
    <i name="pawpsdc">     71.42905612 </i>
    <i name="pawaedc">    -36.35234431 </i>
    <i name="eentropy">     -0.01066597 </i>
    <i name="bandstr">     29.12386395 </i>
    <i name="atom">    206.11247263 </i>
    <i name="e_fr_energy">    -10.25755529 </i>
    <i name="e_wo_entrp">    -10.24688932 </i>
    <i name="e_0_energy">    -10.25222231 </i>
   </energy>
  </scstep>
  <scstep>
   <time name="dav">    0.18    0.18</time>
   <time name="total">    0.21    0.22</time>
   <energy>
    <i name="alphaZ">      4.38091983 </i>
    <i name="ewald">   -264.87099614 </i>
    <i name="hartreedc">     -2.48038402 </i>
    <i name="XCdc">    -17.58948184 </i>
    <i name="pawpsdc">     71.42906392 </i>
    <i name="pawaedc">    -36.35235226 </i>
    <i name="eentropy">     -0.01066599 </i>
    <i name="bandstr">     29.12386859 </i>
    <i name="atom">    206.11247263 </i>
    <i name="e_fr_energy">    -10.25755529 </i>
    <i name="e_wo_entrp">    -10.24688930 </i>
    <i name="e_0_energy">    -10.25222229 </i>
   </energy>
  </scstep>
  <structure>
   <crystal>
    <varray name="basis" >
     <v>      -2.41131378       2.41131378       1.32154229 </v>
     <v>       2.41131378      -2.41131378       1.32154229 </v>
     <v>       2.41131378       2.41131378      -1.32154229 </v>
    </varray>
    <i name="volume">     30.73608254 </i>
    <varray name="rec_basis" >
     <v>      -0.00000000       0.20735584       0.37834582 </v>
     <v>       0.20735584      -0.00000000       0.37834582 </v>
     <v>       0.20735584       0.20735584       0.00000000 </v>
    </varray>
   </crystal>
   <varray name="positions" >
    <v>       0.25000000       0.75000000       0.50000000 </v>
    <v>       0.00000000       0.00000000       0.00000000 </v>
   </varray>
  </structure>
  <varray name="forces" >
   <v>      -0.00000000      -0.00000000       0.00000000 </v>
   <v>       0.00000000       0.00000000      -0.00000000 </v>
  </varray>
  <varray name="stress" >
   <v>      -1.68449781       0.00000000       0.00000000 </v>
   <v>       0.00000000      -1.68449781       0.00000000 </v>
   <v>      -0.00000000      -0.00000000      -0.07414090 </v>
  </varray>
  <energy>
   <i name="e_fr_energy">    -10.25755529 </i>
   <i name="e_wo_entrp">    -10.25222229 </i>
   <i name="e_0_energy">     -0.01066599 </i>
  </energy>
  <time name="totalsc">    1.15    1.52</time>
 </calculation>
 <calculation>
  <scstep>
   <time name="dav">    0.18    0.18</time>
   <time name="total">    0.22    0.23</time>
   <energy>
    <i name="alphaZ">      4.38091686 </i>
    <i name="ewald">   -264.87093005 </i>
    <i name="hartreedc">     -2.48039043 </i>
    <i name="XCdc">    -17.58948505 </i>
    <i name="pawpsdc">     71.42907031 </i>
    <i name="pawaedc">    -36.35235878 </i>
    <i name="eentropy">     -0.01066599 </i>
    <i name="bandstr">     29.12381504 </i>
    <i name="atom">    206.11247263 </i>
    <i name="e_fr_energy">    -10.25755546 </i>
    <i name="e_wo_entrp">    -10.24688947 </i>
    <i name="e_0_energy">    -10.25222246 </i>
   </energy>
  </scstep>
  <scstep>
   <time name="dav">    0.18    0.18</time>
   <time name="total">    0.21    0.22</time>
   <energy>
    <i name="alphaZ">      4.38091686 </i>
    <i name="ewald">   -264.87093005 </i>
    <i name="hartreedc">     -2.48039291 </i>
    <i name="XCdc">    -17.58948482 </i>
    <i name="pawpsdc">     71.42907418 </i>
    <i name="pawaedc">    -36.35236273 </i>
    <i name="eentropy">     -0.01066600 </i>
    <i name="bandstr">     29.12381737 </i>
    <i name="atom">    206.11247263 </i>
    <i name="e_fr_energy">    -10.25755546 </i>
    <i name="e_wo_entrp">    -10.24688946 </i>
    <i name="e_0_energy">    -10.25222246 </i>
   </energy>
  </scstep>
  <structure>
   <crystal>
    <varray name="basis" >
     <v>      -2.41130703       2.41130703       1.32155059 </v>
     <v>       2.41130703      -2.41130703       1.32155059 </v>
     <v>       2.41130703       2.41130703      -1.32155059 </v>
    </varray>
    <i name="volume">     30.73610341 </i>
    <varray name="rec_basis" >
     <v>       0.00000000       0.20735642       0.37834344 </v>
     <v>       0.20735642       0.00000000       0.37834344 </v>
     <v>       0.20735642       0.20735642       0.00000000 </v>
    </varray>
   </crystal>
   <varray name="positions" >
    <v>       0.25000000       0.75000000       0.50000000 </v>
    <v>       0.00000000       0.00000000       0.00000000 </v>
   </varray>
  </structure>
  <varray name="forces" >
   <v>      -0.00000000       0.00000000      -0.00000000 </v>
   <v>       0.00000000      -0.00000000       0.00000000 </v>
  </varray>
  <varray name="stress" >
   <v>      -1.67592208       0.00000000       0.00000000 </v>
   <v>       0.00000000      -1.67592208       0.00000000 </v>
   <v>       0.00000000       0.00000000      -0.09305843 </v>
  </varray>
  <energy>
   <i name="e_fr_energy">    -10.25755546 </i>
   <i name="e_wo_entrp">    -10.25222246 </i>
   <i name="e_0_energy">     -0.01066600 </i>
  </energy>
  <time name="totalsc">    0.70    0.83</time>
 </calculation>
 <calculation>
  <scstep>
   <time name="dav">    0.18    0.18</time>
   <time name="total">    0.22    0.23</time>
   <energy>
    <i name="alphaZ">      4.38091537 </i>
    <i name="ewald">   -264.87089700 </i>
    <i name="hartreedc">     -2.48039610 </i>
    <i name="XCdc">    -17.58948642 </i>
    <i name="pawpsdc">     71.42907747 </i>
    <i name="pawaedc">    -36.35236608 </i>
    <i name="eentropy">     -0.01066600 </i>
    <i name="bandstr">     29.12379059 </i>
    <i name="atom">    206.11247263 </i>
    <i name="e_fr_energy">    -10.25755554 </i>
    <i name="e_wo_entrp">    -10.24688955 </i>
    <i name="e_0_energy">    -10.25222254 </i>
   </energy>
  </scstep>
  <scstep>
   <time name="dav">    0.18    0.18</time>
   <time name="total">    0.21    0.22</time>
   <energy>
    <i name="alphaZ">      4.38091537 </i>
    <i name="ewald">   -264.87089700 </i>
    <i name="hartreedc">     -2.48039735 </i>
    <i name="XCdc">    -17.58948630 </i>
    <i name="pawpsdc">     71.42907944 </i>
    <i name="pawaedc">    -36.35236809 </i>
    <i name="eentropy">     -0.01066600 </i>
    <i name="bandstr">     29.12379177 </i>
    <i name="atom">    206.11247263 </i>
    <i name="e_fr_energy">    -10.25755554 </i>
    <i name="e_wo_entrp">    -10.24688954 </i>
    <i name="e_0_energy">    -10.25222254 </i>
   </energy>
  </scstep>
  <structure>
   <crystal>
    <varray name="basis" >
     <v>      -2.41130365       2.41130365       1.32155475 </v>
     <v>       2.41130365      -2.41130365       1.32155475 </v>
     <v>       2.41130365       2.41130365      -1.32155475 </v>
    </varray>
    <i name="volume">     30.73611385 </i>
    <varray name="rec_basis" >
     <v>      -0.00000000       0.20735671       0.37834225 </v>
     <v>       0.20735671      -0.00000000       0.37834225 </v>
     <v>       0.20735671       0.20735671      -0.00000000 </v>
    </varray>
   </crystal>
   <varray name="positions" >
    <v>       0.25000000       0.75000000       0.50000000 </v>
    <v>       0.00000000       0.00000000       0.00000000 </v>
   </varray>
  </structure>
  <varray name="forces" >
   <v>      -0.00000000      -0.00000000       0.00000000 </v>
   <v>       0.00000000       0.00000000      -0.00000000 </v>
  </varray>
  <varray name="stress" >
   <v>      -1.67162713       0.00000000      -0.00000000 </v>
   <v>       0.00000000      -1.67162713       0.00000000 </v>
   <v>       0.00000000       0.00000000      -0.10252854 </v>
  </varray>
  <energy>
   <i name="e_fr_energy">    -10.25755554 </i>
   <i name="e_wo_entrp">    -10.25222254 </i>
   <i name="e_0_energy">     -0.01066600 </i>
  </energy>
  <time name="totalsc">    0.70    0.80</time>
 </calculation>
 <calculation>
  <scstep>
   <time name="dav">    0.18    0.18</time>
   <time name="total">    0.22    0.23</time>
   <energy>
    <i name="alphaZ">      4.38091463 </i>
    <i name="ewald">   -264.87088048 </i>
    <i name="hartreedc">     -2.48039893 </i>
    <i name="XCdc">    -17.58948711 </i>
    <i name="pawpsdc">     71.42908109 </i>
    <i name="pawaedc">    -36.35236978 </i>
    <i name="eentropy">     -0.01066600 </i>
    <i name="bandstr">     29.12377837 </i>
    <i name="atom">    206.11247263 </i>
    <i name="e_fr_energy">    -10.25755558 </i>
    <i name="e_wo_entrp">    -10.24688958 </i>
    <i name="e_0_energy">    -10.25222258 </i>
   </energy>
  </scstep>
  <scstep>
   <time name="dav">    0.18    0.18</time>
   <time name="total">    0.21    0.22</time>
   <energy>
    <i name="alphaZ">      4.38091463 </i>
    <i name="ewald">   -264.87088048 </i>
    <i name="hartreedc">     -2.48039956 </i>
    <i name="XCdc">    -17.58948705 </i>
    <i name="pawpsdc">     71.42908208 </i>
    <i name="pawaedc">    -36.35237079 </i>
    <i name="eentropy">     -0.01066600 </i>
    <i name="bandstr">     29.12377896 </i>
    <i name="atom">    206.11247263 </i>
    <i name="e_fr_energy">    -10.25755558 </i>
    <i name="e_wo_entrp">    -10.24688958 </i>
    <i name="e_0_energy">    -10.25222258 </i>
   </energy>
  </scstep>
  <structure>
   <crystal>
    <varray name="basis" >
     <v>      -2.41130196       2.41130196       1.32155682 </v>
     <v>       2.41130196      -2.41130196       1.32155682 </v>
     <v>       2.41130196       2.41130196      -1.32155682 </v>
    </varray>
    <i name="volume">     30.73611906 </i>
    <varray name="rec_basis" >
     <v>      -0.00000000       0.20735686       0.37834166 </v>
     <v>       0.20735686      -0.00000000       0.37834166 </v>
     <v>       0.20735686       0.20735686      -0.00000000 </v>
    </varray>
   </crystal>
   <varray name="positions" >
    <v>       0.25000000       0.75000000       0.50000000 </v>
    <v>       0.00000000       0.00000000       0.00000000 </v>
   </varray>
  </structure>
  <varray name="forces" >
   <v>       0.00000000      -0.00000000       0.00000000 </v>
   <v>      -0.00000000       0.00000000      -0.00000000 </v>
  </varray>
  <varray name="stress" >
   <v>      -1.66947631       0.00000000       0.00000000 </v>
   <v>       0.00000000      -1.66947631      -0.00000000 </v>
   <v>       0.00000000       0.00000000      -0.10726962 </v>
  </varray>
  <energy>
   <i name="e_fr_energy">    -10.25755558 </i>
   <i name="e_wo_entrp">    -10.25222258 </i>
   <i name="e_0_energy">     -0.01066600 </i>
  </energy>
  <time name="totalsc">    0.70    0.91</time>
 </calculation>
 <calculation>
  <scstep>
   <time name="dav">    0.18    0.18</time>
   <time name="total">    0.22    0.24</time>
   <energy>
    <i name="alphaZ">      4.38091426 </i>
    <i name="ewald">   -264.87087222 </i>
    <i name="hartreedc">     -2.48040036 </i>
    <i name="XCdc">    -17.58948745 </i>
    <i name="pawpsdc">     71.42908292 </i>
    <i name="pawaedc">    -36.35237164 </i>
    <i name="eentropy">     -0.01066600 </i>
    <i name="bandstr">     29.12377226 </i>
    <i name="atom">    206.11247263 </i>
    <i name="e_fr_energy">    -10.25755560 </i>
    <i name="e_wo_entrp">    -10.24688960 </i>
    <i name="e_0_energy">    -10.25222260 </i>
   </energy>
  </scstep>
  <scstep>
   <time name="dav">    0.18    0.18</time>
   <time name="total">    0.21    0.22</time>
   <energy>
    <i name="alphaZ">      4.38091426 </i>
    <i name="ewald">   -264.87087222 </i>
    <i name="hartreedc">     -2.48040067 </i>
    <i name="XCdc">    -17.58948742 </i>
    <i name="pawpsdc">     71.42908344 </i>
    <i name="pawaedc">    -36.35237217 </i>
    <i name="eentropy">     -0.01066600 </i>
    <i name="bandstr">     29.12377256 </i>
    <i name="atom">    206.11247263 </i>
    <i name="e_fr_energy">    -10.25755560 </i>
    <i name="e_wo_entrp">    -10.24688960 </i>
    <i name="e_0_energy">    -10.25222260 </i>
   </energy>
  </scstep>
  <structure>
   <crystal>
    <varray name="basis" >
     <v>      -2.41130111       2.41130111       1.32155786 </v>
     <v>       2.41130111      -2.41130111       1.32155786 </v>
     <v>       2.41130111       2.41130111      -1.32155786 </v>
    </varray>
    <i name="volume">     30.73612167 </i>
    <varray name="rec_basis" >
     <v>      -0.00000000       0.20735693       0.37834136 </v>
     <v>       0.20735693      -0.00000000       0.37834136 </v>
     <v>       0.20735693       0.20735693       0.00000000 </v>
    </varray>
   </crystal>
   <varray name="positions" >
    <v>       0.25000000       0.75000000       0.50000000 </v>
    <v>       0.00000000       0.00000000       0.00000000 </v>
   </varray>
  </structure>
  <varray name="forces" >
   <v>      -0.00000000       0.00000000       0.00000000 </v>
   <v>       0.00000000      -0.00000000      -0.00000000 </v>
  </varray>
  <varray name="stress" >
   <v>      -1.66839966       0.00000000      -0.00000000 </v>
   <v>       0.00000000      -1.66839966       0.00000000 </v>
   <v>       0.00000000       0.00000000      -0.10964163 </v>
  </varray>
  <energy>
   <i name="e_fr_energy">    -10.25755560 </i>
   <i name="e_wo_entrp">    -10.25222260 </i>
   <i name="e_0_energy">     -0.01066600 </i>
  </energy>
  <time name="totalsc">    0.75    1.30</time>
  <eigenvalues>
   <array>
    <dimension dim="1">band</dimension>
    <dimension dim="2">kpoint</dimension>
    <dimension dim="3">spin</dimension>
    <field>eigene</field>
    <field>occ</field>
    <set>
     <set comment="spin 1">
      <set comment="kpoint 1">
       <r>   -4.6180    1.0000 </r>
       <r>    6.5405    1.0000 </r>
       <r>    6.5405    1.0000 </r>
       <r>    6.9013    1.0000 </r>
       <r>   10.7275    0.0000 </r>
       <r>   16.7698    0.0000 </r>
       <r>   17.8156    0.0000 </r>
       <r>   17.8156    0.0000 </r>
      </set>
      <set comment="kpoint 2">
       <r>   -4.0718    1.0000 </r>
       <r>    5.5436    1.0000 </r>
       <r>    6.4007    1.0000 </r>
       <r>    8.8098    0.8634 </r>
       <r>   11.8578    0.0000 </r>
       <r>   14.0258    0.0000 </r>
       <r>   14.5403    0.0000 </r>
       <r>   16.5159    0.0000 </r>
      </set>
      <set comment="kpoint 3">
       <r>   -2.4447    1.0000 </r>
       <r>    5.3655    1.0000 </r>
       <r>    6.5276    1.0000 </r>
       <r>    8.5301    0.9989 </r>
       <r>   11.0160    0.0000 </r>
       <r>   12.3196    0.0000 </r>
       <r>   13.0664    0.0000 </r>
       <r>   14.5862    0.0000 </r>
      </set>
      <set comment="kpoint 4">
       <r>    0.2095    1.0000 </r>
       <r>    3.9270    1.0000 </r>
       <r>    6.4004    1.0000 </r>
       <r>    7.1906    1.0000 </r>
       <r>    8.3113    1.0000 </r>
       <r>   10.7190    0.0000 </r>
       <r>   13.6021    0.0000 </r>
       <r>   14.5253    0.0000 </r>
      </set>
      <set comment="kpoint 5">
       <r>   -2.6932    1.0000 </r>
       <r>    5.6058    1.0000 </r>
       <r>    7.9166    1.0000 </r>
       <r>    9.2270    0.0318 </r>
       <r>   10.3470    0.0000 </r>
       <r>   10.8354    0.0000 </r>
       <r>   13.4623    0.0000 </r>
       <r>   14.0475    0.0000 </r>
      </set>
      <set comment="kpoint 6">
       <r>   -0.2699    1.0000 </r>
       <r>    5.0515    1.0000 </r>
       <r>    6.2790    1.0000 </r>
       <r>    6.7427    1.0000 </r>
       <r>    9.2904    0.0106 </r>
       <r>   11.4386    0.0000 </r>
       <r>   12.2141    0.0000 </r>
       <r>   13.9016    0.0000 </r>
      </set>
      <set comment="kpoint 7">
       <r>    1.1466    1.0000 </r>
       <r>    3.1998    1.0000 </r>
       <r>    4.6401    1.0000 </r>
       <r>    7.3881    1.0000 </r>
       <r>    8.7354    0.9476 </r>
       <r>   11.4985    0.0000 </r>
       <r>   12.5696    0.0000 </r>
       <r>   16.1732    0.0000 </r>
      </set>
      <set comment="kpoint 8">
       <r>   -1.7016    1.0000 </r>
       <r>    3.3158    1.0000 </r>
       <r>    6.7257    1.0000 </r>
       <r>    7.7710    1.0000 </r>
       <r>   10.5451    0.0000 </r>
       <r>   12.5601    0.0000 </r>
       <r>   13.5472    0.0000 </r>
       <r>   14.9466    0.0000 </r>
      </set>
      <set comment="kpoint 9">
       <r>   -3.5704    1.0000 </r>
       <r>    3.2022    1.0000 </r>
       <r>    6.6007    1.0000 </r>
       <r>   10.1216    0.0000 </r>
       <r>   12.4907    0.0000 </r>
       <r>   13.5304    0.0000 </r>
       <r>   14.2895    0.0000 </r>
       <r>   15.5156    0.0000 </r>
      </set>
      <set comment="kpoint 10">
       <r>   -4.3664    1.0000 </r>
       <r>    4.0772    1.0000 </r>
       <r>    6.7712    1.0000 </r>
       <r>    8.4625    0.9998 </r>
       <r>   12.2601    0.0000 </r>
       <r>   14.6081    0.0000 </r>
       <r>   16.4864    0.0000 </r>
       <r>   18.1520    0.0000 </r>
      </set>
      <set comment="kpoint 11">
       <r>    2.2403    1.0000 </r>
       <r>    2.6483    1.0000 </r>
       <r>    3.4513    1.0000 </r>
       <r>    7.5075    1.0000 </r>
       <r>    9.3163    0.0065 </r>
       <r>   10.4241    0.0000 </r>
       <r>   14.5863    0.0000 </r>
       <r>   15.3649    0.0000 </r>
      </set>
      <set comment="kpoint 12">
       <r>   -0.4734    1.0000 </r>
       <r>    1.2180    1.0000 </r>
       <r>    7.0704    1.0000 </r>
       <r>    7.9906    1.0000 </r>
       <r>    9.4111    0.0008 </r>
       <r>   11.4564    0.0000 </r>
       <r>   14.7628    0.0000 </r>
       <r>   16.2483    0.0000 </r>
      </set>
      <set comment="kpoint 13">
       <r>   -2.5727    1.0000 </r>
       <r>    0.8540    1.0000 </r>
       <r>    7.5029    1.0000 </r>
       <r>   10.5360    0.0000 </r>
       <r>   11.1692    0.0000 </r>
       <r>   12.8568    0.0000 </r>
       <r>   14.4373    0.0000 </r>
       <r>   14.9673    0.0000 </r>
      </set>
      <set comment="kpoint 14">
       <r>   -3.6136    1.0000 </r>
       <r>    1.5297    1.0000 </r>
       <r>    7.4616    1.0000 </r>
       <r>    9.5059    0.0001 </r>
       <r>   12.2300    0.0000 </r>
       <r>   14.3771    0.0000 </r>
       <r>   15.6237    0.0000 </r>
       <r>   17.7222    0.0000 </r>
      </set>
      <set comment="kpoint 15">
       <r>   -1.0923    1.0000 </r>
       <r>   -1.0888    1.0000 </r>
       <r>    8.8466    0.7980 </r>
       <r>    8.8608    0.7687 </r>
       <r>   11.7101    0.0000 </r>
       <r>   12.8009    0.0000 </r>
       <r>   13.8471    0.0000 </r>
       <r>   14.2547    0.0000 </r>
      </set>
      <set comment="kpoint 16">
       <r>   -2.3675    1.0000 </r>
       <r>   -0.6433    1.0000 </r>
       <r>    8.6103    0.9939 </r>
       <r>   10.2068    0.0000 </r>
       <r>   10.7691    0.0000 </r>
       <r>   12.4047    0.0000 </r>
       <r>   17.4848    0.0000 </r>
       <r>   17.5762    0.0000 </r>
      </set>
      <set comment="kpoint 17">
       <r>   -1.9481    1.0000 </r>
       <r>    3.1269    1.0000 </r>
       <r>    8.1435    1.0000 </r>
       <r>    8.8494    0.7926 </r>
       <r>   10.1259    0.0000 </r>
       <r>   11.3125    0.0000 </r>
       <r>   14.4344    0.0000 </r>
       <r>   14.9039    0.0000 </r>
      </set>
      <set comment="kpoint 18">
       <r>    0.6950    1.0000 </r>
       <r>    3.8356    1.0000 </r>
       <r>    4.6895    1.0000 </r>
       <r>    6.0896    1.0000 </r>
       <r>   10.5961    0.0000 </r>
       <r>   13.1741    0.0000 </r>
       <r>   14.0291    0.0000 </r>
       <r>   14.1798    0.0000 </r>
      </set>
      <set comment="kpoint 19">
       <r>   -4.1154    1.0000 </r>
       <r>    3.8335    1.0000 </r>
       <r>    5.0803    1.0000 </r>
       <r>   10.4036    0.0000 </r>
       <r>   12.6249    0.0000 </r>
       <r>   13.1254    0.0000 </r>
       <r>   17.4068    0.0000 </r>
       <r>   17.8158    0.0000 </r>
      </set>
      <set comment="kpoint 20">
       <r>    2.0734    1.0000 </r>
       <r>    2.1476    1.0000 </r>
       <r>    4.3430    1.0000 </r>
       <r>    5.8707    1.0000 </r>
       <r>   11.7408    0.0000 </r>
       <r>   12.5814    0.0000 </r>
       <r>   14.6105    0.0000 </r>
       <r>   15.5101    0.0000 </r>
      </set>
      <set comment="kpoint 21">
       <r>   -0.7145    1.0000 </r>
       <r>    0.9890    1.0000 </r>
       <r>    8.2310    1.0000 </r>
       <r>    8.4103    1.0000 </r>
       <r>   10.8165    0.0000 </r>
       <r>   12.0317    0.0000 </r>
       <r>   12.7652    0.0000 </r>
       <r>   13.9062    0.0000 </r>
      </set>
      <set comment="kpoint 22">
       <r>   -3.3648    1.0000 </r>
       <r>    1.7244    1.0000 </r>
       <r>    5.3463    1.0000 </r>
       <r>   10.1957    0.0000 </r>
       <r>   11.8760    0.0000 </r>
       <r>   15.9754    0.0000 </r>
       <r>   16.1388    0.0000 </r>
       <r>   17.3893    0.0000 </r>
      </set>
      <set comment="kpoint 23">
       <r>   -3.0719    1.0000 </r>
       <r>    3.1320    1.0000 </r>
       <r>    4.5249    1.0000 </r>
       <r>   10.3399    0.0000 </r>
       <r>   11.6008    0.0000 </r>
       <r>   13.6757    0.0000 </r>
       <r>   15.4582    0.0000 </r>
       <r>   16.2590    0.0000 </r>
      </set>
      <set comment="kpoint 24">
       <r>   -2.1235    1.0000 </r>
       <r>   -0.4104    1.0000 </r>
       <r>    6.4908    1.0000 </r>
       <r>    8.1257    1.0000 </r>
       <r>   13.1327    0.0000 </r>
       <r>   14.5992    0.0000 </r>
       <r>   16.9111    0.0000 </r>
       <r>   17.1080    0.0000 </r>
      </set>
      <set comment="kpoint 25">
       <r>   -2.0815    1.0000 </r>
       <r>    1.2778    1.0000 </r>
       <r>    4.9598    1.0000 </r>
       <r>    8.1623    1.0000 </r>
       <r>   11.1939    0.0000 </r>
       <r>   14.9616    0.0000 </r>
       <r>   16.1145    0.0000 </r>
       <r>   17.8649    0.0000 </r>
      </set>
      <set comment="kpoint 26">
       <r>   -0.9669    1.0000 </r>
       <r>    3.4471    1.0000 </r>
       <r>    4.9047    1.0000 </r>
       <r>    6.8169    1.0000 </r>
       <r>    9.1669    0.0764 </r>
       <r>   13.1323    0.0000 </r>
       <r>   14.4484    0.0000 </r>
       <r>   16.4734    0.0000 </r>
      </set>
      <set comment="kpoint 27">
       <r>   -0.6205    1.0000 </r>
       <r>   -0.6097    1.0000 </r>
       <r>    6.3131    1.0000 </r>
       <r>    6.3318    1.0000 </r>
       <r>   11.0111    0.0000 </r>
       <r>   15.7843    0.0000 </r>
       <r>   16.3011    0.0000 </r>
       <r>   16.7395    0.0000 </r>
      </set>
      <set comment="kpoint 28">
       <r>    0.2407    1.0000 </r>
       <r>    1.8713    1.0000 </r>
       <r>    5.4666    1.0000 </r>
       <r>    6.3428    1.0000 </r>
       <r>    7.2829    1.0000 </r>
       <r>   13.1548    0.0000 </r>
       <r>   16.3468    0.0000 </r>
       <r>   17.8274    0.0000 </r>
      </set>
      <set comment="kpoint 29">
       <r>    1.8797    1.0000 </r>
       <r>    2.7426    1.0000 </r>
       <r>    5.0478    1.0000 </r>
       <r>    6.1896    1.0000 </r>
       <r>    8.5308    0.9989 </r>
       <r>   11.1013    0.0000 </r>
       <r>   12.1106    0.0000 </r>
       <r>   16.6379    0.0000 </r>
      </set>
      <set comment="kpoint 30">
       <r>    2.0326    1.0000 </r>
       <r>    3.5677    1.0000 </r>
       <r>    3.8342    1.0000 </r>
       <r>    6.9825    1.0000 </r>
       <r>    7.1495    1.0000 </r>
       <r>   11.0905    0.0000 </r>
       <r>   13.8322    0.0000 </r>
       <r>   14.7996    0.0000 </r>
      </set>
      <set comment="kpoint 31">
       <r>   -0.7572    1.0000 </r>
       <r>    6.2003    1.0000 </r>
       <r>    7.3247    1.0000 </r>
       <r>    7.8358    1.0000 </r>
       <r>    8.2569    1.0000 </r>
       <r>   10.6207    0.0000 </r>
       <r>   11.1370    0.0000 </r>
       <r>   12.6980    0.0000 </r>
      </set>
      <set comment="kpoint 32">
       <r>   -2.9425    1.0000 </r>
       <r>    7.7882    1.0000 </r>
       <r>    7.7882    1.0000 </r>
       <r>    8.3800    1.0000 </r>
       <r>   10.7400    0.0000 </r>
       <r>   10.9665    0.0000 </r>
       <r>   12.3962    0.0000 </r>
       <r>   13.2608    0.0000 </r>
      </set>
      <set comment="kpoint 33">
       <r>   -2.6221    1.0000 </r>
       <r>    1.8660    1.0000 </r>
       <r>    3.3623    1.0000 </r>
       <r>    7.7170    1.0000 </r>
       <r>   14.3328    0.0000 </r>
       <r>   15.9784    0.0000 </r>
       <r>   17.0894    0.0000 </r>
       <r>   17.6658    0.0000 </r>
      </set>
      <set comment="kpoint 34">
       <r>   -1.3996    1.0000 </r>
       <r>    0.2551    1.0000 </r>
       <r>    4.0035    1.0000 </r>
       <r>    5.6166    1.0000 </r>
       <r>   15.1339    0.0000 </r>
       <r>   15.4770    0.0000 </r>
       <r>   17.6843    0.0000 </r>
       <r>   18.8469    0.0000 </r>
      </set>
      <set comment="kpoint 35">
       <r>   -1.1105    1.0000 </r>
       <r>    1.6511    1.0000 </r>
       <r>    3.1868    1.0000 </r>
       <r>    5.8808    1.0000 </r>
       <r>   10.5930    0.0000 </r>
       <r>   17.7274    0.0000 </r>
       <r>   17.8879    0.0000 </r>
       <r>   18.8955    0.0000 </r>
      </set>
      <set comment="kpoint 36">
       <r>    0.2842    1.0000 </r>
       <r>    0.3052    1.0000 </r>
       <r>    4.0404    1.0000 </r>
       <r>    4.0569    1.0000 </r>
       <r>   10.3826    0.0000 </r>
       <r>   17.9816    0.0000 </r>
       <r>   19.2798    0.0000 </r>
       <r>   19.9227    0.0000 </r>
      </set>
      <set comment="kpoint 37">
       <r>    1.3802    1.0000 </r>
       <r>    2.4690    1.0000 </r>
       <r>    4.0166    1.0000 </r>
       <r>    5.0296    1.0000 </r>
       <r>    6.0664    1.0000 </r>
       <r>   15.1619    0.0000 </r>
       <r>   16.3742    0.0000 </r>
       <r>   18.0089    0.0000 </r>
      </set>
      <set comment="kpoint 38">
       <r>    1.8608    1.0000 </r>
       <r>    4.4547    1.0000 </r>
       <r>    4.6898    1.0000 </r>
       <r>    5.7910    1.0000 </r>
       <r>    5.7910    1.0000 </r>
       <r>   13.1587    0.0000 </r>
       <r>   13.5781    0.0000 </r>
       <r>   13.5781    0.0000 </r>
      </set>
      <set comment="kpoint 39">
       <r>   -0.2402    1.0000 </r>
       <r>    0.8682    1.0000 </r>
       <r>    2.4471    1.0000 </r>
       <r>    3.5401    1.0000 </r>
       <r>   15.1168    0.0000 </r>
       <r>   15.1716    0.0000 </r>
       <r>   20.3010    0.0000 </r>
       <r>   21.2465    0.0000 </r>
      </set>
      <set comment="kpoint 40">
       <r>    1.1340    1.0000 </r>
       <r>    1.1711    1.0000 </r>
       <r>    2.7272    1.0000 </r>
       <r>    2.7272    1.0000 </r>
       <r>   10.1664    0.0000 </r>
       <r>   19.0878    0.0000 </r>
       <r>   20.5502    0.0000 </r>
       <r>   20.5502    0.0000 </r>
      </set>
     </set>
    </set>
   </array>
  </eigenvalues>
  <separator name="orbital magnetization" >
   <v name="MAGDIPOLOUT">      0.00000000      0.00000000      0.00000000</v>
  </separator>
  <dos>
   <i name="efermi">      8.96469073 </i>
   <total>
    <array>
     <dimension dim="1">gridpoints</dimension>
     <dimension dim="2">spin</dimension>
     <field>energy</field>
     <field>total</field>
     <field>integrated</field>
     <set>
      <set comment="spin 1">
       <r>    -6.6180     0.0000     0.0000 </r>
       <r>    -6.5185     0.0000     0.0000 </r>
       <r>    -6.4189     0.0000     0.0000 </r>
       <r>    -6.3194     0.0000     0.0000 </r>
       <r>    -6.2198     0.0000     0.0000 </r>
       <r>    -6.1203     0.0000     0.0000 </r>
       <r>    -6.0207     0.0000     0.0000 </r>
       <r>    -5.9212     0.0000     0.0000 </r>
       <r>    -5.8216     0.0000     0.0000 </r>
       <r>    -5.7221     0.0000     0.0000 </r>
       <r>    -5.6225     0.0000     0.0000 </r>
       <r>    -5.5230     0.0000     0.0000 </r>
       <r>    -5.4234     0.0000     0.0000 </r>
       <r>    -5.3239     0.0000     0.0000 </r>
       <r>    -5.2243     0.0000     0.0000 </r>
       <r>    -5.1248     0.0000     0.0000 </r>
       <r>    -5.0252     0.0001     0.0000 </r>
       <r>    -4.9257     0.0008     0.0001 </r>
       <r>    -4.8261     0.0034     0.0004 </r>
       <r>    -4.7266     0.0100     0.0014 </r>
       <r>    -4.6270     0.0213     0.0035 </r>
       <r>    -4.5275     0.0383     0.0074 </r>
       <r>    -4.4279     0.0632     0.0136 </r>
       <r>    -4.3284     0.0941     0.0230 </r>
       <r>    -4.2288     0.1348     0.0364 </r>
       <r>    -4.1293     0.1843     0.0548 </r>
       <r>    -4.0298     0.2010     0.0748 </r>
       <r>    -3.9302     0.1558     0.0903 </r>
       <r>    -3.8307     0.1085     0.1011 </r>
       <r>    -3.7311     0.1453     0.1156 </r>
       <r>    -3.6316     0.2653     0.1420 </r>
       <r>    -3.5320     0.3623     0.1780 </r>
       <r>    -3.4325     0.3516     0.2130 </r>
       <r>    -3.3329     0.2696     0.2399 </r>
       <r>    -3.2334     0.1964     0.2594 </r>
       <r>    -3.1338     0.1706     0.2764 </r>
       <r>    -3.0343     0.1730     0.2936 </r>
       <r>    -2.9347     0.1664     0.3102 </r>
       <r>    -2.8352     0.1778     0.3279 </r>
       <r>    -2.7356     0.2710     0.3549 </r>
       <r>    -2.6361     0.4248     0.3972 </r>
       <r>    -2.5365     0.5206     0.4490 </r>
       <r>    -2.4370     0.4840     0.4972 </r>
       <r>    -2.3374     0.3796     0.5350 </r>
       <r>    -2.2379     0.3390     0.5687 </r>
       <r>    -2.1383     0.4110     0.6096 </r>
       <r>    -2.0388     0.4872     0.6581 </r>
       <r>    -1.9392     0.4559     0.7035 </r>
       <r>    -1.8397     0.3711     0.7405 </r>
       <r>    -1.7401     0.3303     0.7733 </r>
       <r>    -1.6406     0.3082     0.8040 </r>
       <r>    -1.5410     0.2538     0.8293 </r>
       <r>    -1.4415     0.2051     0.8497 </r>
       <r>    -1.3419     0.2048     0.8701 </r>
       <r>    -1.2424     0.2683     0.8968 </r>
       <r>    -1.1429     0.3971     0.9363 </r>
       <r>    -1.0433     0.5016     0.9863 </r>
       <r>    -0.9438     0.4936     1.0354 </r>
       <r>    -0.8442     0.4579     1.0810 </r>
       <r>    -0.7447     0.5240     1.1332 </r>
       <r>    -0.6451     0.6586     1.1987 </r>
       <r>    -0.5456     0.7430     1.2727 </r>
       <r>    -0.4460     0.7403     1.3464 </r>
       <r>    -0.3465     0.6774     1.4138 </r>
       <r>    -0.2469     0.5593     1.4695 </r>
       <r>    -0.1474     0.3848     1.5078 </r>
       <r>    -0.0478     0.2304     1.5307 </r>
       <r>     0.0517     0.2353     1.5542 </r>
       <r>     0.1513     0.4519     1.5991 </r>
       <r>     0.2508     0.7085     1.6697 </r>
       <r>     0.3504     0.7284     1.7422 </r>
       <r>     0.4499     0.5033     1.7923 </r>
       <r>     0.5495     0.3124     1.8234 </r>
       <r>     0.6490     0.3270     1.8559 </r>
       <r>     0.7486     0.4634     1.9021 </r>
       <r>     0.8481     0.5732     1.9591 </r>
       <r>     0.9477     0.6139     2.0202 </r>
       <r>     1.0472     0.6686     2.0868 </r>
       <r>     1.1468     0.8050     2.1669 </r>
       <r>     1.2463     0.9088     2.2574 </r>
       <r>     1.3459     0.8195     2.3390 </r>
       <r>     1.4454     0.5912     2.3978 </r>
       <r>     1.5450     0.4232     2.4399 </r>
       <r>     1.6445     0.4192     2.4817 </r>
       <r>     1.7441     0.5403     2.5355 </r>
       <r>     1.8436     0.6858     2.6037 </r>
       <r>     1.9431     0.7523     2.6786 </r>
       <r>     2.0427     0.7096     2.7493 </r>
       <r>     2.1422     0.6070     2.8097 </r>
       <r>     2.2418     0.4843     2.8579 </r>
       <r>     2.3413     0.3779     2.8955 </r>
       <r>     2.4409     0.3324     2.9286 </r>
       <r>     2.5404     0.3442     2.9629 </r>
       <r>     2.6400     0.3725     3.0000 </r>
       <r>     2.7395     0.3673     3.0365 </r>
       <r>     2.8391     0.3042     3.0668 </r>
       <r>     2.9386     0.2793     3.0946 </r>
       <r>     3.0382     0.4591     3.1403 </r>
       <r>     3.1377     0.8373     3.2237 </r>
       <r>     3.2373     1.1436     3.3375 </r>
       <r>     3.3368     1.1553     3.4525 </r>
       <r>     3.4364     0.9539     3.5475 </r>
       <r>     3.5359     0.7192     3.6191 </r>
       <r>     3.6355     0.5526     3.6741 </r>
       <r>     3.7350     0.5450     3.7283 </r>
       <r>     3.8346     0.7142     3.7994 </r>
       <r>     3.9341     0.9059     3.8896 </r>
       <r>     4.0337     0.9317     3.9824 </r>
       <r>     4.1332     0.7435     4.0564 </r>
       <r>     4.2328     0.4791     4.1041 </r>
       <r>     4.3323     0.3292     4.1368 </r>
       <r>     4.4319     0.3496     4.1716 </r>
       <r>     4.5314     0.4887     4.2203 </r>
       <r>     4.6310     0.6530     4.2853 </r>
       <r>     4.7305     0.7286     4.3578 </r>
       <r>     4.8301     0.7416     4.4317 </r>
       <r>     4.9296     0.8354     4.5148 </r>
       <r>     5.0291     0.9484     4.6092 </r>
       <r>     5.1287     0.8703     4.6959 </r>
       <r>     5.2282     0.6566     4.7612 </r>
       <r>     5.3278     0.5676     4.8177 </r>
       <r>     5.4273     0.6544     4.8829 </r>
       <r>     5.5269     0.7414     4.9567 </r>
       <r>     5.6264     0.7024     5.0266 </r>
       <r>     5.7260     0.5838     5.0847 </r>
       <r>     5.8255     0.5127     5.1358 </r>
       <r>     5.9251     0.5453     5.1901 </r>
       <r>     6.0246     0.6753     5.2573 </r>
       <r>     6.1242     0.9011     5.3470 </r>
       <r>     6.2237     1.1807     5.4645 </r>
       <r>     6.3233     1.3924     5.6031 </r>
       <r>     6.4228     1.4095     5.7434 </r>
       <r>     6.5224     1.2719     5.8701 </r>
       <r>     6.6219     1.1525     5.9848 </r>
       <r>     6.7215     1.0930     6.0936 </r>
       <r>     6.8210     0.9804     6.1912 </r>
       <r>     6.9206     0.8084     6.2717 </r>
       <r>     7.0201     0.7268     6.3440 </r>
       <r>     7.1197     0.7890     6.4226 </r>
       <r>     7.2192     0.9094     6.5131 </r>
       <r>     7.3188     1.0131     6.6139 </r>
       <r>     7.4183     1.0415     6.7176 </r>
       <r>     7.5179     0.9450     6.8117 </r>
       <r>     7.6174     0.7815     6.8895 </r>
       <r>     7.7170     0.7064     6.9598 </r>
       <r>     7.8165     0.7588     7.0354 </r>
       <r>     7.9160     0.8327     7.1183 </r>
       <r>     8.0156     0.8952     7.2074 </r>
       <r>     8.1151     0.9830     7.3052 </r>
       <r>     8.2147     1.0400     7.4088 </r>
       <r>     8.3142     0.9798     7.5063 </r>
       <r>     8.4138     0.8485     7.5908 </r>
       <r>     8.5133     0.7488     7.6653 </r>
       <r>     8.6129     0.7192     7.7369 </r>
       <r>     8.7124     0.7664     7.8132 </r>
       <r>     8.8120     0.8220     7.8950 </r>
       <r>     8.9115     0.7406     7.9688 </r>
       <r>     9.0111     0.5453     8.0230 </r>
       <r>     9.1106     0.4646     8.0693 </r>
       <r>     9.2102     0.5992     8.1289 </r>
       <r>     9.3097     0.7747     8.2061 </r>
       <r>     9.4093     0.7722     8.2829 </r>
       <r>     9.5088     0.5667     8.3393 </r>
       <r>     9.6084     0.3033     8.3695 </r>
       <r>     9.7079     0.1186     8.3813 </r>
       <r>     9.8075     0.0494     8.3863 </r>
       <r>     9.9070     0.0928     8.3955 </r>
       <r>    10.0066     0.2686     8.4222 </r>
       <r>    10.1061     0.5467     8.4767 </r>
       <r>    10.2057     0.7993     8.5562 </r>
       <r>    10.3052     0.9687     8.6527 </r>
       <r>    10.4048     1.1434     8.7665 </r>
       <r>    10.5043     1.3510     8.9010 </r>
       <r>    10.6039     1.4482     9.0451 </r>
       <r>    10.7034     1.3106     9.1756 </r>
       <r>    10.8030     1.0451     9.2797 </r>
       <r>    10.9025     0.8765     9.3669 </r>
       <r>    11.0020     0.9277     9.4593 </r>
       <r>    11.1016     1.1181     9.5706 </r>
       <r>    11.2011     1.2209     9.6921 </r>
       <r>    11.3007     1.1621     9.8078 </r>
       <r>    11.4002     1.1025     9.9175 </r>
       <r>    11.4998     1.0815    10.0252 </r>
       <r>    11.5993     0.9695    10.1217 </r>
       <r>    11.6989     0.7889    10.2002 </r>
       <r>    11.7984     0.6578    10.2657 </r>
       <r>    11.8980     0.5853    10.3240 </r>
       <r>    11.9975     0.5555    10.3793 </r>
       <r>    12.0971     0.5996    10.4390 </r>
       <r>    12.1966     0.7035    10.5090 </r>
       <r>    12.2962     0.8003    10.5887 </r>
       <r>    12.3957     0.9076    10.6790 </r>
       <r>    12.4953     1.0862    10.7872 </r>
       <r>    12.5948     1.2295    10.9096 </r>
       <r>    12.6944     1.1838    11.0274 </r>
       <r>    12.7939     1.0032    11.1273 </r>
       <r>    12.8935     0.8391    11.2108 </r>
       <r>    12.9930     0.8168    11.2921 </r>
       <r>    13.0926     0.9688    11.3886 </r>
       <r>    13.1921     1.0718    11.4953 </r>
       <r>    13.2917     0.9302    11.5879 </r>
       <r>    13.3912     0.7645    11.6640 </r>
       <r>    13.4908     0.8288    11.7465 </r>
       <r>    13.5903     0.9673    11.8428 </r>
       <r>    13.6899     0.9617    11.9385 </r>
       <r>    13.7894     0.9253    12.0306 </r>
       <r>    13.8890     1.0159    12.1318 </r>
       <r>    13.9885     1.1354    12.2448 </r>
       <r>    14.0880     1.1548    12.3598 </r>
       <r>    14.1876     1.1294    12.4722 </r>
       <r>    14.2871     1.1742    12.5891 </r>
       <r>    14.3867     1.3073    12.7192 </r>
       <r>    14.4862     1.4467    12.8632 </r>
       <r>    14.5858     1.4662    13.0092 </r>
       <r>    14.6853     1.3337    13.1420 </r>
       <r>    14.7849     1.2102    13.2624 </r>
       <r>    14.8844     1.2341    13.3853 </r>
       <r>    14.9840     1.2777    13.5125 </r>
       <r>    15.0835     1.1436    13.6263 </r>
       <r>    15.1831     0.8747    13.7134 </r>
       <r>    15.2826     0.6755    13.7806 </r>
       <r>    15.3822     0.6761    13.8480 </r>
       <r>    15.4817     0.7881    13.9264 </r>
       <r>    15.5813     0.7776    14.0038 </r>
       <r>    15.6808     0.5894    14.0625 </r>
       <r>    15.7804     0.4073    14.1030 </r>
       <r>    15.8799     0.3803    14.1409 </r>
       <r>    15.9795     0.5385    14.1945 </r>
       <r>    16.0790     0.8555    14.2797 </r>
       <r>    16.1786     1.2087    14.4000 </r>
       <r>    16.2781     1.3987    14.5392 </r>
       <r>    16.3777     1.3212    14.6708 </r>
       <r>    16.4772     1.0591    14.7762 </r>
       <r>    16.5768     0.7718    14.8530 </r>
       <r>    16.6763     0.5561    14.9084 </r>
       <r>    16.7759     0.4212    14.9503 </r>
       <r>    16.8754     0.3435    14.9845 </r>
       <r>    16.9749     0.3081    15.0152 </r>
       <r>    17.0745     0.2954    15.0446 </r>
       <r>    17.1740     0.2759    15.0720 </r>
       <r>    17.2736     0.2617    15.0981 </r>
       <r>    17.3731     0.2957    15.1275 </r>
       <r>    17.4727     0.3744    15.1648 </r>
       <r>    17.5722     0.4981    15.2144 </r>
       <r>    17.6718     0.7160    15.2856 </r>
       <r>    17.7713     0.9916    15.3844 </r>
       <r>    17.8709     1.1417    15.4980 </r>
       <r>    17.9704     1.0210    15.5997 </r>
       <r>    18.0700     0.7024    15.6696 </r>
       <r>    18.1695     0.3804    15.7074 </r>
       <r>    18.2691     0.1666    15.7240 </r>
       <r>    18.3686     0.0589    15.7299 </r>
       <r>    18.4682     0.0178    15.7317 </r>
       <r>    18.5677     0.0168    15.7333 </r>
       <r>    18.6673     0.0572    15.7390 </r>
       <r>    18.7668     0.1474    15.7537 </r>
       <r>    18.8664     0.2434    15.7779 </r>
       <r>    18.9659     0.2638    15.8042 </r>
       <r>    19.0655     0.2089    15.8250 </r>
       <r>    19.1650     0.1623    15.8412 </r>
       <r>    19.2646     0.1545    15.8565 </r>
       <r>    19.3641     0.1373    15.8702 </r>
       <r>    19.4637     0.0868    15.8788 </r>
       <r>    19.5632     0.0375    15.8826 </r>
       <r>    19.6628     0.0219    15.8848 </r>
       <r>    19.7623     0.0461    15.8894 </r>
       <r>    19.8619     0.0965    15.8990 </r>
       <r>    19.9614     0.1302    15.9119 </r>
       <r>    20.0609     0.1155    15.9234 </r>
       <r>    20.1605     0.0829    15.9317 </r>
       <r>    20.2600     0.0746    15.9391 </r>
       <r>    20.3596     0.0840    15.9475 </r>
       <r>    20.4591     0.0891    15.9563 </r>
       <r>    20.5587     0.0848    15.9648 </r>
       <r>    20.6582     0.0661    15.9714 </r>
       <r>    20.7578     0.0367    15.9750 </r>
       <r>    20.8573     0.0139    15.9764 </r>
       <r>    20.9569     0.0071    15.9771 </r>
       <r>    21.0564     0.0166    15.9788 </r>
       <r>    21.1560     0.0402    15.9828 </r>
       <r>    21.2555     0.0619    15.9889 </r>
       <r>    21.3551     0.0593    15.9948 </r>
       <r>    21.4546     0.0353    15.9984 </r>
       <r>    21.5542     0.0131    15.9997 </r>
       <r>    21.6537     0.0030    16.0000 </r>
       <r>    21.7533     0.0004    16.0000 </r>
       <r>    21.8528     0.0000    16.0000 </r>
       <r>    21.9524     0.0000    16.0000 </r>
       <r>    22.0519     0.0000    16.0000 </r>
       <r>    22.1515     0.0000    16.0000 </r>
       <r>    22.2510     0.0000    16.0000 </r>
       <r>    22.3506     0.0000    16.0000 </r>
       <r>    22.4501     0.0000    16.0000 </r>
       <r>    22.5497     0.0000    16.0000 </r>
       <r>    22.6492     0.0000    16.0000 </r>
       <r>    22.7488     0.0000    16.0000 </r>
       <r>    22.8483     0.0000    16.0000 </r>
       <r>    22.9479     0.0000    16.0000 </r>
       <r>    23.0474     0.0000    16.0000 </r>
       <r>    23.1469     0.0000    16.0000 </r>
       <r>    23.2465     0.0000    16.0000 </r>
      </set>
     </set>
    </array>
   </total>
  </dos>
 </calculation>
 <structure name="finalpos" >
  <crystal>
   <varray name="basis" >
    <v>      -2.41130111       2.41130111       1.32155786 </v>
    <v>       2.41130111      -2.41130111       1.32155786 </v>
    <v>       2.41130111       2.41130111      -1.32155786 </v>
   </varray>
   <i name="volume">     30.73612167 </i>
   <varray name="rec_basis" >
    <v>      -0.00000000       0.20735693       0.37834136 </v>
    <v>       0.20735693      -0.00000000       0.37834136 </v>
    <v>       0.20735693       0.20735693       0.00000000 </v>
   </varray>
  </crystal>
  <varray name="positions" >
   <v>       0.25000000       0.75000000       0.50000000 </v>
   <v>       0.00000000       0.00000000       0.00000000 </v>
  </varray>
 </structure>
</modeling>
