    2    2   15    1
  0.1575582E+02  0.3684061E-09  0.3684061E-09  0.3684061E-09  0.5000000E-15
  1.000000000000000E-004
  CAR 
 unknown system                          
      8     56      8
 
  0.6250000E-01  0.6250000E-01  0.6250000E-01  0.1562500E-01
    1       -4.212354   1.000000
    2        4.463912   1.000000
    3        6.727952   1.000000
    4        8.262958   0.999346
    5       11.882839   0.000000
    6       13.763671   0.000000
    7       14.329482   0.000000
    8       16.188558   0.000000
 
  0.1875000E+00  0.6250000E-01  0.6250000E-01  0.3125000E-01
    1       -2.992690   1.000000
    2        4.217952   1.000000
    3        7.028275   1.000000
    4        9.195551   0.000362
    5       10.860410   0.000000
    6       10.971742   0.000000
    7       13.723619   0.000000
    8       14.488935   0.000000
 
  0.3125000E+00  0.6250000E-01  0.6250000E-01  0.3125000E-01
    1       -0.989980   1.000000
    2        4.517806   1.000000
    3        5.586125   1.000000
    4        7.298041   1.000000
    5        8.655820   0.668674
    6       11.778016   0.000000
    7       13.253130   0.000000
    8       13.633434   0.000000
 
  0.4375000E+00  0.6250000E-01  0.6250000E-01  0.1562500E-01
    1        1.354687   1.000000
    2        2.262613   1.000000
    3        5.817956   1.000000
    4        6.203289   1.000000
    5        8.539605   0.895807
    6       10.608680   0.000000
    7       13.155502   0.000000
    8       14.093562   0.000000
 
 -0.6250000E-01  0.6250000E-01  0.6250000E-01  0.7812500E-02
    1       -4.621305   1.000000
    2        5.073630   1.000000
    3        5.918938   1.000000
    4        7.931904   1.000000
    5       11.011303   0.000000
    6       14.912085   0.000000
    7       17.399474   0.000000
    8       17.499004   0.000000
 
  0.1875000E+00  0.1875000E+00  0.6250000E-01  0.1562500E-01
    1       -1.173442   1.000000
    2        4.506184   1.000000
    3        6.474692   1.000000
    4        6.666137   1.000000
    5        9.623675   0.000000
    6       11.632859   0.000000
    7       12.917800   0.000000
    8       13.109853   0.000000
 
  0.3125000E+00  0.1875000E+00  0.6250000E-01  0.3125000E-01
    1        1.299061   1.000000
    2        2.996461   1.000000
    3        4.346952   1.000000
    4        5.822565   1.000000
    5        9.882425   0.000000
    6       11.617534   0.000000
    7       12.643515   0.000000
    8       14.689431   0.000000
 
  0.4375000E+00  0.1875000E+00  0.6250000E-01  0.3125000E-01
    1       -0.073101   1.000000
    2        2.769402   1.000000
    3        4.946051   1.000000
    4        7.302225   1.000000
    5        9.124472   0.002003
    6       11.788161   0.000000
    7       13.710029   0.000000
    8       14.606494   0.000000
 
 -0.4375000E+00  0.1875000E+00  0.6250000E-01  0.3125000E-01
    1       -2.242651   1.000000
    2        2.146847   1.000000
    3        7.574870   1.000000
    4        8.853816   0.167576
    5       10.387731   0.000000
    6       11.517907   0.000000
    7       12.725501   0.000000
    8       15.074941   0.000000
 
 -0.3125000E+00  0.1875000E+00  0.6250000E-01  0.1562500E-01
    1       -3.644823   1.000000
    2        2.236339   1.000000
    3        7.235955   1.000000
    4        9.185020   0.000474
    5       12.180465   0.000000
    6       13.693922   0.000000
    7       14.239571   0.000000
    8       14.881930   0.000000
 
 -0.1875000E+00  0.1875000E+00  0.6250000E-01  0.1562500E-01
    1       -4.241893   1.000000
    2        3.052035   1.000000
    3        6.037143   1.000000
    4        9.166919   0.000742
    5       12.834848   0.000000
    6       12.985182   0.000000
    7       15.925898   0.000000
    8       17.286239   0.000000
 
 -0.6250000E-01  0.1875000E+00  0.6250000E-01  0.1562500E-01
    1       -4.023126   1.000000
    2        4.184318   1.000000
    3        5.399510   1.000000
    4        9.750465   0.000000
    5       12.608772   0.000000
    6       12.748912   0.000000
    7       13.788611   0.000000
    8       15.782360   0.000000
 
  0.3125000E+00  0.3125000E+00  0.6250000E-01  0.1562500E-01
    1        1.159355   1.000000
    2        1.225023   1.000000
    3        4.753880   1.000000
    4        7.244958   1.000000
    5        9.864211   0.000000
    6       10.693979   0.000000
    7       14.744988   0.000000
    8       15.599421   0.000000
 
  0.4375000E+00  0.3125000E+00  0.6250000E-01  0.3125000E-01
    1       -1.125897   1.000000
    2        0.345295   1.000000
    3        8.103793   0.999993
    4        8.711374   0.517320
    5       10.033803   0.000000
    6       11.431618   0.000000
    7       12.537434   0.000000
    8       13.931919   0.000000
 
 -0.4375000E+00  0.3125000E+00  0.6250000E-01  0.1562500E-01
    1       -2.703874   1.000000
    2        0.258418   1.000000
    3        8.074222   0.999997
    4       10.149387   0.000000
    5       10.667717   0.000000
    6       12.754628   0.000000
    7       13.807898   0.000000
    8       13.890280   0.000000
 
 -0.3125000E+00  0.3125000E+00  0.6250000E-01  0.1562500E-01
    1       -3.485997   1.000000
    2        0.946989   1.000000
    3        6.723236   1.000000
    4       10.105145   0.000000
    5       10.856927   0.000000
    6       14.201063   0.000000
    7       15.895522   0.000000
    8       16.976215   0.000000
 
 -0.1875000E+00  0.3125000E+00  0.6250000E-01  0.3125000E-01
    1       -3.456941   1.000000
    2        2.361926   1.000000
    3        5.522605   1.000000
    4       10.700699   0.000000
    5       11.096574   0.000000
    6       13.006669   0.000000
    7       14.776528   0.000000
    8       15.694828   0.000000
 
 -0.6250000E-01  0.3125000E+00  0.6250000E-01  0.1562500E-01
    1       -2.617993   1.000000
    2        4.046640   1.000000
    3        5.405831   1.000000
    4        8.496755   0.940740
    5       11.134500   0.000000
    6       12.689700   0.000000
    7       13.359566   0.000000
    8       13.704930   0.000000
 
  0.4375000E+00  0.4375000E+00  0.6250000E-01  0.7812500E-02
    1       -1.397914   1.000000
    2       -1.397914   1.000000
    3        9.221495   0.000183
    4        9.221496   0.000183
    5       11.402422   0.000000
    6       11.402423   0.000000
    7       13.607532   0.000000
    8       13.607534   0.000000
 
 -0.4375000E+00  0.4375000E+00  0.6250000E-01  0.1562500E-01
    1       -2.359966   1.000000
    2       -0.875101   1.000000
    3        7.768779   1.000000
    4        9.153762   0.001019
    5       11.218492   0.000000
    6       12.593555   0.000000
    7       16.678411   0.000000
    8       16.777052   0.000000
 
 -0.3125000E+00  0.4375000E+00  0.6250000E-01  0.3125000E-01
    1       -2.518680   1.000000
    2        0.426482   1.000000
    3        6.358869   1.000000
    4        9.096128   0.003712
    5       11.449235   0.000000
    6       12.933150   0.000000
    7       14.879310   0.000000
    8       15.397817   0.000000
 
 -0.1875000E+00  0.4375000E+00  0.6250000E-01  0.3125000E-01
    1       -1.872207   1.000000
    2        2.433109   1.000000
    3        5.615805   1.000000
    4        7.856824   1.000000
    5        9.718330   0.000000
    6       12.546744   0.000000
    7       14.044996   0.000000
    8       15.385176   0.000000
 
 -0.6250000E-01  0.4375000E+00  0.6250000E-01  0.1562500E-01
    1       -0.442547   1.000000
    2        4.093587   1.000000
    3        5.235761   1.000000
    4        6.024783   1.000000
    5        9.189039   0.000428
    6       11.594381   0.000000
    7       11.923517   0.000000
    8       15.228012   0.000000
 
 -0.4375000E+00 -0.4375000E+00  0.6250000E-01  0.1562500E-01
    1       -1.221111   1.000000
    2       -1.214638   1.000000
    3        7.561036   1.000000
    4        7.573562   1.000000
    5       11.539459   0.000000
    6       13.442184   0.000000
    7       14.285311   0.000000
    8       14.882804   0.000000
 
 -0.3125000E+00 -0.4375000E+00  0.6250000E-01  0.3125000E-01
    1       -0.763793   1.000000
    2        0.689533   1.000000
    3        6.518571   1.000000
    4        7.435729   1.000000
    5        8.294100   0.998623
    6       12.197490   0.000000
    7       15.139546   0.000000
    8       16.450889   0.000000
 
 -0.1875000E+00 -0.4375000E+00  0.6250000E-01  0.3125000E-01
    1        0.457464   1.000000
    2        3.086376   1.000000
    3        4.242486   1.000000
    4        6.460508   1.000000
    5        8.695207   0.562672
    6       10.637856   0.000000
    7       13.138677   0.000000
    8       16.538559   0.000000
 
 -0.6250000E-01 -0.4375000E+00  0.6250000E-01  0.1562500E-01
    1        0.946379   1.000000
    2        2.671724   1.000000
    3        6.270367   1.000000
    4        6.997866   1.000000
    5        7.625855   1.000000
    6       10.223003   0.000000
    7       11.682900   0.000000
    8       15.435901   0.000000
 
 -0.3125000E+00 -0.3125000E+00  0.6250000E-01  0.1562500E-01
    1        1.597023   1.000000
    2        1.769326   1.000000
    3        3.943986   1.000000
    4        7.334788   1.000000
    5        7.742819   1.000000
    6       10.259977   0.000000
    7       14.993273   0.000000
    8       15.669828   0.000000
 
 -0.1875000E+00 -0.3125000E+00  0.6250000E-01  0.3125000E-01
    1        0.631577   1.000000
    2        3.673706   1.000000
    3        5.018277   1.000000
    4        7.195080   1.000000
    5        8.309000   0.998065
    6       10.122148   0.000000
    7       11.708493   0.000000
    8       14.123447   0.000000
 
 -0.6250000E-01 -0.3125000E+00  0.6250000E-01  0.1562500E-01
    1       -1.544550   1.000000
    2        5.866855   1.000000
    3        6.868186   1.000000
    4        7.240020   1.000000
    5        8.488194   0.947550
    6       10.954556   0.000000
    7       11.710751   0.000000
    8       13.366097   0.000000
 
 -0.1875000E+00 -0.1875000E+00  0.6250000E-01  0.1562500E-01
    1       -1.730076   1.000000
    2        6.497392   1.000000
    3        7.160716   1.000000
    4        7.453676   1.000000
    5        8.820416   0.233425
    6       10.498056   0.000000
    7       11.654519   0.000000
    8       11.879591   0.000000
 
 -0.6250000E-01 -0.1875000E+00  0.6250000E-01  0.1562500E-01
    1       -3.369213   1.000000
    2        6.184437   1.000000
    3        6.922648   1.000000
    4        8.785380   0.315659
    5       10.920625   0.000000
    6       11.354688   0.000000
    7       12.124477   0.000000
    8       13.875382   0.000000
 
 -0.6250000E-01 -0.6250000E-01  0.6250000E-01  0.3906250E-02
    1       -4.402019   1.000000
    2        6.557930   1.000000
    3        6.557931   1.000000
    4        6.850012   1.000000
    5       10.764782   0.000000
    6       14.563248   0.000000
    7       14.676316   0.000000
    8       16.558301   0.000000
 
  0.1875000E+00  0.1875000E+00  0.1875000E+00  0.1562500E-01
    1       -0.252133   1.000000
    2        2.626442   1.000000
    3        6.042063   1.000000
    4        6.130511   1.000000
    5       10.617130   0.000000
    6       12.470964   0.000000
    7       13.693315   0.000000
    8       14.136811   0.000000
 
  0.3125000E+00  0.1875000E+00  0.1875000E+00  0.1562500E-01
    1        2.063317   1.000000
    2        2.806115   1.000000
    3        3.834844   1.000000
    4        4.480299   1.000000
    5       11.547062   0.000000
    6       13.462988   0.000000
    7       13.775962   0.000000
    8       13.969896   0.000000
 
 -0.1875000E+00  0.1875000E+00  0.1875000E+00  0.7812500E-02
    1       -3.864271   1.000000
    2        2.877548   1.000000
    3        4.290794   1.000000
    4       10.708952   0.000000
    5       11.295589   0.000000
    6       14.060275   0.000000
    7       16.319297   0.000000
    8       16.845429   0.000000
 
  0.3125000E+00  0.3125000E+00  0.1875000E+00  0.7812500E-02
    1        1.022315   1.000000
    2        1.022315   1.000000
    3        5.920849   1.000000
    4        5.920849   1.000000
    5       11.869539   0.000000
    6       11.869541   0.000000
    7       13.686031   0.000000
    8       13.686037   0.000000
 
 -0.3125000E+00  0.3125000E+00  0.1875000E+00  0.1562500E-01
    1       -3.112420   1.000000
    2        1.238214   1.000000
    3        4.514284   1.000000
    4        8.675377   0.617136
    5       12.633790   0.000000
    6       15.547604   0.000000
    7       16.146658   0.000000
    8       16.931716   0.000000
 
 -0.1875000E+00  0.3125000E+00  0.1875000E+00  0.1562500E-01
    1       -2.895259   1.000000
    2        2.340912   1.000000
    3        3.843959   1.000000
    4        8.831806   0.209501
    5       11.433287   0.000000
    6       14.081351   0.000000
    7       16.083412   0.000000
    8       16.416892   0.000000
 
 -0.4375000E+00  0.4375000E+00  0.1875000E+00  0.1562500E-01
    1       -1.994286   1.000000
    2       -0.526887   1.000000
    3        5.526345   1.000000
    4        6.930882   1.000000
    5       13.680343   0.000000
    6       14.681867   0.000000
    7       16.248540   0.000000
    8       16.633746   0.000000
 
 -0.3125000E+00  0.4375000E+00  0.1875000E+00  0.3125000E-01
    1       -1.966329   1.000000
    2        0.894168   1.000000
    3        4.209377   1.000000
    4        6.955359   1.000000
    5       11.071402   0.000000
    6       15.396765   0.000000
    7       16.463189   0.000000
    8       17.915829   0.000000
 
 -0.1875000E+00  0.4375000E+00  0.1875000E+00  0.1562500E-01
    1       -1.136653   1.000000
    2        2.574895   1.000000
    3        4.119566   1.000000
    4        7.050777   1.000000
    5        7.955985   1.000000
    6       13.795996   0.000000
    7       15.198092   0.000000
    8       16.553069   0.000000
 
 -0.4375000E+00 -0.4375000E+00  0.1875000E+00  0.1562500E-01
    1       -0.692799   1.000000
    2       -0.679086   1.000000
    3        5.377582   1.000000
    4        5.399189   1.000000
    5       10.926285   0.000000
    6       16.069133   0.000000
    7       16.727623   0.000000
    8       17.049466   0.000000
 
 -0.3125000E+00 -0.4375000E+00  0.1875000E+00  0.3125000E-01
    1       -0.051361   1.000000
    2        1.332514   1.000000
    3        4.623559   1.000000
    4        5.892866   1.000000
    5        7.079908   1.000000
    6       13.977899   0.000000
    7       16.736557   0.000000
    8       17.788376   0.000000
 
 -0.1875000E+00 -0.4375000E+00  0.1875000E+00  0.1562500E-01
    1        1.306583   1.000000
    2        3.040646   1.000000
    3        4.197132   1.000000
    4        5.108066   1.000000
    5        7.305625   1.000000
    6       11.759138   0.000000
    7       13.074489   0.000000
    8       16.708138   0.000000
 
 -0.3125000E+00 -0.3125000E+00  0.1875000E+00  0.1562500E-01
    1        2.151597   1.000000
    2        2.615285   1.000000
    3        3.674627   1.000000
    4        5.803110   1.000000
    5        5.918524   1.000000
    6       12.004207   0.000000
    7       14.457004   0.000000
    8       15.277138   0.000000
 
 -0.1875000E+00 -0.3125000E+00  0.1875000E+00  0.1562500E-01
    1        0.283139   1.000000
    2        4.671738   1.000000
    3        5.604304   1.000000
    4        6.669416   1.000000
    5        7.472731   1.000000
    6       10.511840   0.000000
    7       11.557463   0.000000
    8       13.060794   0.000000
 
 -0.1875000E+00 -0.1875000E+00  0.1875000E+00  0.3906250E-02
    1       -1.916219   1.000000
    2        7.844629   1.000000
    3        7.844629   1.000000
    4        7.940373   1.000000
    5        8.163194   0.999956
    6        9.477091   0.000000
    7       11.373493   0.000000
    8       11.373496   0.000000
 
 -0.3125000E+00  0.3125000E+00  0.3125000E+00  0.7812500E-02
    1       -2.370315   1.000000
    2        1.383771   1.000000
    3        2.962788   1.000000
    4        6.606617   1.000000
    5       14.293865   0.000000
    6       15.176664   0.000000
    7       16.754817   0.000000
    8       18.159551   0.000000
 
 -0.4375000E+00  0.4375000E+00  0.3125000E+00  0.1562500E-01
    1       -1.274224   1.000000
    2        0.124227   1.000000
    3        3.488410   1.000000
    4        4.850496   1.000000
    5       14.624664   0.000000
    6       14.812994   0.000000
    7       17.735290   0.000000
    8       18.806503   0.000000
 
 -0.3125000E+00  0.4375000E+00  0.3125000E+00  0.1562500E-01
    1       -1.059957   1.000000
    2        1.216852   1.000000
    3        2.825614   1.000000
    4        5.048764   1.000000
    5       10.616563   0.000000
    6       17.569484   0.000000
    7       17.919315   0.000000
    8       18.933726   0.000000
 
 -0.4375000E+00 -0.4375000E+00  0.3125000E+00  0.1562500E-01
    1        0.137408   1.000000
    2        0.161190   1.000000
    3        3.510851   1.000000
    4        3.525452   1.000000
    5       10.455648   0.000000
    6       17.810081   0.000000
    7       19.084269   0.000000
    8       19.669227   0.000000
 
 -0.3125000E+00 -0.4375000E+00  0.3125000E+00  0.1562500E-01
    1        0.959108   1.000000
    2        1.831073   1.000000
    3        3.442189   1.000000
    4        4.284312   1.000000
    5        6.649207   1.000000
    6       15.655594   0.000000
    7       16.874040   0.000000
    8       18.062616   0.000000
 
 -0.3125000E+00 -0.3125000E+00  0.3125000E+00  0.3906250E-02
    1        2.369170   1.000000
    2        3.334269   1.000000
    3        4.072643   1.000000
    4        4.784936   1.000000
    5        4.784936   1.000000
    6       13.741879   0.000000
    7       14.275134   0.000000
    8       14.275140   0.000000
 
 -0.4375000E+00  0.4375000E+00  0.4375000E+00  0.7812500E-02
    1       -0.250355   1.000000
    2        0.628598   1.000000
    3        2.271281   1.000000
    4        3.138342   1.000000
    5       14.525583   0.000000
    6       14.563579   0.000000
    7       19.985865   0.000000
    8       20.757131   0.000000
 
 -0.4375000E+00 -0.4375000E+00  0.4375000E+00  0.3906250E-02
    1        0.819961   1.000000
    2        0.858577   1.000000
    3        2.478762   1.000000
    4        2.478762   1.000000
    5       10.291855   0.000000
    6       18.324836   0.000000
    7       20.263585   0.000000
    8       20.306962   0.000000
