 vasp.5.4.4.18Apr17-6-g9f103f2a35 (build Dec 09 2018 21:25:21) complex          
  
 executed on IFC18.0.1.163_CrayMP date 2019.03.23  21:08:42
 running on    8 total cores
 distrk:  each k-point on    8 cores,    1 groups
 distr:  one band on NCORES_PER_BAND=   1 cores,    8 groups


--------------------------------------------------------------------------------------------------------


 INCAR:
 POTCAR:   PAW_PBE Si 05Jan2001                   

 ----------------------------------------------------------------------------- 
|                                                                             |
|           W    W    AA    RRRRR   N    N  II  N    N   GGGG   !!!           |
|           W    W   A  A   R    R  NN   N  II  NN   N  G    G  !!!           |
|           W    W  A    A  R    R  N N  N  II  N N  N  G       !!!           |
|           W WW W  AAAAAA  RRRRR   N  N N  II  N  N N  G  GGG   !            |
|           WW  WW  A    A  R   R   N   NN  II  N   NN  G    G                |
|           W    W  A    A  R    R  N    N  II  N    N   GGGG   !!!           |
|                                                                             |
|      For optimal performance we recommend to set                            |
|        NCORE= 4 - approx SQRT( number of cores)                             |
|      NCORE specifies how many cores store one orbital (NPAR=cpu/NCORE).     |
|      This setting can  greatly improve the performance of VASP for DFT.     |
|      The default,   NCORE=1            might be grossly inefficient         |
|      on modern multi-core architectures or massively parallel machines.     |
|      Do your own testing !!!!                                               |
|      Unfortunately you need to use the default for GW and RPA calculations. |
|      (for HF NCORE is supported but not extensively tested yet)             |
|                                                                             |
 ----------------------------------------------------------------------------- 

 POTCAR:   PAW_PBE Si 05Jan2001                   
   VRHFIN =Si: s2p2                                                             
   LEXCH  = PE                                                                  
   EATOM  =   103.0669 eV,    7.5752 Ry                                         
                                                                                
   TITEL  = PAW_PBE Si 05Jan2001                                                
   LULTRA =        F    use ultrasoft PP ?                                      
   IUNSCR =        1    unscreen: 0-lin 1-nonlin 2-no                           
   RPACOR =    1.500    partial core radius                                     
   POMASS =   28.085; ZVAL   =    4.000    mass and valenz                      
   RCORE  =    1.900    outmost cutoff radius                                   
   RWIGS  =    2.480; RWIGS  =    1.312    wigner-seitz radius (au A)           
   ENMAX  =  245.345; ENMIN  =  184.009 eV                                      
   ICORE  =        2    local potential                                         
   LCOR   =        T    correct aug charges                                     
   LPAW   =        T    paw PP                                                  
   EAUG   =  322.069                                                            
   DEXC   =    -.007                                                            
   RMAX   =    2.944    core radius for proj-oper                               
   RAUG   =    1.300    factor for augmentation sphere                          
   RDEP   =    1.993    radius for radial grids                                 
   QCUT   =   -4.246; QGAM   =    8.493    optimization parameters              
                                                                                
   Description                                                                  
     l     E      TYP  RCUT    TYP  RCUT                                        
     0   .000     23  1.900                                                     
     0   .000     23  1.900                                                     
     1   .000     23  1.900                                                     
     1   .000     23  1.900                                                     
     2   .000      7  1.900                                                     
  local pseudopotential read in
  partial core-charges read in
  atomic valenz-charges read in
  non local Contribution for L=           0  read in
    real space projection operators read in
  non local Contribution for L=           0  read in
    real space projection operators read in
  non local Contribution for L=           1  read in
    real space projection operators read in
  non local Contribution for L=           1  read in
    real space projection operators read in
    PAW grid and wavefunctions read in
 
   number of l-projection  operators is LMAX  =           4
   number of lm-projection operators is LMMAX =           8
 
 PAW_PBE Si 05Jan2001                   :
 energy of atom  1       EATOM= -103.0669
 kinetic energy error for atom=    0.0013 (will be added to EATOM!!)
 
 
 POSCAR: Si2                                     
  positions in direct lattice
  No initial velocities read in
 exchange correlation table for  LEXCH =        8
   RHO(1)=    0.500       N(1)  =     2000
   RHO(2)=  100.500       N(2)  =     4000
 


--------------------------------------------------------------------------------------------------------


 ion  position               nearest neighbor table
   1  0.750  0.250  0.500-   2 2.52   2 2.52   2 2.52   2 2.52   2 3.15   2 3.15   2 3.15   2 3.15

   2  0.500  0.500  0.000-   1 2.52   1 2.52   1 2.52   1 2.52   1 3.15   1 3.15   1 3.15   1 3.15

 
  LATTYP: Found a body centered tetragonal cell.
 ALAT       =     4.8548660000
 C/A-ratio  =     0.5507686515
  
  Lattice vectors:
  
 A1 = (  -2.4274330000,   2.4274330000,   1.3369540000)
 A2 = (   2.4274330000,  -2.4274330000,   1.3369540000)
 A3 = (   2.4274330000,   2.4274330000,  -1.3369540000)


Analysis of symmetry for initial positions (statically):
=====================================================================
 Subroutine PRICEL returns:
 Original cell was already a primitive cell.
 

 Routine SETGRP: Setting up the symmetry group for a 
 body centered tetragonal supercell.


 Subroutine GETGRP returns: Found 16 space group operations
 (whereof  8 operations were pure point group operations)
 out of a pool of 16 trial point group operations.


The static configuration has the point symmetry D_2d.
 The point group associated with its full space group is D_4h.


Analysis of symmetry for dynamics (positions and initial velocities):
=====================================================================
 Subroutine PRICEL returns:
 Original cell was already a primitive cell.
 

 Routine SETGRP: Setting up the symmetry group for a 
 body centered tetragonal supercell.


 Subroutine GETGRP returns: Found 16 space group operations
 (whereof  8 operations were pure point group operations)
 out of a pool of 16 trial point group operations.


The dynamic configuration has the point symmetry D_2d.
 The point group associated with its full space group is D_4h.


 Subroutine INISYM returns: Found 16 space group operations
 (whereof  8 operations are pure point group operations),
 and found     1 'primitive' translations

 
 
 KPOINTS: Automatic kpoint scheme                 

Automatic generation of k-mesh.
Space group operators:
 irot       det(A)        alpha          n_x          n_y          n_z        tau_x        tau_y        tau_z
    1     1.000000     0.000000     1.000000     0.000000     0.000000     0.000000     0.000000     0.000000
    2    -1.000000    90.000000    -0.000000    -0.000000    -1.000000     0.000000     0.000000     0.000000
    3     1.000000   180.000000    -0.000000     0.000000    -1.000000     0.000000     0.000000     0.000000
    4    -1.000000    90.000000     0.000000     0.000000     1.000000     0.000000     0.000000     0.000000
    5    -1.000000   180.000000    -0.000000     1.000000    -0.000000     0.000000     0.000000     0.000000
    6     1.000000   180.000000     0.707107     0.707107    -0.000000     0.000000     0.000000     0.000000
    7    -1.000000   180.000000     1.000000     0.000000     0.000000     0.000000     0.000000     0.000000
    8     1.000000   180.000000     0.707107    -0.707107     0.000000     0.000000     0.000000     0.000000
    9    -1.000000     0.000000     1.000000     0.000000     0.000000     0.250000     0.750000     0.500000
   10     1.000000    90.000000    -0.000000    -0.000000    -1.000000     0.250000     0.750000     0.500000
   11    -1.000000   180.000000    -0.000000     0.000000    -1.000000     0.250000     0.750000     0.500000
   12     1.000000    90.000000     0.000000     0.000000     1.000000     0.250000     0.750000     0.500000
   13     1.000000   180.000000    -0.000000     1.000000    -0.000000     0.250000     0.750000     0.500000
   14    -1.000000   180.000000     0.707107     0.707107    -0.000000     0.250000     0.750000     0.500000
   15     1.000000   180.000000     1.000000     0.000000     0.000000     0.250000     0.750000     0.500000
   16    -1.000000   180.000000     0.707107    -0.707107     0.000000     0.250000     0.750000     0.500000
 
 Subroutine IBZKPT returns following result:
 ===========================================
 
 Found     56 irreducible k-points:
 
 Following reciprocal coordinates:
            Coordinates               Weight
  0.062500  0.062500  0.062500    128.000000
  0.187500  0.062500  0.062500    256.000000
  0.312500  0.062500  0.062500    256.000000
  0.437500  0.062500  0.062500    128.000000
 -0.062500  0.062500  0.062500     64.000000
  0.187500  0.187500  0.062500    128.000000
  0.312500  0.187500  0.062500    256.000000
  0.437500  0.187500  0.062500    256.000000
 -0.437500  0.187500  0.062500    256.000000
 -0.312500  0.187500  0.062500    128.000000
 -0.187500  0.187500  0.062500    128.000000
 -0.062500  0.187500  0.062500    128.000000
  0.312500  0.312500  0.062500    128.000000
  0.437500  0.312500  0.062500    256.000000
 -0.437500  0.312500  0.062500    128.000000
 -0.312500  0.312500  0.062500    128.000000
 -0.187500  0.312500  0.062500    256.000000
 -0.062500  0.312500  0.062500    128.000000
  0.437500  0.437500  0.062500     64.000000
 -0.437500  0.437500  0.062500    128.000000
 -0.312500  0.437500  0.062500    256.000000
 -0.187500  0.437500  0.062500    256.000000
 -0.062500  0.437500  0.062500    128.000000
 -0.437500 -0.437500  0.062500    128.000000
 -0.312500 -0.437500  0.062500    256.000000
 -0.187500 -0.437500  0.062500    256.000000
 -0.062500 -0.437500  0.062500    128.000000
 -0.312500 -0.312500  0.062500    128.000000
 -0.187500 -0.312500  0.062500    256.000000
 -0.062500 -0.312500  0.062500    128.000000
 -0.187500 -0.187500  0.062500    128.000000
 -0.062500 -0.187500  0.062500    128.000000
 -0.062500 -0.062500  0.062500     32.000000
  0.187500  0.187500  0.187500    128.000000
  0.312500  0.187500  0.187500    128.000000
 -0.187500  0.187500  0.187500     64.000000
  0.312500  0.312500  0.187500     64.000000
 -0.312500  0.312500  0.187500    128.000000
 -0.187500  0.312500  0.187500    128.000000
 -0.437500  0.437500  0.187500    128.000000
 -0.312500  0.437500  0.187500    256.000000
 -0.187500  0.437500  0.187500    128.000000
 -0.437500 -0.437500  0.187500    128.000000
 -0.312500 -0.437500  0.187500    256.000000
 -0.187500 -0.437500  0.187500    128.000000
 -0.312500 -0.312500  0.187500    128.000000
 -0.187500 -0.312500  0.187500    128.000000
 -0.187500 -0.187500  0.187500     32.000000
 -0.312500  0.312500  0.312500     64.000000
 -0.437500  0.437500  0.312500    128.000000
 -0.312500  0.437500  0.312500    128.000000
 -0.437500 -0.437500  0.312500    128.000000
 -0.312500 -0.437500  0.312500    128.000000
 -0.312500 -0.312500  0.312500     32.000000
 -0.437500  0.437500  0.437500     64.000000
 -0.437500 -0.437500  0.437500     32.000000
 
 Following cartesian coordinates:
            Coordinates               Weight
  0.025747  0.025747  0.046748    128.000000
  0.025747  0.051495  0.093496    256.000000
  0.025747  0.077242  0.140244    256.000000
  0.025747  0.102989  0.186992    128.000000
  0.025747  0.000000  0.000000     64.000000
  0.051495  0.051495  0.140244    128.000000
  0.051495  0.077242  0.186992    256.000000
  0.051495  0.102989  0.233740    256.000000
  0.051495 -0.077242 -0.093496    256.000000
  0.051495 -0.051495 -0.046748    128.000000
  0.051495 -0.025747  0.000000    128.000000
  0.051495  0.000000  0.046748    128.000000
  0.077242  0.077242  0.233740    128.000000
  0.077242  0.102989  0.280488    256.000000
  0.077242 -0.077242 -0.046748    128.000000
  0.077242 -0.051495 -0.000000    128.000000
  0.077242 -0.025747  0.046748    256.000000
  0.077242  0.000000  0.093496    128.000000
  0.102989  0.102989  0.327236     64.000000
  0.102989 -0.077242 -0.000000    128.000000
  0.102989 -0.051495  0.046748    256.000000
  0.102989 -0.025747  0.093496    256.000000
  0.102989  0.000000  0.140244    128.000000
 -0.077242 -0.077242 -0.327236    128.000000
 -0.077242 -0.051495 -0.280488    256.000000
 -0.077242 -0.025747 -0.233740    256.000000
 -0.077242 -0.000000 -0.186992    128.000000
 -0.051495 -0.051495 -0.233740    128.000000
 -0.051495 -0.025747 -0.186992    256.000000
 -0.051495 -0.000000 -0.140244    128.000000
 -0.025747 -0.025747 -0.140244    128.000000
 -0.025747 -0.000000 -0.093496    128.000000
 -0.000000  0.000000 -0.046748     32.000000
  0.077242  0.077242  0.140244    128.000000
  0.077242  0.102989  0.186992    128.000000
  0.077242  0.000000  0.000000     64.000000
  0.102989  0.102989  0.233740     64.000000
  0.102989 -0.025747 -0.000000    128.000000
  0.102989  0.000000  0.046748    128.000000
  0.128737 -0.051495  0.000000    128.000000
  0.128737 -0.025747  0.046748    256.000000
  0.128737  0.000000  0.093496    128.000000
 -0.051495 -0.051495 -0.327236    128.000000
 -0.051495 -0.025747 -0.280488    256.000000
 -0.051495  0.000000 -0.233740    128.000000
 -0.025747 -0.025747 -0.233740    128.000000
 -0.025747  0.000000 -0.186992    128.000000
 -0.000000  0.000000 -0.140244     32.000000
  0.128737  0.000000 -0.000000     64.000000
  0.154484 -0.025747  0.000000    128.000000
  0.154484  0.000000  0.046748    128.000000
 -0.025747 -0.025747 -0.327236    128.000000
 -0.025747  0.000000 -0.280488    128.000000
 -0.000000  0.000000 -0.233740     32.000000
  0.180232  0.000000 -0.000000     64.000000
 -0.000000  0.000000 -0.327236     32.000000
 


--------------------------------------------------------------------------------------------------------




 Dimension of arrays:
   k-points           NKPTS =     56   k-points in BZ     NKDIM =     56   number of bands    NBANDS=      8
   number of dos      NEDOS =    301   number of ions     NIONS =      2
   non local maximal  LDIM  =      4   non local SUM 2l+1 LMDIM =      8
   total plane-waves  NPLWV =   5832
   max r-space proj   IRMAX =      1   max aug-charges    IRDMAX=   6387
   dimension x,y,z NGX =    18 NGY =   18 NGZ =   18
   dimension x,y,z NGXF=    36 NGYF=   36 NGZF=   36
   support grid    NGXF=    36 NGYF=   36 NGZF=   36
   ions per type =               2
   NGX,Y,Z   is equivalent  to a cutoff of   8.12,  8.12,  8.12 a.u.
   NGXF,Y,Z  is equivalent  to a cutoff of  16.25, 16.25, 16.25 a.u.

 SYSTEM =  unknown system                          
 POSCAR =  Si2                                     

 Startparameter for this run:
   NWRITE =      2    write-flag & timer
   PREC   = normal    normal or accurate (medium, high low for compatibility)
   ISTART =      0    job   : 0-new  1-cont  2-samecut
   ICHARG =      2    charge: 1-file 2-atom 10-const
   ISPIN  =      1    spin polarized calculation?
   LNONCOLLINEAR =      F non collinear calculations
   LSORBIT =      F    spin-orbit coupling
   INIWAV =      1    electr: 0-lowe 1-rand  2-diag
   LASPH  =      F    aspherical Exc in radial PAW
   METAGGA=      F    non-selfconsistent MetaGGA calc.

 Electronic Relaxation 1
   ENCUT  =  350.0 eV  25.72 Ry    5.07 a.u.   5.62  5.62  5.62*2*pi/ulx,y,z
   ENINI  =  350.0     initial cutoff
   ENAUG  =  322.1 eV  augmentation charge cutoff
   NELM   =     60;   NELMIN=  2; NELMDL= -5     # of ELM steps 
   EDIFF  = 0.4E-03   stopping-criterion for ELM
   LREAL  =      F    real-space projection
   NLSPLINE    = F    spline interpolate recip. space projectors
   LCOMPAT=      F    compatible to vasp.4.4
   GGA_COMPAT  = T    GGA compatible to vasp.4.4-vasp.4.6
   LMAXPAW     = -100 max onsite density
   LMAXMIX     =    2 max onsite mixed and CHGCAR
   VOSKOWN=      0    Vosko Wilk Nusair interpolation
   ROPT   =    0.00000
 Ionic relaxation
   EDIFFG = -.1E-01   stopping-criterion for IOM
   NSW    =     15    number of steps for IOM
   NBLOCK =      1;   KBLOCK =     15    inner block; outer block 
   IBRION =      2    ionic relax: 0-MD 1-quasi-New 2-CG
   NFREE  =      1    steps in history (QN), initial steepest desc. (CG)
   ISIF   =      2    stress and relaxation
   IWAVPR =     11    prediction:  0-non 1-charg 2-wave 3-comb
   ISYM   =      2    0-nonsym 1-usesym 2-fastsym
   LCORR  =      T    Harris-Foulkes like correction to forces

   POTIM  = 0.5000    time-step for ionic-motion
   TEIN   =    0.0    initial temperature
   TEBEG  =    0.0;   TEEND  =   0.0 temperature during run
   SMASS  =  -3.00    Nose mass-parameter (am)
   estimated Nose-frequenzy (Omega)   =  0.10E-29 period in steps =****** mass=  -0.310E-27a.u.
   SCALEE = 1.0000    scale energy and forces
   NPACO  =    256;   APACO  = 16.0  distance and # of slots for P.C.
   PSTRESS=    0.0 pullay stress

  Mass of Ions in am
   POMASS =  28.09
  Ionic Valenz
   ZVAL   =   4.00
  Atomic Wigner-Seitz radii
   RWIGS  =  -1.00
  virtual crystal weights 
   VCA    =   1.00
   NELECT =       8.0000    total number of electrons
   NUPDOWN=      -1.0000    fix difference up-down

 DOS related values:
   EMIN   =  10.00;   EMAX   =-10.00  energy-range for DOS
   EFERMI =   0.00
   ISMEAR =     0;   SIGMA  =   0.20  broadening in eV -4-tet -1-fermi 0-gaus

 Electronic relaxation 2 (details)
   IALGO  =     38    algorithm
   LDIAG  =      T    sub-space diagonalisation (order eigenvalues)
   LSUBROT=      F    optimize rotation matrix (better conditioning)
   TURBO    =      0    0=normal 1=particle mesh
   IRESTART =      0    0=no restart 2=restart with 2 vectors
   NREBOOT  =      0    no. of reboots
   NMIN     =      0    reboot dimension
   EREF     =   0.00    reference energy to select bands
   IMIX   =      4    mixing-type and parameters
     AMIX     =   0.40;   BMIX     =  1.00
     AMIX_MAG =   1.60;   BMIX_MAG =  1.00
     AMIN     =   0.10
     WC   =   100.;   INIMIX=   1;  MIXPRE=   1;  MAXMIX= -45

 Intra band minimization:
   WEIMIN = 0.0010     energy-eigenvalue tresh-hold
   EBREAK =  0.13E-04  absolut break condition
   DEPER  =   0.30     relativ break condition  

   TIME   =   0.40     timestep for ELM

  volume/ion in A,a.u.               =      15.76       106.33
  Fermi-wavevector in a.u.,A,eV,Ry     =   1.036608  1.958905 14.620221  1.074556
  Thomas-Fermi vector in A             =   2.171007
 
 Write flags
   LWAVE        =      T    write WAVECAR
   LDOWNSAMPLE  =      F    k-point downsampling of WAVECAR
   LCHARG       =      T    write CHGCAR
   LVTOT        =      F    write LOCPOT, total local potential
   LVHAR        =      F    write LOCPOT, Hartree potential only
   LELF         =      F    write electronic localiz. function (ELF)
   LORBIT       =      0    0 simple, 1 ext, 2 COOP (PROOUT), +10 PAW based schemes


 Dipole corrections
   LMONO  =      F    monopole corrections only (constant potential shift)
   LDIPOL =      F    correct potential (dipole corrections)
   IDIPOL =      0    1-x, 2-y, 3-z, 4-all directions 
   EPSILON=  1.0000000 bulk dielectric constant

 Exchange correlation treatment:
   GGA     =    --    GGA type
   LEXCH   =     8    internal setting for exchange type
   VOSKOWN=      0    Vosko Wilk Nusair interpolation
   LHFCALC =     F    Hartree Fock is set to
   LHFONE  =     F    Hartree Fock one center treatment
   AEXX    =    0.0000 exact exchange contribution

 Linear response parameters
   LEPSILON=     F    determine dielectric tensor
   LRPA    =     F    only Hartree local field effects (RPA)
   LNABLA  =     F    use nabla operator in PAW spheres
   LVEL    =     F    velocity operator in full k-point grid
   LINTERFAST=   F  fast interpolation
   KINTER  =     0    interpolate to denser k-point grid
   CSHIFT  =0.1000    complex shift for real part using Kramers Kronig
   OMEGAMAX=  -1.0    maximum frequency
   DEG_THRESHOLD= 0.2000000E-02 threshold for treating states as degnerate
   RTIME   =   -0.100 relaxation time in fs
  (WPLASMAI=    0.000 imaginary part of plasma frequency in eV, 0.658/RTIME)
   DFIELD  = 0.0000000 0.0000000 0.0000000 field for delta impulse in time
 
 Orbital magnetization related:
   ORBITALMAG=     F  switch on orbital magnetization
   LCHIMAG   =     F  perturbation theory with respect to B field
   DQ        =  0.001000  dq finite difference perturbation B field
   LLRAUG    =     F  two centre corrections for induced B field



--------------------------------------------------------------------------------------------------------


 conjugate gradient relaxation of ions
 charge density and potential will be updated during run
 non-spin polarized calculation
 Variant of blocked Davidson
 Davidson routine will perform the subspace rotation
 perform sub-space diagonalisation
    after iterative eigenvector-optimisation
 modified Broyden-mixing scheme, WC =      100.0
 initial mixing is a Kerker type mixing with AMIX =  0.4000 and BMIX =      1.0000
 Hartree-type preconditioning will be used
 using additional bands            4
 reciprocal scheme for non local part
 use partial core corrections
 calculate Harris-corrections to forces 
   (improved forces if not selfconsistent)
 use gradient corrections 
 use of overlap-Matrix (Vanderbilt PP)
 Gauss-broadening in eV      SIGMA  =   0.20


--------------------------------------------------------------------------------------------------------


  energy-cutoff  :      350.00
  volume of cell :       31.51
      direct lattice vectors                 reciprocal lattice vectors
    -2.427433000  2.427433000  1.336954000     0.000000000  0.205978909  0.373984445
     2.427433000 -2.427433000  1.336954000     0.205978909  0.000000000  0.373984445
     2.427433000  2.427433000 -1.336954000     0.205978909  0.205978909 -0.000000000

  length of vectors
     3.684061337  3.684061337  3.684061337     0.426956293  0.426956293  0.291298166


 
 k-points in units of 2pi/SCALE and weight: Automatic kpoint scheme                 
   0.02574736  0.02574736  0.04674806       0.016
   0.02574736  0.05149473  0.09349611       0.031
   0.02574736  0.07724209  0.14024417       0.031
   0.02574736  0.10298945  0.18699222       0.016
   0.02574736  0.00000000 -0.00000000       0.008
   0.05149473  0.05149473  0.14024417       0.016
   0.05149473  0.07724209  0.18699222       0.031
   0.05149473  0.10298945  0.23374028       0.031
   0.05149473 -0.07724209 -0.09349611       0.031
   0.05149473 -0.05149473 -0.04674806       0.016
   0.05149473 -0.02574736 -0.00000000       0.016
   0.05149473 -0.00000000  0.04674806       0.016
   0.07724209  0.07724209  0.23374028       0.016
   0.07724209  0.10298945  0.28048833       0.031
   0.07724209 -0.07724209 -0.04674806       0.016
   0.07724209 -0.05149473  0.00000000       0.016
   0.07724209 -0.02574736  0.04674806       0.031
   0.07724209  0.00000000  0.09349611       0.016
   0.10298945  0.10298945  0.32723639       0.008
   0.10298945 -0.07724209  0.00000000       0.016
   0.10298945 -0.05149473  0.04674806       0.031
   0.10298945 -0.02574736  0.09349611       0.031
   0.10298945  0.00000000  0.14024417       0.016
  -0.07724209 -0.07724209 -0.32723639       0.016
  -0.07724209 -0.05149473 -0.28048833       0.031
  -0.07724209 -0.02574736 -0.23374028       0.031
  -0.07724209 -0.00000000 -0.18699222       0.016
  -0.05149473 -0.05149473 -0.23374028       0.016
  -0.05149473 -0.02574736 -0.18699222       0.031
  -0.05149473 -0.00000000 -0.14024417       0.016
  -0.02574736 -0.02574736 -0.14024417       0.016
  -0.02574736 -0.00000000 -0.09349611       0.016
   0.00000000  0.00000000 -0.04674806       0.004
   0.07724209  0.07724209  0.14024417       0.016
   0.07724209  0.10298945  0.18699222       0.016
   0.07724209 -0.00000000 -0.00000000       0.008
   0.10298945  0.10298945  0.23374028       0.008
   0.10298945 -0.02574736  0.00000000       0.016
   0.10298945 -0.00000000  0.04674806       0.016
   0.12873682 -0.05149473 -0.00000000       0.016
   0.12873682 -0.02574736  0.04674806       0.031
   0.12873682 -0.00000000  0.09349611       0.016
  -0.05149473 -0.05149473 -0.32723639       0.016
  -0.05149473 -0.02574736 -0.28048833       0.031
  -0.05149473 -0.00000000 -0.23374028       0.016
  -0.02574736 -0.02574736 -0.23374028       0.016
  -0.02574736 -0.00000000 -0.18699222       0.016
  -0.00000000 -0.00000000 -0.14024417       0.004
   0.12873682  0.00000000  0.00000000       0.008
   0.15448418 -0.02574736 -0.00000000       0.016
   0.15448418  0.00000000  0.04674806       0.016
  -0.02574736 -0.02574736 -0.32723639       0.016
  -0.02574736  0.00000000 -0.28048833       0.016
   0.00000000  0.00000000 -0.23374028       0.004
   0.18023155  0.00000000  0.00000000       0.008
   0.00000000  0.00000000 -0.32723639       0.004
 
 k-points in reciprocal lattice and weights: Automatic kpoint scheme                 
   0.06250000  0.06250000  0.06250000       0.016
   0.18750000  0.06250000  0.06250000       0.031
   0.31250000  0.06250000  0.06250000       0.031
   0.43750000  0.06250000  0.06250000       0.016
  -0.06250000  0.06250000  0.06250000       0.008
   0.18750000  0.18750000  0.06250000       0.016
   0.31250000  0.18750000  0.06250000       0.031
   0.43750000  0.18750000  0.06250000       0.031
  -0.43750000  0.18750000  0.06250000       0.031
  -0.31250000  0.18750000  0.06250000       0.016
  -0.18750000  0.18750000  0.06250000       0.016
  -0.06250000  0.18750000  0.06250000       0.016
   0.31250000  0.31250000  0.06250000       0.016
   0.43750000  0.31250000  0.06250000       0.031
  -0.43750000  0.31250000  0.06250000       0.016
  -0.31250000  0.31250000  0.06250000       0.016
  -0.18750000  0.31250000  0.06250000       0.031
  -0.06250000  0.31250000  0.06250000       0.016
   0.43750000  0.43750000  0.06250000       0.008
  -0.43750000  0.43750000  0.06250000       0.016
  -0.31250000  0.43750000  0.06250000       0.031
  -0.18750000  0.43750000  0.06250000       0.031
  -0.06250000  0.43750000  0.06250000       0.016
  -0.43750000 -0.43750000  0.06250000       0.016
  -0.31250000 -0.43750000  0.06250000       0.031
  -0.18750000 -0.43750000  0.06250000       0.031
  -0.06250000 -0.43750000  0.06250000       0.016
  -0.31250000 -0.31250000  0.06250000       0.016
  -0.18750000 -0.31250000  0.06250000       0.031
  -0.06250000 -0.31250000  0.06250000       0.016
  -0.18750000 -0.18750000  0.06250000       0.016
  -0.06250000 -0.18750000  0.06250000       0.016
  -0.06250000 -0.06250000  0.06250000       0.004
   0.18750000  0.18750000  0.18750000       0.016
   0.31250000  0.18750000  0.18750000       0.016
  -0.18750000  0.18750000  0.18750000       0.008
   0.31250000  0.31250000  0.18750000       0.008
  -0.31250000  0.31250000  0.18750000       0.016
  -0.18750000  0.31250000  0.18750000       0.016
  -0.43750000  0.43750000  0.18750000       0.016
  -0.31250000  0.43750000  0.18750000       0.031
  -0.18750000  0.43750000  0.18750000       0.016
  -0.43750000 -0.43750000  0.18750000       0.016
  -0.31250000 -0.43750000  0.18750000       0.031
  -0.18750000 -0.43750000  0.18750000       0.016
  -0.31250000 -0.31250000  0.18750000       0.016
  -0.18750000 -0.31250000  0.18750000       0.016
  -0.18750000 -0.18750000  0.18750000       0.004
  -0.31250000  0.31250000  0.31250000       0.008
  -0.43750000  0.43750000  0.31250000       0.016
  -0.31250000  0.43750000  0.31250000       0.016
  -0.43750000 -0.43750000  0.31250000       0.016
  -0.31250000 -0.43750000  0.31250000       0.016
  -0.31250000 -0.31250000  0.31250000       0.004
  -0.43750000  0.43750000  0.43750000       0.008
  -0.43750000 -0.43750000  0.43750000       0.004
 
 position of ions in fractional coordinates (direct lattice) 
   0.75000000  0.25000000  0.50000000
   0.50000000  0.50000000  0.00000000
 
 position of ions in cartesian coordinates  (Angst):
   0.00000000  2.42743300  0.66847700
   0.00000000  0.00000000  1.33695400
 


--------------------------------------------------------------------------------------------------------


 k-point  1 :   0.0625 0.0625 0.0625  plane waves:     472
 k-point  2 :   0.1875 0.0625 0.0625  plane waves:     476
 k-point  3 :   0.3125 0.0625 0.0625  plane waves:     473
 k-point  4 :   0.4375 0.0625 0.0625  plane waves:     472
 k-point  5 :  -0.0625 0.0625 0.0625  plane waves:     475
 k-point  6 :   0.1875 0.1875 0.0625  plane waves:     476
 k-point  7 :   0.3125 0.1875 0.0625  plane waves:     475
 k-point  8 :   0.4375 0.1875 0.0625  plane waves:     476
 k-point  9 :  -0.4375 0.1875 0.0625  plane waves:     471
 k-point 10 :  -0.3125 0.1875 0.0625  plane waves:     471
 k-point 11 :  -0.1875 0.1875 0.0625  plane waves:     467
 k-point 12 :  -0.0625 0.1875 0.0625  plane waves:     475
 k-point 13 :   0.3125 0.3125 0.0625  plane waves:     464
 k-point 14 :   0.4375 0.3125 0.0625  plane waves:     468
 k-point 15 :  -0.4375 0.3125 0.0625  plane waves:     463
 k-point 16 :  -0.3125 0.3125 0.0625  plane waves:     465
 k-point 17 :  -0.1875 0.3125 0.0625  plane waves:     466
 k-point 18 :  -0.0625 0.3125 0.0625  plane waves:     471
 k-point 19 :   0.4375 0.4375 0.0625  plane waves:     470
 k-point 20 :  -0.4375 0.4375 0.0625  plane waves:     457
 k-point 21 :  -0.3125 0.4375 0.0625  plane waves:     462
 k-point 22 :  -0.1875 0.4375 0.0625  plane waves:     464
 k-point 23 :  -0.0625 0.4375 0.0625  plane waves:     471
 k-point 24 :  -0.4375-0.4375 0.0625  plane waves:     462
 k-point 25 :  -0.3125-0.4375 0.0625  plane waves:     469
 k-point 26 :  -0.1875-0.4375 0.0625  plane waves:     469
 k-point 27 :  -0.0625-0.4375 0.0625  plane waves:     466
 k-point 28 :  -0.3125-0.3125 0.0625  plane waves:     470
 k-point 29 :  -0.1875-0.3125 0.0625  plane waves:     470
 k-point 30 :  -0.0625-0.3125 0.0625  plane waves:     474
 k-point 31 :  -0.1875-0.1875 0.0625  plane waves:     478
 k-point 32 :  -0.0625-0.1875 0.0625  plane waves:     475
 k-point 33 :  -0.0625-0.0625 0.0625  plane waves:     464
 k-point 34 :   0.1875 0.1875 0.1875  plane waves:     475
 k-point 35 :   0.3125 0.1875 0.1875  plane waves:     478
 k-point 36 :  -0.1875 0.1875 0.1875  plane waves:     465
 k-point 37 :   0.3125 0.3125 0.1875  plane waves:     462
 k-point 38 :  -0.3125 0.3125 0.1875  plane waves:     464
 k-point 39 :  -0.1875 0.3125 0.1875  plane waves:     466
 k-point 40 :  -0.4375 0.4375 0.1875  plane waves:     466
 k-point 41 :  -0.3125 0.4375 0.1875  plane waves:     461
 k-point 42 :  -0.1875 0.4375 0.1875  plane waves:     470
 k-point 43 :  -0.4375-0.4375 0.1875  plane waves:     454
 k-point 44 :  -0.3125-0.4375 0.1875  plane waves:     466
 k-point 45 :  -0.1875-0.4375 0.1875  plane waves:     460
 k-point 46 :  -0.3125-0.3125 0.1875  plane waves:     469
 k-point 47 :  -0.1875-0.3125 0.1875  plane waves:     471
 k-point 48 :  -0.1875-0.1875 0.1875  plane waves:     488
 k-point 49 :  -0.3125 0.3125 0.3125  plane waves:     466
 k-point 50 :  -0.4375 0.4375 0.3125  plane waves:     463
 k-point 51 :  -0.3125 0.4375 0.3125  plane waves:     466
 k-point 52 :  -0.4375-0.4375 0.3125  plane waves:     470
 k-point 53 :  -0.3125-0.4375 0.3125  plane waves:     465
 k-point 54 :  -0.3125-0.3125 0.3125  plane waves:     464
 k-point 55 :  -0.4375 0.4375 0.4375  plane waves:     468
 k-point 56 :  -0.4375-0.4375 0.4375  plane waves:     480

 maximum and minimum number of plane-waves per node :       488      454

 maximum number of plane-waves:       488
 maximum index in each direction: 
   IXMAX=    6   IYMAX=    6   IZMAX=    5
   IXMIN=   -6   IYMIN=   -6   IZMIN=   -6


 serial   3D FFT for wavefunctions
 parallel 3D FFT for charge:
    minimum data exchange during FFTs selected (reduces bandwidth)


 total amount of memory used by VASP MPI-rank0    33029. kBytes
=======================================================================

   base      :      30000. kBytes
   nonl-proj :       1764. kBytes
   fftplans  :        247. kBytes
   grid      :        561. kBytes
   one-center:          6. kBytes
   wavefun   :        451. kBytes
 
     INWAV:  cpu time    0.0000: real time    0.0024
 Broyden mixing: mesh for mixing (old mesh)
   NGX = 11   NGY = 11   NGZ = 11
  (NGX  = 36   NGY  = 36   NGZ  = 36)
  gives a total of   1331 points

 initial charge density was supplied:
 charge density of overlapping atoms calculated
 number of electron       8.0000000 magnetization 
 keeping initial charge density in first step


--------------------------------------------------------------------------------------------------------


 Maximum index for augmentation-charges          879 (set IRDMAX)


--------------------------------------------------------------------------------------------------------


 First call to EWALD:  gamma=   0.561
 Maximum number of real-space cells 4x 4x 3
 Maximum number of reciprocal cells 3x 3x 3

    FEWALD:  cpu time    0.0080: real time    0.0072


--------------------------------------- Iteration      1(   1)  ---------------------------------------


    POTLOK:  cpu time    0.0360: real time    0.0507
    SETDIJ:  cpu time    0.0080: real time    0.0109
     EDDAV:  cpu time    0.7200: real time    0.7243
       DOS:  cpu time    0.0040: real time    0.0033
    --------------------------------------------
      LOOP:  cpu time    0.7680: real time    0.7903

 eigenvalue-minimisations  :   904
 total energy-change (2. order) : 0.1355206E+01  (-0.2674034E+03)
 number of electron       8.0000000 magnetization 
 augmentation part        8.0000000 magnetization 

 Free energy of the ion-electron system (eV)
  ---------------------------------------------------
  alpha Z        PSCENC =         4.27309807
  Ewald energy   TEWEN  =      -262.67538781
  -Hartree energ DENC   =        -2.42097384
  -exchange      EXHF   =         0.00000000
  -V(xc)+E(xc)   XCENC  =       -17.96833940
  PAW double counting   =        65.95520812      -30.76852678
  entropy T*S    EENTRO =        -0.01114069
  eigenvalues    EBANDS =        38.84001371
  atomic energy  EATOM  =       206.13125414
  Solvation  Ediel_sol  =         0.00000000
  ---------------------------------------------------
  free energy    TOTEN  =         1.35520552 eV

  energy without entropy =        1.36634621  energy(sigma->0) =        1.36077587


--------------------------------------------------------------------------------------------------------




--------------------------------------- Iteration      1(   2)  ---------------------------------------


     EDDAV:  cpu time    1.0320: real time    1.0418
       DOS:  cpu time    0.0000: real time    0.0034
    --------------------------------------------
      LOOP:  cpu time    1.0320: real time    1.0450

 eigenvalue-minimisations  :  1320
 total energy-change (2. order) :-0.1150066E+02  (-0.1109457E+02)
 number of electron       8.0000000 magnetization 
 augmentation part        8.0000000 magnetization 

 Free energy of the ion-electron system (eV)
  ---------------------------------------------------
  alpha Z        PSCENC =         4.27309807
  Ewald energy   TEWEN  =      -262.67538781
  -Hartree energ DENC   =        -2.42097384
  -exchange      EXHF   =         0.00000000
  -V(xc)+E(xc)   XCENC  =       -17.96833940
  PAW double counting   =        65.95520812      -30.76852678
  entropy T*S    EENTRO =        -0.02003997
  eigenvalues    EBANDS =        27.34825503
  atomic energy  EATOM  =       206.13125414
  Solvation  Ediel_sol  =         0.00000000
  ---------------------------------------------------
  free energy    TOTEN  =       -10.14545244 eV

  energy without entropy =      -10.12541247  energy(sigma->0) =      -10.13543246


--------------------------------------------------------------------------------------------------------




--------------------------------------- Iteration      1(   3)  ---------------------------------------


     EDDAV:  cpu time    0.9160: real time    0.9200
       DOS:  cpu time    0.0000: real time    0.0033
    --------------------------------------------
      LOOP:  cpu time    0.9160: real time    0.9232

 eigenvalue-minimisations  :  1152
 total energy-change (2. order) :-0.1240433E+00  (-0.1233448E+00)
 number of electron       8.0000000 magnetization 
 augmentation part        8.0000000 magnetization 

 Free energy of the ion-electron system (eV)
  ---------------------------------------------------
  alpha Z        PSCENC =         4.27309807
  Ewald energy   TEWEN  =      -262.67538781
  -Hartree energ DENC   =        -2.42097384
  -exchange      EXHF   =         0.00000000
  -V(xc)+E(xc)   XCENC  =       -17.96833940
  PAW double counting   =        65.95520812      -30.76852678
  entropy T*S    EENTRO =        -0.02030208
  eigenvalues    EBANDS =        27.22447388
  atomic energy  EATOM  =       206.13125414
  Solvation  Ediel_sol  =         0.00000000
  ---------------------------------------------------
  free energy    TOTEN  =       -10.26949571 eV

  energy without entropy =      -10.24919362  energy(sigma->0) =      -10.25934466


--------------------------------------------------------------------------------------------------------




--------------------------------------- Iteration      1(   4)  ---------------------------------------


     EDDAV:  cpu time    1.0680: real time    1.0715
       DOS:  cpu time    0.0000: real time    0.0032
    --------------------------------------------
      LOOP:  cpu time    1.0680: real time    1.0751

 eigenvalue-minimisations  :  1360
 total energy-change (2. order) :-0.4116965E-03  (-0.4114721E-03)
 number of electron       8.0000000 magnetization 
 augmentation part        8.0000000 magnetization 

 Free energy of the ion-electron system (eV)
  ---------------------------------------------------
  alpha Z        PSCENC =         4.27309807
  Ewald energy   TEWEN  =      -262.67538781
  -Hartree energ DENC   =        -2.42097384
  -exchange      EXHF   =         0.00000000
  -V(xc)+E(xc)   XCENC  =       -17.96833940
  PAW double counting   =        65.95520812      -30.76852678
  entropy T*S    EENTRO =        -0.02032884
  eigenvalues    EBANDS =        27.22408894
  atomic energy  EATOM  =       206.13125414
  Solvation  Ediel_sol  =         0.00000000
  ---------------------------------------------------
  free energy    TOTEN  =       -10.26990740 eV

  energy without entropy =      -10.24957856  energy(sigma->0) =      -10.25974298


--------------------------------------------------------------------------------------------------------




--------------------------------------- Iteration      1(   5)  ---------------------------------------


     EDDAV:  cpu time    0.9280: real time    0.9355
       DOS:  cpu time    0.0000: real time    0.0033
    CHARGE:  cpu time    0.0600: real time    0.0591
    MIXING:  cpu time    0.0000: real time    0.0096
    --------------------------------------------
      LOOP:  cpu time    0.9920: real time    1.0074

 eigenvalue-minimisations  :  1168
 total energy-change (2. order) :-0.8958088E-06  (-0.8955144E-06)
 number of electron       7.9999994 magnetization 
 augmentation part       -0.4699801 magnetization 

 Broyden mixing:
  rms(total) = 0.15416E+00    rms(broyden)= 0.15416E+00
  rms(prec ) = 0.35264E+00
  weight for this iteration     100.00

 Free energy of the ion-electron system (eV)
  ---------------------------------------------------
  alpha Z        PSCENC =         4.27309807
  Ewald energy   TEWEN  =      -262.67538781
  -Hartree energ DENC   =        -2.42097384
  -exchange      EXHF   =         0.00000000
  -V(xc)+E(xc)   XCENC  =       -17.96833940
  PAW double counting   =        65.95520812      -30.76852678
  entropy T*S    EENTRO =        -0.02032932
  eigenvalues    EBANDS =        27.22408852
  atomic energy  EATOM  =       206.13125414
  Solvation  Ediel_sol  =         0.00000000
  ---------------------------------------------------
  free energy    TOTEN  =       -10.26990830 eV

  energy without entropy =      -10.24957898  energy(sigma->0) =      -10.25974364


--------------------------------------------------------------------------------------------------------




--------------------------------------- Iteration      1(   6)  ---------------------------------------


    POTLOK:  cpu time    0.0280: real time    0.0508
    SETDIJ:  cpu time    0.0120: real time    0.0088
     EDDAV:  cpu time    0.9400: real time    0.9409
       DOS:  cpu time    0.0040: real time    0.0037
    CHARGE:  cpu time    0.0560: real time    0.0576
    MIXING:  cpu time    0.0000: real time    0.0022
    --------------------------------------------
      LOOP:  cpu time    1.0360: real time    1.0637

 eigenvalue-minimisations  :  1200
 total energy-change (2. order) : 0.6392660E-02  (-0.3604294E-03)
 number of electron       7.9999994 magnetization 
 augmentation part       -0.4716416 magnetization 

 Broyden mixing:
  rms(total) = 0.95800E-01    rms(broyden)= 0.95800E-01
  rms(prec ) = 0.21874E+00
  weight for this iteration     100.00

 eigenvalues of (default mixing * dielectric matrix)
  average eigenvalue GAMMA=   2.6325
  2.6325

 Free energy of the ion-electron system (eV)
  ---------------------------------------------------
  alpha Z        PSCENC =         4.27309807
  Ewald energy   TEWEN  =      -262.67538781
  -Hartree energ DENC   =        -2.43945371
  -exchange      EXHF   =         0.00000000
  -V(xc)+E(xc)   XCENC  =       -17.89297528
  PAW double counting   =        67.43071755      -32.27403758
  entropy T*S    EENTRO =        -0.02038006
  eigenvalues    EBANDS =        27.20364905
  atomic energy  EATOM  =       206.13125414
  Solvation  Ediel_sol  =         0.00000000
  ---------------------------------------------------
  free energy    TOTEN  =       -10.26351564 eV

  energy without entropy =      -10.24313558  energy(sigma->0) =      -10.25332561


--------------------------------------------------------------------------------------------------------




--------------------------------------- Iteration      1(   7)  ---------------------------------------


    POTLOK:  cpu time    0.0280: real time    0.0354
    SETDIJ:  cpu time    0.0080: real time    0.0089
     EDDAV:  cpu time    0.9000: real time    0.8999
       DOS:  cpu time    0.0040: real time    0.0036
    CHARGE:  cpu time    0.0560: real time    0.0562
    MIXING:  cpu time    0.0000: real time    0.0018
    --------------------------------------------
      LOOP:  cpu time    1.0000: real time    1.0057

 eigenvalue-minimisations  :  1144
 total energy-change (2. order) : 0.4498954E-02  (-0.9400498E-03)
 number of electron       7.9999994 magnetization 
 augmentation part       -0.4747759 magnetization 

 Broyden mixing:
  rms(total) = 0.50230E-02    rms(broyden)= 0.50228E-02
  rms(prec ) = 0.14503E-01
  weight for this iteration     100.00

 eigenvalues of (default mixing * dielectric matrix)
  average eigenvalue GAMMA=   2.5595
  2.5595  2.5595

 Free energy of the ion-electron system (eV)
  ---------------------------------------------------
  alpha Z        PSCENC =         4.27309807
  Ewald energy   TEWEN  =      -262.67538781
  -Hartree energ DENC   =        -2.56759125
  -exchange      EXHF   =         0.00000000
  -V(xc)+E(xc)   XCENC  =       -17.75172266
  PAW double counting   =        69.72298632      -34.61669613
  entropy T*S    EENTRO =        -0.02042969
  eigenvalues    EBANDS =        27.24547231
  atomic energy  EATOM  =       206.13125414
  Solvation  Ediel_sol  =         0.00000000
  ---------------------------------------------------
  free energy    TOTEN  =       -10.25901669 eV

  energy without entropy =      -10.23858700  energy(sigma->0) =      -10.24880184


--------------------------------------------------------------------------------------------------------




--------------------------------------- Iteration      1(   8)  ---------------------------------------


    POTLOK:  cpu time    0.0320: real time    0.0373
    SETDIJ:  cpu time    0.0080: real time    0.0087
     EDDAV:  cpu time    0.5400: real time    0.5399
       DOS:  cpu time    0.0000: real time    0.0032
    --------------------------------------------
      LOOP:  cpu time    0.5760: real time    0.5891

 eigenvalue-minimisations  :   592
 total energy-change (2. order) : 0.5168695E-04  (-0.3734096E-04)
 number of electron       7.9999994 magnetization 
 augmentation part       -0.4747759 magnetization 

 Free energy of the ion-electron system (eV)
  ---------------------------------------------------
  alpha Z        PSCENC =         4.27309807
  Ewald energy   TEWEN  =      -262.67538781
  -Hartree energ DENC   =        -2.58742158
  -exchange      EXHF   =         0.00000000
  -V(xc)+E(xc)   XCENC  =       -17.75004748
  PAW double counting   =        69.59008496      -34.48584078
  entropy T*S    EENTRO =        -0.02041887
  eigenvalues    EBANDS =        27.26571435
  atomic energy  EATOM  =       206.13125414
  Solvation  Ediel_sol  =         0.00000000
  ---------------------------------------------------
  free energy    TOTEN  =       -10.25896500 eV

  energy without entropy =      -10.23854613  energy(sigma->0) =      -10.24875556


--------------------------------------------------------------------------------------------------------




 average (electrostatic) potential at core
  the test charge radii are     0.9892
  (the norm of the test charge is              1.0000)
       1 -80.9332       2 -80.9332
 
 
 
 E-fermi :   8.7175     XC(G=0): -10.7746     alpha+bet :-15.2226


 k-point     1 :       0.0625    0.0625    0.0625
  band No.  band energies     occupation 
      1      -4.2124      2.00000
      2       4.4639      2.00000
      3       6.7280      2.00000
      4       8.2630      1.99869
      5      11.8828      0.00000
      6      13.7637      0.00000
      7      14.3295      0.00000
      8      16.1886      0.00000

 k-point     2 :       0.1875    0.0625    0.0625
  band No.  band energies     occupation 
      1      -2.9927      2.00000
      2       4.2180      2.00000
      3       7.0283      2.00000
      4       9.1956      0.00072
      5      10.8604      0.00000
      6      10.9717      0.00000
      7      13.7236      0.00000
      8      14.4889      0.00000

 k-point     3 :       0.3125    0.0625    0.0625
  band No.  band energies     occupation 
      1      -0.9900      2.00000
      2       4.5178      2.00000
      3       5.5861      2.00000
      4       7.2980      2.00000
      5       8.6558      1.33735
      6      11.7780      0.00000
      7      13.2531      0.00000
      8      13.6334      0.00000

 k-point     4 :       0.4375    0.0625    0.0625
  band No.  band energies     occupation 
      1       1.3547      2.00000
      2       2.2626      2.00000
      3       5.8180      2.00000
      4       6.2033      2.00000
      5       8.5396      1.79161
      6      10.6087      0.00000
      7      13.1555      0.00000
      8      14.0936      0.00000

 k-point     5 :      -0.0625    0.0625    0.0625
  band No.  band energies     occupation 
      1      -4.6213      2.00000
      2       5.0736      2.00000
      3       5.9189      2.00000
      4       7.9319      2.00000
      5      11.0113      0.00000
      6      14.9121      0.00000
      7      17.3995      0.00000
      8      17.4990      0.00000

 k-point     6 :       0.1875    0.1875    0.0625
  band No.  band energies     occupation 
      1      -1.1734      2.00000
      2       4.5062      2.00000
      3       6.4747      2.00000
      4       6.6661      2.00000
      5       9.6237      0.00000
      6      11.6329      0.00000
      7      12.9178      0.00000
      8      13.1099      0.00000

 k-point     7 :       0.3125    0.1875    0.0625
  band No.  band energies     occupation 
      1       1.2991      2.00000
      2       2.9965      2.00000
      3       4.3470      2.00000
      4       5.8226      2.00000
      5       9.8824      0.00000
      6      11.6175      0.00000
      7      12.6435      0.00000
      8      14.6894      0.00000

 k-point     8 :       0.4375    0.1875    0.0625
  band No.  band energies     occupation 
      1      -0.0731      2.00000
      2       2.7694      2.00000
      3       4.9461      2.00000
      4       7.3022      2.00000
      5       9.1245      0.00401
      6      11.7882      0.00000
      7      13.7100      0.00000
      8      14.6065      0.00000

 k-point     9 :      -0.4375    0.1875    0.0625
  band No.  band energies     occupation 
      1      -2.2427      2.00000
      2       2.1468      2.00000
      3       7.5749      2.00000
      4       8.8538      0.33515
      5      10.3877      0.00000
      6      11.5179      0.00000
      7      12.7255      0.00000
      8      15.0749      0.00000

 k-point    10 :      -0.3125    0.1875    0.0625
  band No.  band energies     occupation 
      1      -3.6448      2.00000
      2       2.2363      2.00000
      3       7.2360      2.00000
      4       9.1850      0.00095
      5      12.1805      0.00000
      6      13.6939      0.00000
      7      14.2396      0.00000
      8      14.8819      0.00000

 k-point    11 :      -0.1875    0.1875    0.0625
  band No.  band energies     occupation 
      1      -4.2419      2.00000
      2       3.0520      2.00000
      3       6.0371      2.00000
      4       9.1669      0.00148
      5      12.8348      0.00000
      6      12.9852      0.00000
      7      15.9259      0.00000
      8      17.2862      0.00000

 k-point    12 :      -0.0625    0.1875    0.0625
  band No.  band energies     occupation 
      1      -4.0231      2.00000
      2       4.1843      2.00000
      3       5.3995      2.00000
      4       9.7505      0.00000
      5      12.6088      0.00000
      6      12.7489      0.00000
      7      13.7886      0.00000
      8      15.7824      0.00000

 k-point    13 :       0.3125    0.3125    0.0625
  band No.  band energies     occupation 
      1       1.1594      2.00000
      2       1.2250      2.00000
      3       4.7539      2.00000
      4       7.2450      2.00000
      5       9.8642      0.00000
      6      10.6940      0.00000
      7      14.7450      0.00000
      8      15.5994      0.00000

 k-point    14 :       0.4375    0.3125    0.0625
  band No.  band energies     occupation 
      1      -1.1259      2.00000
      2       0.3453      2.00000
      3       8.1038      1.99999
      4       8.7114      1.03464
      5      10.0338      0.00000
      6      11.4316      0.00000
      7      12.5374      0.00000
      8      13.9319      0.00000

 k-point    15 :      -0.4375    0.3125    0.0625
  band No.  band energies     occupation 
      1      -2.7039      2.00000
      2       0.2584      2.00000
      3       8.0742      1.99999
      4      10.1494      0.00000
      5      10.6677      0.00000
      6      12.7546      0.00000
      7      13.8079      0.00000
      8      13.8903      0.00000

 k-point    16 :      -0.3125    0.3125    0.0625
  band No.  band energies     occupation 
      1      -3.4860      2.00000
      2       0.9470      2.00000
      3       6.7232      2.00000
      4      10.1051      0.00000
      5      10.8569      0.00000
      6      14.2011      0.00000
      7      15.8955      0.00000
      8      16.9762      0.00000

 k-point    17 :      -0.1875    0.3125    0.0625
  band No.  band energies     occupation 
      1      -3.4569      2.00000
      2       2.3619      2.00000
      3       5.5226      2.00000
      4      10.7007      0.00000
      5      11.0966      0.00000
      6      13.0067      0.00000
      7      14.7765      0.00000
      8      15.6948      0.00000

 k-point    18 :      -0.0625    0.3125    0.0625
  band No.  band energies     occupation 
      1      -2.6180      2.00000
      2       4.0466      2.00000
      3       5.4058      2.00000
      4       8.4968      1.88148
      5      11.1345      0.00000
      6      12.6897      0.00000
      7      13.3596      0.00000
      8      13.7049      0.00000

 k-point    19 :       0.4375    0.4375    0.0625
  band No.  band energies     occupation 
      1      -1.3979      2.00000
      2      -1.3979      2.00000
      3       9.2215      0.00037
      4       9.2215      0.00037
      5      11.4024      0.00000
      6      11.4024      0.00000
      7      13.6075      0.00000
      8      13.6075      0.00000

 k-point    20 :      -0.4375    0.4375    0.0625
  band No.  band energies     occupation 
      1      -2.3600      2.00000
      2      -0.8751      2.00000
      3       7.7688      2.00000
      4       9.1538      0.00204
      5      11.2185      0.00000
      6      12.5936      0.00000
      7      16.6784      0.00000
      8      16.7771      0.00000

 k-point    21 :      -0.3125    0.4375    0.0625
  band No.  band energies     occupation 
      1      -2.5187      2.00000
      2       0.4265      2.00000
      3       6.3589      2.00000
      4       9.0961      0.00742
      5      11.4492      0.00000
      6      12.9331      0.00000
      7      14.8793      0.00000
      8      15.3978      0.00000

 k-point    22 :      -0.1875    0.4375    0.0625
  band No.  band energies     occupation 
      1      -1.8722      2.00000
      2       2.4331      2.00000
      3       5.6158      2.00000
      4       7.8568      2.00000
      5       9.7183      0.00000
      6      12.5467      0.00000
      7      14.0450      0.00000
      8      15.3852      0.00000

 k-point    23 :      -0.0625    0.4375    0.0625
  band No.  band energies     occupation 
      1      -0.4425      2.00000
      2       4.0936      2.00000
      3       5.2358      2.00000
      4       6.0248      2.00000
      5       9.1890      0.00086
      6      11.5944      0.00000
      7      11.9235      0.00000
      8      15.2280      0.00000

 k-point    24 :      -0.4375   -0.4375    0.0625
  band No.  band energies     occupation 
      1      -1.2211      2.00000
      2      -1.2146      2.00000
      3       7.5610      2.00000
      4       7.5736      2.00000
      5      11.5395      0.00000
      6      13.4422      0.00000
      7      14.2853      0.00000
      8      14.8828      0.00000

 k-point    25 :      -0.3125   -0.4375    0.0625
  band No.  band energies     occupation 
      1      -0.7638      2.00000
      2       0.6895      2.00000
      3       6.5186      2.00000
      4       7.4357      2.00000
      5       8.2941      1.99725
      6      12.1975      0.00000
      7      15.1395      0.00000
      8      16.4509      0.00000

 k-point    26 :      -0.1875   -0.4375    0.0625
  band No.  band energies     occupation 
      1       0.4575      2.00000
      2       3.0864      2.00000
      3       4.2425      2.00000
      4       6.4605      2.00000
      5       8.6952      1.12534
      6      10.6379      0.00000
      7      13.1387      0.00000
      8      16.5386      0.00000

 k-point    27 :      -0.0625   -0.4375    0.0625
  band No.  band energies     occupation 
      1       0.9464      2.00000
      2       2.6717      2.00000
      3       6.2704      2.00000
      4       6.9979      2.00000
      5       7.6259      2.00000
      6      10.2230      0.00000
      7      11.6829      0.00000
      8      15.4359      0.00000

 k-point    28 :      -0.3125   -0.3125    0.0625
  band No.  band energies     occupation 
      1       1.5970      2.00000
      2       1.7693      2.00000
      3       3.9440      2.00000
      4       7.3348      2.00000
      5       7.7428      2.00000
      6      10.2600      0.00000
      7      14.9933      0.00000
      8      15.6698      0.00000

 k-point    29 :      -0.1875   -0.3125    0.0625
  band No.  band energies     occupation 
      1       0.6316      2.00000
      2       3.6737      2.00000
      3       5.0183      2.00000
      4       7.1951      2.00000
      5       8.3090      1.99613
      6      10.1221      0.00000
      7      11.7085      0.00000
      8      14.1234      0.00000

 k-point    30 :      -0.0625   -0.3125    0.0625
  band No.  band energies     occupation 
      1      -1.5446      2.00000
      2       5.8669      2.00000
      3       6.8682      2.00000
      4       7.2400      2.00000
      5       8.4882      1.89510
      6      10.9546      0.00000
      7      11.7108      0.00000
      8      13.3661      0.00000

 k-point    31 :      -0.1875   -0.1875    0.0625
  band No.  band energies     occupation 
      1      -1.7301      2.00000
      2       6.4974      2.00000
      3       7.1607      2.00000
      4       7.4537      2.00000
      5       8.8204      0.46685
      6      10.4981      0.00000
      7      11.6545      0.00000
      8      11.8796      0.00000

 k-point    32 :      -0.0625   -0.1875    0.0625
  band No.  band energies     occupation 
      1      -3.3692      2.00000
      2       6.1844      2.00000
      3       6.9226      2.00000
      4       8.7854      0.63132
      5      10.9206      0.00000
      6      11.3547      0.00000
      7      12.1245      0.00000
      8      13.8754      0.00000

 k-point    33 :      -0.0625   -0.0625    0.0625
  band No.  band energies     occupation 
      1      -4.4020      2.00000
      2       6.5579      2.00000
      3       6.5579      2.00000
      4       6.8500      2.00000
      5      10.7648      0.00000
      6      14.5632      0.00000
      7      14.6763      0.00000
      8      16.5583      0.00000

 k-point    34 :       0.1875    0.1875    0.1875
  band No.  band energies     occupation 
      1      -0.2521      2.00000
      2       2.6264      2.00000
      3       6.0421      2.00000
      4       6.1305      2.00000
      5      10.6171      0.00000
      6      12.4710      0.00000
      7      13.6933      0.00000
      8      14.1368      0.00000

 k-point    35 :       0.3125    0.1875    0.1875
  band No.  band energies     occupation 
      1       2.0633      2.00000
      2       2.8061      2.00000
      3       3.8348      2.00000
      4       4.4803      2.00000
      5      11.5471      0.00000
      6      13.4630      0.00000
      7      13.7760      0.00000
      8      13.9699      0.00000

 k-point    36 :      -0.1875    0.1875    0.1875
  band No.  band energies     occupation 
      1      -3.8643      2.00000
      2       2.8775      2.00000
      3       4.2908      2.00000
      4      10.7090      0.00000
      5      11.2956      0.00000
      6      14.0603      0.00000
      7      16.3193      0.00000
      8      16.8454      0.00000

 k-point    37 :       0.3125    0.3125    0.1875
  band No.  band energies     occupation 
      1       1.0223      2.00000
      2       1.0223      2.00000
      3       5.9208      2.00000
      4       5.9208      2.00000
      5      11.8695      0.00000
      6      11.8695      0.00000
      7      13.6860      0.00000
      8      13.6860      0.00000

 k-point    38 :      -0.3125    0.3125    0.1875
  band No.  band energies     occupation 
      1      -3.1124      2.00000
      2       1.2382      2.00000
      3       4.5143      2.00000
      4       8.6754      1.23427
      5      12.6338      0.00000
      6      15.5476      0.00000
      7      16.1467      0.00000
      8      16.9317      0.00000

 k-point    39 :      -0.1875    0.3125    0.1875
  band No.  band energies     occupation 
      1      -2.8953      2.00000
      2       2.3409      2.00000
      3       3.8440      2.00000
      4       8.8318      0.41900
      5      11.4333      0.00000
      6      14.0814      0.00000
      7      16.0834      0.00000
      8      16.4169      0.00000

 k-point    40 :      -0.4375    0.4375    0.1875
  band No.  band energies     occupation 
      1      -1.9943      2.00000
      2      -0.5269      2.00000
      3       5.5263      2.00000
      4       6.9309      2.00000
      5      13.6803      0.00000
      6      14.6819      0.00000
      7      16.2485      0.00000
      8      16.6337      0.00000

 k-point    41 :      -0.3125    0.4375    0.1875
  band No.  band energies     occupation 
      1      -1.9663      2.00000
      2       0.8942      2.00000
      3       4.2094      2.00000
      4       6.9554      2.00000
      5      11.0714      0.00000
      6      15.3968      0.00000
      7      16.4632      0.00000
      8      17.9158      0.00000

 k-point    42 :      -0.1875    0.4375    0.1875
  band No.  band energies     occupation 
      1      -1.1367      2.00000
      2       2.5749      2.00000
      3       4.1196      2.00000
      4       7.0508      2.00000
      5       7.9560      2.00000
      6      13.7960      0.00000
      7      15.1981      0.00000
      8      16.5531      0.00000

 k-point    43 :      -0.4375   -0.4375    0.1875
  band No.  band energies     occupation 
      1      -0.6928      2.00000
      2      -0.6791      2.00000
      3       5.3776      2.00000
      4       5.3992      2.00000
      5      10.9263      0.00000
      6      16.0691      0.00000
      7      16.7276      0.00000
      8      17.0495      0.00000

 k-point    44 :      -0.3125   -0.4375    0.1875
  band No.  band energies     occupation 
      1      -0.0514      2.00000
      2       1.3325      2.00000
      3       4.6236      2.00000
      4       5.8929      2.00000
      5       7.0799      2.00000
      6      13.9779      0.00000
      7      16.7366      0.00000
      8      17.7884      0.00000

 k-point    45 :      -0.1875   -0.4375    0.1875
  band No.  band energies     occupation 
      1       1.3066      2.00000
      2       3.0406      2.00000
      3       4.1971      2.00000
      4       5.1081      2.00000
      5       7.3056      2.00000
      6      11.7591      0.00000
      7      13.0745      0.00000
      8      16.7081      0.00000

 k-point    46 :      -0.3125   -0.3125    0.1875
  band No.  band energies     occupation 
      1       2.1516      2.00000
      2       2.6153      2.00000
      3       3.6746      2.00000
      4       5.8031      2.00000
      5       5.9185      2.00000
      6      12.0042      0.00000
      7      14.4570      0.00000
      8      15.2771      0.00000

 k-point    47 :      -0.1875   -0.3125    0.1875
  band No.  band energies     occupation 
      1       0.2831      2.00000
      2       4.6717      2.00000
      3       5.6043      2.00000
      4       6.6694      2.00000
      5       7.4727      2.00000
      6      10.5118      0.00000
      7      11.5575      0.00000
      8      13.0608      0.00000

 k-point    48 :      -0.1875   -0.1875    0.1875
  band No.  band energies     occupation 
      1      -1.9162      2.00000
      2       7.8446      2.00000
      3       7.8446      2.00000
      4       7.9404      2.00000
      5       8.1632      1.99991
      6       9.4771      0.00000
      7      11.3735      0.00000
      8      11.3735      0.00000

 k-point    49 :      -0.3125    0.3125    0.3125
  band No.  band energies     occupation 
      1      -2.3703      2.00000
      2       1.3838      2.00000
      3       2.9628      2.00000
      4       6.6066      2.00000
      5      14.2939      0.00000
      6      15.1767      0.00000
      7      16.7548      0.00000
      8      18.1596      0.00000

 k-point    50 :      -0.4375    0.4375    0.3125
  band No.  band energies     occupation 
      1      -1.2742      2.00000
      2       0.1242      2.00000
      3       3.4884      2.00000
      4       4.8505      2.00000
      5      14.6247      0.00000
      6      14.8130      0.00000
      7      17.7353      0.00000
      8      18.8065      0.00000

 k-point    51 :      -0.3125    0.4375    0.3125
  band No.  band energies     occupation 
      1      -1.0600      2.00000
      2       1.2169      2.00000
      3       2.8256      2.00000
      4       5.0488      2.00000
      5      10.6166      0.00000
      6      17.5695      0.00000
      7      17.9193      0.00000
      8      18.9337      0.00000

 k-point    52 :      -0.4375   -0.4375    0.3125
  band No.  band energies     occupation 
      1       0.1374      2.00000
      2       0.1612      2.00000
      3       3.5109      2.00000
      4       3.5255      2.00000
      5      10.4556      0.00000
      6      17.8101      0.00000
      7      19.0843      0.00000
      8      19.6692      0.00000

 k-point    53 :      -0.3125   -0.4375    0.3125
  band No.  band energies     occupation 
      1       0.9591      2.00000
      2       1.8311      2.00000
      3       3.4422      2.00000
      4       4.2843      2.00000
      5       6.6492      2.00000
      6      15.6556      0.00000
      7      16.8740      0.00000
      8      18.0626      0.00000

 k-point    54 :      -0.3125   -0.3125    0.3125
  band No.  band energies     occupation 
      1       2.3692      2.00000
      2       3.3343      2.00000
      3       4.0726      2.00000
      4       4.7849      2.00000
      5       4.7849      2.00000
      6      13.7419      0.00000
      7      14.2751      0.00000
      8      14.2751      0.00000

 k-point    55 :      -0.4375    0.4375    0.4375
  band No.  band energies     occupation 
      1      -0.2504      2.00000
      2       0.6286      2.00000
      3       2.2713      2.00000
      4       3.1383      2.00000
      5      14.5256      0.00000
      6      14.5636      0.00000
      7      19.9859      0.00000
      8      20.7571      0.00000

 k-point    56 :      -0.4375   -0.4375    0.4375
  band No.  band energies     occupation 
      1       0.8200      2.00000
      2       0.8586      2.00000
      3       2.4788      2.00000
      4       2.4788      2.00000
      5      10.2919      0.00000
      6      18.3248      0.00000
      7      20.2636      0.00000
      8      20.3070      0.00000


--------------------------------------------------------------------------------------------------------


 soft charge-density along one line, spin component           1
         0         1         2         3         4         5         6         7         8         9
 total charge-density along one line
 
 pseudopotential strength for first ion, spin component:           1
 18.105  -0.002   0.000  -0.000  -0.000  -0.000   0.000   0.000
 -0.002   0.005  -0.000   0.000   0.000   0.000  -0.000  -0.000
  0.000  -0.000   4.121   0.000   0.000  -0.006  -0.000  -0.000
 -0.000   0.000   0.000   4.122   0.000  -0.000  -0.006  -0.000
 -0.000   0.000   0.000   0.000   4.121  -0.000  -0.000  -0.006
 -0.000   0.000  -0.006  -0.000  -0.000   0.005   0.000   0.000
  0.000  -0.000  -0.000  -0.006  -0.000   0.000   0.005   0.000
  0.000  -0.000  -0.000  -0.000  -0.006   0.000   0.000   0.005
 total augmentation occupancy for first ion, spin component:           1
  1.624  -0.436   0.000   0.000   0.000   0.000   0.000  -0.000
 -0.436   0.840   0.000   0.000   0.000   0.000   0.000   0.000
  0.000   0.000   0.891   0.000   0.000  -0.472  -0.000   0.000
  0.000   0.000   0.000   0.832   0.000  -0.000  -0.431   0.000
 -0.000   0.000   0.000   0.000   0.891   0.000   0.000  -0.472
  0.000   0.000  -0.472  -0.000   0.000   0.326   0.000   0.000
  0.000   0.000  -0.000  -0.431   0.000   0.000   0.301   0.000
  0.000   0.000   0.000   0.000  -0.472   0.000   0.000   0.326


------------------------ aborting loop because EDIFF is reached ----------------------------------------


    CHARGE:  cpu time    0.0560: real time    0.0554
    FORLOC:  cpu time    0.0000: real time    0.0009
    FORNL :  cpu time    0.0200: real time    0.0209
    STRESS:  cpu time    0.2080: real time    0.2092
    FORCOR:  cpu time    0.0200: real time    0.0220
    FORHAR:  cpu time    0.0080: real time    0.0058
    MIXING:  cpu time    0.0000: real time    0.0014
    OFIELD:  cpu time    0.0000: real time    0.0007

  FORCE on cell =-STRESS in cart. coord.  units (eV):
  Direction    XX          YY          ZZ          XY          YZ          ZX
  --------------------------------------------------------------------------------------
  Alpha Z     4.27310     4.27310     4.27310
  Ewald     -86.96878   -86.96878   -88.73804     0.00000    -0.00000     0.00000
  Hartree     0.81644     0.81644     0.95881    -0.00000    -0.00000    -0.00000
  E(xc)     -25.25514   -25.25514   -25.11820    -0.00000     0.00000     0.00000
  Local     -14.85102   -14.85102   -11.26650    -0.00002    -0.00002    -0.00002
  n-local    77.23811    77.32823    74.92413     1.19788    -0.39226    -0.49220
  augment   -12.14350   -12.14350   -11.98203     0.00002     0.00002     0.00002
  Kinetic    54.55765    57.46408    57.04479     2.57308    -1.81230    -1.64119
  Fock        0.00000     0.00000     0.00000     0.00000     0.00000     0.00000
  -------------------------------------------------------------------------------------
  Total      -0.83486    -0.83486     0.09605     0.00000     0.00000     0.00000
  in kB     -42.44742   -42.44742     4.88377     0.00000     0.00000     0.00000
  external pressure =      -26.67 kB  Pullay stress =        0.00 kB


 VOLUME and BASIS-vectors are now :
 -----------------------------------------------------------------------------
  energy-cutoff  :      350.00
  volume of cell :       31.51
      direct lattice vectors                 reciprocal lattice vectors
    -2.427433000  2.427433000  1.336954000     0.000000000  0.205978909  0.373984445
     2.427433000 -2.427433000  1.336954000     0.205978909  0.000000000  0.373984445
     2.427433000  2.427433000 -1.336954000     0.205978909  0.205978909 -0.000000000

  length of vectors
     3.684061337  3.684061337  3.684061337     0.426956293  0.426956293  0.291298166


 FORCES acting on ions
    electron-ion (+dipol)            ewald-force                    non-local-force                 convergence-correction
 -----------------------------------------------------------------------------------------------
   -.166E-06 0.166E-06 0.531E-14   0.821E-14 0.688E-15 0.204E-14   0.276E-16 0.970E-16 0.922E-17   -.251E-08 0.251E-08 -.513E-16
   0.166E-06 -.166E-06 -.339E-13   -.821E-14 -.101E-14 -.283E-14   -.175E-16 -.799E-16 0.503E-18   0.251E-08 -.251E-08 0.115E-16
 -----------------------------------------------------------------------------------------------
   -.189E-13 0.225E-13 -.286E-13   0.912E-17 -.323E-15 -.789E-15   0.101E-16 0.171E-16 0.972E-17   -.423E-16 -.182E-16 -.398E-16
 
 
 POSITION                                       TOTAL-FORCE (eV/Angst)
 -----------------------------------------------------------------------------------
      0.00000      2.42743      0.66848         0.000000      0.000000     -0.000000
      0.00000      0.00000      1.33695        -0.000000     -0.000000      0.000000
 -----------------------------------------------------------------------------------
    total drift:                               -0.000000      0.000000     -0.000000


--------------------------------------------------------------------------------------------------------



  FREE ENERGIE OF THE ION-ELECTRON SYSTEM (eV)
  ---------------------------------------------------
  free  energy   TOTEN  =       -10.25896500 eV

  energy  without entropy=      -10.23854613  energy(sigma->0) =      -10.24875556
 


--------------------------------------------------------------------------------------------------------


    POTLOK:  cpu time    0.0400: real time    0.0506


--------------------------------------------------------------------------------------------------------




--------------------------------------------------------------------------------------------------------


  
 reached required accuracy - stopping structural energy minimisation
 writing wavefunctions
     LOOP+:  cpu time    8.9360: real time    9.9632
    4ORBIT:  cpu time    0.0000: real time    0.0000

 total amount of memory used by VASP MPI-rank0    33029. kBytes
=======================================================================

   base      :      30000. kBytes
   nonl-proj :       1764. kBytes
   fftplans  :        247. kBytes
   grid      :        561. kBytes
   one-center:          6. kBytes
   wavefun   :        451. kBytes
 
  
  
 General timing and accounting informations for this job:
 ========================================================
  
                  Total CPU time used (sec):       13.472
                            User time (sec):       12.032
                          System time (sec):        1.440
                         Elapsed time (sec):       16.895
  
                   Maximum memory used (kb):        9824.
                   Average memory used (kb):           0.
  
                          Minor page faults:        38194
                          Major page faults:           34
                 Voluntary context switches:        39539
