unknown system                          
           1
    -2.427433    2.427433    1.336954
     2.427433   -2.427433    1.336954
     2.427433    2.427433   -1.336954
   Si
   2
Direct configuration=     1
   0.75000000  0.25000000  0.50000000
   0.50000000  0.50000000  0.00000000
