unknown system                          
   1.00000000000000     
     0.000000    2.715000    2.715000
     2.715000    0.000000    2.715000
     2.715000    2.715000    0.000000
   Si
     2
Direct
  0.500000  0.500000  0.500000
  0.750000  0.750000  0.750000
 
   32   32   32
 0.88302232726E+00 0.90345366643E+00 0.96659107606E+00 0.10775729713E+01 0.12439213782E+01
 0.14745037625E+01 0.17785667337E+01 0.21644880463E+01 0.26375035182E+01 0.31959691716E+01
 0.38267732516E+01 0.45016425745E+01 0.51763968348E+01 0.57944299934E+01 0.62943648493E+01
 0.66205379936E+01 0.67339242418E+01 0.66204910536E+01 0.62943197026E+01 0.57944340543E+01
 0.51764530830E+01 0.45017155115E+01 0.38268255758E+01 0.31959865207E+01 0.26374926129E+01
 0.21644634084E+01 0.17785413481E+01 0.14744857480E+01 0.12439135718E+01 0.10775738221E+01
 0.96659632442E+00 0.90345813148E+00 0.90345366643E+00 0.93843009629E+00 0.10114801108E+01
 0.11281113844E+01 0.12951815211E+01 0.15198186165E+01 0.18084151386E+01 0.21653821476E+01
 0.25911570371E+01 0.30792825254E+01 0.36131835370E+01 0.41640704102E+01 0.46915592998E+01
 0.51478796347E+01 0.54852644303E+01 0.56648775439E+01 0.56648830058E+01 0.54852646916E+01
 0.51478544647E+01 0.46915240903E+01 0.41640630074E+01 0.36132131841E+01 0.30793140685E+01
 0.25911530441E+01 0.21653457565E+01 0.18083809028E+01 0.15198111645E+01 0.12951958333E+01
 0.11281289872E+01 0.10114907341E+01 0.93843437258E+00 0.90345472897E+00 0.96659107606E+00
 0.10114801108E+01 0.10904901891E+01 0.12088951725E+01 0.13724140216E+01 0.15862084150E+01
 0.18539668274E+01 0.21767855068E+01 0.25515164865E+01 0.29685865946E+01 0.34098995301E+01
 0.38479794117E+01 0.42475474200E+01 0.45700091940E+01 0.47801330753E+01 0.48531491921E+01
 0.47801365389E+01 0.45700226863E+01 0.42475725524E+01 0.38480032936E+01 0.34099026641E+01
 0.29685634122E+01 0.25514817153E+01 0.21767562088E+01 0.18539466469E+01 0.15861957844E+01
 0.13724140953E+01 0.12089104030E+01 0.10905076347E+01 0.10114844311E+01 0.96658588254E+00
 0.95207653949E+00 0.10775729713E+01 0.11281113844E+01 0.12088951725E+01 0.13245404341E+01
 0.14794466385E+01 0.16769604156E+01 0.19185920862E+01 0.22030377222E+01 0.25248202786E+01
 0.28726971451E+01 0.32284614379E+01 0.35670843127E+01 0.38589694313E+01 0.40743503551E+01
 0.41888929795E+01 0.41888831770E+01 0.40743344152E+01 0.38589739138E+01 0.35671173412E+01
 0.32284944606E+01 0.28726890560E+01 0.25247640499E+01 0.22029718278E+01 0.19185592659E+01
 0.16769667406E+01 0.14794684485E+01 0.13245572208E+01 0.12089023365E+01 0.11281110695E+01
 0.10775686891E+01 0.10534067040E+01 0.10534092606E+01 0.12439213782E+01 0.12951815211E+01
 0.13724140216E+01 0.14794466385E+01 0.16195207844E+01 0.17946413334E+01 0.20048681125E+01
 0.22473922884E+01 0.25154017243E+01 0.27970252906E+01 0.30749414368E+01 0.33273167351E+01
 0.35304159669E+01 0.36625634279E+01 0.37084654084E+01 0.36625812279E+01 0.35304193652E+01
 0.33272853264E+01 0.30748916810E+01 0.27969855585E+01 0.25153788385E+01 0.22473752143E+01
 0.20048539279E+01 0.17946414786E+01 0.16195425227E+01 0.14794795905E+01 0.13724387319E+01
 0.12951868489E+01 0.12439119108E+01 0.12149545465E+01 0.12056361157E+01 0.12149649003E+01
 0.14745037625E+01 0.15198186165E+01 0.15862084150E+01 0.16769604156E+01 0.17946413334E+01
 0.19405433619E+01 0.21139473154E+01 0.23111961704E+01 0.25248191934E+01 0.27430873493E+01
 0.29503818924E+01 0.31286496465E+01 0.32599580653E+01 0.33297220573E+01 0.33297307000E+01
 0.32599785615E+01 0.31286621981E+01 0.29503602383E+01 0.27430297742E+01 0.25247641166E+01
 0.23111879034E+01 0.21139877659E+01 0.19405931895E+01 0.17946674697E+01 0.16769655180E+01
 0.15862110476E+01 0.15198227066E+01 0.14745000594E+01 0.14467990726E+01 0.14338015709E+01
 0.14338084159E+01 0.14468110083E+01 0.17785667337E+01 0.18084151386E+01 0.18539668274E+01
 0.19185920862E+01 0.20048681125E+01 0.21139473154E+01 0.22447456712E+01 0.23931364223E+01
 0.25515156961E+01 0.27090240375E+01 0.28524903335E+01 0.29680377608E+01 0.30432174141E+01
 0.30693191722E+01 0.30432130692E+01 0.29680442682E+01 0.28525131143E+01 0.27090505893E+01
 0.25515344787E+01 0.23931491505E+01 0.22447583066E+01 0.21139613585E+01 0.20048813960E+01
 0.19185974240E+01 0.18539532167E+01 0.18083831153E+01 0.17785374642E+01 0.17607761007E+01
 0.17517346335E+01 0.17490066772E+01 0.17517270745E+01 0.17607829257E+01 0.21644880463E+01
 0.21653821476E+01 0.21767855068E+01 0.22030377222E+01 0.22473922884E+01 0.23111961704E+01
 0.23931364223E+01 0.24888550557E+01 0.25911564224E+01 0.26907891347E+01 0.27776152021E+01
 0.28420021191E+01 0.28763218142E+01 0.28763272200E+01 0.28420129662E+01 0.27776238628E+01
 0.26908004001E+01 0.25911848612E+01 0.24888994511E+01 0.23931654170E+01 0.23111773928E+01
 0.22473333898E+01 0.22029787064E+01 0.21767501314E+01 0.21653599868E+01 0.21644674840E+01
 0.21693883345E+01 0.21756879061E+01 0.21798248230E+01 0.21798186469E+01 0.21756819711E+01
 0.21693984656E+01 0.26375035182E+01 0.25911570371E+01 0.25515164865E+01 0.25248202786E+01
 0.25154017243E+01 0.25248191934E+01 0.25515156961E+01 0.25911564224E+01 0.26375014963E+01
 0.26834900683E+01 0.27222721319E+01 0.27481135776E+01 0.27571818511E+01 0.27481278888E+01
 0.27222994700E+01 0.26835156474E+01 0.26375017253E+01 0.25911234477E+01 0.25514668386E+01
 0.25247743010E+01 0.25153599606E+01 0.25247695150E+01 0.25514596249E+01 0.25911154210E+01
 0.26374933311E+01 0.26835085185E+01 0.27222959909E+01 0.27481281295E+01 0.27571836848E+01
 0.27481159191E+01 0.27222753793E+01 0.26834935446E+01 0.31959691716E+01 0.30792825254E+01
 0.29685865946E+01 0.28726971451E+01 0.27970252906E+01 0.27430873493E+01 0.27090240375E+01
 0.26907891347E+01 0.26834900683E+01 0.26824716326E+01 0.26839681315E+01 0.26853848124E+01
 0.26853958571E+01 0.26839932764E+01 0.26824966976E+01 0.26835018362E+01 0.26907665629E+01
 0.27089482762E+01 0.27429780608E+01 0.27969419165E+01 0.28726797434E+01 0.29686118238E+01
 0.30793002916E+01 0.31959659811E+01 0.33078052258E+01 0.34036839335E+01 0.34737519912E+01
 0.35107142725E+01 0.35107007055E+01 0.34737219950E+01 0.34036617245E+01 0.33078042441E+01
 0.38267732516E+01 0.36131835370E+01 0.34098995301E+01 0.32284614379E+01 0.30749414368E+01
 0.29503818924E+01 0.28524903335E+01 0.27776152021E+01 0.27222721319E+01 0.26839681315E+01
 0.26613483139E+01 0.26538687022E+01 0.26613796911E+01 0.26839848202E+01 0.27222515363E+01
 0.27775771651E+01 0.28524478053E+01 0.29503268744E+01 0.30748851650E+01 0.32284375033E+01
 0.34099175542E+01 0.36132215766E+01 0.38268176714E+01 0.40349888254E+01 0.42202775582E+01
 0.43662078292E+01 0.44595089807E+01 0.44916102705E+01 0.44595276932E+01 0.43662061200E+01
 0.42202395973E+01 0.40349383626E+01 0.45016425745E+01 0.41640704102E+01 0.38479794117E+01
 0.35670843127E+01 0.33273167351E+01 0.31286496465E+01 0.29680377608E+01 0.28420021191E+01
 0.27481135776E+01 0.26853848124E+01 0.26538687022E+01 0.26538801197E+01 0.26854006404E+01
 0.27481020266E+01 0.28419526256E+01 0.29679652805E+01 0.31285843475E+01 0.33272930153E+01
 0.35671119795E+01 0.38480212938E+01 0.41640832822E+01 0.45016402690E+01 0.48397399910E+01
 0.51528882181E+01 0.54150875345E+01 0.56037242980E+01 0.57023702309E+01 0.57024027439E+01
 0.56037709850E+01 0.54150767643E+01 0.51528355251E+01 0.48397105734E+01 0.51763968348E+01
 0.46915592998E+01 0.42475474200E+01 0.38589694313E+01 0.35304159669E+01 0.32599580653E+01
 0.30432174141E+01 0.28763218142E+01 0.27571818511E+01 0.26853958571E+01 0.26613796911E+01
 0.26854006404E+01 0.27571712024E+01 0.28762809219E+01 0.30431542033E+01 0.32598931754E+01
 0.35303664520E+01 0.38589481201E+01 0.42475653484E+01 0.46916119478E+01 0.51764504763E+01
 0.56764830095E+01 0.61575998321E+01 0.65821294850E+01 0.69145151056E+01 0.71261774877E+01
 0.71988245435E+01 0.71261956288E+01 0.69145624835E+01 0.65821956396E+01 0.61576440067E+01
 0.56764723082E+01 0.57944299934E+01 0.51478796347E+01 0.45700091940E+01 0.40743503551E+01
 0.36625634279E+01 0.33297220573E+01 0.30693191722E+01 0.28763272200E+01 0.27481278888E+01
 0.26839932764E+01 0.26839848202E+01 0.27481020266E+01 0.28762809219E+01 0.30692546207E+01
 0.33296592370E+01 0.36625256027E+01 0.40743354731E+01 0.45700021358E+01 0.51478907843E+01
 0.57944787366E+01 0.64813494390E+01 0.71664841918E+01 0.77995871126E+01 0.83293767361E+01
 0.87106827283E+01 0.89101546468E+01 0.89101612506E+01 0.87107239711E+01 0.83294634661E+01
 0.77996635658E+01 0.71664866468E+01 0.64812927786E+01 0.62943648493E+01 0.54852644303E+01
 0.47801330753E+01 0.41888929795E+01 0.37084654084E+01 0.33297307000E+01 0.30432130692E+01
 0.28420129662E+01 0.27222994700E+01 0.26824966976E+01 0.27222515363E+01 0.28419526256E+01
 0.30431542033E+01 0.33296592370E+01 0.37083950405E+01 0.41888730616E+01 0.47801796998E+01
 0.54853269916E+01 0.62943856412E+01 0.71792791235E+01 0.80930008744E+01 0.89740007685E+01
 0.97541289108E+01 0.10367712655E+02 0.10760144286E+02 0.10895185608E+02 0.10760127039E+02
 0.10367687475E+02 0.97541097263E+01 0.89740021758E+01 0.80930255720E+01 0.71793009075E+01
 0.66205379936E+01 0.56648775439E+01 0.48531491921E+01 0.41888831770E+01 0.36625812279E+01
 0.32599785615E+01 0.29680442682E+01 0.27776238628E+01 0.26835156474E+01 0.26835018362E+01
 0.27775771651E+01 0.29679652805E+01 0.32598931754E+01 0.36625256027E+01 0.41888730616E+01
 0.48531753627E+01 0.56649236376E+01 0.66205832319E+01 0.76961616884E+01 0.88441005222E+01
 0.99958802533E+01 0.11069003029E+02 0.11976173475E+02 0.12635751845E+02 0.12983387608E+02
 0.12983306915E+02 0.12635579510E+02 0.11976045432E+02 0.11068987904E+02 0.99959340599E+01
 0.88441395585E+01 0.76961491043E+01 0.67339242418E+01 0.56648830058E+01 0.47801365389E+01
 0.40743344152E+01 0.35304193652E+01 0.31286621981E+01 0.28525131143E+01 0.26908004001E+01
 0.26375017253E+01 0.26907665629E+01 0.28524478053E+01 0.31285843475E+01 0.35303664520E+01
 0.40743354731E+01 0.47801796998E+01 0.56649236376E+01 0.67339312327E+01 0.79715020840E+01
 0.93350778403E+01 0.10755442029E+02 0.12141812164E+02 0.13389158216E+02 0.14387481939E+02
 0.15035156819E+02 0.15259383435E+02 0.15035046243E+02 0.14387330968E+02 0.13389037307E+02
 0.12141744292E+02 0.10755418516E+02 0.93350852868E+01 0.79715181715E+01 0.66204910536E+01
 0.54852646916E+01 0.45700226863E+01 0.38589739138E+01 0.33272853264E+01 0.29503602383E+01
 0.27090505893E+01 0.25911848612E+01 0.25911234477E+01 0.27089482762E+01 0.29503268744E+01
 0.33272930153E+01 0.38589481201E+01 0.45700021358E+01 0.54853269916E+01 0.66205832319E+01
 0.79715020840E+01 0.95058865523E+01 0.11161247409E+02 0.12847338417E+02 0.14450234392E+02
 0.15834687318E+02 0.16852098275E+02 0.17389806225E+02 0.17389818624E+02 0.16852077436E+02
 0.15834543237E+02 0.14449994978E+02 0.12847161221E+02 0.11161240064E+02 0.95059641624E+01
 0.79715031408E+01 0.62943197026E+01 0.51478544647E+01 0.42475725524E+01 0.35671173412E+01
 0.30748916810E+01 0.27430297742E+01 0.25515344787E+01 0.24888994511E+01 0.25514668386E+01
 0.27429780608E+01 0.30748851650E+01 0.35671119795E+01 0.42475653484E+01 0.51478907843E+01
 0.62943856412E+01 0.76961616884E+01 0.93350778403E+01 0.11161247409E+02 0.13093710943E+02
 0.15021559722E+02 0.16791433944E+02 0.18213918287E+02 0.19134262658E+02 0.19452619418E+02
 0.19134175698E+02 0.18213814086E+02 0.16791334615E+02 0.15021435071E+02 0.13093585252E+02
 0.11161187254E+02 0.93350708527E+01 0.76961300990E+01 0.57944340543E+01 0.46915240903E+01
 0.38480032936E+01 0.32284944606E+01 0.27969855585E+01 0.25247641166E+01 0.23931491505E+01
 0.23931654170E+01 0.25247743010E+01 0.27969419165E+01 0.32284375033E+01 0.38480212938E+01
 0.46916119478E+01 0.57944787366E+01 0.71792791235E+01 0.88441005222E+01 0.10755442029E+02
 0.12847338417E+02 0.15021559722E+02 0.17125942715E+02 0.18944240793E+02 0.20281666880E+02
 0.20991077304E+02 0.20990985459E+02 0.20281529770E+02 0.18944247143E+02 0.17126027704E+02
 0.15021516075E+02 0.12847149888E+02 0.10755300587E+02 0.88441079169E+01 0.71793222303E+01
 0.51764530830E+01 0.41640630074E+01 0.34099026641E+01 0.28726890560E+01 0.25153788385E+01
 0.23111879034E+01 0.22447583066E+01 0.23111773928E+01 0.25153599606E+01 0.28726797434E+01
 0.34099175542E+01 0.41640832822E+01 0.51764504763E+01 0.64813494390E+01 0.80930008744E+01
 0.99958802533E+01 0.12141812164E+02 0.14450234392E+02 0.16791433944E+02 0.18944240793E+02
 0.20682308811E+02 0.21815326690E+02 0.22209447347E+02 0.21815369954E+02 0.20682343714E+02
 0.18944231035E+02 0.16791387694E+02 0.14450168397E+02 0.12141737407E+02 0.99958218430E+01
 0.80929845441E+01 0.64813631451E+01 0.45017155115E+01 0.36132131841E+01 0.29685634122E+01
 0.25247640499E+01 0.22473752143E+01 0.21139877659E+01 0.21139613585E+01 0.22473333898E+01
 0.25247695150E+01 0.29686118238E+01 0.36132215766E+01 0.45016402690E+01 0.56764830095E+01
 0.71664841918E+01 0.89740007685E+01 0.11069003029E+02 0.13389158216E+02 0.15834687318E+02
 0.18213918287E+02 0.20281666880E+02 0.21815326690E+02 0.22634749180E+02 0.22634819517E+02
 0.21815418174E+02 0.20281617466E+02 0.18213779879E+02 0.15834621425E+02 0.13389173611E+02
 0.11068982936E+02 0.89739284608E+01 0.71664678755E+01 0.56765615733E+01 0.38268255758E+01
 0.30793140685E+01 0.25514817153E+01 0.22029718278E+01 0.20048539279E+01 0.19405931895E+01
 0.20048813960E+01 0.22029787064E+01 0.25514596249E+01 0.30793002916E+01 0.38268176714E+01
 0.48397399910E+01 0.61575998321E+01 0.77995871126E+01 0.97541289108E+01 0.11976173475E+02
 0.14387481939E+02 0.16852098275E+02 0.19134262658E+02 0.20991077304E+02 0.22209447347E+02
 0.22634819517E+02 0.22209475377E+02 0.20991101827E+02 0.19134261156E+02 0.16852065988E+02
 0.14387414141E+02 0.11976089350E+02 0.97540908702E+01 0.77996343187E+01 0.61576859642E+01
 0.48397889494E+01 0.31959865207E+01 0.25911530441E+01 0.21767562088E+01 0.19185592659E+01
 0.17946414786E+01 0.17946674697E+01 0.19185974240E+01 0.21767501314E+01 0.25911154210E+01
 0.31959659811E+01 0.40349888254E+01 0.51528882181E+01 0.65821294850E+01 0.83293767361E+01
 0.10367712655E+02 0.12635751845E+02 0.15035156819E+02 0.17389806225E+02 0.19452619418E+02
 0.20990985459E+02 0.21815369954E+02 0.21815418174E+02 0.20991101827E+02 0.19452731284E+02
 0.17389839258E+02 0.15035093349E+02 0.12635656978E+02 0.10367683837E+02 0.83294431727E+01
 0.65822251684E+01 0.51529382364E+01 0.40349974934E+01 0.26374926129E+01 0.21653457565E+01
 0.18539466469E+01 0.16769667406E+01 0.16195425227E+01 0.16769655180E+01 0.18539532167E+01
 0.21653599868E+01 0.26374933311E+01 0.33078052258E+01 0.42202775582E+01 0.54150875345E+01
 0.69145151056E+01 0.87106827283E+01 0.10760144286E+02 0.12983387608E+02 0.15259383435E+02
 0.17389818624E+02 0.19134175698E+02 0.20281529770E+02 0.20682343714E+02 0.20281617466E+02
 0.19134261156E+02 0.17389839258E+02 0.15259367708E+02 0.12983391157E+02 0.10760180044E+02
 0.87107331157E+01 0.69145764348E+01 0.54151638114E+01 0.42203490829E+01 0.33078424581E+01
 0.21644634084E+01 0.18083809028E+01 0.15861957844E+01 0.14794684485E+01 0.14794795905E+01
 0.15862110476E+01 0.18083831153E+01 0.21644674840E+01 0.26835085185E+01 0.34036839335E+01
 0.43662078292E+01 0.56037242980E+01 0.71261774877E+01 0.89101546468E+01 0.10895185608E+02
 0.12983306915E+02 0.15035046243E+02 0.16852077436E+02 0.18213814086E+02 0.18944247143E+02
 0.18944231035E+02 0.18213779879E+02 0.16852065988E+02 0.15035093349E+02 0.12983391157E+02
 0.10895248658E+02 0.89101855581E+01 0.71262301458E+01 0.56038255694E+01 0.43663038852E+01
 0.34037200276E+01 0.26835028345E+01 0.17785413481E+01 0.15198111645E+01 0.13724140953E+01
 0.13245572208E+01 0.13724387319E+01 0.15198227066E+01 0.17785374642E+01 0.21693883345E+01
 0.27222959909E+01 0.34737519912E+01 0.44595089807E+01 0.57023702309E+01 0.71988245435E+01
 0.89101612506E+01 0.10760127039E+02 0.12635579510E+02 0.14387330968E+02 0.15834543237E+02
 0.16791334615E+02 0.17126027704E+02 0.16791387694E+02 0.15834621425E+02 0.14387414141E+02
 0.12635656978E+02 0.10760180044E+02 0.89101855581E+01 0.71988580160E+01 0.57024448511E+01
 0.44595887630E+01 0.34737785241E+01 0.27222761616E+01 0.21693752641E+01 0.14744857480E+01
 0.12951958333E+01 0.12089104030E+01 0.12089023365E+01 0.12951868489E+01 0.14745000594E+01
 0.17607761007E+01 0.21756879061E+01 0.27481281295E+01 0.35107142725E+01 0.44916102705E+01
 0.57024027439E+01 0.71261956288E+01 0.87107239711E+01 0.10367687475E+02 0.11976045432E+02
 0.13389037307E+02 0.14449994978E+02 0.15021435071E+02 0.15021516075E+02 0.14450168397E+02
 0.13389173611E+02 0.11976089350E+02 0.10367683837E+02 0.87107331157E+01 0.71262301458E+01
 0.57024448511E+01 0.44916471430E+01 0.35107384121E+01 0.27481269738E+01 0.21756583762E+01
 0.17607401666E+01 0.12439135718E+01 0.11281289872E+01 0.10905076347E+01 0.11281110695E+01
 0.12439119108E+01 0.14467990726E+01 0.17517346335E+01 0.21798248230E+01 0.27571836848E+01
 0.35107007055E+01 0.44595276932E+01 0.56037709850E+01 0.69145624835E+01 0.83294634661E+01
 0.97541097263E+01 0.11068987904E+02 0.12141744292E+02 0.12847161221E+02 0.13093585252E+02
 0.12847149888E+02 0.12141737407E+02 0.11068982936E+02 0.97540908702E+01 0.83294431727E+01
 0.69145764348E+01 0.56038255694E+01 0.44595887630E+01 0.35107384121E+01 0.27571942229E+01
 0.21798105307E+01 0.17517010316E+01 0.14467708691E+01 0.10775738221E+01 0.10114907341E+01
 0.10114844311E+01 0.10775686891E+01 0.12149545465E+01 0.14338015709E+01 0.17490066772E+01
 0.21798186469E+01 0.27481159191E+01 0.34737219950E+01 0.43662061200E+01 0.54150767643E+01
 0.65821956396E+01 0.77996635658E+01 0.89740021758E+01 0.99959340599E+01 0.10755418516E+02
 0.11161240064E+02 0.11161187254E+02 0.10755300587E+02 0.99958218430E+01 0.89739284608E+01
 0.77996343187E+01 0.65822251684E+01 0.54151638114E+01 0.43663038852E+01 0.34737785241E+01
 0.27481269738E+01 0.21798105307E+01 0.17489914610E+01 0.14337810549E+01 0.12149425585E+01
 0.96659632442E+00 0.93843437258E+00 0.96658588254E+00 0.10534067040E+01 0.12056361157E+01
 0.14338084159E+01 0.17517270745E+01 0.21756819711E+01 0.27222753793E+01 0.34036617245E+01
 0.42202395973E+01 0.51528355251E+01 0.61576440067E+01 0.71664866468E+01 0.80930255720E+01
 0.88441395585E+01 0.93350852868E+01 0.95059641624E+01 0.93350708527E+01 0.88441079169E+01
 0.80929845441E+01 0.71664678755E+01 0.61576859642E+01 0.51529382364E+01 0.42203490829E+01
 0.34037200276E+01 0.27222761616E+01 0.21756583762E+01 0.17517010316E+01 0.14337810549E+01
 0.12056152085E+01 0.10534055165E+01 0.90345813148E+00 0.90345472897E+00 0.95207653949E+00
 0.10534092606E+01 0.12149649003E+01 0.14468110083E+01 0.17607829257E+01 0.21693984656E+01
 0.26834935446E+01 0.33078042441E+01 0.40349383626E+01 0.48397105734E+01 0.56764723082E+01
 0.64812927786E+01 0.71793009075E+01 0.76961491043E+01 0.79715181715E+01 0.79715031408E+01
 0.76961300990E+01 0.71793222303E+01 0.64813631451E+01 0.56765615733E+01 0.48397889494E+01
 0.40349974934E+01 0.33078424581E+01 0.26835028345E+01 0.21693752641E+01 0.17607401666E+01
 0.14467708691E+01 0.12149425585E+01 0.10534055165E+01 0.95208193132E+00 0.90345625815E+00
 0.93843276247E+00 0.10114816833E+01 0.11281124567E+01 0.12951832937E+01 0.15198205695E+01
 0.18084161250E+01 0.21653826882E+01 0.25911582204E+01 0.30792837683E+01 0.36131837889E+01
 0.41640704513E+01 0.46915604679E+01 0.51478813683E+01 0.54852654537E+01 0.56648784304E+01
 0.56648852206E+01 0.54852681352E+01 0.51478581932E+01 0.46915282274E+01 0.41640674932E+01
 0.36132157644E+01 0.30793121115E+01 0.25911466312E+01 0.21653369640E+01 0.18083712287E+01
 0.15198018272E+01 0.12951891324E+01 0.11281265983E+01 0.10114914615E+01 0.93843586920E+00
 0.90345649231E+00 0.93843276247E+00 0.98182960352E+00 0.10584368763E+01 0.11736076489E+01
 0.13331483555E+01 0.15422763186E+01 0.18046528474E+01 0.21212670999E+01 0.24888551942E+01
 0.28978144753E+01 0.33301980641E+01 0.37589549881E+01 0.41495729271E+01 0.44645018358E+01
 0.46695864970E+01 0.47408381806E+01 0.46695949936E+01 0.44644872276E+01 0.41495345772E+01
 0.37589367656E+01 0.33302208690E+01 0.28978346262E+01 0.24888208651E+01 0.21211922379E+01
 0.18046004689E+01 0.15422792457E+01 0.13331792872E+01 0.11736272070E+01 0.10584400289E+01
 0.98183283909E+00 0.93843941868E+00 0.92443373263E+00 0.10114816833E+01 0.10584368763E+01
 0.11340921601E+01 0.12432896668E+01 0.13906012781E+01 0.15794095302E+01 0.18111071925E+01
 0.20842056192E+01 0.23931367506E+01 0.27268283226E+01 0.30676289011E+01 0.33915051124E+01
 0.36702465009E+01 0.38756591535E+01 0.39848098907E+01 0.39848105132E+01 0.38756620508E+01
 0.36702553095E+01 0.33915215970E+01 0.30676434327E+01 0.27268228565E+01 0.23931049266E+01
 0.20841642913E+01 0.18110806263E+01 0.15794067743E+01 0.13906140753E+01 0.12433056457E+01
 0.11341025858E+01 0.10584375681E+01 0.10114755960E+01 0.98915855548E+00 0.98916235001E+00
 0.11281124567E+01 0.11736076489E+01 0.12432896668E+01 0.13413402566E+01 0.14711809515E+01
 0.16347467819E+01 0.18318732543E+01 0.20595881274E+01 0.23111973782E+01 0.25753746946E+01
 0.28358097203E+01 0.30720689280E+01 0.32620138888E+01 0.33854882496E+01 0.34283310742E+01
 0.33854606998E+01 0.32620008146E+01 0.30720946912E+01 0.28358440505E+01 0.25753697758E+01
 0.23111493743E+01 0.20595419435E+01 0.18318674679E+01 0.16347728832E+01 0.14712034903E+01
 0.13413414449E+01 0.12432804837E+01 0.11736039315E+01 0.11281163636E+01 0.11027813192E+01
 0.10946876792E+01 0.11027767390E+01 0.12951832937E+01 0.13331483555E+01 0.13906012781E+01
 0.14711809515E+01 0.15775187656E+01 0.17106965999E+01 0.18697328877E+01 0.20509677303E+01
 0.22473928014E+01 0.24482117263E+01 0.26390667947E+01 0.28033043529E+01 0.29243332553E+01
 0.29886444946E+01 0.29886387081E+01 0.29243245288E+01 0.28033028307E+01 0.26390642695E+01
 0.24481926891E+01 0.22473599428E+01 0.20509420855E+01 0.18697292927E+01 0.17107099148E+01
 0.15775342979E+01 0.14711893062E+01 0.13906015396E+01 0.13331442446E+01 0.12951794092E+01
 0.12727664310E+01 0.12625352136E+01 0.12625353005E+01 0.12727678819E+01 0.15198205695E+01
 0.15422763186E+01 0.15794095302E+01 0.16347467819E+01 0.17106965999E+01 0.18080874008E+01
 0.19256674683E+01 0.20595874489E+01 0.22030370142E+01 0.23462739436E+01 0.24772751786E+01
 0.25831482478E+01 0.26522015768E+01 0.26762172500E+01 0.26522268462E+01 0.25831798031E+01
 0.24772823157E+01 0.23462433628E+01 0.22029971747E+01 0.20595825675E+01 0.19257029557E+01
 0.18081225915E+01 0.17106983624E+01 0.16347283441E+01 0.15794030582E+01 0.15422858432E+01
 0.15198221638E+01 0.15079259206E+01 0.15027101228E+01 0.15013322416E+01 0.15027321733E+01
 0.15079450442E+01 0.18084161250E+01 0.18046528474E+01 0.18111071925E+01 0.18318732543E+01
 0.18697328877E+01 0.19256674683E+01 0.19984168065E+01 0.20842056797E+01 0.21767852491E+01
 0.22678708271E+01 0.23480117197E+01 0.24078986122E+01 0.24399764393E+01 0.24399865700E+01
 0.24079224692E+01 0.23480325074E+01 0.22678745606E+01 0.21767780658E+01 0.20842096117E+01
 0.19984415095E+01 0.19256962188E+01 0.18697447158E+01 0.18318682838E+01 0.18110992989E+01
 0.18046471784E+01 0.18084071122E+01 0.18175245036E+01 0.18270951053E+01 0.18330483647E+01
 0.18330533432E+01 0.18271079163E+01 0.18175386096E+01 0.21653826882E+01 0.21212670999E+01
 0.20842056192E+01 0.20595881274E+01 0.20509677303E+01 0.20595874489E+01 0.20842056797E+01
 0.21212679290E+01 0.21653829570E+01 0.22100130902E+01 0.22483272972E+01 0.22742123396E+01
 0.22833669641E+01 0.22742224212E+01 0.22483286766E+01 0.22100018129E+01 0.21653797733E+01
 0.21212839671E+01 0.20842180292E+01 0.20595688852E+01 0.20509296635E+01 0.20595693133E+01
 0.20842191732E+01 0.21212842776E+01 0.21653767929E+01 0.22099956106E+01 0.22483218337E+01
 0.22742165906E+01 0.22833620113E+01 0.22742086285E+01 0.22483258122E+01 0.22100131599E+01
 0.25911582204E+01 0.24888551942E+01 0.23931367506E+01 0.23111973782E+01 0.22473928014E+01
 0.22030370142E+01 0.21767852491E+01 0.21653829570E+01 0.21644884359E+01 0.21693982596E+01
 0.21756834794E+01 0.21798231375E+01 0.21798308887E+01 0.21756943617E+01 0.21693954489E+01
 0.21644742572E+01 0.21653636519E+01 0.21767497719E+01 0.22029762959E+01 0.22473301130E+01
 0.23111721011E+01 0.23931577869E+01 0.24888913551E+01 0.25911774415E+01 0.26907930580E+01
 0.27776172790E+01 0.28420097199E+01 0.28763280376E+01 0.28763243229E+01 0.28420044996E+01
 0.27776179552E+01 0.26907922456E+01 0.30792837683E+01 0.28978144753E+01 0.27268283226E+01
 0.25753746946E+01 0.24482117263E+01 0.23462739436E+01 0.22678708271E+01 0.22100130902E+01
 0.21693982596E+01 0.21429679183E+01 0.21282240503E+01 0.21235010911E+01 0.21282156929E+01
 0.21429672536E+01 0.21694103476E+01 0.22100052667E+01 0.22677960985E+01 0.23461414603E+01
 0.24481097073E+01 0.25753857507E+01 0.27269334391E+01 0.28979186083E+01 0.30793272436E+01
 0.32584747472E+01 0.34203779682E+01 0.35497770790E+01 0.36334524470E+01 0.36624035085E+01
 0.36334367712E+01 0.35497573291E+01 0.34203703963E+01 0.32584708493E+01 0.36131837889E+01
 0.33301980641E+01 0.30676289011E+01 0.28358097203E+01 0.26390667947E+01 0.24772751786E+01
 0.23480117197E+01 0.22483272972E+01 0.21756834794E+01 0.21282240503E+01 0.21047667814E+01
 0.21047523860E+01 0.21282012253E+01 0.21756791162E+01 0.22483177261E+01 0.23479326765E+01
 0.24771146352E+01 0.26389250378E+01 0.28358157342E+01 0.30677933973E+01 0.33303968751E+01
 0.36132987709E+01 0.39001534486E+01 0.41699128477E+01 0.43994375188E+01 0.45669012624E+01
 0.46552909897E+01 0.46552816927E+01 0.45668768214E+01 0.43994142514E+01 0.41699038853E+01
 0.39001245754E+01 0.41640704513E+01 0.37589549881E+01 0.33915051124E+01 0.30720689280E+01
 0.28033043529E+01 0.25831482478E+01 0.24078986122E+01 0.22742123396E+01 0.21798231375E+01
 0.21235010911E+01 0.21047523860E+01 0.21234859691E+01 0.21798178489E+01 0.22741890313E+01
 0.24077803843E+01 0.25829327742E+01 0.28031290039E+01 0.30720866096E+01 0.33917107389E+01
 0.37591914481E+01 0.41642036147E+01 0.45874479776E+01 0.50013649952E+01 0.53730740292E+01
 0.56689336278E+01 0.58597725535E+01 0.59257413153E+01 0.58597834430E+01 0.56689320748E+01
 0.53730605490E+01 0.50013569944E+01 0.45874146712E+01 0.46915604679E+01 0.41495729271E+01
 0.36702465009E+01 0.32620138888E+01 0.29243332553E+01 0.26522015768E+01 0.24399764393E+01
 0.22833669641E+01 0.21798308887E+01 0.21282156929E+01 0.21282012253E+01 0.21798178489E+01
 0.22833572758E+01 0.24398689343E+01 0.26519405454E+01 0.29240747153E+01 0.32619983683E+01
 0.36705082564E+01 0.41498915501E+01 0.46917180852E+01 0.52755748423E+01 0.58683514767E+01
 0.64267849271E+01 0.69028340265E+01 0.72507773757E+01 0.74346747926E+01 0.74346937155E+01
 0.72508103178E+01 0.69028531614E+01 0.64268112831E+01 0.58684065095E+01 0.52755862622E+01
 0.51478813683E+01 0.44645018358E+01 0.38756591535E+01 0.33854882496E+01 0.29886444946E+01
 0.26762172500E+01 0.24399865700E+01 0.22742224212E+01 0.21756943617E+01 0.21429672536E+01
 0.21756791162E+01 0.22741890313E+01 0.24398689343E+01 0.26759621380E+01 0.29883724850E+01
 0.33854419145E+01 0.38759241102E+01 0.44648773575E+01 0.51480980477E+01 0.59068179547E+01
 0.67048938494E+01 0.74900030973E+01 0.81989245524E+01 0.87659521682E+01 0.91330912972E+01
 0.92602638495E+01 0.91331099767E+01 0.87659669392E+01 0.81989408024E+01 0.74900628480E+01
 0.67049895838E+01 0.59068243949E+01 0.54852654537E+01 0.46695864970E+01 0.39848098907E+01
 0.34283310742E+01 0.29886387081E+01 0.26522268462E+01 0.24079224692E+01 0.22483286766E+01
 0.21693954489E+01 0.21694103476E+01 0.22483177261E+01 0.24077803843E+01 0.26519405454E+01
 0.29883724850E+01 0.34283154839E+01 0.39851031956E+01 0.46699835605E+01 0.54854921000E+01
 0.64180519364E+01 0.74325455777E+01 0.84712088447E+01 0.94575931277E+01 0.10305020915E+02
 0.10928644625E+02 0.11259804278E+02 0.11259800438E+02 0.10928618104E+02 0.10304964921E+02
 0.94575608780E+01 0.84712722559E+01 0.74326732827E+01 0.64180749732E+01 0.56648784304E+01
 0.47408381806E+01 0.39848105132E+01 0.33854606998E+01 0.29243245288E+01 0.25831798031E+01
 0.23480325074E+01 0.22100018129E+01 0.21644742572E+01 0.22100052667E+01 0.23479326765E+01
 0.25829327742E+01 0.29240747153E+01 0.33854419145E+01 0.39851031956E+01 0.47412562646E+01
 0.56651319817E+01 0.67519130023E+01 0.79725851002E+01 0.92697991518E+01 0.10559203868E+02
 0.11736104619E+02 0.12687324111E+02 0.13308465252E+02 0.13524634045E+02 0.13308431068E+02
 0.12687236680E+02 0.11735996234E+02 0.10559178092E+02 0.92699258049E+01 0.79727736256E+01
 0.67519464786E+01 0.56648852206E+01 0.46695949936E+01 0.38756620508E+01 0.32620008146E+01
 0.28033028307E+01 0.24772823157E+01 0.22678745606E+01 0.21653797733E+01 0.21653636519E+01
 0.22677960985E+01 0.24771146352E+01 0.28031290039E+01 0.32619983683E+01 0.38759241102E+01
 0.46699835605E+01 0.56651319817E+01 0.68680787842E+01 0.82608075780E+01 0.97932832482E+01
 0.11381389937E+02 0.12910101174E+02 0.14242230224E+02 0.15235219123E+02 0.15767291626E+02
 0.15767276120E+02 0.15235174279E+02 0.14242160645E+02 0.12910034434E+02 0.11381397949E+02
 0.97934200968E+01 0.82609914567E+01 0.68681061127E+01 0.54852681352E+01 0.44644872276E+01
 0.36702553095E+01 0.30720946912E+01 0.26390642695E+01 0.23462433628E+01 0.21767780658E+01
 0.21212839671E+01 0.21767497719E+01 0.23461414603E+01 0.26389250378E+01 0.30720866096E+01
 0.36705082564E+01 0.44648773575E+01 0.54854921000E+01 0.67519130023E+01 0.82608075780E+01
 0.99757917288E+01 0.11821929841E+02 0.13684837112E+02 0.15414155241E+02 0.16835291838E+02
 0.17775776134E+02 0.18105390670E+02 0.17775742575E+02 0.16835295707E+02 0.15414179438E+02
 0.13684796907E+02 0.11821868422E+02 0.99758644922E+01 0.82610088375E+01 0.67519944972E+01
 0.51478581932E+01 0.41495345772E+01 0.33915215970E+01 0.28358440505E+01 0.24481926891E+01
 0.22029971747E+01 0.20842096117E+01 0.20842180292E+01 0.22029762959E+01 0.24481097073E+01
 0.28358157342E+01 0.33917107389E+01 0.41498915501E+01 0.51480980477E+01 0.64180519364E+01
 0.79725851002E+01 0.97932832482E+01 0.11821929841E+02 0.13955958284E+02 0.16046486885E+02
 0.17901992013E+02 0.19305334936E+02 0.20062331237E+02 0.20062309250E+02 0.19305347079E+02
 0.17902105948E+02 0.16046580439E+02 0.13955900906E+02 0.11821835759E+02 0.97933678175E+01