unknown system                          
   1.00000000000000     
     0.000000    2.732979    2.732979
     2.732979    0.000000    2.732979
     2.732979    2.732979   -0.000000
   Si
     2
Direct
  0.500000  0.500000  0.500000
  0.750000  0.750000  0.750000
 
   32   32   32
 0.85226362713E+00 0.87354847346E+00 0.93863936122E+00 0.10512160688E+01 0.12173262451E+01
 0.14451454317E+01 0.17442670318E+01 0.21240710831E+01 0.25908221613E+01 0.31435800861E+01
 0.37696906376E+01 0.44412856211E+01 0.51144863672E+01 0.57326153806E+01 0.62336994408E+01
 0.65611451012E+01 0.66750882659E+01 0.65611432847E+01 0.62336974955E+01 0.57326134693E+01
 0.51144827428E+01 0.44412797950E+01 0.37696843988E+01 0.31435749778E+01 0.25908182738E+01
 0.21240686255E+01 0.17442667229E+01 0.14451468705E+01 0.12173279786E+01 0.10512175978E+01
 0.93864116670E+00 0.87355005053E+00 0.87354847346E+00 0.91028093361E+00 0.98575775693E+00
 0.11038506126E+01 0.12700105979E+01 0.14908345319E+01 0.17732431680E+01 0.21229060699E+01
 0.25416642998E+01 0.30241320038E+01 0.35542926584E+01 0.41034433255E+01 0.46309029482E+01
 0.50882904337E+01 0.54270391904E+01 0.56075565636E+01 0.56075577972E+01 0.54270400463E+01
 0.50882844736E+01 0.46308868188E+01 0.41034239579E+01 0.35542847224E+01 0.30241434256E+01
 0.25416853366E+01 0.21229177667E+01 0.17732373740E+01 0.14908211757E+01 0.12700037739E+01
 0.11038525005E+01 0.98576029599E+00 0.91027949033E+00 0.87354683774E+00 0.93863936122E+00
 0.98575775693E+00 0.10669397474E+01 0.11858705680E+01 0.13471815499E+01 0.15559176142E+01
 0.18166381167E+01 0.21318955553E+01 0.24999855796E+01 0.29122657307E+01 0.33508709076E+01
 0.37879977164E+01 0.41877693190E+01 0.45109563313E+01 0.47217768685E+01 0.47950733412E+01
 0.47217785018E+01 0.45109584664E+01 0.41877706285E+01 0.37879975116E+01 0.33508692746E+01
 0.29122632998E+01 0.24999832477E+01 0.21318940858E+01 0.18166377622E+01 0.15559181206E+01
 0.13471824344E+01 0.11858712789E+01 0.10669398035E+01 0.98575713157E+00 0.93863868494E+00
 0.92320727881E+00 0.10512160688E+01 0.11038506126E+01 0.11858705680E+01 0.13006158460E+01
 0.14519414633E+01 0.16435917647E+01 0.18782101985E+01 0.21558686170E+01 0.24721714897E+01
 0.28163307319E+01 0.31699715080E+01 0.35075523150E+01 0.37989592716E+01 0.40141067006E+01
 0.41285464536E+01 0.41285465016E+01 0.40141069440E+01 0.37989616947E+01 0.35075605984E+01
 0.31699844236E+01 0.28163379244E+01 0.24721620777E+01 0.21558451562E+01 0.18781892882E+01
 0.16435879670E+01 0.14519533097E+01 0.13006300259E+01 0.11858769894E+01 0.11038496896E+01
 0.10512132864E+01 0.10255353007E+01 0.10255364686E+01 0.12173262451E+01 0.12700105979E+01
 0.13471815499E+01 0.14519414633E+01 0.15876098608E+01 0.17569669689E+01 0.19611777114E+01
 0.21984212113E+01 0.24624160908E+01 0.27412741832E+01 0.30172900533E+01 0.32682036862E+01
 0.34700777492E+01 0.36013236487E+01 0.36468753598E+01 0.36013235545E+01 0.34700771208E+01
 0.32682021695E+01 0.30172877445E+01 0.27412715012E+01 0.24624135363E+01 0.21984193194E+01
 0.19611769581E+01 0.17569674351E+01 0.15876110026E+01 0.14519423857E+01 0.13471816064E+01
 0.12700097755E+01 0.12173250783E+01 0.11867123587E+01 0.11766757653E+01 0.11867131736E+01
 0.14451454317E+01 0.14908345319E+01 0.15559176142E+01 0.16435917647E+01 0.17569669689E+01
 0.18981720175E+01 0.20672619113E+01 0.22610573662E+01 0.24721720339E+01 0.26886145693E+01
 0.28943653914E+01 0.30711296206E+01 0.32010812310E+01 0.32700022977E+01 0.32700018475E+01
 0.32010807870E+01 0.30711292626E+01 0.28943616800E+01 0.26886046396E+01 0.24721604709E+01
 0.22610551405E+01 0.20672755958E+01 0.18981948712E+01 0.17569830869E+01 0.16435901376E+01
 0.15559018095E+01 0.14908183392E+01 0.14451394281E+01 0.14161918295E+01 0.14021595649E+01
 0.14021569325E+01 0.14161889917E+01 0.17442670318E+01 0.17732431680E+01 0.18166381167E+01
 0.18782101985E+01 0.19611777114E+01 0.20672619113E+01 0.21957209097E+01 0.23425357025E+01
 0.24999855688E+01 0.26568932148E+01 0.27997235615E+01 0.29144608671E+01 0.29888816779E+01
 0.30146705406E+01 0.29888831675E+01 0.29144635802E+01 0.27997267914E+01 0.26568960781E+01
 0.24999875979E+01 0.23425369690E+01 0.21957216031E+01 0.20672620941E+01 0.19611774299E+01
 0.18782094657E+01 0.18166367883E+01 0.17732411869E+01 0.17442648094E+01 0.17262252804E+01
 0.17164652166E+01 0.17133867932E+01 0.17164661184E+01 0.17262270494E+01 0.21240710831E+01
 0.21229060699E+01 0.21318955553E+01 0.21558686170E+01 0.21984212113E+01 0.22610573662E+01
 0.23425357025E+01 0.24385162712E+01 0.25416637351E+01 0.26423636887E+01 0.27300495572E+01
 0.27948770819E+01 0.28293188475E+01 0.28293212103E+01 0.27948824091E+01 0.27300547196E+01
 0.26423680999E+01 0.25416698880E+01 0.24385249966E+01 0.23425412296E+01 0.22610501125E+01
 0.21983986324E+01 0.21558425007E+01 0.21318840373E+01 0.21229157543E+01 0.21240896973E+01
 0.21303044064E+01 0.21371104553E+01 0.21413292384E+01 0.21413322962E+01 0.21371123176E+01
 0.21302942666E+01 0.25908221613E+01 0.25416642998E+01 0.24999855796E+01 0.24721714897E+01
 0.24624160908E+01 0.24721720339E+01 0.24999855688E+01 0.25416637351E+01 0.25908221445E+01
 0.26398641003E+01 0.26812593100E+01 0.27087874839E+01 0.27184250429E+01 0.27087897150E+01
 0.26812619159E+01 0.26398658314E+01 0.25908227585E+01 0.25416622174E+01 0.24999805110E+01
 0.24721640621E+01 0.24624077652E+01 0.24721646099E+01 0.24999805070E+01 0.25416616627E+01
 0.25908227544E+01 0.26398663792E+01 0.26812619168E+01 0.27087891698E+01 0.27184250519E+01
 0.27087880467E+01 0.26812593257E+01 0.26398635674E+01 0.31435800861E+01 0.30241320038E+01
 0.29122657307E+01 0.28163307319E+01 0.27412741832E+01 0.26886145693E+01 0.26568932148E+01
 0.26423636887E+01 0.26398641003E+01 0.26438546773E+01 0.26494449104E+01 0.26531324685E+01
 0.26531326686E+01 0.26494439914E+01 0.26438518523E+01 0.26398618830E+01 0.26423617319E+01
 0.26568854210E+01 0.26885994039E+01 0.27412630659E+01 0.28163368788E+01 0.29122858767E+01
 0.30241476836E+01 0.31435783024E+01 0.32596326255E+01 0.33603107532E+01 0.34345163124E+01
 0.34738556502E+01 0.34738557663E+01 0.34345203276E+01 0.33603228058E+01 0.32596465437E+01
 0.37696906376E+01 0.35542926584E+01 0.33508709076E+01 0.31699715080E+01 0.30172900533E+01
 0.28943653914E+01 0.27997235615E+01 0.27300495572E+01 0.26812593100E+01 0.26494449104E+01
 0.26315739899E+01 0.26258169017E+01 0.26315738905E+01 0.26494426531E+01 0.26812554751E+01
 0.27300470178E+01 0.27997225004E+01 0.28943637059E+01 0.30172885261E+01 0.31699732550E+01
 0.33508756458E+01 0.35542967843E+01 0.37696931314E+01 0.39820074174E+01 0.41733372909E+01
 0.43256542790E+01 0.44237564805E+01 0.44576187527E+01 0.44237563957E+01 0.43256520677E+01
 0.41733333888E+01 0.39820043253E+01 0.44412856211E+01 0.41034433255E+01 0.37879977164E+01
 0.35075523150E+01 0.32682036862E+01 0.30711296206E+01 0.29144608671E+01 0.27948770819E+01
 0.27087874839E+01 0.26531324685E+01 0.26258169017E+01 0.26258160577E+01 0.26531303242E+01
 0.27087848009E+01 0.27948741626E+01 0.29144580708E+01 0.30711296386E+01 0.32682105740E+01
 0.35075644589E+01 0.37880044656E+01 0.41034356281E+01 0.44412698978E+01 0.47819925908E+01
 0.51006246452E+01 0.53700841540E+01 0.55655106727E+01 0.56681944406E+01 0.56681889551E+01
 0.55654944390E+01 0.53700630270E+01 0.51006126519E+01 0.47819987869E+01 0.51144863672E+01
 0.46309029482E+01 0.41877693190E+01 0.37989592716E+01 0.34700777492E+01 0.32010812310E+01
 0.29888816779E+01 0.28293188475E+01 0.27184250429E+01 0.26531326686E+01 0.26315738905E+01
 0.26531303242E+01 0.27184198938E+01 0.28293119922E+01 0.29888757233E+01 0.32010780904E+01
 0.34700781415E+01 0.37989638437E+01 0.41877779097E+01 0.46309129128E+01 0.51144939908E+01
 0.56148943591E+01 0.60995664478E+01 0.65306572374E+01 0.68706498059E+01 0.70883014548E+01
 0.71632043609E+01 0.70883049302E+01 0.68706537696E+01 0.65306592531E+01 0.60995659085E+01
 0.56148906336E+01 0.57326153806E+01 0.50882904337E+01 0.45109563313E+01 0.40141067006E+01
 0.36013236487E+01 0.32700022977E+01 0.30146705406E+01 0.28293212103E+01 0.27087897150E+01
 0.26494439914E+01 0.26494426531E+01 0.27087848009E+01 0.28293119922E+01 0.30146597234E+01
 0.32699953832E+01 0.36013235832E+01 0.40141106998E+01 0.45109609228E+01 0.50882986913E+01
 0.57326341699E+01 0.64177218856E+01 0.71042065718E+01 0.77428050240E+01 0.82807736179E+01
 0.86699727744E+01 0.88742097638E+01 0.88742241033E+01 0.86700049649E+01 0.82807995858E+01
 0.77428064459E+01 0.71041848386E+01 0.64176940494E+01 0.62336994408E+01 0.54270391904E+01
 0.47217768685E+01 0.41285464536E+01 0.36468753598E+01 0.32700018475E+01 0.29888831675E+01
 0.27948824091E+01 0.26812619159E+01 0.26438518523E+01 0.26812554751E+01 0.27948741626E+01
 0.29888757233E+01 0.32699953832E+01 0.36468731501E+01 0.41285533785E+01 0.47217919430E+01
 0.54270561293E+01 0.62337147353E+01 0.71157179634E+01 0.80295490481E+01 0.89159845403E+01
 0.97061841903E+01 0.10331149830E+02 0.10732299946E+02 0.10870576179E+02 0.10732301940E+02
 0.10331154527E+02 0.97061879826E+01 0.89159814631E+01 0.80295383714E+01 0.71157039477E+01
 0.65611451012E+01 0.56075565636E+01 0.47950733412E+01 0.41285465016E+01 0.36013235545E+01
 0.32010807870E+01 0.29144635802E+01 0.27300547196E+01 0.26398658314E+01 0.26398618830E+01
 0.27300470178E+01 0.29144580708E+01 0.32010780904E+01 0.36013235832E+01 0.41285533785E+01
 0.47950897270E+01 0.56075785178E+01 0.65611661977E+01 0.76337527905E+01 0.87820687551E+01
 0.99412241078E+01 0.11028797799E+02 0.11953687371E+02 0.12628810243E+02 0.12985375928E+02
 0.12985360764E+02 0.12628783135E+02 0.11953678350E+02 0.11028810755E+02 0.99412383590E+01
 0.87820683316E+01 0.76337385277E+01 0.66750882659E+01 0.56075577972E+01 0.47217785018E+01
 0.40141069440E+01 0.34700771208E+01 0.30711292626E+01 0.27997267914E+01 0.26423680999E+01
 0.25908227585E+01 0.26423617319E+01 0.27997225004E+01 0.30711296386E+01 0.34700781415E+01
 0.40141106998E+01 0.47217919430E+01 0.56075785178E+01 0.66751056382E+01 0.79101896217E+01
 0.92751835404E+01 0.10706083569E+02 0.12113387053E+02 0.13387750731E+02 0.14411705025E+02
 0.15077424264E+02 0.15308237487E+02 0.15077425469E+02 0.14411712747E+02 0.13387761856E+02
 0.12113391078E+02 0.10706078065E+02 0.92751749258E+01 0.79101789617E+01 0.65611432847E+01
 0.54270400463E+01 0.45109584664E+01 0.37989616947E+01 0.32682021695E+01 0.28943616800E+01
 0.26568960781E+01 0.25416698880E+01 0.25416622174E+01 0.26568854210E+01 0.28943637059E+01
 0.32682105740E+01 0.37989638437E+01 0.45109609228E+01 0.54270561293E+01 0.65611661977E+01
 0.79101896217E+01 0.94470418127E+01 0.11115809859E+02 0.12829238508E+02 0.14469322588E+02
 0.15892473650E+02 0.16941455356E+02 0.17496158433E+02 0.17496170660E+02 0.16941479850E+02
 0.15892486319E+02 0.14469313241E+02 0.12829221389E+02 0.11115802864E+02 0.94470410247E+01
 0.79101779300E+01 0.62336974955E+01 0.50882844736E+01 0.41877706285E+01 0.35075605984E+01
 0.30172877445E+01 0.26886046396E+01 0.24999875979E+01 0.24385249966E+01 0.24999805110E+01
 0.26885994039E+01 0.30172885261E+01 0.35075644589E+01 0.41877779097E+01 0.50882986913E+01
 0.62337147353E+01 0.76337527905E+01 0.92751835404E+01 0.11115809859E+02 0.13079766659E+02
 0.15053256171E+02 0.16875099046E+02 0.18342854821E+02 0.19291671106E+02 0.19619435757E+02
 0.19291661420E+02 0.18342844048E+02 0.16875090916E+02 0.15053247485E+02 0.13079757826E+02
 0.11115804867E+02 0.92751794184E+01 0.76337417205E+01 0.57326134693E+01 0.46308868188E+01
 0.37879975116E+01 0.31699844236E+01 0.27412715012E+01 0.24721604709E+01 0.23425369690E+01
 0.23425412296E+01 0.24721640621E+01 0.27412630659E+01 0.31699732550E+01 0.37880044656E+01
 0.46309129128E+01 0.57326341699E+01 0.71157179634E+01 0.87820687551E+01 0.10706083569E+02
 0.12829238508E+02 0.15053256171E+02 0.17219298608E+02 0.19095151148E+02 0.20471712948E+02
 0.21199231770E+02 0.21199213962E+02 0.20471680164E+02 0.19095134736E+02 0.17219297937E+02
 0.15053249554E+02 0.12829223787E+02 0.10706079542E+02 0.87820787676E+01 0.71157196984E+01
 0.51144827428E+01 0.41034239579E+01 0.33508692746E+01 0.28163379244E+01 0.24624135363E+01
 0.22610551405E+01 0.21957216031E+01 0.22610501125E+01 0.24624077652E+01 0.28163368788E+01
 0.33508756458E+01 0.41034356281E+01 0.51144939908E+01 0.64177218856E+01 0.80295490481E+01
 0.99412241078E+01 0.12113387053E+02 0.14469322588E+02 0.16875099046E+02 0.19095151148E+02
 0.20883336376E+02 0.22042786206E+02 0.22444390320E+02 0.22042770865E+02 0.20883313507E+02
 0.19095131503E+02 0.16875090245E+02 0.14469325760E+02 0.12113397462E+02 0.99412343617E+01
 0.80295528587E+01 0.64177169076E+01 0.44412797950E+01 0.35542847224E+01 0.29122632998E+01
 0.24721620777E+01 0.21984193194E+01 0.20672755958E+01 0.20672620941E+01 0.21983986324E+01
 0.24721646099E+01 0.29122858767E+01 0.35542967843E+01 0.44412698978E+01 0.56148943591E+01
 0.71042065718E+01 0.89159845403E+01 0.11028797799E+02 0.13387750731E+02 0.15892473650E+02
 0.18342854821E+02 0.20471712948E+02 0.22042786206E+02 0.22877369731E+02 0.22877366347E+02
 0.22042766981E+02 0.20471674833E+02 0.18342826258E+02 0.15892484987E+02 0.13387789214E+02
 0.11028821673E+02 0.89159793100E+01 0.71041984229E+01 0.56149035576E+01 0.37696843988E+01
 0.30241434256E+01 0.24999832477E+01 0.21558451562E+01 0.19611769581E+01 0.18981948712E+01
 0.19611774299E+01 0.21558425007E+01 0.24999805070E+01 0.30241476836E+01 0.37696931314E+01
 0.47819925908E+01 0.60995664478E+01 0.77428050240E+01 0.97061841903E+01 0.11953687371E+02
 0.14411705025E+02 0.16941455356E+02 0.19291671106E+02 0.21199231770E+02 0.22444390320E+02
 0.22877366347E+02 0.22444377696E+02 0.21199208419E+02 0.19291648345E+02 0.16941447986E+02
 0.14411715490E+02 0.11953705561E+02 0.97062021589E+01 0.77428209157E+01 0.60995759825E+01
 0.47819906231E+01 0.31435749778E+01 0.25416853366E+01 0.21318940858E+01 0.18781892882E+01
 0.17569674351E+01 0.17569830869E+01 0.18782094657E+01 0.21318840373E+01 0.25416616627E+01
 0.31435783024E+01 0.39820074174E+01 0.51006246452E+01 0.65306572374E+01 0.82807736179E+01
 0.10331149830E+02 0.12628810243E+02 0.15077424264E+02 0.17496158433E+02 0.19619435757E+02
 0.21199213962E+02 0.22042770865E+02 0.22042766981E+02 0.21199208419E+02 0.19619435834E+02
 0.17496157712E+02 0.15077412121E+02 0.12628796527E+02 0.10331161598E+02 0.82808153777E+01
 0.65306924429E+01 0.51006196641E+01 0.39819807682E+01 0.25908182738E+01 0.21229177667E+01
 0.18166377622E+01 0.16435879670E+01 0.15876110026E+01 0.16435901376E+01 0.18166367883E+01
 0.21229157543E+01 0.25908227544E+01 0.32596326255E+01 0.41733372909E+01 0.53700841540E+01
 0.68706498059E+01 0.86699727744E+01 0.10732299946E+02 0.12985375928E+02 0.15308237487E+02
 0.17496170660E+02 0.19291661420E+02 0.20471680164E+02 0.20883313507E+02 0.20471674833E+02
 0.19291648345E+02 0.17496157712E+02 0.15308239274E+02 0.12985395181E+02 0.10732325431E+02
 0.86699957699E+01 0.68706691640E+01 0.53700962134E+01 0.41733366392E+01 0.32596241039E+01
 0.21240686255E+01 0.17732373740E+01 0.15559181206E+01 0.14519533097E+01 0.14519423857E+01
 0.15559018095E+01 0.17732411869E+01 0.21240896973E+01 0.26398663792E+01 0.33603107532E+01
 0.43256542790E+01 0.55655106727E+01 0.70883014548E+01 0.88742097638E+01 0.10870576179E+02
 0.12985360764E+02 0.15077425469E+02 0.16941479850E+02 0.18342844048E+02 0.19095134736E+02
 0.19095131503E+02 0.18342826258E+02 0.16941447986E+02 0.15077412121E+02 0.12985395181E+02
 0.10870637842E+02 0.88742496519E+01 0.70883044000E+01 0.55655060355E+01 0.43256644835E+01
 0.33603206993E+01 0.26398553504E+01 0.17442667229E+01 0.14908211757E+01 0.13471824344E+01
 0.13006300259E+01 0.13471816064E+01 0.14908183392E+01 0.17442648094E+01 0.21303044064E+01
 0.26812619168E+01 0.34345163124E+01 0.44237564805E+01 0.56681944406E+01 0.71632043609E+01
 0.88742241033E+01 0.10732301940E+02 0.12628783135E+02 0.14411712747E+02 0.15892486319E+02
 0.16875090916E+02 0.17219297937E+02 0.16875090245E+02 0.15892484987E+02 0.14411715490E+02
 0.12628796527E+02 0.10732325431E+02 0.88742496519E+01 0.71632250718E+01 0.56682079617E+01
 0.44237612002E+01 0.34345118795E+01 0.26812537732E+01 0.21303005116E+01 0.14451468705E+01
 0.12700037739E+01 0.11858712789E+01 0.11858769894E+01 0.12700097755E+01 0.14451394281E+01
 0.17262252804E+01 0.21371104553E+01 0.27087891698E+01 0.34738556502E+01 0.44576187527E+01
 0.56681889551E+01 0.70883049302E+01 0.86700049649E+01 0.10331154527E+02 0.11953678350E+02
 0.13387761856E+02 0.14469313241E+02 0.15053247485E+02 0.15053249554E+02 0.14469325760E+02
 0.13387789214E+02 0.11953705561E+02 0.10331161598E+02 0.86699957699E+01 0.70883044000E+01
 0.56682079617E+01 0.44576380751E+01 0.34738544326E+01 0.27087754738E+01 0.21371077698E+01
 0.17262370585E+01 0.12173279786E+01 0.11038525005E+01 0.10669398035E+01 0.11038496896E+01
 0.12173250783E+01 0.14161918295E+01 0.17164652166E+01 0.21413292384E+01 0.27184250519E+01
 0.34738557663E+01 0.44237563957E+01 0.55654944390E+01 0.68706537696E+01 0.82807995858E+01
 0.97061879826E+01 0.11028810755E+02 0.12113391078E+02 0.12829221389E+02 0.13079757826E+02
 0.12829223787E+02 0.12113397462E+02 0.11028821673E+02 0.97062021589E+01 0.82808153777E+01
 0.68706691640E+01 0.55655060355E+01 0.44237612002E+01 0.34738544326E+01 0.27184213439E+01
 0.21413262572E+01 0.17164639644E+01 0.14161927187E+01 0.10512175978E+01 0.98576029599E+00
 0.98575713157E+00 0.10512132864E+01 0.11867123587E+01 0.14021595649E+01 0.17133867932E+01
 0.21413322962E+01 0.27087880467E+01 0.34345203276E+01 0.43256520677E+01 0.53700630270E+01
 0.65306592531E+01 0.77428064459E+01 0.89159814631E+01 0.99412383590E+01 0.10706078065E+02
 0.11115802864E+02 0.11115804867E+02 0.10706079542E+02 0.99412343617E+01 0.89159793100E+01
 0.77428209157E+01 0.65306924429E+01 0.53700962134E+01 0.43256644835E+01 0.34345118795E+01
 0.27087754738E+01 0.21413262572E+01 0.17133836913E+01 0.14021553882E+01 0.11867112491E+01
 0.93864116670E+00 0.91027949033E+00 0.93863868494E+00 0.10255353007E+01 0.11766757653E+01
 0.14021569325E+01 0.17164661184E+01 0.21371123176E+01 0.26812593257E+01 0.33603228058E+01
 0.41733333888E+01 0.51006126519E+01 0.60995659085E+01 0.71041848386E+01 0.80295383714E+01
 0.87820683316E+01 0.92751749258E+01 0.94470410247E+01 0.92751794184E+01 0.87820787676E+01
 0.80295528587E+01 0.71041984229E+01 0.60995759825E+01 0.51006196641E+01 0.41733366392E+01
 0.33603206993E+01 0.26812537732E+01 0.21371077698E+01 0.17164639644E+01 0.14021553882E+01
 0.11766748435E+01 0.10255367298E+01 0.87355005053E+00 0.87354683774E+00 0.92320727881E+00
 0.10255364686E+01 0.11867131736E+01 0.14161889917E+01 0.17262270494E+01 0.21302942666E+01
 0.26398635674E+01 0.32596465437E+01 0.39820043253E+01 0.47819987869E+01 0.56148906336E+01
 0.64176940494E+01 0.71157039477E+01 0.76337385277E+01 0.79101789617E+01 0.79101779300E+01
 0.76337417205E+01 0.71157196984E+01 0.64177169076E+01 0.56149035576E+01 0.47819906231E+01
 0.39819807682E+01 0.32596241039E+01 0.26398553504E+01 0.21303005116E+01 0.17262370585E+01
 0.14161927187E+01 0.11867112491E+01 0.10255367298E+01 0.92321221893E+00 0.87354912542E+00
 0.91028121540E+00 0.98575782302E+00 0.11038507640E+01 0.12700107497E+01 0.14908344403E+01
 0.17732429557E+01 0.21229060239E+01 0.25416643813E+01 0.30241320709E+01 0.35542929457E+01
 0.41034441828E+01 0.46309043090E+01 0.50882920223E+01 0.54270410003E+01 0.56075586066E+01
 0.56075596073E+01 0.54270409747E+01 0.50882843091E+01 0.46308856820E+01 0.41034218703E+01
 0.35542818160E+01 0.30241403333E+01 0.25416828025E+01 0.21229160090E+01 0.17732362618E+01
 0.14908207611E+01 0.12700041330E+01 0.11038533011E+01 0.98576107843E+00 0.91028019917E+00
 0.87354760584E+00 0.91028121540E+00 0.95625453035E+00 0.10355710158E+01 0.11519316849E+01
 0.13099144615E+01 0.15144249502E+01 0.17698197827E+01 0.20784500802E+01 0.24385170822E+01
 0.28415127677E+01 0.32700189577E+01 0.36969830770E+01 0.40874705623E+01 0.44032101490E+01
 0.46092191566E+01 0.46808553944E+01 0.46092229240E+01 0.44032061677E+01 0.40874520294E+01
 0.36969601014E+01 0.32700108713E+01 0.28415281087E+01 0.24385434520E+01 0.20784655405E+01
 0.17698139748E+01 0.15144075196E+01 0.13099024722E+01 0.11519312552E+01 0.10355742000E+01
 0.95625289512E+00 0.91027684909E+00 0.89523478487E+00 0.98575782302E+00 0.10355710158E+01
 0.11135052985E+01 0.12229379412E+01 0.13676151521E+01 0.15510164465E+01 0.17754472973E+01
 0.20407347353E+01 0.23425357523E+01 0.26705774846E+01 0.30075061482E+01 0.33291835253E+01
 0.36070238056E+01 0.38123045730E+01 0.39215608366E+01 0.39215625759E+01 0.38123071108E+01
 0.36070229905E+01 0.33291798320E+01 0.30075044595E+01 0.26705810706E+01 0.23425423650E+01
 0.20407391149E+01 0.17754465213E+01 0.15510123632E+01 0.13676119490E+01 0.12229376008E+01
 0.11135057350E+01 0.10355691501E+01 0.98575402178E+00 0.96152704391E+00 0.96152906007E+00
 0.11038507640E+01 0.11519316849E+01 0.12229379412E+01 0.13200035208E+01 0.14462814721E+01
 0.16042152778E+01 0.17946162084E+01 0.20155403834E+01 0.22610569584E+01 0.25202222702E+01
 0.27767975336E+01 0.30102613077E+01 0.31983503015E+01 0.33207922908E+01 0.33633235446E+01
 0.33207960569E+01 0.31983533840E+01 0.30102635069E+01 0.27768034631E+01 0.25202307367E+01
 0.22610576618E+01 0.20155272588E+01 0.17945989688E+01 0.16042098885E+01 0.14462907742E+01
 0.13200147475E+01 0.12229399130E+01 0.11519270217E+01 0.11038480406E+01 0.10761201407E+01
 0.10670685517E+01 0.10761193877E+01 0.12700107497E+01 0.13099144615E+01 0.13676151521E+01
 0.14462814721E+01 0.15488046414E+01 0.16769862397E+01 0.18306415372E+01 0.20066972505E+01
 0.21984213442E+01 0.23950548350E+01 0.25822095007E+01 0.27433018778E+01 0.28619714352E+01
 0.29250082032E+01 0.29250108780E+01 0.28619749654E+01 0.27433000626E+01 0.25822045451E+01
 0.23950539649E+01 0.21984252715E+01 0.20066989665E+01 0.18306374168E+01 0.16769817719E+01
 0.15488057077E+01 0.14462850854E+01 0.13676142474E+01 0.13099089139E+01 0.12700072292E+01
 0.12451044476E+01 0.12331733194E+01 0.12331716139E+01 0.12451030230E+01 0.14908344403E+01
 0.15144249502E+01 0.15510164465E+01 0.16042152778E+01 0.16769862397E+01 0.17708088803E+01
 0.18848896910E+01 0.20155406795E+01 0.21558690476E+01 0.22959727950E+01 0.24238141774E+01
 0.25267859285E+01 0.25937319636E+01 0.26169618354E+01 0.25937312798E+01 0.25267847151E+01
 0.24238119408E+01 0.22959691368E+01 0.21558658407E+01 0.20155420218E+01 0.18848978905E+01
 0.17708205108E+01 0.16769936535E+01 0.16042130402E+01 0.15510062024E+01 0.15144137419E+01
 0.14908284584E+01 0.14767737974E+01 0.14694894408E+01 0.14672530412E+01 0.14694874687E+01
 0.14767738295E+01 0.17732429557E+01 0.17698197827E+01 0.17754472973E+01 0.17946162084E+01
 0.18306415372E+01 0.18848896910E+01 0.19562219892E+01 0.20407344685E+01 0.21318953268E+01
 0.22211745632E+01 0.22991596917E+01 0.23569848022E+01 0.23877716653E+01 0.23877710675E+01
 0.23569841827E+01 0.22991617867E+01 0.22211811141E+01 0.21319041758E+01 0.20407401134E+01
 0.19562205783E+01 0.18848831843E+01 0.18306355937E+01 0.17946141378E+01 0.17754474977E+01
 0.17698191482E+01 0.17732409850E+01 0.17809335175E+01 0.17886552031E+01 0.17933172186E+01
 0.17933169945E+01 0.17886553606E+01 0.17809350419E+01 0.21229060239E+01 0.20784500802E+01
 0.20407347353E+01 0.20155403834E+01 0.20066972505E+01 0.20155406795E+01 0.20407344685E+01
 0.20784492353E+01 0.21229054718E+01 0.21672661589E+01 0.22047485278E+01 0.22297072301E+01
 0.22384520700E+01 0.22297074544E+01 0.22047521402E+01 0.21672768211E+01 0.21229219519E+01
 0.20784624551E+01 0.20407331862E+01 0.20155221267E+01 0.20066710278E+01 0.20155208915E+01
 0.20407302610E+01 0.20784584625E+01 0.21229183859E+01 0.21672741984E+01 0.22047499120E+01
 0.22297056844E+01 0.22384514981E+01 0.22297076729E+01 0.22047489315E+01 0.21672663079E+01
 0.25416643813E+01 0.24385170822E+01 0.23425357523E+01 0.22610569584E+01 0.21984213442E+01
 0.21558690476E+01 0.21318953268E+01 0.21229054718E+01 0.21240711588E+01 0.21302948734E+01
 0.21371126082E+01 0.21413326207E+01 0.21413306103E+01 0.21371125959E+01 0.21303062266E+01
 0.21240912086E+01 0.21229175713E+01 0.21318855098E+01 0.21558423366E+01 0.21983969542E+01
 0.22610480240E+01 0.23425388630E+01 0.24385219046E+01 0.25416668167E+01 0.26423663491E+01
 0.27300541571E+01 0.27948820048E+01 0.28293210402E+01 0.28293196591E+01 0.27948784129E+01
 0.27300502694E+01 0.26423639151E+01 0.30241320709E+01 0.28415127677E+01 0.26705774846E+01
 0.25202222702E+01 0.23950548350E+01 0.22959727950E+01 0.22211745632E+01 0.21672661589E+01
 0.21302948734E+01 0.21066170094E+01 0.20934852537E+01 0.20892807636E+01 0.20934860516E+01
 0.21066269534E+01 0.21303152542E+01 0.21672810648E+01 0.22211637202E+01 0.22959368951E+01
 0.23950214430E+01 0.25202194609E+01 0.26706039742E+01 0.28415409142E+01 0.30241393456E+01
 0.32055096935E+01 0.33700859362E+01 0.35018861506E+01 0.35871518308E+01 0.36166500309E+01
 0.35871449575E+01 0.35018834304E+01 0.33700944227E+01 0.32055196580E+01 0.35542929457E+01
 0.32700189577E+01 0.30075061482E+01 0.27767975336E+01 0.25822095007E+01 0.24238141774E+01
 0.22991596917E+01 0.22047485278E+01 0.21371126082E+01 0.20934852537E+01 0.20720856483E+01
 0.20720900248E+01 0.20935004361E+01 0.21371365398E+01 0.22047652307E+01 0.22991497788E+01
 0.24237787763E+01 0.25821759124E+01 0.27767937377E+01 0.30075325049E+01 0.32700512810E+01
 0.35543108147E+01 0.38440327997E+01 0.41177049311E+01 0.43512747975E+01 0.45219567913E+01
 0.46120925380E+01 0.46120908697E+01 0.45219525519E+01 0.43512709456E+01 0.41177037976E+01
 0.38440289260E+01 0.41034441828E+01 0.36969830770E+01 0.33291835253E+01 0.30102613077E+01
 0.27433018778E+01 0.25267859285E+01 0.23569848022E+01 0.22297072301E+01 0.21413326207E+01
 0.20892807636E+01 0.20720900248E+01 0.20892990114E+01 0.21413621611E+01 0.22297275401E+01
 0.23569731908E+01 0.25267454395E+01 0.27432673006E+01 0.30102651129E+01 0.33292202469E+01
 0.36970183243E+01 0.41034558983E+01 0.45295251679E+01 0.49475657059E+01 0.53239404389E+01
 0.56239180070E+01 0.58174661630E+01 0.58843544890E+01 0.58174631666E+01 0.56239083610E+01
 0.53239286362E+01 0.49475621688E+01 0.45295272550E+01 0.46309043090E+01 0.40874705623E+01
 0.36070238056E+01 0.31983503015E+01 0.28619714352E+01 0.25937319636E+01 0.23877716653E+01
 0.22384520700E+01 0.21413306103E+01 0.20934860516E+01 0.20935004361E+01 0.21413621611E+01
 0.22384724666E+01 0.23877567440E+01 0.25936869754E+01 0.28619329105E+01 0.31983536444E+01
 0.36070687212E+01 0.40875238082E+01 0.46309343663E+01 0.52171390971E+01 0.58133333132E+01
 0.63759594612E+01 0.68560554962E+01 0.72069669946E+01 0.73923369424E+01 0.73923377827E+01
 0.72069695091E+01 0.68560607576E+01 0.63759692393E+01 0.58133440698E+01 0.52171369669E+01
 0.50882920223E+01 0.44032101490E+01 0.38123045730E+01 0.33207922908E+01 0.29250082032E+01
 0.26169618354E+01 0.23877710675E+01 0.22297074544E+01 0.21371125959E+01 0.21066269534E+01
 0.21371365398E+01 0.22297275401E+01 0.23877567440E+01 0.26169133818E+01 0.29249645970E+01
 0.33207959163E+01 0.38123576802E+01 0.44032749682E+01 0.50883323351E+01 0.58487945872E+01
 0.66492326199E+01 0.74376993348E+01 0.81504094102E+01 0.87205994844E+01 0.90896130595E+01
 0.92173648970E+01 0.90896280776E+01 0.87206206922E+01 0.81504271456E+01 0.74377107433E+01
 0.66492375460E+01 0.58487839885E+01 0.54270410003E+01 0.46092191566E+01 0.39215608366E+01
 0.33633235446E+01 0.29250108780E+01 0.25937312798E+01 0.23569841827E+01 0.22047521402E+01
 0.21303062266E+01 0.21303152542E+01 0.22047652307E+01 0.23569731908E+01 0.25936869754E+01
 0.29249645970E+01 0.33633238368E+01 0.39216209023E+01 0.46092984077E+01 0.54270877196E+01
 0.63609542810E+01 0.73768539952E+01 0.84183758376E+01 0.94092154255E+01 0.10261431183E+02
 0.10888673292E+02 0.11221621223E+02 0.11221622872E+02 0.10888676902E+02 0.10261434615E+02
 0.94092207621E+01 0.84183893646E+01 0.73768722053E+01 0.63609526208E+01 0.56075586066E+01
 0.46808553944E+01 0.39215625759E+01 0.33207960569E+01 0.28619749654E+01 0.25267847151E+01
 0.22991617867E+01 0.21672768211E+01 0.21240912086E+01 0.21672810648E+01 0.22991497788E+01
 0.25267454395E+01 0.28619329105E+01 0.33207959163E+01 0.39216209023E+01 0.46809367983E+01
 0.56076105083E+01 0.66956787099E+01 0.79172622181E+01 0.92174316475E+01 0.10513200051E+02
 0.11698758553E+02 0.12658206382E+02 0.13284843953E+02 0.13502878273E+02 0.13284826298E+02
 0.12658190054E+02 0.11698758751E+02 0.10513217494E+02 0.92174600276E+01 0.79172879367E+01
 0.66956755068E+01 0.56075596073E+01 0.46092229240E+01 0.38123071108E+01 0.31983533840E+01
 0.27433000626E+01 0.24238119408E+01 0.22211811141E+01 0.21229219519E+01 0.21229175713E+01
 0.22211637202E+01 0.24237787763E+01 0.27432673006E+01 0.31983536444E+01 0.38123576802E+01
 0.46092984077E+01 0.56076105083E+01 0.68121579622E+01 0.82057581847E+01 0.97416594009E+01
 0.11338691468E+02 0.12881523835E+02 0.14229258495E+02 0.15234827645E+02 0.15773645065E+02
 0.15773646731E+02 0.15234833594E+02 0.14229267577E+02 0.12881532606E+02 0.11338703820E+02
 0.97416837118E+01 0.82057852031E+01 0.68121559331E+01 0.54270409747E+01 0.44032061677E+01
 0.36070229905E+01 0.30102635069E+01 0.25822045451E+01 0.22959691368E+01 0.21319041758E+01
 0.20784624551E+01 0.21318855098E+01 0.22959368951E+01 0.25821759124E+01 0.30102651129E+01
 0.36070687212E+01 0.44032749682E+01 0.54270877196E+01 0.66956787099E+01 0.82057581847E+01
 0.99244704147E+01 0.11781468627E+02 0.13663733614E+02 0.15417050341E+02 0.16860155087E+02
 0.17815281960E+02 0.18150046730E+02 0.17815302122E+02 0.16860179640E+02 0.15417060895E+02
 0.13663729278E+02 0.11781470571E+02 0.99244959609E+01 0.82057914828E+01 0.66956808887E+01
 0.50882843091E+01 0.40874520294E+01 0.33291798320E+01 0.27768034631E+01 0.23950539649E+01
 0.21558658407E+01 0.20407401134E+01 0.20407331862E+01 0.21558423366E+01 0.23950214430E+01
 0.27767937377E+01 0.33292202469E+01 0.40875238082E+01 0.50883323351E+01 0.63609542810E+01
 0.79172622181E+01 0.97416594009E+01 0.11781468627E+02 0.13937736126E+02 0.16059051251E+02
 0.17946000337E+02 0.19374422299E+02 0.20145025592E+02 0.20145020038E+02 0.19374414251E+02
 0.17946000374E+02 0.16059054085E+02 0.13937734255E+02 0.11781474297E+02 0.97416901027E+01