unknown system                          
   1.00000000000000     
    -2.426266    2.426266    1.302488
     2.426266   -2.426266    1.302488
     2.426266    2.426266   -1.302488
   Si
     2
Direct
  0.250000  0.750000  0.500000
  0.000000  0.000000  0.000000
 
   36   36   36
 -5.2578     -4.3292     -1.7783      1.7718      5.5145      8.7006      10.825      11.709      11.486      10.509    
  9.2133      7.9095      6.7141      5.6949      4.8821      4.2771      3.8653      3.6281      3.5508      3.6281    
  3.8653      4.2771      4.8821      5.6949      6.7141      7.9095      9.2133      10.509      11.486      11.709    
  10.825      8.7006      5.5145      1.7718     -1.7783     -4.3292     -4.3292     -4.8119     -3.4850     -.68573    
  2.9073      6.4938      9.3827      11.152      11.708      11.246      10.147      8.8359      7.5566      6.4067    
  5.4436      4.6891      4.1393      3.7776      3.5856      3.5507      3.6700      3.9514      4.4108      5.0668    
  5.9311      6.9966      8.2252      9.5405      10.802      11.653      11.667      10.532      8.1827      4.8723    
  1.1681     -2.1569     -1.7783     -3.4850     -3.5244     -1.8915     0.99619      4.4412      7.6879      10.131    
  11.449      11.631      10.925      9.7269      8.4206      7.1788      6.0852      5.1860      4.4946      4.0022    
  3.6911      3.5440      3.5504      3.7101      4.0330      4.5359      5.2365      6.1432      7.2436      8.4924    
  9.8070      11.022      11.759      11.615      10.330      7.9036      4.6487      1.1681      1.7718     -.68574    
 -1.8915     -1.5384     0.27467      3.0795      6.1977      8.9510      10.842      11.652      11.451      10.525    
  9.2661      7.9808      6.7889      5.7607      4.9309      4.3048      3.8702      3.6087      3.5047      3.5501    
  3.7472      4.1074      4.6479      5.3849      6.3235      7.4460      8.7017      10.004      11.168      11.817    
  11.582      10.259      7.9036      4.8723      5.5145      2.9073     0.99618     0.27467     0.92991      2.7799    
  5.3396      7.9837      10.136      11.418      11.712      11.156      10.058      8.7801      7.5305      6.3996    
  5.4437      4.6862      4.1257      3.7472      3.5329      3.4689      3.5499      3.7800      4.1720      4.7427    
  5.5064      6.4650      7.5963      8.8455      10.124      11.241      11.835      11.582      10.330      8.1827    
  8.7006      6.4938      4.4412      3.0795      2.7799      3.6217      5.3671      7.5471      9.6169      11.117    
  11.786      11.603      10.752      9.5485      8.2836      7.0838      6.0230      5.1437      4.4590      3.9621    
  3.6366      3.4657      3.4379      3.5499      3.8078      4.2247      4.8169      5.5966      6.5624      7.6887    
  8.9187      10.165      11.241      11.817      11.615      10.532      10.825      9.3827      7.6879      6.1977    
  5.3396      5.3671      6.2725      7.7920      9.5004      10.951      11.804      11.911      11.325      10.265    
  9.0245      7.7921      6.6545      5.6704      4.8690      4.2551      3.8180      3.5411      3.4090      3.4123    
  3.5501      3.8295      4.2637      4.8679      5.6521      6.6120      7.7199      8.9187      10.124      11.168    
  11.759      11.667      11.709      11.152      10.131      8.9510      7.9837      7.5471      7.7920      8.6486    
  9.8552      11.051      11.893      12.159      11.792      10.907      9.7356      8.5048      7.3215      6.2557    
  5.3513      4.6264      4.0792      3.6967      3.4627      3.3638      3.3929      3.5505      3.8444      4.2876    
  4.8938      5.6708      6.6120      7.6887      8.8455      10.004      11.022      11.653      11.486      11.708    
  11.449      10.842      10.136      9.6169      9.5004      9.8552      10.576      11.426      12.118      12.414    
  12.190      11.470      10.404      9.2053      8.0079      6.8873      5.8990      5.0739      4.4214      3.9349    
  3.6004      3.4029      3.3312      3.3798      3.5507      3.8520      4.2957      4.8938      5.6521      6.5624    
  7.5963      8.7017      9.8070      10.802      10.509      11.246      11.631      11.652      11.418      11.117    
  10.951      11.051      11.426      11.959      12.452      12.695      12.543      11.956      11.013      9.8787    
  8.6984      7.5524      6.5036      5.5942      4.8449      4.2581      3.8247      3.5306      3.3627      3.3114    
  3.3733      3.5508      3.8520      4.2876      4.8679      5.5966      6.4650      7.4460      8.4924      9.5405    
  9.2133      10.147      10.925      11.451      11.712      11.786      11.804      11.893      12.118      12.452    
  12.782      12.956      12.839      12.361      11.546      10.507      9.3771      8.2374      7.1555      6.1823    
  5.3494      4.6691      4.1395      3.7503      3.4884      3.3424      3.3048      3.3733      3.5507      3.8444    
  4.2637      4.8169      5.5064      6.3235      7.2436      8.2252      7.9095      8.8359      9.7269      10.525    
  11.156      11.603      11.911      12.159      12.414      12.695      12.956      13.101      13.025      12.653    
  11.979      11.067      10.023      8.9259      7.8429      6.8317      5.9333      5.1705      4.5501      4.0676    
  3.7128      3.4743      3.3424      3.3114      3.3798      3.5505      3.8295      4.2247      4.7427      5.3849    
  6.1432      6.9966      6.7141      7.5566      8.4206      9.2661      10.058      10.752      11.325      11.792    
  12.190      12.543      12.839      13.025      13.029      12.786      12.274      11.524      10.609      9.5952    
  8.5492      7.5320      6.5926      5.7636      5.0616      4.4900      4.0435      3.7128      3.4884      3.3627    
  3.3312      3.3929      3.5501      3.8078      4.1720      4.6479      5.2365      5.9311      5.6949      6.4067    
  7.1788      7.9808      8.7801      9.5485      10.265      10.907      11.470      11.957      12.361      12.653    
  12.786      12.708      12.389      11.839      11.097      10.214      9.2501      8.2664      7.3178      6.4460    
  5.6776      5.0251      4.4900      4.0676      3.7503      3.5306      3.4029      3.3638      3.4123      3.5499    
  3.7800      4.1074      4.5359      5.0668      4.8821      5.4436      6.0852      6.7889      7.5305      8.2836    
  9.0245      9.7356      10.404      11.013      11.546      11.979      12.274      12.389      12.293      11.975    
  11.448      10.744      9.9118      9.0086      8.0913      7.2086      6.3966      5.6776      5.0616      4.5501    
  4.1395      3.8247      3.6004      3.4627      3.4090      3.4379      3.5499      3.7472      4.0330      4.4108    
  4.2771      4.6891      5.1860      5.7607      6.3996      7.0838      7.7921      8.5048      9.2053      9.8787    
  10.507      11.067      11.524      11.839      11.975      11.907      11.625      11.143      10.493      9.7221    
  8.8845      8.0320      7.2086      6.4460      5.7636      5.1705      4.6691      4.2581      3.9349      3.6967    
  3.5411      3.4657      3.4689      3.5501      3.7101      3.9514      3.8653      4.1393      4.4946      4.9309    
  5.4437      6.0230      6.6545      7.3215      8.0079      8.6984      9.3771      10.023      10.609      11.097    
  11.448      11.625      11.603      11.373      10.949      10.363      9.6576      8.8845      8.0913      7.3178    
  6.5926      5.9333      5.3494      4.8449      4.4214      4.0792      3.8180      3.6366      3.5329      3.5047    
  3.5504      3.6700      3.6281      3.7776      4.0022      4.3048      4.6862      5.1437      5.6704      6.2557    
  6.8873      7.5524      8.2374      8.9259      9.5952      10.214      10.744      11.143      11.373      11.409    
  11.242      10.883      10.363      9.7221      9.0086      8.2664      7.5320      6.8317      6.1823      5.5942    
  5.0739      4.6264      4.2551      3.9621      3.7472      3.6087      3.5440      3.5507      3.5508      3.5856    
  3.6911      3.8702      4.1257      4.4590      4.8690      5.3513      5.8990      6.5036      7.1555      7.8429    
  8.5492      9.2501      9.9118      10.493      10.949      11.242      11.342      11.242      10.949      10.493    
  9.9118      9.2501      8.5492      7.8429      7.1555      6.5036      5.8990      5.3513      4.8690      4.4590    
  4.1257      3.8702      3.6911      3.5856      3.6281      3.5507      3.5440      3.6087      3.7472      3.9621    
  4.2551      4.6264      5.0740      5.5942      6.1823      6.8317      7.5320      8.2664      9.0086      9.7221    
  10.363      10.883      11.242      11.409      11.373      11.143      10.744      10.214      9.5952      8.9259    
  8.2374      7.5524      6.8873      6.2557      5.6704      5.1437      4.6862      4.3048      4.0022      3.7776    
  3.8653      3.6700      3.5504      3.5047      3.5329      3.6366      3.8180      4.0793      4.4214      4.8449    
  5.3494      5.9334      6.5926      7.3178      8.0913      8.8845      9.6576      10.363      10.949      11.373    
  11.603      11.625      11.448      11.097      10.609      10.023      9.3771      8.6984      8.0079      7.3215    
  6.6545      6.0230      5.4437      4.9309      4.4946      4.1393      4.2771      3.9514      3.7101      3.5501    
  3.4689      3.4657      3.5411      3.6967      3.9349      4.2581      4.6691      5.1705      5.7636      6.4460    
  7.2086      8.0320      8.8845      9.7221      10.493      11.143      11.625      11.907      11.975      11.839    
  11.524      11.067      10.507      9.8787      9.2053      8.5048      7.7921      7.0838      6.3996      5.7607    
  5.1860      4.6891      4.8821      4.4108      4.0330      3.7471      3.5499      3.4379      3.4089      3.4627    
  3.6004      3.8247      4.1395      4.5501      5.0616      5.6776      6.3966      7.2086      8.0913      9.0086    
  9.9118      10.744      11.448      11.975      12.293      12.389      12.274      11.979      11.546      11.013    
  10.404      9.7356      9.0245      8.2836      7.5305      6.7889      6.0852      5.4436      5.6949      5.0668    
  4.5359      4.1073      3.7800      3.5499      3.4123      3.3638      3.4029      3.5306      3.7503      4.0676    
  4.4901      5.0251      5.6776      6.4460      7.3178      8.2664      9.2501      10.214      11.097      11.839    
  12.389      12.708      12.786      12.653      12.361      11.956      11.470      10.907      10.265      9.5485    
  8.7801      7.9808      7.1788      6.4067      6.7141      5.9311      5.2365      4.6479      4.1720      3.8078    
  3.5501      3.3929      3.3312      3.3627      3.4884      3.7129      4.0436      4.4901      5.0616      5.7636    
  6.5926      7.5320      8.5492      9.5952      10.609      11.524      12.274      12.786      13.029      13.025    
  12.839      12.543      12.190      11.792      11.325      10.752      10.058      9.2661      8.4206      7.5566    
  7.9095      6.9966      6.1433      5.3849      4.7427      4.2247      3.8295      3.5505      3.3798      3.3114    
  3.3424      3.4743      3.7129      4.0676      4.5501      5.1705      5.9334      6.8317      7.8429      8.9259    
  10.023      11.067      11.979      12.653      13.025      13.101      12.956      12.695      12.414      12.159    
  11.911      11.603      11.156      10.525      9.7269      8.8359      9.2133      8.2252      7.2436      6.3235    
  5.5065      4.8169      4.2637      3.8444      3.5507      3.3733      3.3048      3.3424      3.4884      3.7503    
  4.1395      4.6691      5.3494      6.1823      7.1555      8.2374      9.3771      10.507      11.546      12.361    
  12.839      12.956      12.782      12.452      12.118      11.893      11.804      11.786      11.712      11.451    
  10.925      10.147      10.509      9.5405      8.4924      7.4460      6.4650      5.5966      4.8679      4.2876    
  3.8520      3.5508      3.3733      3.3114      3.3627      3.5306      3.8247      4.2581      4.8449      5.5942    
  6.5036      7.5524      8.6984      9.8787      11.013      11.957      12.543      12.695      12.452      11.959    
  11.426      11.051      10.951      11.117      11.418      11.652      11.631      11.246      11.486      10.802    
  9.8070      8.7017      7.5963      6.5624      5.6521      4.8939      4.2957      3.8520      3.5507      3.3798    
  3.3312      3.4029      3.6004      3.9349      4.4214      5.0740      5.8990      6.8873      8.0079      9.2053    
  10.404      11.470      12.190      12.414      12.118      11.426      10.576      9.8552      9.5004      9.6169    
  10.136      10.842      11.449      11.708      11.709      11.653      11.022      10.004      8.8455      7.6887    
  6.6120      5.6708      4.8939      4.2876      3.8444      3.5505      3.3929      3.3638      3.4627      3.6967    
  4.0793      4.6264      5.3513      6.2557      7.3215      8.5048      9.7356      10.907      11.792      12.159    
  11.893      11.051      9.8552      8.6486      7.7920      7.5471      7.9837      8.9510      10.131      11.152    
  10.825      11.667      11.759      11.168      10.124      8.9187      7.7199      6.6120      5.6521      4.8679    
  4.2637      3.8295      3.5501      3.4123      3.4089      3.5411      3.8180      4.2551      4.8690      5.6704    
  6.6545      7.7921      9.0245      10.265      11.325      11.911      11.804      10.951      9.5004      7.7920    
  6.2725      5.3671      5.3396      6.1977      7.6879      9.3827      8.7006      10.532      11.615      11.817    
  11.241      10.165      8.9187      7.6887      6.5624      5.5966      4.8169      4.2247      3.8078      3.5499    
  3.4379      3.4657      3.6366      3.9621      4.4590      5.1437      6.0230      7.0838      8.2836      9.5485    
  10.752      11.603      11.786      11.117      9.6169      7.5471      5.3671      3.6217      2.7799      3.0795    
  4.4412      6.4938      5.5145      8.1827      10.330      11.582      11.834      11.241      10.124      8.8455    
  7.5963      6.4650      5.5065      4.7427      4.1720      3.7800      3.5499      3.4689      3.5329      3.7472    
  4.1257      4.6862      5.4437      6.3996      7.5305      8.7801      10.058      11.156      11.712      11.418    
  10.136      7.9837      5.3396      2.7799     0.92991     0.27467     0.99619      2.9073      1.7718      4.8723    
  7.9036      10.259      11.582      11.817      11.168      10.004      8.7017      7.4460      6.3235      5.3849    
  4.6479      4.1073      3.7471      3.5501      3.5047      3.6087      3.8702      4.3048      4.9309      5.7607    
  6.7889      7.9808      9.2661      10.525      11.451      11.652      10.842      8.9510      6.1977      3.0795    
 0.27467     -1.5384     -1.8915     -.68573     -1.7783      1.1681      4.6487      7.9036      10.330      11.615    
  11.759      11.022      9.8070      8.4924      7.2436      6.1433      5.2365      4.5359      4.0330      3.7101    
  3.5504      3.5440      3.6911      4.0022      4.4946      5.1860      6.0852      7.1788      8.4206      9.7269    
  10.925      11.631      11.449      10.131      7.6879      4.4412     0.99618     -1.8915     -3.5244     -3.4850    
 -4.3292     -2.1569      1.1681      4.8723      8.1827      10.532      11.667      11.653      10.802      9.5405    
  8.2252      6.9966      5.9311      5.0668      4.4108      3.9514      3.6700      3.5507      3.5856      3.7776    
  4.1393      4.6891      5.4436      6.4067      7.5566      8.8359      10.147      11.246      11.708      11.152    
  9.3827      6.4938      2.9073     -.68574     -3.4850     -4.8119     -4.3292     -3.6409     -1.3757      1.9098    
  5.4579      8.5386      10.636      11.546      11.366      10.423      9.1393      7.8355      6.6331      5.6022    
  4.7752      4.1546      3.7262      3.4710      3.3733      3.4263      3.6342      4.0107      4.5746      5.3423    
  6.3166      7.4733      8.7516      10.049      11.103      11.492      10.855      9.0318      6.1539      2.6694    
 -.72799     -3.2680     -3.6409     -4.3292     -3.2680     -.72799      2.6694      6.1539      9.0318      10.855    
  11.492      11.103      10.049      8.7516      7.4733      6.3166      5.3423      4.5746      4.0107      3.6342    
  3.4263      3.3733      3.4710      3.7262      4.1546      4.7751      5.6022      6.6331      7.8355      9.1393    
  10.423      11.366      11.546      10.636      8.5386      5.4579      1.9098     -1.3757     -1.3045     -3.1918    
 -3.4850     -2.1155     0.56300      3.8955      7.1349      9.6543      11.091      11.394      10.778      9.6261    
  8.3322      7.0911      5.9907      5.0808      4.3773      3.8727      3.5491      3.3886      3.3798      3.5214    
  3.8224      4.2999      4.9725      5.8518      6.9295      8.1658      9.4833      10.738      11.575      11.586    
  10.492      8.2539      5.1402      1.7097      2.0948     -.52196     -1.9714     -1.8915     -.31375      2.3486    
  5.4408      8.2728      10.309      11.283      11.223      10.389      9.1680      7.8937      6.7013      5.6659    
  4.8261      4.1895      3.7447      3.4734      3.3591      3.3929      3.5761      3.9200      4.4421      5.1601    
  6.0825      7.1954      8.4529      9.7725      10.990      11.738      11.639      10.462      8.2260      5.2452    
  5.7627      3.0205     0.88255     -.11638     0.27465      1.9376      4.4281      7.1253      9.4238      10.896    
  11.375      10.960      9.9415      8.6904      7.4488      6.3157      5.3524      4.5859      4.0167      3.6305    
  3.4094      3.3387      3.4123      3.6339      4.0160      4.5764      5.3315      6.2859      7.4212      8.6866    
  9.9968      11.175      11.863      11.719      10.564      8.4649      8.9417      6.6295      4.3788      2.7510    
  2.1699      2.7799      4.3977      6.5780      8.7628      10.451      11.329      11.327      10.600      9.4532    
  8.2061      7.0105      5.9458      5.0591      4.3667      3.8633      3.5331      3.3588      3.3284      3.4379    
  3.6931      4.1075      4.6985      5.4805      6.4546      7.5984      8.8581      10.148      11.290      11.948    
  11.826      10.790      11.106      9.5923      7.7395      6.0136      4.8788      4.6460      5.3671      6.8191    
  8.5841      10.189      11.246      11.553      11.125      10.158      8.9499      7.7288      6.5915      5.6020    
  4.7938      4.1740      3.7332      3.4548      3.3231      3.3284      3.4690      3.7521      4.1917      4.8042    
  5.6017      6.5823      7.7203      8.9605      10.219      11.330      11.990      11.946      12.052      11.460    
  10.328      8.9583      7.7434      7.0442      7.0669      7.7919      8.9828      10.272      11.282      11.740    
  11.546      10.781      9.6638      8.4506      7.2722      6.2036      5.2933      4.5628      4.0122      3.6291    
  3.3973      3.3031      3.3387      3.5047      3.8091      4.2658      4.8898      5.6907      6.6638      7.7816    
  8.9894      10.208      11.291      11.976      11.892      12.112      11.791      11.049      10.144      9.3866    
  9.0386      9.2174      9.8552      10.726      11.526      11.980      11.919      11.327      10.334      9.1601    
  7.9713      6.8505      5.8575      5.0272      4.3712      3.8843      3.5529      3.3616      3.2989      3.3591    
  3.5440      3.8624      4.3272      4.9520      5.7438      6.6957      7.7795      8.9426      10.111      11.167    
  10.957      11.723      12.091      12.035      11.659      11.166      10.787      10.695      10.939      11.426    
  11.958      12.304      12.281      11.813      10.948      9.8438      8.6735      7.5291      6.4768      5.5626    
  4.8098      4.2227      3.7926      3.5056      3.3481      3.3104      3.3886      3.5856      3.9100      4.3738    
  4.9884      5.7587      6.6762      7.7134      8.8210      9.9325      9.6771      10.661      11.461      11.961    
  12.140      12.079      11.924      11.833      11.907      12.146      12.452      12.666      12.629      12.240    
  11.494      10.485      9.3630      8.2250      7.1402      6.1627      5.3265      4.6459      4.1199      3.7383    
  3.4878      3.3567      3.3370      3.4263      3.6281      3.9503      4.4037      4.9974      5.7345      6.6058    
  7.5852      8.6286      8.3722      9.3535      10.289      11.102      11.706      12.075      12.262      12.363    
  12.472      12.636      12.827      12.956      12.906      12.583      11.952      11.061      10.020      8.9214    
  7.8349      6.8195      5.9181      5.1552      4.5387      4.0646      3.7222      3.4996      3.3868      3.3777    
  3.4710      3.6700      3.9819      4.4157      4.9785      5.6719      6.4867      7.3998      7.1641      8.0614    
  8.9731      9.8536      10.658      11.326      11.831      12.196      12.474      12.710      12.912      13.042    
  13.025      12.787      12.286      11.537      10.615      9.5952      8.5435      7.5213      6.5789      5.7503    
  5.0530      4.4906      4.0577      3.7444      3.5404      3.4377      3.4316      3.5214      3.7101      4.0037    
  4.4091      4.9321      5.5730      6.3237      6.1231      6.8874      7.7079      8.5493      9.3739      10.149    
  10.843      11.429      11.907      12.296      12.605      12.820      12.898      12.786      12.446      11.873    
  11.112      10.215      9.2413      8.2507      7.2986      6.4275      5.6646      5.0225      4.5027      4.0995    
  3.8045      3.6095      3.5082      3.4972      3.5761      3.7471      4.0147      4.3842      4.8598      5.4417    
  5.2833      5.8929      6.5806      7.3246      8.0967      8.8660      9.6048      10.293      10.914      11.454    
  11.906      12.257      12.479      12.535      12.389      12.029      11.470      10.743      9.8944      8.9812    
  8.0592      7.1771      6.3714      5.6642      5.0652      4.5751      4.1894      3.9015      3.7056      3.5970    
  3.5733      3.6339      3.7800      4.0147      4.3418      4.7645      4.6500      5.1040      5.6422      6.2550    
  6.9255      7.6311      8.3468      9.0497      9.7217      10.348      10.915      11.403      11.784      12.027    
  12.099      11.975      11.650      11.135      10.462      9.6766      8.8321      7.9797      7.1630      6.4135    
  5.7500      5.1809      4.7072      4.3262      4.0341      3.8271      3.7023      3.6580      3.6930      3.8078    
  4.0037      4.2835      4.2115      4.5206      4.9109      5.3805      5.9225      6.5242      7.1679      7.8339    
  8.5034      9.1604      9.7898      10.374      10.890      11.306      11.587      11.701      11.625      11.354    
  10.899      10.293      9.5782      8.8041      8.0178      7.2585      6.5539      5.9209      5.3677      4.8966    
  4.5077      4.1998      3.9717      3.8220      3.7493      3.7521      3.8294      3.9819      3.9503      4.1285    
  4.3814      4.7110      5.1169      5.5943      6.1339      6.7224      7.3448      7.9863      8.6329      9.2695    
  9.8762      10.426      10.885      11.217      11.387      11.373      11.168      10.784      10.251      9.6077    
  8.9010      8.1738      7.4615      6.7895      6.1734      5.6220      5.1400      4.7305      4.3956      4.1366    
  3.9534      3.8449      3.8091      3.8444      3.8520      3.9100      4.0376      4.2373      4.5113      4.8600    
  5.2806      5.7665      6.3084      6.8958      7.5176      8.1617      8.8131      9.4502      10.043      10.556    
  10.948      11.185      11.242      11.110      10.801      10.340      9.7653      9.1196      8.4424      7.7662    
  7.1141      6.5014      5.9382      5.4323      4.9902      4.6175      4.3180      4.0931      3.9420      3.8624    
  3.9100      3.8520      3.8624      3.9420      4.0931      4.3180      4.6175      4.9901      5.4323      5.9382    
  6.5014      7.1141      7.7662      8.4424      9.1196      9.7653      10.340      10.801      11.110      11.242    
  11.185      10.948      10.556      10.043      9.4502      8.8131      8.1617      7.5176      6.8958      6.3084    
  5.7665      5.2806      4.8600      4.5113      4.2373      4.0376      4.1285      3.9504      3.8444      3.8091    
  3.8449      3.9534      4.1366      4.3956      4.7305      5.1400      5.6220      6.1734      6.7895      7.4615    
  8.1738      8.9010      9.6077      10.251      10.784      11.168      11.373      11.387      11.217      10.885    
  10.426      9.8762      9.2695      8.6329      7.9863      7.3448      6.7224      6.1339      5.5943      5.1169    
  4.7110      4.3814      4.5206      4.2115      3.9820      3.8295      3.7521      3.7493      3.8221      3.9717    
  4.1998      4.5077      4.8966      5.3677      5.9209      6.5539      7.2585      8.0178      8.8041      9.5782    
  10.293      10.899      11.354      11.625      11.701      11.587      11.306      10.890      10.374      9.7898    
  9.1604      8.5034      7.8339      7.1679      6.5243      5.9226      5.3805      4.9109      5.1040      4.6500    
  4.2835      4.0037      3.8078      3.6931      3.6580      3.7023      3.8271      4.0341      4.3262      4.7072    
  5.1809      5.7500      6.4135      7.1630      7.9797      8.8321      9.6766      10.462      11.135      11.650    
  11.975      12.099      12.027      11.784      11.403      10.915      10.348      9.7216      9.0497      8.3468    
  7.6311      6.9255      6.2550      5.6423      5.8929      5.2833      4.7645      4.3418      4.0148      3.7801    
  3.6339      3.5733      3.5970      3.7056      3.9015      4.1894      4.5752      5.0652      5.6642      6.3714    
  7.1771      8.0592      8.9812      9.8944      10.743      11.470      12.029      12.389      12.535      12.479    
  12.257      11.906      11.454      10.914      10.293      9.6048      8.8660      8.0967      7.3246      6.5806    
  6.8874      6.1231      5.4417      4.8598      4.3842      4.0148      3.7472      3.5761      3.4973      3.5082    
  3.6095      3.8045      4.0995      4.5027      5.0226      5.6646      6.4275      7.2986      8.2507      9.2413    
  10.215      11.112      11.873      12.446      12.786      12.898      12.820      12.605      12.296      11.907    
  11.429      10.843      10.149      9.3739      8.5493      7.7079      8.0614      7.1641      6.3237      5.5730    
  4.9320      4.4092      4.0037      3.7101      3.5214      3.4316      3.4377      3.5404      3.7444      4.0577    
  4.4906      5.0530      5.7503      6.5789      7.5213      8.5435      9.5952      10.615      11.537      12.286    
  12.787      13.025      13.042      12.912      12.710      12.474      12.196      11.831      11.326      10.658    
  9.8536      8.9731      9.3535      8.3722      7.3998      6.4867      5.6719      4.9785      4.4157      3.9820    
  3.6700      3.4710      3.3777      3.3868      3.4996      3.7222      4.0646      4.5388      5.1552      5.9181    
  6.8195      7.8349      8.9214      10.020      11.061      11.952      12.583      12.906      12.956      12.827    
  12.636      12.472      12.363      12.262      12.075      11.706      11.102      10.289      10.661      9.6770    
  8.6286      7.5852      6.6058      5.7345      4.9975      4.4037      3.9503      3.6281      3.4263      3.3369    
  3.3567      3.4878      3.7383      4.1199      4.6459      5.3265      6.1627      7.1402      8.2250      9.3630    
  10.485      11.494      12.240      12.629      12.666      12.452      12.146      11.907      11.833      11.924    
  12.079      12.140      11.961      11.461      11.723      10.957      9.9325      8.8210      7.7134      6.6762    
  5.7587      4.9884      4.3738      3.9100      3.5856      3.3886      3.3104      3.3481      3.5056      3.7926    
  4.2227      4.8099      5.5626      6.4768      7.5291      8.6735      9.8437      10.948      11.813      12.281    
  12.304      11.958      11.426      10.939      10.695      10.787      11.166      11.659      12.035      12.091    
  12.112      11.892      11.167      10.111      8.9426      7.7795      6.6957      5.7438      4.9520      4.3272    
  3.8623      3.5440      3.3591      3.2989      3.3616      3.5529      3.8843      4.3712      5.0272      5.8575    
  6.8505      7.9713      9.1601      10.334      11.327      11.919      11.980      11.526      10.726      9.8552    
  9.2175      9.0386      9.3866      10.144      11.049      11.791      11.460      12.052      11.976      11.291    
  10.208      8.9894      7.7816      6.6638      5.6907      4.8898      4.2657      3.8091      3.5047      3.3387    
  3.3030      3.3973      3.6291      4.0122      4.5628      5.2933      6.2036      7.2722      8.4506      9.6638    
  10.781      11.546      11.740      11.282      10.272      8.9828      7.7920      7.0670      7.0442      7.7434    
  8.9583      10.328      9.5923      11.106      11.946      11.990      11.330      10.219      8.9606      7.7203    
  6.5823      5.6017      4.8042      4.1917      3.7521      3.4689      3.3284      3.3231      3.4548      3.7332    
  4.1741      4.7938      5.6020      6.5915      7.7288      8.9499      10.158      11.125      11.553      11.246    
  10.189      8.5841      6.8192      5.3672      4.6460      4.8788      6.0137      7.7395      6.6296      8.9417    