<?xml version="1.0" encoding="ISO-8859-1"?>
<modeling>
 <generator>
  <i name="program" type="string">vasp </i>
  <i name="version" type="string">5.4.4.18Apr17-6-g9f103f2a35  </i>
  <i name="subversion" type="string">(build Dec 09 2018 21:25:21) complex            parallel </i>
  <i name="platform" type="string">IFC18.0.1.163_CrayMPICH7.7.0_MKL18.0.1.163 </i>
  <i name="date" type="string">2019 03 20 </i>
  <i name="time" type="string">09:33:12 </i>
 </generator>
 <incar>
  <i type="string" name="PREC">normal</i>
  <i type="int" name="IBRION">     2</i>
  <i name="EDIFF">      0.00040000</i>
  <i name="EDIFFG">     -0.01000000</i>
  <i type="int" name="NSW">    15</i>
  <i type="int" name="ISIF">     3</i>
  <i name="ENCUT">    350.00000000</i>
  <i type="int" name="NBANDS">     8</i>
  <i type="logical" name="LREAL"> F  </i>
  <i type="int" name="ISMEAR">     0</i>
  <i name="SIGMA">      0.20000000</i>
  <v type="int" name="KPOINT_BSE">    -1     0     0     0</v>
 </incar>
 <structure name="primitive_cell" >
  <crystal>
   <varray name="basis" >
    <v>      -2.45000000       2.45000000       1.27400000 </v>
    <v>       2.45000000      -2.45000000       1.27400000 </v>
    <v>       2.45000000       2.45000000      -1.27400000 </v>
   </varray>
   <i name="volume">     30.58874000 </i>
   <varray name="rec_basis" >
    <v>       0.00000000       0.20408163       0.39246468 </v>
    <v>       0.20408163       0.00000000       0.39246468 </v>
    <v>       0.20408163       0.20408163      -0.00000000 </v>
   </varray>
  </crystal>
  <varray name="positions" >
   <v>       0.25000000      -0.25000000      -0.50000000 </v>
   <v>       0.00000000       0.00000000       0.00000000 </v>
  </varray>
 </structure>
 <varray name="primitive_index" >
  <v type="int" >        1 </v>
  <v type="int" >        2 </v>
 </varray>
 <kpoints>
  <generation param="Monkhorst-Pack">
   <v type="int" name="divisions">      11       11       11 </v>
   <v name="usershift">      0.00000000       0.00000000       0.00000000 </v>
   <v name="genvec1">      0.09090909       0.00000000      -0.00000000 </v>
   <v name="genvec2">      0.00000000       0.09090909      -0.00000000 </v>
   <v name="genvec3">     -0.00000000       0.00000000       0.09090909 </v>
   <v name="shift">      0.00000000       0.00000000       0.00000000 </v>
  </generation>
  <varray name="kpointlist" >
   <v>       0.00000000       0.00000000       0.00000000 </v>
   <v>       0.09090909      -0.00000000       0.00000000 </v>
   <v>       0.18181818      -0.00000000       0.00000000 </v>
   <v>       0.27272727      -0.00000000       0.00000000 </v>
   <v>       0.36363636      -0.00000000       0.00000000 </v>
   <v>       0.45454545      -0.00000000      -0.00000000 </v>
   <v>       0.09090909       0.09090909       0.00000000 </v>
   <v>       0.18181818       0.09090909      -0.00000000 </v>
   <v>       0.27272727       0.09090909       0.00000000 </v>
   <v>       0.36363636       0.09090909       0.00000000 </v>
   <v>       0.45454545       0.09090909      -0.00000000 </v>
   <v>      -0.45454545       0.09090909      -0.00000000 </v>
   <v>      -0.36363636       0.09090909       0.00000000 </v>
   <v>      -0.27272727       0.09090909       0.00000000 </v>
   <v>      -0.18181818       0.09090909       0.00000000 </v>
   <v>      -0.09090909       0.09090909       0.00000000 </v>
   <v>       0.18181818       0.18181818       0.00000000 </v>
   <v>       0.27272727       0.18181818       0.00000000 </v>
   <v>       0.36363636       0.18181818      -0.00000000 </v>
   <v>       0.45454545       0.18181818      -0.00000000 </v>
   <v>      -0.45454545       0.18181818      -0.00000000 </v>
   <v>      -0.36363636       0.18181818       0.00000000 </v>
   <v>      -0.27272727       0.18181818      -0.00000000 </v>
   <v>      -0.18181818       0.18181818       0.00000000 </v>
   <v>       0.27272727       0.27272727      -0.00000000 </v>
   <v>       0.36363636       0.27272727      -0.00000000 </v>
   <v>       0.45454545       0.27272727       0.00000000 </v>
   <v>      -0.45454545       0.27272727       0.00000000 </v>
   <v>      -0.36363636       0.27272727      -0.00000000 </v>
   <v>      -0.27272727       0.27272727      -0.00000000 </v>
   <v>       0.36363636       0.36363636       0.00000000 </v>
   <v>       0.45454545       0.36363636      -0.00000000 </v>
   <v>      -0.45454545       0.36363636      -0.00000000 </v>
   <v>      -0.36363636       0.36363636       0.00000000 </v>
   <v>       0.45454545       0.45454545      -0.00000000 </v>
   <v>      -0.45454545       0.45454545      -0.00000000 </v>
   <v>       0.09090909       0.09090909       0.09090909 </v>
   <v>       0.18181818       0.09090909       0.09090909 </v>
   <v>       0.27272727       0.09090909       0.09090909 </v>
   <v>       0.36363636       0.09090909       0.09090909 </v>
   <v>      -0.09090909       0.09090909       0.09090909 </v>
   <v>       0.18181818       0.18181818       0.09090909 </v>
   <v>       0.27272727       0.18181818       0.09090909 </v>
   <v>       0.36363636       0.18181818       0.09090909 </v>
   <v>       0.45454545       0.18181818       0.09090909 </v>
   <v>      -0.45454545       0.18181818       0.09090909 </v>
   <v>      -0.36363636       0.18181818       0.09090909 </v>
   <v>      -0.18181818       0.18181818       0.09090909 </v>
   <v>      -0.09090909       0.18181818       0.09090909 </v>
   <v>       0.27272727       0.27272727       0.09090909 </v>
   <v>       0.36363636       0.27272727       0.09090909 </v>
   <v>       0.45454545       0.27272727       0.09090909 </v>
   <v>      -0.45454545       0.27272727       0.09090909 </v>
   <v>      -0.27272727       0.27272727       0.09090909 </v>
   <v>      -0.18181818       0.27272727       0.09090909 </v>
   <v>      -0.09090909       0.27272727       0.09090909 </v>
   <v>       0.36363636       0.36363636       0.09090909 </v>
   <v>       0.45454545       0.36363636       0.09090909 </v>
   <v>      -0.36363636       0.36363636       0.09090909 </v>
   <v>      -0.27272727       0.36363636       0.09090909 </v>
   <v>      -0.18181818       0.36363636       0.09090909 </v>
   <v>      -0.09090909       0.36363636       0.09090909 </v>
   <v>      -0.45454545       0.45454545       0.09090909 </v>
   <v>      -0.36363636       0.45454545       0.09090909 </v>
   <v>      -0.27272727       0.45454545       0.09090909 </v>
   <v>      -0.18181818       0.45454545       0.09090909 </v>
   <v>      -0.09090909       0.45454545       0.09090909 </v>
   <v>      -0.45454545      -0.45454545       0.09090909 </v>
   <v>      -0.36363636      -0.45454545       0.09090909 </v>
   <v>      -0.27272727      -0.45454545       0.09090909 </v>
   <v>      -0.18181818      -0.45454545       0.09090909 </v>
   <v>      -0.09090909      -0.45454545       0.09090909 </v>
   <v>      -0.36363636      -0.36363636       0.09090909 </v>
   <v>      -0.27272727      -0.36363636       0.09090909 </v>
   <v>      -0.18181818      -0.36363636       0.09090909 </v>
   <v>      -0.09090909      -0.36363636       0.09090909 </v>
   <v>      -0.27272727      -0.27272727       0.09090909 </v>
   <v>      -0.18181818      -0.27272727       0.09090909 </v>
   <v>      -0.09090909      -0.27272727       0.09090909 </v>
   <v>      -0.18181818      -0.18181818       0.09090909 </v>
   <v>      -0.09090909      -0.18181818       0.09090909 </v>
   <v>      -0.09090909      -0.09090909       0.09090909 </v>
   <v>       0.18181818       0.18181818       0.18181818 </v>
   <v>       0.27272727       0.18181818       0.18181818 </v>
   <v>      -0.18181818       0.18181818       0.18181818 </v>
   <v>       0.27272727       0.27272727       0.18181818 </v>
   <v>       0.36363636       0.27272727       0.18181818 </v>
   <v>      -0.27272727       0.27272727       0.18181818 </v>
   <v>      -0.18181818       0.27272727       0.18181818 </v>
   <v>      -0.36363636       0.36363636       0.18181818 </v>
   <v>      -0.27272727       0.36363636       0.18181818 </v>
   <v>      -0.18181818       0.36363636       0.18181818 </v>
   <v>      -0.45454545       0.45454545       0.18181818 </v>
   <v>      -0.36363636       0.45454545       0.18181818 </v>
   <v>      -0.27272727       0.45454545       0.18181818 </v>
   <v>      -0.18181818       0.45454545       0.18181818 </v>
   <v>      -0.45454545      -0.45454545       0.18181818 </v>
   <v>      -0.36363636      -0.45454545       0.18181818 </v>
   <v>      -0.27272727      -0.45454545       0.18181818 </v>
   <v>      -0.18181818      -0.45454545       0.18181818 </v>
   <v>      -0.36363636      -0.36363636       0.18181818 </v>
   <v>      -0.27272727      -0.36363636       0.18181818 </v>
   <v>      -0.18181818      -0.36363636       0.18181818 </v>
   <v>      -0.27272727      -0.27272727       0.18181818 </v>
   <v>      -0.18181818      -0.27272727       0.18181818 </v>
   <v>      -0.18181818      -0.18181818       0.18181818 </v>
   <v>      -0.27272727       0.27272727       0.27272727 </v>
   <v>      -0.36363636       0.36363636       0.27272727 </v>
   <v>      -0.27272727       0.36363636       0.27272727 </v>
   <v>      -0.45454545       0.45454545       0.27272727 </v>
   <v>      -0.36363636       0.45454545       0.27272727 </v>
   <v>      -0.27272727       0.45454545       0.27272727 </v>
   <v>      -0.45454545      -0.45454545       0.27272727 </v>
   <v>      -0.36363636      -0.45454545       0.27272727 </v>
   <v>      -0.27272727      -0.45454545       0.27272727 </v>
   <v>      -0.36363636      -0.36363636       0.27272727 </v>
   <v>      -0.27272727      -0.36363636       0.27272727 </v>
   <v>      -0.27272727      -0.27272727       0.27272727 </v>
   <v>      -0.36363636       0.36363636       0.36363636 </v>
   <v>      -0.45454545       0.45454545       0.36363636 </v>
   <v>      -0.36363636       0.45454545       0.36363636 </v>
   <v>      -0.45454545      -0.45454545       0.36363636 </v>
   <v>      -0.36363636      -0.45454545       0.36363636 </v>
   <v>      -0.36363636      -0.36363636       0.36363636 </v>
   <v>      -0.45454545       0.45454545       0.45454545 </v>
   <v>      -0.45454545      -0.45454545       0.45454545 </v>
  </varray>
  <varray name="weights" >
   <v>       0.00075131 </v>
   <v>       0.00601052 </v>
   <v>       0.00601052 </v>
   <v>       0.00601052 </v>
   <v>       0.00601052 </v>
   <v>       0.00601052 </v>
   <v>       0.00601052 </v>
   <v>       0.01202104 </v>
   <v>       0.01202104 </v>
   <v>       0.01202104 </v>
   <v>       0.01202104 </v>
   <v>       0.01202104 </v>
   <v>       0.01202104 </v>
   <v>       0.01202104 </v>
   <v>       0.01202104 </v>
   <v>       0.00300526 </v>
   <v>       0.00601052 </v>
   <v>       0.01202104 </v>
   <v>       0.01202104 </v>
   <v>       0.01202104 </v>
   <v>       0.01202104 </v>
   <v>       0.01202104 </v>
   <v>       0.01202104 </v>
   <v>       0.00300526 </v>
   <v>       0.00601052 </v>
   <v>       0.01202104 </v>
   <v>       0.01202104 </v>
   <v>       0.01202104 </v>
   <v>       0.01202104 </v>
   <v>       0.00300526 </v>
   <v>       0.00601052 </v>
   <v>       0.01202104 </v>
   <v>       0.01202104 </v>
   <v>       0.00300526 </v>
   <v>       0.00601052 </v>
   <v>       0.00300526 </v>
   <v>       0.00601052 </v>
   <v>       0.01202104 </v>
   <v>       0.01202104 </v>
   <v>       0.01202104 </v>
   <v>       0.00300526 </v>
   <v>       0.00601052 </v>
   <v>       0.01202104 </v>
   <v>       0.01202104 </v>
   <v>       0.01202104 </v>
   <v>       0.01202104 </v>
   <v>       0.00601052 </v>
   <v>       0.00601052 </v>
   <v>       0.00601052 </v>
   <v>       0.00601052 </v>
   <v>       0.01202104 </v>
   <v>       0.01202104 </v>
   <v>       0.00601052 </v>
   <v>       0.00601052 </v>
   <v>       0.01202104 </v>
   <v>       0.00601052 </v>
   <v>       0.00601052 </v>
   <v>       0.00601052 </v>
   <v>       0.00601052 </v>
   <v>       0.01202104 </v>
   <v>       0.01202104 </v>
   <v>       0.00601052 </v>
   <v>       0.00601052 </v>
   <v>       0.01202104 </v>
   <v>       0.01202104 </v>
   <v>       0.01202104 </v>
   <v>       0.00601052 </v>
   <v>       0.00601052 </v>
   <v>       0.01202104 </v>
   <v>       0.01202104 </v>
   <v>       0.01202104 </v>
   <v>       0.00601052 </v>
   <v>       0.00601052 </v>
   <v>       0.01202104 </v>
   <v>       0.01202104 </v>
   <v>       0.00601052 </v>
   <v>       0.00601052 </v>
   <v>       0.01202104 </v>
   <v>       0.00601052 </v>
   <v>       0.00601052 </v>
   <v>       0.00601052 </v>
   <v>       0.00150263 </v>
   <v>       0.00601052 </v>
   <v>       0.01202104 </v>
   <v>       0.00300526 </v>
   <v>       0.00601052 </v>
   <v>       0.00601052 </v>
   <v>       0.00601052 </v>
   <v>       0.00601052 </v>
   <v>       0.00601052 </v>
   <v>       0.01202104 </v>
   <v>       0.00601052 </v>
   <v>       0.00601052 </v>
   <v>       0.01202104 </v>
   <v>       0.01202104 </v>
   <v>       0.00601052 </v>
   <v>       0.00601052 </v>
   <v>       0.01202104 </v>
   <v>       0.01202104 </v>
   <v>       0.00601052 </v>
   <v>       0.00601052 </v>
   <v>       0.01202104 </v>
   <v>       0.00601052 </v>
   <v>       0.00601052 </v>
   <v>       0.00601052 </v>
   <v>       0.00150263 </v>
   <v>       0.00300526 </v>
   <v>       0.00601052 </v>
   <v>       0.00601052 </v>
   <v>       0.00601052 </v>
   <v>       0.01202104 </v>
   <v>       0.00601052 </v>
   <v>       0.00601052 </v>
   <v>       0.01202104 </v>
   <v>       0.00601052 </v>
   <v>       0.00601052 </v>
   <v>       0.00601052 </v>
   <v>       0.00150263 </v>
   <v>       0.00300526 </v>
   <v>       0.00601052 </v>
   <v>       0.00601052 </v>
   <v>       0.00601052 </v>
   <v>       0.00601052 </v>
   <v>       0.00150263 </v>
   <v>       0.00300526 </v>
   <v>       0.00150263 </v>
  </varray>
 </kpoints>
 <parameters>
  <separator name="general" >
   <i type="string" name="SYSTEM">unknown system</i>
   <i type="logical" name="LCOMPAT"> F  </i>
  </separator>
  <separator name="electronic" >
   <i type="string" name="PREC">normal</i>
   <i name="ENMAX">    350.00000000</i>
   <i name="ENAUG">    322.06900000</i>
   <i name="EDIFF">      0.00040000</i>
   <i type="int" name="IALGO">    38</i>
   <i type="int" name="IWAVPR">    11</i>
   <i type="int" name="NBANDS">     8</i>
   <i name="NELECT">      8.00000000</i>
   <i type="int" name="TURBO">     0</i>
   <i type="int" name="IRESTART">     0</i>
   <i type="int" name="NREBOOT">     0</i>
   <i type="int" name="NMIN">     0</i>
   <i name="EREF">      0.00000000</i>
   <separator name="electronic smearing" >
    <i type="int" name="ISMEAR">     0</i>
    <i name="SIGMA">      0.20000000</i>
    <i name="KSPACING">      0.50000000</i>
    <i type="logical" name="KGAMMA"> T  </i>
   </separator>
   <separator name="electronic projectors" >
    <i type="logical" name="LREAL"> F  </i>
    <v name="ROPT">      0.00000000</v>
    <i type="int" name="LMAXPAW">  -100</i>
    <i type="int" name="LMAXMIX">     2</i>
    <i type="logical" name="NLSPLINE"> F  </i>
   </separator>
   <separator name="electronic startup" >
    <i type="int" name="ISTART">     0</i>
    <i type="int" name="ICHARG">     2</i>
    <i type="int" name="INIWAV">     1</i>
   </separator>
   <separator name="electronic spin" >
    <i type="int" name="ISPIN">     1</i>
    <i type="logical" name="LNONCOLLINEAR"> F  </i>
    <v name="MAGMOM">      1.00000000      1.00000000</v>
    <i name="NUPDOWN">     -1.00000000</i>
    <i type="logical" name="LSORBIT"> F  </i>
    <v name="SAXIS">      0.00000000      0.00000000      1.00000000</v>
    <i type="logical" name="LSPIRAL"> F  </i>
    <v name="QSPIRAL">      0.00000000      0.00000000      0.00000000</v>
    <i type="logical" name="LZEROZ"> F  </i>
   </separator>
   <separator name="electronic exchange-correlation" >
    <i type="logical" name="LASPH"> F  </i>
    <i type="logical" name="LMETAGGA"> F  </i>
   </separator>
   <separator name="electronic convergence" >
    <i type="int" name="NELM">    60</i>
    <i type="int" name="NELMDL">    -5</i>
    <i type="int" name="NELMIN">     2</i>
    <i name="ENINI">    350.00000000</i>
    <separator name="electronic convergence detail" >
     <i type="logical" name="LDIAG"> T  </i>
     <i type="logical" name="LSUBROT"> F  </i>
     <i name="WEIMIN">      0.00100000</i>
     <i name="EBREAK">      0.00001250</i>
     <i name="DEPER">      0.30000000</i>
     <i type="int" name="NRMM">     4</i>
     <i name="TIME">      0.40000000</i>
    </separator>
   </separator>
   <separator name="electronic mixer" >
    <i name="AMIX">      0.40000000</i>
    <i name="BMIX">      1.00000000</i>
    <i name="AMIN">      0.10000000</i>
    <i name="AMIX_MAG">      1.60000000</i>
    <i name="BMIX_MAG">      1.00000000</i>
    <separator name="electronic mixer details" >
     <i type="int" name="IMIX">     4</i>
     <i type="logical" name="MIXFIRST"> F  </i>
     <i type="int" name="MAXMIX">   -45</i>
     <i name="WC">    100.00000000</i>
     <i type="int" name="INIMIX">     1</i>
     <i type="int" name="MIXPRE">     1</i>
     <i type="int" name="MREMOVE">     5</i>
    </separator>
   </separator>
   <separator name="electronic dipolcorrection" >
    <i type="logical" name="LDIPOL"> F  </i>
    <i type="logical" name="LMONO"> F  </i>
    <i type="int" name="IDIPOL">     0</i>
    <i name="EPSILON">      1.00000000</i>
    <v name="DIPOL">   -100.00000000   -100.00000000   -100.00000000</v>
    <i name="EFIELD">      0.00000000</i>
   </separator>
  </separator>
  <separator name="grids" >
   <i type="int" name="NGX">    18</i>
   <i type="int" name="NGY">    18</i>
   <i type="int" name="NGZ">    18</i>
   <i type="int" name="NGXF">    36</i>
   <i type="int" name="NGYF">    36</i>
   <i type="int" name="NGZF">    36</i>
   <i type="logical" name="ADDGRID"> F  </i>
  </separator>
  <separator name="ionic" >
   <i type="int" name="NSW">    15</i>
   <i type="int" name="IBRION">     2</i>
   <i type="int" name="MDALGO">     0</i>
   <i type="int" name="ISIF">     3</i>
   <i name="PSTRESS">      0.00000000</i>
   <i name="EDIFFG">     -0.01000000</i>
   <i type="int" name="NFREE">     1</i>
   <i name="POTIM">      0.50000000</i>
   <i name="SMASS">     -3.00000000</i>
   <i name="SCALEE">      1.00000000</i>
  </separator>
  <separator name="ionic md" >
   <i name="TEBEG">      0.00010000</i>
   <i name="TEEND">      0.00010000</i>
   <i type="int" name="NBLOCK">     1</i>
   <i type="int" name="KBLOCK">    15</i>
   <i type="int" name="NPACO">   256</i>
   <i name="APACO">     16.00000000</i>
  </separator>
  <separator name="symmetry" >
   <i type="int" name="ISYM">     2</i>
   <i name="SYMPREC">      0.00001000</i>
  </separator>
  <separator name="dos" >
   <i type="int" name="LORBIT">     0</i>
   <v name="RWIGS">     -1.00000000</v>
   <i type="int" name="NEDOS">   301</i>
   <i name="EMIN">     10.00000000</i>
   <i name="EMAX">    -10.00000000</i>
   <i name="EFERMI">      0.00000000</i>
  </separator>
  <separator name="writing" >
   <i type="int" name="NWRITE">     2</i>
   <i type="logical" name="LWAVE"> T  </i>
   <i type="logical" name="LDOWNSAMPLE"> F  </i>
   <i type="logical" name="LCHARG"> T  </i>
   <i type="logical" name="LPARD"> F  </i>
   <i type="logical" name="LVTOT"> F  </i>
   <i type="logical" name="LVHAR"> F  </i>
   <i type="logical" name="LELF"> F  </i>
   <i type="logical" name="LOPTICS"> F  </i>
   <v name="STM">      0.00000000      0.00000000      0.00000000      0.00000000      0.00000000      0.00000000      0.00000000</v>
  </separator>
  <separator name="performance" >
   <i type="int" name="NPAR">     8</i>
   <i type="int" name="NSIM">     4</i>
   <i type="int" name="NBLK">    -1</i>
   <i type="logical" name="LPLANE"> T  </i>
   <i type="logical" name="LSCALAPACK"> T  </i>
   <i type="logical" name="LSCAAWARE"> F  </i>
   <i type="logical" name="LSCALU"> F  </i>
   <i type="logical" name="LASYNC"> F  </i>
   <i type="logical" name="LORBITALREAL"> F  </i>
  </separator>
  <separator name="miscellaneous" >
   <i type="int" name="IDIOT">     3</i>
   <i type="int" name="ISPECIAL">     0</i>
   <i type="logical" name="LMUSIC"> F  </i>
   <v name="POMASS">     28.08500000</v>
   <v name="DARWINR">      0.00000000</v>
   <v name="DARWINV">      1.00000000</v>
   <i type="logical" name="LCORR"> T  </i>
  </separator>
  <i type="logical" name="GGA_COMPAT"> T  </i>
  <i type="logical" name="LBERRY"> F  </i>
  <i type="int" name="ICORELEVEL">     0</i>
  <i type="logical" name="LDAU"> F  </i>
  <i type="int" name="I_CONSTRAINED_M">     0</i>
  <separator name="electronic exchange-correlation" >
   <i type="string" name="GGA">--</i>
   <i type="int" name="VOSKOWN">     0</i>
   <i type="logical" name="LHFCALC"> F  </i>
   <i type="string" name="PRECFOCK"></i>
   <i type="logical" name="LSYMGRAD"> F  </i>
   <i type="logical" name="LHFONE"> F  </i>
   <i type="logical" name="LRHFCALC"> F  </i>
   <i type="logical" name="LTHOMAS"> F  </i>
   <i type="logical" name="LMODELHF"> F  </i>
   <i name="ENCUT4O">     -1.00000000</i>
   <i type="int" name="EXXOEP">     0</i>
   <i type="int" name="FOURORBIT">     0</i>
   <i name="AEXX">      0.00000000</i>
   <i name="HFALPHA">      0.00000000</i>
   <i name="MCALPHA">      0.00000000</i>
   <i name="ALDAX">      1.00000000</i>
   <i name="AGGAX">      1.00000000</i>
   <i name="ALDAC">      1.00000000</i>
   <i name="AGGAC">      1.00000000</i>
   <i type="int" name="NKREDX">     1</i>
   <i type="int" name="NKREDY">     1</i>
   <i type="int" name="NKREDZ">     1</i>
   <i type="logical" name="SHIFTRED"> F  </i>
   <i type="logical" name="ODDONLY"> F  </i>
   <i type="logical" name="EVENONLY"> F  </i>
   <i type="int" name="LMAXFOCK">     0</i>
   <i type="int" name="NMAXFOCKAE">     0</i>
   <i type="logical" name="LFOCKAEDFT"> F  </i>
   <i name="HFSCREEN">      0.00000000</i>
   <i name="HFSCREENC">      0.00000000</i>
   <i type="int" name="NBANDSGWLOW">     0</i>
  </separator>
  <separator name="vdW DFT" >
   <i type="logical" name="LUSE_VDW"> F  </i>
   <i name="Zab_VDW">     -0.84910000</i>
   <i name="PARAM1">      0.12340000</i>
   <i name="PARAM2">      1.00000000</i>
   <i name="PARAM3">      0.00000000</i>
  </separator>
  <separator name="model GW" >
   <i type="int" name="MODEL_GW">     0</i>
   <i name="MODEL_EPS0">      9.17662200</i>
   <i name="MODEL_ALPHA">      1.00000000</i>
  </separator>
  <separator name="linear response parameters" >
   <i type="logical" name="LEPSILON"> F  </i>
   <i type="logical" name="LRPA"> F  </i>
   <i type="logical" name="LNABLA"> F  </i>
   <i type="logical" name="LVEL"> F  </i>
   <i type="int" name="KINTER">     0</i>
   <i name="CSHIFT">      0.10000000</i>
   <i name="OMEGAMAX">     -1.00000000</i>
   <i name="DEG_THRESHOLD">      0.00200000</i>
   <i name="RTIME">     -0.10000000</i>
   <i name="WPLASMAI">      0.00000000</i>
   <v name="DFIELD">      0.00000000      0.00000000      0.00000000</v>
   <v name="WPLASMA">      0.00000000      0.00000000      0.00000000      0.00000000      0.00000000      0.00000000      0.00000000      0.00000000      0.00000000</v>
  </separator>
  <separator name="orbital magnetization" >
   <i type="logical" name="NUCIND"> F  </i>
   <v name="MAGPOS">      0.00000000      0.00000000      0.00000000</v>
   <i type="logical" name="LNICSALL"> T  </i>
   <i type="logical" name="ORBITALMAG"> F  </i>
   <i type="logical" name="LMAGBLOCH"> F  </i>
   <i type="logical" name="LCHIMAG"> F  </i>
   <i type="logical" name="LGAUGE"> T  </i>
   <i type="int" name="MAGATOM">     0</i>
   <v name="MAGDIPOL">      0.00000000      0.00000000      0.00000000</v>
   <v name="AVECCONST">      0.00000000      0.00000000      0.00000000</v>
  </separator>
  <separator name="response functions" >
   <i type="logical" name="LADDER"> F  </i>
   <i type="logical" name="LRPAFORCE"> F  </i>
   <i type="logical" name="LFXC"> F  </i>
   <i type="logical" name="LHARTREE"> T  </i>
   <i type="int" name="IBSE">     0</i>
   <v type="int" name="KPOINT">    -1     0     0     0</v>
   <i type="logical" name="LTCTE"> F  </i>
   <i type="logical" name="LTETE"> F  </i>
   <i type="logical" name="LTRIPLET"> F  </i>
   <i type="logical" name="LFXCEPS"> F  </i>
   <i type="logical" name="LFXHEG"> F  </i>
   <i type="int" name="NATURALO">     2</i>
   <i type="logical" name="L2ORDER"> F  </i>
   <i type="logical" name="LMP2LT"> F  </i>
   <i type="logical" name="LUSEW"> F  </i>
   <i name="ENCUTGW">     -2.00000000</i>
   <i name="ENCUTGWSOFT">     -2.00000000</i>
   <i name="ENCUTLF">     -1.00000000</i>
   <i type="int" name="LMAXMP2">    -1</i>
   <i name="SCISSOR">      0.00000000</i>
   <i type="int" name="NOMEGA">     0</i>
   <i type="int" name="NOMEGAR">     0</i>
   <i type="int" name="NBANDSGW">    -1</i>
   <i type="int" name="NBANDSO">    -1</i>
   <i type="int" name="NBANDSV">    -1</i>
   <i type="int" name="NELM">     1</i>
   <i type="int" name="NELMHF">     1</i>
   <i type="int" name="DIM">     3</i>
   <i type="int" name="ANTIRES">     0</i>
   <i name="OMEGAMAX">    -30.00000000</i>
   <i name="OMEGAMIN">    -30.00000000</i>
   <i name="OMEGATL">   -200.00000000</i>
   <i type="int" name="OMEGAGRID">   140</i>
   <i name="CSHIFT">     -0.10000000</i>
   <i type="logical" name="SELFENERGY"> F  </i>
   <i type="logical" name="LSPECTRAL"> F  </i>
   <i type="logical" name="LSPECTRALGW"> F  </i>
   <i type="logical" name="LSINGLES"> F  </i>
   <i type="logical" name="LFERMIGW"> F  </i>
   <i type="logical" name="ODDONLYGW"> F  </i>
   <i type="logical" name="EVENONLYGW"> F  </i>
   <i type="int" name="NKREDLFX">     1</i>
   <i type="int" name="NKREDLFY">     1</i>
   <i type="int" name="NKREDLFZ">     1</i>
   <i type="int" name="MAXMEM">  2800</i>
   <i type="int" name="TELESCOPE">     0</i>
   <i type="int" name="TAUPAR">     1</i>
   <i type="int" name="OMEGAPAR">    -1</i>
   <i name="LAMBDA">      1.00000000</i>
  </separator>
  <separator name="External order field" >
   <i name="OFIELD_KAPPA">      0.00000000</i>
   <v name="OFIELD_K">      0.00000000      0.00000000      0.00000000</v>
   <i name="OFIELD_Q6_NEAR">      0.00000000</i>
   <i name="OFIELD_Q6_FAR">      0.00000000</i>
   <i name="OFIELD_A">      0.00000000</i>
  </separator>
 </parameters>
 <atominfo>
  <atoms>       2 </atoms>
  <types>       1 </types>
  <array name="atoms" >
   <dimension dim="1">ion</dimension>
   <field type="string">element</field>
   <field type="int">atomtype</field>
   <set>
    <rc><c>Si</c><c>   1</c></rc>
    <rc><c>Si</c><c>   1</c></rc>
   </set>
  </array>
  <array name="atomtypes" >
   <dimension dim="1">type</dimension>
   <field type="int">atomspertype</field>
   <field type="string">element</field>
   <field>mass</field>
   <field>valence</field>
   <field type="string">pseudopotential</field>
   <set>
    <rc><c>   2</c><c>Si</c><c>     28.08500000</c><c>      4.00000000</c><c> PAW_PBE Si 05Jan2001                   </c></rc>
   </set>
  </array>
 </atominfo>
 <structure name="initialpos" >
  <crystal>
   <varray name="basis" >
    <v>      -2.45000000       2.45000000       1.27400000 </v>
    <v>       2.45000000      -2.45000000       1.27400000 </v>
    <v>       2.45000000       2.45000000      -1.27400000 </v>
   </varray>
   <i name="volume">     30.58874000 </i>
   <varray name="rec_basis" >
    <v>       0.00000000       0.20408163       0.39246468 </v>
    <v>       0.20408163       0.00000000       0.39246468 </v>
    <v>       0.20408163       0.20408163      -0.00000000 </v>
   </varray>
  </crystal>
  <varray name="positions" >
   <v>       0.25000000       0.75000000       0.50000000 </v>
   <v>       0.00000000       0.00000000       0.00000000 </v>
  </varray>
 </structure>
 <calculation>
  <scstep>
   <time name="dav">    1.10    1.11</time>
   <time name="total">    1.13    1.18</time>
   <energy>
    <i name="alphaZ">      4.40202223 </i>
    <i name="ewald">   -265.18101312 </i>
    <i name="hartreedc">     -2.30415367 </i>
    <i name="XCdc">    -17.81549222 </i>
    <i name="pawpsdc">     65.95520812 </i>
    <i name="pawaedc">    -30.76852678 </i>
    <i name="eentropy">     -0.01093725 </i>
    <i name="bandstr">     41.39983580 </i>
    <i name="atom">    206.13125414 </i>
    <i name="e_fr_energy">      1.80819725 </i>
    <i name="e_wo_entrp">      1.81913450 </i>
    <i name="e_0_energy">      1.81366588 </i>
   </energy>
  </scstep>
  <scstep>
   <time name="dav">    1.53    1.59</time>
   <time name="total">    1.54    1.60</time>
   <energy>
    <i name="e_fr_energy">    -10.11995386 </i>
    <i name="e_wo_entrp">    -10.10473132 </i>
    <i name="e_0_energy">    -10.11234259 </i>
   </energy>
  </scstep>
  <scstep>
   <time name="dav">    1.49    1.52</time>
   <time name="total">    1.50    1.53</time>
   <energy>
    <i name="e_fr_energy">    -10.25812800 </i>
    <i name="e_wo_entrp">    -10.24249938 </i>
    <i name="e_0_energy">    -10.25031369 </i>
   </energy>
  </scstep>
  <scstep>
   <time name="dav">    1.53    1.55</time>
   <time name="total">    1.54    1.55</time>
   <energy>
    <i name="e_fr_energy">    -10.25844918 </i>
    <i name="e_wo_entrp">    -10.24281670 </i>
    <i name="e_0_energy">    -10.25063294 </i>
   </energy>
  </scstep>
  <scstep>
   <time name="dav">    1.48    1.49</time>
   <time name="total">    1.57    1.59</time>
   <energy>
    <i name="e_fr_energy">    -10.25844963 </i>
    <i name="e_wo_entrp">    -10.24281715 </i>
    <i name="e_0_energy">    -10.25063339 </i>
   </energy>
  </scstep>
  <scstep>
   <time name="dav">    1.34    1.34</time>
   <time name="total">    1.46    1.50</time>
   <energy>
    <i name="e_fr_energy">    -10.25398818 </i>
    <i name="e_wo_entrp">    -10.23833176 </i>
    <i name="e_0_energy">    -10.24615997 </i>
   </energy>
  </scstep>
  <scstep>
   <time name="dav">    0.78    0.78</time>
   <time name="total">    0.85    0.88</time>
   <energy>
    <i name="e_fr_energy">    -10.25024037 </i>
    <i name="e_wo_entrp">    -10.23453536 </i>
    <i name="e_0_energy">    -10.24238787 </i>
   </energy>
  </scstep>
  <scstep>
   <time name="dav">    0.52    0.52</time>
   <time name="total">    0.54    0.56</time>
   <energy>
    <i name="alphaZ">      4.40202223 </i>
    <i name="ewald">   -265.18101312 </i>
    <i name="hartreedc">     -2.49234811 </i>
    <i name="XCdc">    -17.58384675 </i>
    <i name="pawpsdc">     70.18238108 </i>
    <i name="pawaedc">    -35.09398853 </i>
    <i name="eentropy">     -0.01569220 </i>
    <i name="bandstr">     29.40100564 </i>
    <i name="atom">    206.13125414 </i>
    <i name="e_fr_energy">    -10.25022561 </i>
    <i name="e_wo_entrp">    -10.23453341 </i>
    <i name="e_0_energy">    -10.24237951 </i>
   </energy>
  </scstep>
  <structure>
   <crystal>
    <varray name="basis" >
     <v>      -2.45000000       2.45000000       1.27400000 </v>
     <v>       2.45000000      -2.45000000       1.27400000 </v>
     <v>       2.45000000       2.45000000      -1.27400000 </v>
    </varray>
    <i name="volume">     30.58874000 </i>
    <varray name="rec_basis" >
     <v>       0.00000000       0.20408163       0.39246468 </v>
     <v>       0.20408163       0.00000000       0.39246468 </v>
     <v>       0.20408163       0.20408163      -0.00000000 </v>
    </varray>
   </crystal>
   <varray name="positions" >
    <v>       0.25000000       0.75000000       0.50000000 </v>
    <v>       0.00000000       0.00000000       0.00000000 </v>
   </varray>
  </structure>
  <varray name="forces" >
   <v>      -0.00000000       0.00000000      -0.00000000 </v>
   <v>       0.00000000      -0.00000000       0.00000000 </v>
  </varray>
  <varray name="stress" >
   <v>     -21.03549751       0.00000000       0.00000000 </v>
   <v>      -0.00000000     -21.03549751       0.00000000 </v>
   <v>       0.00000000       0.00000000      48.55495016 </v>
  </varray>
  <energy>
   <i name="e_fr_energy">    -10.25022561 </i>
   <i name="e_wo_entrp">    -10.24237951 </i>
   <i name="e_0_energy">     -0.01569220 </i>
  </energy>
  <time name="totalsc">   11.20   14.42</time>
 </calculation>
 <calculation>
  <scstep>
   <time name="dav">    0.98    0.98</time>
   <time name="total">    1.03    1.05</time>
   <energy>
    <i name="alphaZ">      4.39039328 </i>
    <i name="ewald">   -265.05296087 </i>
    <i name="hartreedc">     -2.47627526 </i>
    <i name="XCdc">    -17.59701187 </i>
    <i name="pawpsdc">     70.17793624 </i>
    <i name="pawaedc">    -35.08983006 </i>
    <i name="eentropy">     -0.01551475 </i>
    <i name="bandstr">     29.25572685 </i>
    <i name="atom">    206.13125414 </i>
    <i name="e_fr_energy">    -10.27628230 </i>
    <i name="e_wo_entrp">    -10.26076755 </i>
    <i name="e_0_energy">    -10.26852493 </i>
   </energy>
  </scstep>
  <scstep>
   <time name="dav">    0.83    0.83</time>
   <time name="total">    0.89    0.92</time>
   <energy>
    <i name="e_fr_energy">    -10.26869094 </i>
    <i name="e_wo_entrp">    -10.25290037 </i>
    <i name="e_0_energy">    -10.26079565 </i>
   </energy>
  </scstep>
  <scstep>
   <time name="dav">    0.98    0.98</time>
   <time name="total">    1.04    1.07</time>
   <energy>
    <i name="e_fr_energy">    -10.26503607 </i>
    <i name="e_wo_entrp">    -10.24892740 </i>
    <i name="e_0_energy">    -10.25698173 </i>
   </energy>
  </scstep>
  <scstep>
   <time name="dav">    0.50    0.50</time>
   <time name="total">    0.52    0.55</time>
   <energy>
    <i name="alphaZ">      4.39039328 </i>
    <i name="ewald">   -265.05296087 </i>
    <i name="hartreedc">     -2.46852157 </i>
    <i name="XCdc">    -17.59779537 </i>
    <i name="pawpsdc">     70.14593700 </i>
    <i name="pawaedc">    -35.05737364 </i>
    <i name="eentropy">     -0.01610119 </i>
    <i name="bandstr">     29.26010227 </i>
    <i name="atom">    206.13125414 </i>
    <i name="e_fr_energy">    -10.26506595 </i>
    <i name="e_wo_entrp">    -10.24896476 </i>
    <i name="e_0_energy">    -10.25701536 </i>
   </energy>
  </scstep>
  <structure>
   <crystal>
    <varray name="basis" >
     <v>      -2.42626599       2.42626599       1.30248755 </v>
     <v>       2.42626599      -2.42626599       1.30248755 </v>
     <v>       2.42626599       2.42626599      -1.30248755 </v>
    </varray>
    <i name="volume">     30.66976124 </i>
    <varray name="rec_basis" >
     <v>       0.00000000       0.20607798       0.38388083 </v>
     <v>       0.20607798       0.00000000       0.38388083 </v>
     <v>       0.20607798       0.20607798       0.00000000 </v>
    </varray>
   </crystal>
   <varray name="positions" >
    <v>       0.25000000       0.75000000       0.50000000 </v>
    <v>      -0.00000000       0.00000000      -0.00000000 </v>
   </varray>
  </structure>
  <varray name="forces" >
   <v>       0.00000000      -0.00000000       0.00000000 </v>
   <v>      -0.00000000       0.00000000      -0.00000000 </v>
  </varray>
  <varray name="stress" >
   <v>      -2.67772140       0.00000000       0.00000000 </v>
   <v>       0.00000000      -2.67772140       0.00000000 </v>
   <v>       0.00000000       0.00000000       0.71232731 </v>
  </varray>
  <energy>
   <i name="e_fr_energy">    -10.26506595 </i>
   <i name="e_wo_entrp">    -10.25701536 </i>
   <i name="e_0_energy">     -0.01610119 </i>
  </energy>
  <time name="totalsc">    3.94    4.66</time>
 </calculation>
 <calculation>
  <scstep>
   <time name="dav">    0.94    0.94</time>
   <time name="total">    0.99    1.01</time>
   <energy>
    <i name="alphaZ">      4.38991341 </i>
    <i name="ewald">   -265.04550742 </i>
    <i name="hartreedc">     -2.46615232 </i>
    <i name="XCdc">    -17.59886897 </i>
    <i name="pawpsdc">     70.13973392 </i>
    <i name="pawaedc">    -35.05086864 </i>
    <i name="eentropy">     -0.01609783 </i>
    <i name="bandstr">     29.25144242 </i>
    <i name="atom">    206.13125414 </i>
    <i name="e_fr_energy">    -10.26515128 </i>
    <i name="e_wo_entrp">    -10.24905346 </i>
    <i name="e_0_energy">    -10.25710237 </i>
   </energy>
  </scstep>
  <scstep>
   <time name="dav">    0.44    0.44</time>
   <time name="total">    0.46    0.49</time>
   <energy>
    <i name="alphaZ">      4.38991341 </i>
    <i name="ewald">   -265.04550742 </i>
    <i name="hartreedc">     -2.46626632 </i>
    <i name="XCdc">    -17.59889435 </i>
    <i name="pawpsdc">     70.13963705 </i>
    <i name="pawaedc">    -35.05077280 </i>
    <i name="eentropy">     -0.01610681 </i>
    <i name="bandstr">     29.25160240 </i>
    <i name="atom">    206.13125414 </i>
    <i name="e_fr_energy">    -10.26514069 </i>
    <i name="e_wo_entrp">    -10.24903388 </i>
    <i name="e_0_energy">    -10.25708729 </i>
   </energy>
  </scstep>
  <structure>
   <crystal>
    <varray name="basis" >
     <v>      -2.42513386       2.42513386       1.30384644 </v>
     <v>       2.42513386      -2.42513386       1.30384644 </v>
     <v>       2.42513386       2.42513386      -1.30384644 </v>
    </varray>
    <i name="volume">     30.67311377 </i>
    <varray name="rec_basis" >
     <v>       0.00000000       0.20617419       0.38348074 </v>
     <v>       0.20617419       0.00000000       0.38348074 </v>
     <v>       0.20617419       0.20617419      -0.00000000 </v>
    </varray>
   </crystal>
   <varray name="positions" >
    <v>       0.25000000       0.75000000       0.50000000 </v>
    <v>      -0.00000000       0.00000000      -0.00000000 </v>
   </varray>
  </structure>
  <varray name="forces" >
   <v>       0.00000000      -0.00000000       0.00000000 </v>
   <v>      -0.00000000       0.00000000      -0.00000000 </v>
  </varray>
  <varray name="stress" >
   <v>      -2.70570161       0.00000000       0.00000000 </v>
   <v>       0.00000000      -2.70570161       0.00000000 </v>
   <v>       0.00000000       0.00000000       0.95242894 </v>
  </varray>
  <energy>
   <i name="e_fr_energy">    -10.26514069 </i>
   <i name="e_wo_entrp">    -10.25708729 </i>
   <i name="e_0_energy">     -0.01610681 </i>
  </energy>
  <time name="totalsc">    1.91    2.47</time>
 </calculation>
 <calculation>
  <scstep>
   <time name="dav">    1.02    1.01</time>
   <time name="total">    1.07    1.08</time>
   <energy>
    <i name="alphaZ">      4.38897388 </i>
    <i name="ewald">   -265.03025760 </i>
    <i name="hartreedc">     -2.46541958 </i>
    <i name="XCdc">    -17.60008137 </i>
    <i name="pawpsdc">     70.13899151 </i>
    <i name="pawaedc">    -35.05010962 </i>
    <i name="eentropy">     -0.01617109 </i>
    <i name="bandstr">     29.23760203 </i>
    <i name="atom">    206.13125414 </i>
    <i name="e_fr_energy">    -10.26521770 </i>
    <i name="e_wo_entrp">    -10.24904661 </i>
    <i name="e_0_energy">    -10.25713216 </i>
   </energy>
  </scstep>
  <scstep>
   <time name="dav">    0.48    0.47</time>
   <time name="total">    0.50    0.51</time>
   <energy>
    <i name="alphaZ">      4.38897388 </i>
    <i name="ewald">   -265.03025760 </i>
    <i name="hartreedc">     -2.46603469 </i>
    <i name="XCdc">    -17.59999103 </i>
    <i name="pawpsdc">     70.14177564 </i>
    <i name="pawaedc">    -35.05298384 </i>
    <i name="eentropy">     -0.01618920 </i>
    <i name="bandstr">     29.23829789 </i>
    <i name="atom">    206.13125414 </i>
    <i name="e_fr_energy">    -10.26515482 </i>
    <i name="e_wo_entrp">    -10.24896562 </i>
    <i name="e_0_energy">    -10.25706022 </i>
   </energy>
  </scstep>
  <structure>
   <crystal>
    <varray name="basis" >
     <v>      -2.42286959       2.42286959       1.30656420 </v>
     <v>       2.42286959      -2.42286959       1.30656420 </v>
     <v>       2.42286959       2.42286959      -1.30656420 </v>
    </varray>
    <i name="volume">     30.67967990 </i>
    <varray name="rec_basis" >
     <v>      -0.00000000       0.20636686       0.38268307 </v>
     <v>       0.20636686       0.00000000       0.38268307 </v>
     <v>       0.20636686       0.20636686      -0.00000000 </v>
    </varray>
   </crystal>
   <varray name="positions" >
    <v>       0.25000000       0.75000000       0.50000000 </v>
    <v>      -0.00000000       0.00000000      -0.00000000 </v>
   </varray>
  </structure>
  <varray name="forces" >
   <v>       0.00000000       0.00000000      -0.00000000 </v>
   <v>      -0.00000000      -0.00000000       0.00000000 </v>
  </varray>
  <varray name="stress" >
   <v>      -1.62501741       0.00000000       0.00000000 </v>
   <v>       0.00000000      -1.62501741       0.00000000 </v>
   <v>       0.00000000       0.00000000      -1.07995910 </v>
  </varray>
  <energy>
   <i name="e_fr_energy">    -10.26515482 </i>
   <i name="e_wo_entrp">    -10.25706022 </i>
   <i name="e_0_energy">     -0.01618920 </i>
  </energy>
  <time name="totalsc">    2.02    2.63</time>
 </calculation>
 <calculation>
  <scstep>
   <time name="dav">    0.47    0.47</time>
   <time name="total">    0.53    0.54</time>
   <energy>
    <i name="alphaZ">      4.38887168 </i>
    <i name="ewald">   -265.02854425 </i>
    <i name="hartreedc">     -2.46676437 </i>
    <i name="XCdc">    -17.60003551 </i>
    <i name="pawpsdc">     70.14393990 </i>
    <i name="pawaedc">    -35.05522545 </i>
    <i name="eentropy">     -0.01622126 </i>
    <i name="bandstr">     29.23761127 </i>
    <i name="atom">    206.13125414 </i>
    <i name="e_fr_energy">    -10.26511386 </i>
    <i name="e_wo_entrp">    -10.24889260 </i>
    <i name="e_0_energy">    -10.25700323 </i>
   </energy>
  </scstep>
  <scstep>
   <time name="dav">    0.43    0.43</time>
   <time name="total">    0.45    0.47</time>
   <energy>
    <i name="alphaZ">      4.38887168 </i>
    <i name="ewald">   -265.02854425 </i>
    <i name="hartreedc">     -2.46667600 </i>
    <i name="XCdc">    -17.60006498 </i>
    <i name="pawpsdc">     70.14357435 </i>
    <i name="pawaedc">    -35.05484512 </i>
    <i name="eentropy">     -0.01622271 </i>
    <i name="bandstr">     29.23753919 </i>
    <i name="atom">    206.13125414 </i>
    <i name="e_fr_energy">    -10.26511370 </i>
    <i name="e_wo_entrp">    -10.24889098 </i>
    <i name="e_0_energy">    -10.25700234 </i>
   </energy>
  </scstep>
  <structure>
   <crystal>
    <varray name="basis" >
     <v>      -2.42261932       2.42261932       1.30686460 </v>
     <v>       2.42261932      -2.42261932       1.30686460 </v>
     <v>       2.42261932       2.42261932      -1.30686460 </v>
    </varray>
    <i name="volume">     30.68039429 </i>
    <varray name="rec_basis" >
     <v>      -0.00000000       0.20638818       0.38259511 </v>
     <v>       0.20638818      -0.00000000       0.38259511 </v>
     <v>       0.20638818       0.20638818      -0.00000000 </v>
    </varray>
   </crystal>
   <varray name="positions" >
    <v>       0.25000000       0.75000000       0.50000000 </v>
    <v>      -0.00000000       0.00000000      -0.00000000 </v>
   </varray>
  </structure>
  <varray name="forces" >
   <v>      -0.00000000       0.00000000       0.00000000 </v>
   <v>       0.00000000      -0.00000000      -0.00000000 </v>
  </varray>
  <varray name="stress" >
   <v>      -0.60768949       0.00000000       0.00000000 </v>
   <v>       0.00000000      -0.60768949       0.00000000 </v>
   <v>       0.00000000       0.00000000      -3.36801821 </v>
  </varray>
  <energy>
   <i name="e_fr_energy">    -10.26511370 </i>
   <i name="e_wo_entrp">    -10.25700234 </i>
   <i name="e_0_energy">     -0.01622271 </i>
  </energy>
  <time name="totalsc">    1.44    1.97</time>
 </calculation>
 <calculation>
  <scstep>
   <time name="dav">    0.42    0.42</time>
   <time name="total">    0.48    0.49</time>
   <energy>
    <i name="alphaZ">      4.38896328 </i>
    <i name="ewald">   -265.03008052 </i>
    <i name="hartreedc">     -2.46670989 </i>
    <i name="XCdc">    -17.59998539 </i>
    <i name="pawpsdc">     70.14331425 </i>
    <i name="pawaedc">    -35.05456959 </i>
    <i name="eentropy">     -0.01621578 </i>
    <i name="bandstr">     29.23890416 </i>
    <i name="atom">    206.13125414 </i>
    <i name="e_fr_energy">    -10.26512534 </i>
    <i name="e_wo_entrp">    -10.24890957 </i>
    <i name="e_0_energy">    -10.25701745 </i>
   </energy>
  </scstep>
  <scstep>
   <time name="dav">    0.41    0.41</time>
   <time name="total">    0.43    0.45</time>
   <energy>
    <i name="alphaZ">      4.38896328 </i>
    <i name="ewald">   -265.03008052 </i>
    <i name="hartreedc">     -2.46662072 </i>
    <i name="XCdc">    -17.60000049 </i>
    <i name="pawpsdc">     70.14291696 </i>
    <i name="pawaedc">    -35.05415792 </i>
    <i name="eentropy">     -0.01621406 </i>
    <i name="bandstr">     29.23881444 </i>
    <i name="atom">    206.13125414 </i>
    <i name="e_fr_energy">    -10.26512489 </i>
    <i name="e_wo_entrp">    -10.24891083 </i>
    <i name="e_0_energy">    -10.25701786 </i>
   </energy>
  </scstep>
  <structure>
   <crystal>
    <varray name="basis" >
     <v>      -2.42284368       2.42284368       1.30659529 </v>
     <v>       2.42284368      -2.42284368       1.30659529 </v>
     <v>       2.42284368       2.42284368      -1.30659529 </v>
    </varray>
    <i name="volume">     30.67975395 </i>
    <varray name="rec_basis" >
     <v>       0.00000000       0.20636907       0.38267396 </v>
     <v>       0.20636907       0.00000000       0.38267396 </v>
     <v>       0.20636907       0.20636907      -0.00000000 </v>
    </varray>
   </crystal>
   <varray name="positions" >
    <v>       0.25000000       0.75000000       0.50000000 </v>
    <v>      -0.00000000       0.00000000      -0.00000000 </v>
   </varray>
  </structure>
  <varray name="forces" >
   <v>      -0.00000000       0.00000000       0.00000000 </v>
   <v>       0.00000000      -0.00000000      -0.00000000 </v>
  </varray>
  <varray name="stress" >
   <v>      -0.62619707      -0.00000000       0.00000000 </v>
   <v>      -0.00000000      -0.62619707       0.00000000 </v>
   <v>       0.00000000       0.00000000      -3.37836900 </v>
  </varray>
  <energy>
   <i name="e_fr_energy">    -10.26512489 </i>
   <i name="e_wo_entrp">    -10.25701786 </i>
   <i name="e_0_energy">     -0.01621406 </i>
  </energy>
  <time name="totalsc">    1.36    1.89</time>
 </calculation>
 <calculation>
  <scstep>
   <time name="dav">    0.41    0.41</time>
   <time name="total">    0.47    0.48</time>
   <energy>
    <i name="alphaZ">      4.38897278 </i>
    <i name="ewald">   -265.03023924 </i>
    <i name="hartreedc">     -2.46646358 </i>
    <i name="XCdc">    -17.60001760 </i>
    <i name="pawpsdc">     70.14261039 </i>
    <i name="pawaedc">    -35.05384082 </i>
    <i name="eentropy">     -0.01621091 </i>
    <i name="bandstr">     29.23880925 </i>
    <i name="atom">    206.13125414 </i>
    <i name="e_fr_energy">    -10.26512559 </i>
    <i name="e_wo_entrp">    -10.24891468 </i>
    <i name="e_0_energy">    -10.25702014 </i>
   </energy>
  </scstep>
  <scstep>
   <time name="dav">    0.41    0.41</time>
   <time name="total">    0.43    0.45</time>
   <energy>
    <i name="alphaZ">      4.38897278 </i>
    <i name="ewald">   -265.03023924 </i>
    <i name="hartreedc">     -2.46646810 </i>
    <i name="XCdc">    -17.60001527 </i>
    <i name="pawpsdc">     70.14264040 </i>
    <i name="pawaedc">    -35.05387174 </i>
    <i name="eentropy">     -0.01621076 </i>
    <i name="bandstr">     29.23881219 </i>
    <i name="atom">    206.13125414 </i>
    <i name="e_fr_energy">    -10.26512559 </i>
    <i name="e_wo_entrp">    -10.24891483 </i>
    <i name="e_0_energy">    -10.25702021 </i>
   </energy>
  </scstep>
  <structure>
   <crystal>
    <varray name="basis" >
     <v>      -2.42286690       2.42286690       1.30656743 </v>
     <v>       2.42286690      -2.42286690       1.30656743 </v>
     <v>       2.42286690       2.42286690      -1.30656743 </v>
    </varray>
    <i name="volume">     30.67968758 </i>
    <varray name="rec_basis" >
     <v>       0.00000000       0.20636709       0.38268213 </v>
     <v>       0.20636709       0.00000000       0.38268213 </v>
     <v>       0.20636709       0.20636709      -0.00000000 </v>
    </varray>
   </crystal>
   <varray name="positions" >
    <v>       0.25000000       0.75000000       0.50000000 </v>
    <v>      -0.00000000       0.00000000      -0.00000000 </v>
   </varray>
  </structure>
  <varray name="forces" >
   <v>      -0.00000000       0.00000000      -0.00000000 </v>
   <v>       0.00000000      -0.00000000       0.00000000 </v>
  </varray>
  <varray name="stress" >
   <v>      -0.71736103       0.00000000       0.00000000 </v>
   <v>       0.00000000      -0.71736103       0.00000000 </v>
   <v>       0.00000000       0.00000000      -3.17281277 </v>
  </varray>
  <energy>
   <i name="e_fr_energy">    -10.26512559 </i>
   <i name="e_wo_entrp">    -10.25702021 </i>
   <i name="e_0_energy">     -0.01621076 </i>
  </energy>
  <time name="totalsc">    1.36    1.84</time>
 </calculation>
 <calculation>
  <scstep>
   <time name="dav">    0.40    0.40</time>
   <time name="total">    0.46    0.48</time>
   <energy>
    <i name="alphaZ">      4.38897375 </i>
    <i name="ewald">   -265.03025551 </i>
    <i name="hartreedc">     -2.46646961 </i>
    <i name="XCdc">    -17.60001179 </i>
    <i name="pawpsdc">     70.14267244 </i>
    <i name="pawaedc">    -35.05390486 </i>
    <i name="eentropy">     -0.01621052 </i>
    <i name="bandstr">     29.23882625 </i>
    <i name="atom">    206.13125414 </i>
    <i name="e_fr_energy">    -10.26512570 </i>
    <i name="e_wo_entrp">    -10.24891518 </i>
    <i name="e_0_energy">    -10.25702044 </i>
   </energy>
  </scstep>
  <scstep>
   <time name="dav">    0.40    0.41</time>
   <time name="total">    0.43    0.45</time>
   <energy>
    <i name="alphaZ">      4.38897375 </i>
    <i name="ewald">   -265.03025551 </i>
    <i name="hartreedc">     -2.46647176 </i>
    <i name="XCdc">    -17.60001116 </i>
    <i name="pawpsdc">     70.14267921 </i>
    <i name="pawaedc">    -35.05391188 </i>
    <i name="eentropy">     -0.01621049 </i>
    <i name="bandstr">     29.23882799 </i>
    <i name="atom">    206.13125414 </i>
    <i name="e_fr_energy">    -10.26512570 </i>
    <i name="e_wo_entrp">    -10.24891521 </i>
    <i name="e_0_energy">    -10.25702045 </i>
   </energy>
  </scstep>
  <structure>
   <crystal>
    <varray name="basis" >
     <v>      -2.42286928       2.42286928       1.30656457 </v>
     <v>       2.42286928      -2.42286928       1.30656457 </v>
     <v>       2.42286928       2.42286928      -1.30656457 </v>
    </varray>
    <i name="volume">     30.67968078 </i>
    <varray name="rec_basis" >
     <v>       0.00000000       0.20636689       0.38268296 </v>
     <v>       0.20636689       0.00000000       0.38268296 </v>
     <v>       0.20636689       0.20636689      -0.00000000 </v>
    </varray>
   </crystal>
   <varray name="positions" >
    <v>       0.25000000       0.75000000       0.50000000 </v>
    <v>      -0.00000000       0.00000000      -0.00000000 </v>
   </varray>
  </structure>
  <varray name="forces" >
   <v>      -0.00000000       0.00000000       0.00000000 </v>
   <v>       0.00000000      -0.00000000      -0.00000000 </v>
  </varray>
  <varray name="stress" >
   <v>      -0.72255224       0.00000000       0.00000000 </v>
   <v>       0.00000000      -0.72255224      -0.00000000 </v>
   <v>       0.00000000       0.00000000      -3.16011427 </v>
  </varray>
  <energy>
   <i name="e_fr_energy">    -10.26512570 </i>
   <i name="e_wo_entrp">    -10.25702045 </i>
   <i name="e_0_energy">     -0.01621049 </i>
  </energy>
  <time name="totalsc">    1.34    1.96</time>
 </calculation>
 <calculation>
  <scstep>
   <time name="dav">    0.41    0.41</time>
   <time name="total">    0.46    0.48</time>
   <energy>
    <i name="alphaZ">      4.38897386 </i>
    <i name="ewald">   -265.03025736 </i>
    <i name="hartreedc">     -2.46647332 </i>
    <i name="XCdc">    -17.60001037 </i>
    <i name="pawpsdc">     70.14268328 </i>
    <i name="pawaedc">    -35.05391616 </i>
    <i name="eentropy">     -0.01621046 </i>
    <i name="bandstr">     29.23883067 </i>
    <i name="atom">    206.13125414 </i>
    <i name="e_fr_energy">    -10.26512571 </i>
    <i name="e_wo_entrp">    -10.24891525 </i>
    <i name="e_0_energy">    -10.25702048 </i>
   </energy>
  </scstep>
  <scstep>
   <time name="dav">    0.40    0.41</time>
   <time name="total">    0.43    0.45</time>
   <energy>
    <i name="alphaZ">      4.38897386 </i>
    <i name="ewald">   -265.03025736 </i>
    <i name="hartreedc">     -2.46647404 </i>
    <i name="XCdc">    -17.60001020 </i>
    <i name="pawpsdc">     70.14268479 </i>
    <i name="pawaedc">    -35.05391773 </i>
    <i name="eentropy">     -0.01621045 </i>
    <i name="bandstr">     29.23883127 </i>
    <i name="atom">    206.13125414 </i>
    <i name="e_fr_energy">    -10.26512571 </i>
    <i name="e_wo_entrp">    -10.24891526 </i>
    <i name="e_0_energy">    -10.25702048 </i>
   </energy>
  </scstep>
  <structure>
   <crystal>
    <varray name="basis" >
     <v>      -2.42286955       2.42286955       1.30656425 </v>
     <v>       2.42286955      -2.42286955       1.30656425 </v>
     <v>       2.42286955       2.42286955      -1.30656425 </v>
    </varray>
    <i name="volume">     30.67968000 </i>
    <varray name="rec_basis" >
     <v>      -0.00000000       0.20636687       0.38268306 </v>
     <v>       0.20636687      -0.00000000       0.38268306 </v>
     <v>       0.20636687       0.20636687       0.00000000 </v>
    </varray>
   </crystal>
   <varray name="positions" >
    <v>       0.25000000       0.75000000       0.50000000 </v>
    <v>      -0.00000000       0.00000000      -0.00000000 </v>
   </varray>
  </structure>
  <varray name="forces" >
   <v>       0.00000000      -0.00000000      -0.00000000 </v>
   <v>      -0.00000000       0.00000000       0.00000000 </v>
  </varray>
  <varray name="stress" >
   <v>      -0.72317829       0.00000000       0.00000000 </v>
   <v>       0.00000000      -0.72317829       0.00000000 </v>
   <v>       0.00000000       0.00000000      -3.15847712 </v>
  </varray>
  <energy>
   <i name="e_fr_energy">    -10.26512571 </i>
   <i name="e_wo_entrp">    -10.25702048 </i>
   <i name="e_0_energy">     -0.01621045 </i>
  </energy>
  <time name="totalsc">    1.34    2.00</time>
 </calculation>
 <calculation>
  <scstep>
   <time name="dav">    0.40    0.41</time>
   <time name="total">    0.46    0.48</time>
   <energy>
    <i name="alphaZ">      4.38897387 </i>
    <i name="ewald">   -265.03025757 </i>
    <i name="hartreedc">     -2.46647464 </i>
    <i name="XCdc">    -17.60001001 </i>
    <i name="pawpsdc">     70.14268546 </i>
    <i name="pawaedc">    -35.05391845 </i>
    <i name="eentropy">     -0.01621045 </i>
    <i name="bandstr">     29.23883192 </i>
    <i name="atom">    206.13125414 </i>
    <i name="e_fr_energy">    -10.26512571 </i>
    <i name="e_wo_entrp">    -10.24891526 </i>
    <i name="e_0_energy">    -10.25702049 </i>
   </energy>
  </scstep>
  <scstep>
   <time name="dav">    0.40    0.40</time>
   <time name="total">    0.42    0.45</time>
   <energy>
    <i name="alphaZ">      4.38897387 </i>
    <i name="ewald">   -265.03025757 </i>
    <i name="hartreedc">     -2.46647481 </i>
    <i name="XCdc">    -17.60000997 </i>
    <i name="pawpsdc">     70.14268566 </i>
    <i name="pawaedc">    -35.05391866 </i>
    <i name="eentropy">     -0.01621045 </i>
    <i name="bandstr">     29.23883207 </i>
    <i name="atom">    206.13125414 </i>
    <i name="e_fr_energy">    -10.26512571 </i>
    <i name="e_wo_entrp">    -10.24891526 </i>
    <i name="e_0_energy">    -10.25702049 </i>
   </energy>
  </scstep>
  <structure>
   <crystal>
    <varray name="basis" >
     <v>      -2.42286958       2.42286958       1.30656421 </v>
     <v>       2.42286958      -2.42286958       1.30656421 </v>
     <v>       2.42286958       2.42286958      -1.30656421 </v>
    </varray>
    <i name="volume">     30.67967992 </i>
    <varray name="rec_basis" >
     <v>      -0.00000000       0.20636686       0.38268307 </v>
     <v>       0.20636686      -0.00000000       0.38268307 </v>
     <v>       0.20636686       0.20636686       0.00000000 </v>
    </varray>
   </crystal>
   <varray name="positions" >
    <v>       0.25000000       0.75000000       0.50000000 </v>
    <v>      -0.00000000       0.00000000      -0.00000000 </v>
   </varray>
  </structure>
  <varray name="forces" >
   <v>      -0.00000000       0.00000000       0.00000000 </v>
   <v>       0.00000000      -0.00000000      -0.00000000 </v>
  </varray>
  <varray name="stress" >
   <v>      -0.72322396       0.00000000       0.00000000 </v>
   <v>       0.00000000      -0.72322396      -0.00000000 </v>
   <v>       0.00000000      -0.00000000      -3.15836195 </v>
  </varray>
  <energy>
   <i name="e_fr_energy">    -10.26512571 </i>
   <i name="e_wo_entrp">    -10.25702049 </i>
   <i name="e_0_energy">     -0.01621045 </i>
  </energy>
  <time name="totalsc">    1.34    1.83</time>
 </calculation>
 <calculation>
  <scstep>
   <time name="dav">    0.40    0.41</time>
   <time name="total">    0.46    0.47</time>
   <energy>
    <i name="alphaZ">      4.38897387 </i>
    <i name="ewald">   -265.03025759 </i>
    <i name="hartreedc">     -2.46647498 </i>
    <i name="XCdc">    -17.60000993 </i>
    <i name="pawpsdc">     70.14268564 </i>
    <i name="pawaedc">    -35.05391864 </i>
    <i name="eentropy">     -0.01621045 </i>
    <i name="bandstr">     29.23883222 </i>
    <i name="atom">    206.13125414 </i>
    <i name="e_fr_energy">    -10.26512571 </i>
    <i name="e_wo_entrp">    -10.24891527 </i>
    <i name="e_0_energy">    -10.25702049 </i>
   </energy>
  </scstep>
  <scstep>
   <time name="dav">    0.40    0.41</time>
   <time name="total">    0.42    0.46</time>
   <energy>
    <i name="alphaZ">      4.38897387 </i>
    <i name="ewald">   -265.03025759 </i>
    <i name="hartreedc">     -2.46647502 </i>
    <i name="XCdc">    -17.60000992 </i>
    <i name="pawpsdc">     70.14268566 </i>
    <i name="pawaedc">    -35.05391866 </i>
    <i name="eentropy">     -0.01621045 </i>
    <i name="bandstr">     29.23883225 </i>
    <i name="atom">    206.13125414 </i>
    <i name="e_fr_energy">    -10.26512571 </i>
    <i name="e_wo_entrp">    -10.24891526 </i>
    <i name="e_0_energy">    -10.25702049 </i>
   </energy>
  </scstep>
  <structure>
   <crystal>
    <varray name="basis" >
     <v>      -2.42286959       2.42286959       1.30656420 </v>
     <v>       2.42286959      -2.42286959       1.30656420 </v>
     <v>       2.42286959       2.42286959      -1.30656420 </v>
    </varray>
    <i name="volume">     30.67967991 </i>
    <varray name="rec_basis" >
     <v>      -0.00000000       0.20636686       0.38268307 </v>
     <v>       0.20636686      -0.00000000       0.38268307 </v>
     <v>       0.20636686       0.20636686      -0.00000000 </v>
    </varray>
   </crystal>
   <varray name="positions" >
    <v>       0.25000000       0.75000000       0.50000000 </v>
    <v>      -0.00000000       0.00000000      -0.00000000 </v>
   </varray>
  </structure>
  <varray name="forces" >
   <v>       0.00000000       0.00000000      -0.00000000 </v>
   <v>      -0.00000000      -0.00000000       0.00000000 </v>
  </varray>
  <varray name="stress" >
   <v>      -0.72321940       0.00000000       0.00000000 </v>
   <v>       0.00000000      -0.72321940       0.00000000 </v>
   <v>       0.00000000       0.00000000      -3.15837685 </v>
  </varray>
  <energy>
   <i name="e_fr_energy">    -10.26512571 </i>
   <i name="e_wo_entrp">    -10.25702049 </i>
   <i name="e_0_energy">     -0.01621045 </i>
  </energy>
  <time name="totalsc">    1.81    3.57</time>
 </calculation>
 <calculation>
  <scstep>
   <time name="dav">    0.99    0.99</time>
   <time name="total">    1.04    1.05</time>
   <energy>
    <i name="alphaZ">      4.40202223 </i>
    <i name="ewald">   -265.18101312 </i>
    <i name="hartreedc">     -2.47864057 </i>
    <i name="XCdc">    -17.58495100 </i>
    <i name="pawpsdc">     70.14268562 </i>
    <i name="pawaedc">    -35.05391862 </i>
    <i name="eentropy">     -0.01645897 </i>
    <i name="bandstr">     29.37474900 </i>
    <i name="atom">    206.13125414 </i>
    <i name="e_fr_energy">    -10.26427126 </i>
    <i name="e_wo_entrp">    -10.24781230 </i>
    <i name="e_0_energy">    -10.25604178 </i>
   </energy>
  </scstep>
  <scstep>
   <time name="dav">    0.86    0.86</time>
   <time name="total">    0.92    0.94</time>
   <energy>
    <i name="e_fr_energy">    -10.25484870 </i>
    <i name="e_wo_entrp">    -10.23873417 </i>
    <i name="e_0_energy">    -10.24679144 </i>
   </energy>
  </scstep>
  <scstep>
   <time name="dav">    0.95    0.95</time>
   <time name="total">    1.01    1.02</time>
   <energy>
    <i name="e_fr_energy">    -10.25018643 </i>
    <i name="e_wo_entrp">    -10.23452351 </i>
    <i name="e_0_energy">    -10.24235497 </i>
   </energy>
  </scstep>
  <scstep>
   <time name="dav">    0.53    0.53</time>
   <time name="total">    0.55    0.56</time>
   <energy>
    <i name="alphaZ">      4.40202223 </i>
    <i name="ewald">   -265.18101312 </i>
    <i name="hartreedc">     -2.49596813 </i>
    <i name="XCdc">    -17.58296155 </i>
    <i name="pawpsdc">     70.16578860 </i>
    <i name="pawaedc">    -35.07721638 </i>
    <i name="eentropy">     -0.01567465 </i>
    <i name="bandstr">     29.40354282 </i>
    <i name="atom">    206.13125414 </i>
    <i name="e_fr_energy">    -10.25022602 </i>
    <i name="e_wo_entrp">    -10.23455137 </i>
    <i name="e_0_energy">    -10.24238870 </i>
   </energy>
  </scstep>
  <structure>
   <crystal>
    <varray name="basis" >
     <v>      -2.45000000       2.45000000       1.27400000 </v>
     <v>       2.45000000      -2.45000000       1.27400000 </v>
     <v>       2.45000000       2.45000000      -1.27400000 </v>
    </varray>
    <i name="volume">     30.58874000 </i>
    <varray name="rec_basis" >
     <v>       0.00000000       0.20408163       0.39246468 </v>
     <v>       0.20408163       0.00000000       0.39246468 </v>
     <v>       0.20408163       0.20408163      -0.00000000 </v>
    </varray>
   </crystal>
   <varray name="positions" >
    <v>       0.25000000       0.75000000       0.50000000 </v>
    <v>       0.00000000       0.00000000       0.00000000 </v>
   </varray>
  </structure>
  <varray name="forces" >
   <v>       0.00000000      -0.00000000       0.00000000 </v>
   <v>      -0.00000000       0.00000000      -0.00000000 </v>
  </varray>
  <varray name="stress" >
   <v>     -21.75541496       0.00000000       0.00000000 </v>
   <v>      -0.00000000     -21.75541496       0.00000000 </v>
   <v>       0.00000000       0.00000000      49.74302039 </v>
  </varray>
  <energy>
   <i name="e_fr_energy">    -10.25022602 </i>
   <i name="e_wo_entrp">    -10.24238870 </i>
   <i name="e_0_energy">     -0.01567465 </i>
  </energy>
