unknown system                          
           1
    -2.450000    2.450000    1.274000
     2.450000   -2.450000    1.274000
     2.450000    2.450000   -1.274000
   Si
   2
Direct configuration=     1
   0.25000000  0.75000000  0.50000000
   0.00000000  0.00000000  0.00000000
unknown system                          
           1
    -2.426266    2.426266    1.302488
     2.426266   -2.426266    1.302488
     2.426266    2.426266   -1.302488
   Si
   2
Direct configuration=     2
   0.25000000  0.75000000  0.50000000
  -0.00000000  0.00000000 -0.00000000
unknown system                          
           1
    -2.425134    2.425134    1.303846
     2.425134   -2.425134    1.303846
     2.425134    2.425134   -1.303846
   Si
   2
Direct configuration=     3
   0.25000000  0.75000000  0.50000000
  -0.00000000  0.00000000 -0.00000000
unknown system                          
           1
    -2.422870    2.422870    1.306564
     2.422870   -2.422870    1.306564
     2.422870    2.422870   -1.306564
   Si
   2
Direct configuration=     4
   0.25000000  0.75000000  0.50000000
  -0.00000000  0.00000000 -0.00000000
unknown system                          
           1
    -2.422619    2.422619    1.306865
     2.422619   -2.422619    1.306865
     2.422619    2.422619   -1.306865
   Si
   2
Direct configuration=     5
   0.25000000  0.75000000  0.50000000
  -0.00000000  0.00000000 -0.00000000
unknown system                          
           1
    -2.422844    2.422844    1.306595
     2.422844   -2.422844    1.306595
     2.422844    2.422844   -1.306595
   Si
   2
Direct configuration=     6
   0.25000000  0.75000000  0.50000000
  -0.00000000  0.00000000 -0.00000000
unknown system                          
           1
    -2.422867    2.422867    1.306567
     2.422867   -2.422867    1.306567
     2.422867    2.422867   -1.306567
   Si
   2
Direct configuration=     7
   0.25000000  0.75000000  0.50000000
  -0.00000000  0.00000000 -0.00000000
unknown system                          
           1
    -2.422869    2.422869    1.306565
     2.422869   -2.422869    1.306565
     2.422869    2.422869   -1.306565
   Si
   2
Direct configuration=     8
   0.25000000  0.75000000  0.50000000
  -0.00000000  0.00000000 -0.00000000
unknown system                          
           1
    -2.422870    2.422870    1.306564
     2.422870   -2.422870    1.306564
     2.422870    2.422870   -1.306564
   Si
   2
Direct configuration=     9
   0.25000000  0.75000000  0.50000000
  -0.00000000  0.00000000 -0.00000000
unknown system                          
           1
    -2.422870    2.422870    1.306564
     2.422870   -2.422870    1.306564
     2.422870    2.422870   -1.306564
   Si
   2
Direct configuration=    10
   0.25000000  0.75000000  0.50000000
  -0.00000000  0.00000000 -0.00000000
unknown system                          
           1
    -2.422870    2.422870    1.306564
     2.422870   -2.422870    1.306564
     2.422870    2.422870   -1.306564
   Si
   2
Direct configuration=    11
   0.25000000  0.75000000  0.50000000
  -0.00000000  0.00000000 -0.00000000
