   2   2   0   0
  0.1529437E+02  0.3691622E-09  0.3691622E-09  0.3691622E-09  0.5000000E-15
  1.000000000000000E-004
  CAR 
 unknown system                          
     22.96145765     -6.61530287  301      9.09733613      1.00000000
     -6.615  0.0000E+00  0.0000E+00
     -6.517  0.0000E+00  0.0000E+00
     -6.418  0.0000E+00  0.0000E+00
     -6.320  0.0000E+00  0.0000E+00
     -6.221  0.0000E+00  0.0000E+00
     -6.122  0.0000E+00  0.0000E+00
     -6.024  0.0000E+00  0.0000E+00
     -5.925  0.0000E+00  0.0000E+00
     -5.827  0.0000E+00  0.0000E+00
     -5.728  0.3295E-17  0.3249E-18
     -5.629  0.6891E-15  0.6826E-16
     -5.531  0.8823E-13  0.8767E-14
     -5.432  0.7018E-11  0.7006E-12
     -5.334  0.3475E-09  0.3496E-10
     -5.235  0.1076E-07  0.1095E-08
     -5.136  0.2095E-06  0.2175E-07
     -5.038  0.2594E-05  0.2775E-06
     -4.939  0.2084E-04  0.2332E-05
     -4.841  0.1119E-03  0.1336E-04
     -4.742  0.4201E-03  0.5478E-04
     -4.644  0.1165E-02  0.1697E-03
     -4.545  0.2530E-02  0.4191E-03
     -4.446  0.4493E-02  0.8621E-03
     -4.348  0.6598E-02  0.1513E-02
     -4.249  0.8054E-02  0.2307E-02
     -4.151  0.9136E-02  0.3207E-02
     -4.052  0.1138E-01  0.4329E-02
     -3.953  0.1406E-01  0.5715E-02
     -3.855  0.1410E-01  0.7105E-02
     -3.756  0.1147E-01  0.8236E-02
     -3.658  0.9414E-02  0.9164E-02
     -3.559  0.1043E-01  0.1019E-01
     -3.460  0.1486E-01  0.1166E-01
     -3.362  0.2020E-01  0.1365E-01
     -3.263  0.2304E-01  0.1592E-01
     -3.165  0.2288E-01  0.1818E-01
     -3.066  0.2080E-01  0.2023E-01
     -2.968  0.1800E-01  0.2200E-01
     -2.869  0.1662E-01  0.2364E-01
     -2.770  0.1710E-01  0.2532E-01
     -2.672  0.1772E-01  0.2707E-01
     -2.573  0.1828E-01  0.2887E-01
     -2.475  0.1940E-01  0.3079E-01
     -2.376  0.2127E-01  0.3288E-01
     -2.277  0.2489E-01  0.3534E-01
     -2.179  0.2915E-01  0.3821E-01
     -2.080  0.2981E-01  0.4115E-01
     -1.982  0.2558E-01  0.4367E-01
     -1.883  0.2163E-01  0.4580E-01
     -1.784  0.2328E-01  0.4810E-01
     -1.686  0.2778E-01  0.5084E-01
     -1.587  0.2828E-01  0.5363E-01
     -1.489  0.2424E-01  0.5602E-01
     -1.390  0.2143E-01  0.5813E-01
     -1.291  0.2362E-01  0.6046E-01
     -1.193  0.2993E-01  0.6341E-01
     -1.094  0.3714E-01  0.6707E-01
     -0.996  0.4092E-01  0.7110E-01
     -0.897  0.3823E-01  0.7487E-01
     -0.799  0.3078E-01  0.7791E-01
     -0.700  0.2451E-01  0.8032E-01
     -0.601  0.2322E-01  0.8261E-01
     -0.503  0.2473E-01  0.8505E-01
     -0.404  0.2537E-01  0.8755E-01
     -0.306  0.2429E-01  0.8995E-01
     -0.207  0.2412E-01  0.9232E-01
     -0.108  0.2888E-01  0.9517E-01
     -0.010  0.3838E-01  0.9896E-01
      0.089  0.4699E-01  0.1036E+00
      0.187  0.4978E-01  0.1085E+00
      0.286  0.4695E-01  0.1131E+00
      0.385  0.4224E-01  0.1173E+00
      0.483  0.3889E-01  0.1211E+00
      0.582  0.3767E-01  0.1248E+00
      0.680  0.3817E-01  0.1286E+00
      0.779  0.3926E-01  0.1325E+00
      0.877  0.3975E-01  0.1364E+00
      0.976  0.4051E-01  0.1404E+00
      1.075  0.4124E-01  0.1445E+00
      1.173  0.3822E-01  0.1482E+00
      1.272  0.3022E-01  0.1512E+00
      1.370  0.2247E-01  0.1534E+00
      1.469  0.2209E-01  0.1556E+00
      1.568  0.2940E-01  0.1585E+00
      1.666  0.3667E-01  0.1621E+00
      1.765  0.3823E-01  0.1659E+00
      1.863  0.3668E-01  0.1695E+00
      1.962  0.3782E-01  0.1732E+00
      2.061  0.4373E-01  0.1775E+00
      2.159  0.5080E-01  0.1825E+00
      2.258  0.5453E-01  0.1879E+00
      2.356  0.5401E-01  0.1932E+00
      2.455  0.4761E-01  0.1979E+00
      2.553  0.3421E-01  0.2013E+00
      2.652  0.2107E-01  0.2034E+00
      2.751  0.1723E-01  0.2051E+00
      2.849  0.2150E-01  0.2072E+00
      2.948  0.2609E-01  0.2098E+00
      3.046  0.2902E-01  0.2126E+00
      3.145  0.3599E-01  0.2162E+00
      3.244  0.5015E-01  0.2211E+00
      3.342  0.6355E-01  0.2274E+00
      3.441  0.6336E-01  0.2336E+00
      3.539  0.4971E-01  0.2385E+00
      3.638  0.3591E-01  0.2421E+00
      3.737  0.3309E-01  0.2453E+00
      3.835  0.4317E-01  0.2496E+00
      3.934  0.5729E-01  0.2552E+00
      4.032  0.6240E-01  0.2614E+00
      4.131  0.5454E-01  0.2668E+00
      4.230  0.4136E-01  0.2709E+00
      4.328  0.3208E-01  0.2740E+00
      4.427  0.2828E-01  0.2768E+00
      4.525  0.2697E-01  0.2795E+00
      4.624  0.2823E-01  0.2822E+00
      4.722  0.3430E-01  0.2856E+00
      4.821  0.4583E-01  0.2901E+00
      4.920  0.5866E-01  0.2959E+00
      5.018  0.6411E-01  0.3023E+00
      5.117  0.6038E-01  0.3082E+00
      5.215  0.5679E-01  0.3138E+00
      5.314  0.5943E-01  0.3197E+00
      5.413  0.6292E-01  0.3259E+00
      5.511  0.6207E-01  0.3320E+00
      5.610  0.5866E-01  0.3378E+00
      5.708  0.5229E-01  0.3429E+00
      5.807  0.4200E-01  0.3471E+00
      5.906  0.3412E-01  0.3504E+00
      6.004  0.3373E-01  0.3538E+00
      6.103  0.4051E-01  0.3577E+00
      6.201  0.5568E-01  0.3632E+00
      6.300  0.7508E-01  0.3706E+00
      6.398  0.8424E-01  0.3789E+00
      6.497  0.7581E-01  0.3864E+00
      6.596  0.6024E-01  0.3924E+00
      6.694  0.5352E-01  0.3976E+00
      6.793  0.5976E-01  0.4035E+00
      6.891  0.6936E-01  0.4104E+00
      6.990  0.7208E-01  0.4175E+00
      7.089  0.6726E-01  0.4241E+00
      7.187  0.6021E-01  0.4300E+00
      7.286  0.5355E-01  0.4353E+00
      7.384  0.4982E-01  0.4402E+00
      7.483  0.5294E-01  0.4454E+00
      7.582  0.5909E-01  0.4513E+00
      7.680  0.6008E-01  0.4572E+00
      7.779  0.5573E-01  0.4627E+00
      7.877  0.5187E-01  0.4678E+00
      7.976  0.5335E-01  0.4731E+00
      8.074  0.6334E-01  0.4793E+00
      8.173  0.7510E-01  0.4867E+00
      8.272  0.7300E-01  0.4939E+00
      8.370  0.5612E-01  0.4994E+00
      8.469  0.4185E-01  0.5036E+00
      8.567  0.4080E-01  0.5076E+00
      8.666  0.4747E-01  0.5123E+00
      8.765  0.5276E-01  0.5175E+00
      8.863  0.5309E-01  0.5227E+00
      8.962  0.4940E-01  0.5276E+00
      9.060  0.4359E-01  0.5319E+00
      9.159  0.3811E-01  0.5356E+00
      9.258  0.3575E-01  0.5392E+00
      9.356  0.3653E-01  0.5428E+00
      9.455  0.3988E-01  0.5467E+00
      9.553  0.4752E-01  0.5514E+00
      9.652  0.5822E-01  0.5571E+00
      9.751  0.6549E-01  0.5636E+00
      9.849  0.6683E-01  0.5702E+00
      9.948  0.6862E-01  0.5769E+00
     10.046  0.7175E-01  0.5840E+00
     10.145  0.6599E-01  0.5905E+00
     10.243  0.4846E-01  0.5953E+00
     10.342  0.3125E-01  0.5984E+00
     10.441  0.2631E-01  0.6010E+00
     10.539  0.3446E-01  0.6044E+00
     10.638  0.4726E-01  0.6090E+00
     10.736  0.5362E-01  0.6143E+00
     10.835  0.5031E-01  0.6193E+00
     10.934  0.4468E-01  0.6237E+00
     11.032  0.4371E-01  0.6280E+00
     11.131  0.4677E-01  0.6326E+00
     11.229  0.5033E-01  0.6375E+00
     11.328  0.5360E-01  0.6428E+00
     11.427  0.5663E-01  0.6484E+00
     11.525  0.5846E-01  0.6542E+00
     11.624  0.5810E-01  0.6599E+00
     11.722  0.5526E-01  0.6654E+00
     11.821  0.5264E-01  0.6705E+00
     11.919  0.5398E-01  0.6759E+00
     12.018  0.5913E-01  0.6817E+00
     12.117  0.6566E-01  0.6882E+00
     12.215  0.7372E-01  0.6954E+00
     12.314  0.8413E-01  0.7037E+00
     12.412  0.9193E-01  0.7128E+00
     12.511  0.9069E-01  0.7217E+00
     12.610  0.8215E-01  0.7298E+00
     12.708  0.7318E-01  0.7370E+00
     12.807  0.6949E-01  0.7439E+00
     12.905  0.7433E-01  0.7512E+00
     13.004  0.8067E-01  0.7592E+00
     13.103  0.7526E-01  0.7666E+00
     13.201  0.6177E-01  0.7727E+00
     13.300  0.5792E-01  0.7784E+00
     13.398  0.6745E-01  0.7851E+00
     13.497  0.7673E-01  0.7926E+00
     13.595  0.7446E-01  0.8000E+00
     13.694  0.6302E-01  0.8062E+00
     13.793  0.5300E-01  0.8114E+00
     13.891  0.5018E-01  0.8163E+00
     13.990  0.5209E-01  0.8215E+00
     14.088  0.5646E-01  0.8270E+00
     14.187  0.6366E-01  0.8333E+00
     14.286  0.7127E-01  0.8403E+00
     14.384  0.7520E-01  0.8478E+00
     14.483  0.7459E-01  0.8551E+00
     14.581  0.7101E-01  0.8621E+00
     14.680  0.6746E-01  0.8688E+00
     14.779  0.6657E-01  0.8753E+00
     14.877  0.6845E-01  0.8821E+00
     14.976  0.7242E-01  0.8892E+00
     15.074  0.7764E-01  0.8969E+00
     15.173  0.7838E-01  0.9046E+00
     15.271  0.6723E-01  0.9112E+00
     15.370  0.4943E-01  0.9161E+00
     15.469  0.3789E-01  0.9198E+00
     15.567  0.3804E-01  0.9236E+00
     15.666  0.4873E-01  0.9284E+00
     15.764  0.6623E-01  0.9349E+00
     15.863  0.8180E-01  0.9430E+00
     15.962  0.8470E-01  0.9513E+00
     16.060  0.7176E-01  0.9584E+00
     16.159  0.5096E-01  0.9634E+00
     16.257  0.3463E-01  0.9668E+00
     16.356  0.2844E-01  0.9697E+00
     16.455  0.3019E-01  0.9726E+00
     16.553  0.3540E-01  0.9761E+00
     16.652  0.3856E-01  0.9799E+00
     16.750  0.3509E-01  0.9834E+00
     16.849  0.2805E-01  0.9861E+00
     16.948  0.2776E-01  0.9889E+00
     17.046  0.3931E-01  0.9928E+00
     17.145  0.5416E-01  0.9981E+00
     17.243  0.5851E-01  0.1004E+01
     17.342  0.4838E-01  0.1009E+01
     17.440  0.3305E-01  0.1012E+01
     17.539  0.2300E-01  0.1014E+01
     17.638  0.1907E-01  0.1016E+01
     17.736  0.1737E-01  0.1018E+01
     17.835  0.1779E-01  0.1020E+01
     17.933  0.2125E-01  0.1022E+01
     18.032  0.2475E-01  0.1024E+01
     18.131  0.2604E-01  0.1027E+01
     18.229  0.2793E-01  0.1029E+01
     18.328  0.3244E-01  0.1033E+01
     18.426  0.3752E-01  0.1036E+01
     18.525  0.4090E-01  0.1040E+01
     18.624  0.3997E-01  0.1044E+01
     18.722  0.3293E-01  0.1047E+01
     18.821  0.2304E-01  0.1050E+01
     18.919  0.1555E-01  0.1051E+01
     19.018  0.1288E-01  0.1053E+01
     19.116  0.1453E-01  0.1054E+01
     19.215  0.1670E-01  0.1056E+01
     19.314  0.1477E-01  0.1057E+01
     19.412  0.9780E-02  0.1058E+01
     19.511  0.6418E-02  0.1059E+01
     19.609  0.6004E-02  0.1059E+01
     19.708  0.7178E-02  0.1060E+01
     19.807  0.9452E-02  0.1061E+01
     19.905  0.1182E-01  0.1062E+01
     20.004  0.1195E-01  0.1063E+01
     20.102  0.9280E-02  0.1064E+01
     20.201  0.5734E-02  0.1065E+01
     20.300  0.3013E-02  0.1065E+01
     20.398  0.1513E-02  0.1065E+01
     20.497  0.1136E-02  0.1065E+01
     20.595  0.1559E-02  0.1065E+01
     20.694  0.2286E-02  0.1066E+01
     20.792  0.2841E-02  0.1066E+01
     20.891  0.2837E-02  0.1066E+01
     20.990  0.2219E-02  0.1066E+01
     21.088  0.1332E-02  0.1067E+01
     21.187  0.5894E-03  0.1067E+01
     21.285  0.1815E-03  0.1067E+01
     21.384  0.3709E-04  0.1067E+01
     21.483  0.4876E-05  0.1067E+01
     21.581  0.4055E-06  0.1067E+01
     21.680  0.2116E-07  0.1067E+01
     21.778  0.6892E-09  0.1067E+01
     21.877  0.1398E-10  0.1067E+01
     21.976  0.1761E-12  0.1067E+01
     22.074  0.1377E-14  0.1067E+01
     22.173  0.6591E-17  0.1067E+01
     22.271  0.0000E+00  0.1067E+01
     22.370  0.0000E+00  0.1067E+01
     22.469  0.0000E+00  0.1067E+01
     22.567  0.0000E+00  0.1067E+01
     22.666  0.0000E+00  0.1067E+01
     22.764  0.0000E+00  0.1067E+01
     22.863  0.0000E+00  0.1067E+01
     22.961  0.0000E+00  0.1067E+01
