    2    2   15    1
  0.1529437E+02  0.3691622E-09  0.3691622E-09  0.3691622E-09  0.5000000E-15
  1.000000000000000E-004
  CAR 
 unknown system                          
      8     75      8
 
  0.0000000E+00  0.0000000E+00  0.0000000E+00  0.1371742E-02
    1       -4.615303   1.000000
    2        6.180923   1.000000
    3        6.298437   1.000000
    4        6.298438   1.000000
    5       10.516419   0.000000
    6       16.754605   0.000000
    7       17.366574   0.000000
    8       17.366577   0.000000
 
  0.1111111E+00 -0.9377698E-17  0.9377698E-17  0.1097394E-01
    1       -4.266725   1.000000
    2        5.305551   1.000000
    3        6.241192   1.000000
    4        7.781357   1.000000
    5       11.225394   0.000000
    6       15.155408   0.000000
    7       15.955816   0.000000
    8       17.319978   0.000000
 
  0.2222222E+00  0.6918512E-17 -0.6918512E-17  0.1097394E-01
    1       -3.225275   1.000000
    2        5.017317   1.000000
    3        6.316516   1.000000
    4        9.607576   0.000154
    5       12.128096   0.000000
    6       12.908382   0.000000
    7       13.006818   0.000000
    8       15.157504   0.000000
 
  0.3333333E+00 -0.3591853E-16  0.3591853E-16  0.1097394E-01
    1       -1.504933   1.000000
    2        5.357010   1.000000
    3        6.787741   1.000000
    4        7.462137   1.000000
    5       10.261332   0.000000
    6       12.645273   0.000000
    7       13.025803   0.000000
    8       14.006137   0.000000
 
  0.4444444E+00  0.1383702E-16 -0.1383702E-16  0.1097394E-01
    1        0.859262   1.000000
    2        3.896746   1.000000
    3        6.375793   1.000000
    4        7.565115   1.000000
    5        8.188394   1.000000
    6       10.722607   0.000000
    7       13.540306   0.000000
    8       14.497905   0.000000
 
  0.1111111E+00  0.1111111E+00  0.1875540E-16  0.1097394E-01
    1       -3.371249   1.000000
    2        5.333940   1.000000
    3        7.347811   1.000000
    4        8.535827   0.999964
    5       12.283990   0.000000
    6       12.577082   0.000000
    7       12.996024   0.000000
    8       15.636785   0.000000
 
  0.2222222E+00  0.1111111E+00 -0.2719765E-16  0.2194787E-01
    1       -1.793559   1.000000
    2        5.611650   1.000000
    3        7.890643   1.000000
    4        8.292758   1.000000
    5        9.739324   0.000003
    6       11.390062   0.000000
    7       13.007205   0.000000
    8       14.014573   0.000000
 
  0.3333333E+00  0.1111111E+00  0.2951719E-16  0.2194787E-01
    1        0.439054   1.000000
    2        4.703623   1.000000
    3        6.483517   1.000000
    4        6.926115   1.000000
    5        9.039816   0.657897
    6       11.094261   0.000000
    7       12.631915   0.000000
    8       14.518662   0.000000
 
  0.4444444E+00  0.1111111E+00  0.7517205E-17  0.2194787E-01
    1        1.548129   1.000000
    2        3.351549   1.000000
    3        5.227938   1.000000
    4        7.461373   1.000000
    5        8.676189   0.998549
    6       11.464823   0.000000
    7       12.403078   0.000000
    8       15.806223   0.000000
 
 -0.4444444E+00  0.1111111E+00  0.4279628E-16  0.2194787E-01
    1       -0.929954   1.000000
    2        3.994693   1.000000
    3        6.691921   1.000000
    4        6.996484   1.000000
    5       10.094372   0.000000
    6       12.380932   0.000000
    7       13.553127   0.000000
    8       14.485496   0.000000
 
 -0.3333333E+00  0.1111111E+00 -0.1456430E-16  0.2194787E-01
    1       -2.788312   1.000000
    2        3.473980   1.000000
    3        6.333094   1.000000
    4       10.132895   0.000000
    5       11.913015   0.000000
    6       12.026953   0.000000
    7       13.932556   0.000000
    8       15.129081   0.000000
 
 -0.2222222E+00  0.1111111E+00  0.1629621E-16  0.2194787E-01
    1       -3.973315   1.000000
    2        3.589378   1.000000
    3        6.297217   1.000000
    4        8.904653   0.913477
    5       12.748371   0.000000
    6       13.415466   0.000000
    7       15.296866   0.000000
    8       16.661219   0.000000
 
 -0.1111111E+00  0.1111111E+00  0.7914115E-18  0.5486968E-02
    1       -4.468221   1.000000
    2        4.318473   1.000000
    3        6.434489   1.000000
    4        7.642352   1.000000
    5       11.420870   0.000000
    6       14.863091   0.000000
    7       16.319339   0.000000
    8       19.208759   0.000000
 
  0.2222222E+00  0.2222222E+00 -0.4159260E-16  0.1097394E-01
    1        0.298173   1.000000
    2        5.711934   1.000000
    3        5.771651   1.000000
    4        6.431879   1.000000
    5        9.960863   0.000000
    6       11.596136   0.000000
    7       12.533348   0.000000
    8       12.816173   0.000000
 
  0.3333333E+00  0.2222222E+00  0.4287781E-16  0.2194787E-01
    1        2.438700   1.000000
    2        3.101378   1.000000
    3        3.882996   1.000000
    4        7.512257   1.000000
    5        9.249450   0.141051
    6       10.777024   0.000000
    7       13.562155   0.000000
    8       15.635149   0.000000
 
  0.4444444E+00  0.2222222E+00  0.2087783E-16  0.2194787E-01
    1       -0.073808   1.000000
    2        2.431209   1.000000
    3        6.396355   1.000000
    4        7.567945   1.000000
    5        9.471025   0.004116
    6       11.302466   0.000000
    7       14.748469   0.000000
    8       15.788612   0.000000
 
 -0.4444444E+00  0.2222222E+00  0.6918512E-17  0.2194787E-01
    1       -2.063401   1.000000
    2        1.752257   1.000000
    3        6.949175   1.000000
    4        9.928347   0.000000
    5       10.613732   0.000000
    6       12.491374   0.000000
    7       13.386117   0.000000
    8       15.812815   0.000000
 
 -0.3333333E+00  0.2222222E+00 -0.1251408E-16  0.2194787E-01
    1       -3.388359   1.000000
    2        1.729885   1.000000
    3        6.822685   1.000000
    4        9.733369   0.000003
    5       11.630458   0.000000
    6       14.176657   0.000000
    7       15.106112   0.000000
    8       15.843103   0.000000
 
 -0.2222222E+00  0.2222222E+00  0.1582823E-17  0.5486968E-02
    1       -4.027862   1.000000
    2        2.360048   1.000000
    3        6.842658   1.000000
    4        8.510134   0.999984
    5       12.899675   0.000000
    6       13.654466   0.000000
    7       14.674800   0.000000
    8       19.205351   0.000000
 
  0.3333333E+00  0.3333333E+00  0.7183707E-16  0.1097394E-01
    1        1.044423   1.000000
    2        1.062964   1.000000
    3        6.270971   1.000000
    4        8.232279   1.000000
    5        8.798791   0.982615
    6       10.936195   0.000000
    7       15.462338   0.000000
    8       16.502946   0.000000
 
  0.4444444E+00  0.3333333E+00  0.4983708E-16  0.2194787E-01
    1       -1.056352   1.000000
    2        0.222476   1.000000
    3        7.858629   1.000000
    4        8.989181   0.777797
    5       10.044646   0.000000
    6       13.014340   0.000000
    7       13.381005   0.000000
    8       14.683175   0.000000
 
 -0.4444444E+00  0.3333333E+00  0.6553460E-16  0.2194787E-01
    1       -2.515804   1.000000
    2        0.060201   1.000000
    3        7.634884   1.000000
    4       10.048424   0.000000
    5       10.641339   0.000000
    6       12.954377   0.000000
    7       15.140864   0.000000
    8       15.954912   0.000000
 
 -0.3333333E+00  0.3333333E+00  0.1438931E-16  0.5486968E-02
    1       -3.297025   1.000000
    2        0.568841   1.000000
    3        7.521990   1.000000
    4        9.352955   0.035342
    5       11.167517   0.000000
    6       13.065097   0.000000
    7       16.417064   0.000000
    8       18.931140   0.000000
 
  0.4444444E+00  0.4444444E+00 -0.8318520E-16  0.1097394E-01
    1       -1.362928   1.000000
    2       -1.361959   1.000000
    3        8.699971   0.997521
    4        8.731112   0.995196
    5       11.607160   0.000000
    6       11.828606   0.000000
    7       14.989627   0.000000
    8       15.888038   0.000000
 
 -0.4444444E+00  0.4444444E+00  0.3165646E-17  0.5486968E-02
    1       -2.280737   1.000000
    2       -0.987391   1.000000
    3        8.471632   0.999995
    4        9.688564   0.000015
    5       10.375467   0.000000
    6       11.616627   0.000000
    7       18.791389   0.000000
    8       18.837780   0.000000
 
  0.1111111E+00  0.1111111E+00  0.1111111E+00  0.1097394E-01
    1       -2.933391   1.000000
    2        3.405553   1.000000
    3        7.729153   1.000000
    4        9.333544   0.047436
    5       11.902212   0.000000
    6       12.059566   0.000000
    7       14.433712   0.000000
    8       15.100531   0.000000
 
  0.2222222E+00  0.1111111E+00  0.1111111E+00  0.2194787E-01
    1       -1.215850   1.000000
    2        3.815628   1.000000
    3        7.610303   1.000000
    4        8.210713   1.000000
    5        9.676347   0.000021
    6       12.032148   0.000000
    7       13.796642   0.000000
    8       14.673220   0.000000
 
  0.3333333E+00  0.1111111E+00  0.1111111E+00  0.2194787E-01
    1        1.143439   1.000000
    2        4.126577   1.000000
    3        4.936395   1.000000
    4        6.515904   1.000000
    5        9.990835   0.000000
    6       12.290523   0.000000
    7       13.858519   0.000000
    8       14.321051   0.000000
 
 -0.1111111E+00  0.1111111E+00  0.1111111E+00  0.5486968E-02
    1       -4.321438   1.000000
    2        3.992372   1.000000
    3        5.343193   1.000000
    4        8.966755   0.822086
    5       12.034973   0.000000
    6       13.327046   0.000000
    7       17.607439   0.000000
    8       18.043613   0.000000
 
  0.2222222E+00  0.2222222E+00  0.1111111E+00  0.1097394E-01
    1        1.006195   1.000000
    2        4.645630   1.000000
    3        5.270837   1.000000
    4        5.361827   1.000000
    5       11.095773   0.000000
    6       13.262021   0.000000
    7       13.503479   0.000000
    8       13.667784   0.000000
 
  0.3333333E+00  0.2222222E+00  0.1111111E+00  0.2194787E-01
    1        2.113543   1.000000
    2        3.301918   1.000000
    3        4.032230   1.000000
    4        6.295121   1.000000
    5       10.934818   0.000000
    6       12.410211   0.000000
    7       14.233263   0.000000
    8       15.182417   0.000000
 
  0.4444444E+00  0.2222222E+00  0.1111111E+00  0.2194787E-01
    1       -0.354651   1.000000
    2        2.181707   1.000000
    3        7.284264   1.000000
    4        8.185128   1.000000
    5       10.119356   0.000000
    6       12.406518   0.000000
    7       12.925856   0.000000
    8       14.894478   0.000000
 
 -0.4444444E+00  0.2222222E+00  0.1111111E+00  0.1097394E-01
    1       -2.206768   1.000000
    2        1.632353   1.000000
    3        8.347436   1.000000
    4        9.963908   0.000000
    5       11.273127   0.000000
    6       11.637830   0.000000
    7       13.230196   0.000000
    8       14.216789   0.000000
 
 -0.2222222E+00  0.2222222E+00  0.1111111E+00  0.1097394E-01
    1       -3.881979   1.000000
    2        2.427871   1.000000
    3        5.354282   1.000000
    4       10.140304   0.000000
    5       11.401960   0.000000
    6       13.959847   0.000000
    7       16.231744   0.000000
    8       18.703648   0.000000
 
 -0.1111111E+00  0.2222222E+00  0.1111111E+00  0.1097394E-01
    1       -3.681104   1.000000
    2        3.327211   1.000000
    3        4.864367   1.000000
    4       10.627825   0.000000
    5       11.568328   0.000000
    6       13.708401   0.000000
    7       14.835799   0.000000
    8       17.559092   0.000000
 
  0.3333333E+00  0.3333333E+00  0.1111111E+00  0.1097394E-01
    1        0.779489   1.000000
    2        0.785414   1.000000
    3        7.167614   1.000000
    4        8.143837   1.000000
    5       10.765031   0.000000
    6       11.492169   0.000000
    7       13.573785   0.000000
    8       14.254705   0.000000
 
  0.4444444E+00  0.3333333E+00  0.1111111E+00  0.1097394E-01
    1       -1.196658   1.000000
    2        0.088158   1.000000
    3        9.153675   0.345176
    4        9.954842   0.000000
    5       11.131602   0.000000
    6       11.379238   0.000000
    7       12.616570   0.000000
    8       13.100187   0.000000
 
 -0.3333333E+00  0.3333333E+00  0.1111111E+00  0.1097394E-01
    1       -3.152866   1.000000
    2        0.689197   1.000000
    3        5.988917   1.000000
    4        9.665497   0.000029
    5       11.062842   0.000000
    6       14.691725   0.000000
    7       16.604260   0.000000
    8       18.527823   0.000000
 
 -0.2222222E+00  0.3333333E+00  0.1111111E+00  0.2194787E-01
    1       -3.098774   1.000000
    2        1.915276   1.000000
    3        4.930236   1.000000
    4        9.733954   0.000003
    5       11.770757   0.000000
    6       14.282343   0.000000
    7       15.850908   0.000000
    8       17.204367   0.000000
 
 -0.1111111E+00  0.3333333E+00  0.1111111E+00  0.1097394E-01
    1       -2.354206   1.000000
    2        3.325681   1.000000
    3        4.944805   1.000000
    4        9.788601   0.000001
    5       10.454510   0.000000
    6       13.439219   0.000000
    7       14.809482   0.000000
    8       15.456545   0.000000
 
 -0.4444444E+00  0.4444444E+00  0.1111111E+00  0.1097394E-01
    1       -2.139688   1.000000
    2       -0.852408   1.000000
    3        6.940348   1.000000
    4        8.171281   1.000000
    5       12.084889   0.000000
    6       13.294587   0.000000
    7       18.196319   0.000000
    8       18.317984   0.000000
 
 -0.3333333E+00  0.4444444E+00  0.1111111E+00  0.2194787E-01
    1       -2.231042   1.000000
    2        0.314822   1.000000
    3        5.681980   1.000000
    4        8.123300   1.000000
    5       12.487828   0.000000
    6       14.086604   0.000000
    7       16.032312   0.000000
    8       17.153457   0.000000
 
 -0.2222222E+00  0.4444444E+00  0.1111111E+00  0.2194787E-01
    1       -1.635042   1.000000
    2        2.068653   1.000000
    3        5.107710   1.000000
    4        8.591954   0.999824
    5        9.567185   0.000446
    6       14.410719   0.000000
    7       14.942764   0.000000
    8       17.026093   0.000000
 
 -0.1111111E+00  0.4444444E+00  0.1111111E+00  0.1097394E-01
    1       -0.361295   1.000000
    2        3.964447   1.000000
    3        5.618110   1.000000
    4        6.192658   1.000000
    5        9.535402   0.000975
    6       12.270133   0.000000
    7       13.611958   0.000000
    8       16.167329   0.000000
 
 -0.4444444E+00 -0.4444444E+00  0.1111111E+00  0.1097394E-01
    1       -1.088343   1.000000
    2       -1.085414   1.000000
    3        6.758884   1.000000
    4        6.768282   1.000000
    5       12.767441   0.000000
    6       14.204492   0.000000
    7       15.361565   0.000000
    8       17.147686   0.000000
 
 -0.3333333E+00 -0.4444444E+00  0.1111111E+00  0.2194787E-01
    1       -0.638952   1.000000
    2        0.615677   1.000000
    3        5.976193   1.000000
    4        7.167907   1.000000
    5        9.296826   0.079181
    6       14.414423   0.000000
    7       15.760184   0.000000
    8       17.089587   0.000000
 
 -0.2222222E+00 -0.4444444E+00  0.1111111E+00  0.2194787E-01
    1        0.482356   1.000000
    2        2.875496   1.000000
    3        5.672365   1.000000
    4        6.002932   1.000000
    5        8.171244   1.000000
    6       12.223434   0.000000
    7       14.887099   0.000000
    8       17.248257   0.000000
 
 -0.1111111E+00 -0.4444444E+00  0.1111111E+00  0.1097394E-01
    1        2.156793   1.000000
    2        2.883330   1.000000
    3        5.360957   1.000000
    4        6.823585   1.000000
    5        8.826783   0.972132
    6       11.099455   0.000000
    7       11.677651   0.000000
    8       16.577123   0.000000
 
 -0.3333333E+00 -0.3333333E+00  0.1111111E+00  0.1097394E-01
    1        1.565239   1.000000
    2        1.599542   1.000000
    3        5.593668   1.000000
    4        6.834790   1.000000
    5        6.989395   1.000000
    6       12.137289   0.000000
    7       16.449242   0.000000
    8       16.729828   0.000000
 
 -0.2222222E+00 -0.3333333E+00  0.1111111E+00  0.2194787E-01
    1        2.372666   1.000000
    2        3.324962   1.000000
    3        4.426659   1.000000
    4        7.196598   1.000000
    5        8.166658   1.000000
    6       10.650332   0.000000
    7       13.026680   0.000000
    8       15.170930   0.000000
 
 -0.1111111E+00 -0.3333333E+00  0.1111111E+00  0.1097394E-01
    1        0.013118   1.000000
    2        5.494507   1.000000
    3        7.117927   1.000000
    4        8.056874   1.000000
    5        8.093415   1.000000
    6       10.868042   0.000000
    7       11.256411   0.000000
    8       13.546846   0.000000
 
 -0.2222222E+00 -0.2222222E+00  0.1111111E+00  0.1097394E-01
    1       -0.129335   1.000000
    2        6.439059   1.000000
    3        6.481809   1.000000
    4        7.807411   1.000000
    5        8.839623   0.965796
    6       10.486977   0.000000
    7       11.804970   0.000000
    8       12.183278   0.000000
 
 -0.1111111E+00 -0.2222222E+00  0.1111111E+00  0.1097394E-01
    1       -2.083403   1.000000
    2        7.203762   1.000000
    3        7.960141   1.000000
    4        8.644589   0.999316
    5        9.778379   0.000001
    6       10.714596   0.000000
    7       12.385030   0.000000
    8       13.049847   0.000000
 
 -0.1111111E+00 -0.1111111E+00  0.1111111E+00  0.2743484E-02
    1       -3.517523   1.000000
    2        7.177967   1.000000
    3        7.219316   1.000000
    4        7.219317   1.000000
    5       11.618441   0.000000
    6       12.866315   0.000000
    7       13.227271   0.000000
    8       15.420112   0.000000
 
  0.2222222E+00  0.2222222E+00  0.2222222E+00  0.1097394E-01
    1        1.986446   1.000000
    2        3.220586   1.000000
    3        5.022524   1.000000
    4        5.042057   1.000000
    5       12.267846   0.000000
    6       13.424052   0.000000
    7       14.574545   0.000000
    8       14.607674   0.000000
 
 -0.2222222E+00  0.2222222E+00  0.2222222E+00  0.5486968E-02
    1       -3.445444   1.000000
    2        2.273061   1.000000
    3        3.933319   1.000000
    4        9.459499   0.005220
    5       12.077623   0.000000
    6       15.124030   0.000000
    7       17.435601   0.000000
    8       18.326055   0.000000
 
 -0.3333333E+00  0.3333333E+00  0.2222222E+00  0.1097394E-01
    1       -2.722115   1.000000
    2        1.005944   1.000000
    3        4.094623   1.000000
    4        7.704750   1.000000
    5       13.389269   0.000000
    6       16.591872   0.000000
    7       17.259007   0.000000
    8       18.277608   0.000000
 
 -0.2222222E+00  0.3333333E+00  0.2222222E+00  0.1097394E-01
    1       -2.522471   1.000000
    2        1.887753   1.000000
    3        3.608997   1.000000
    4        7.883418   1.000000
    5       12.738754   0.000000
    6       14.911692   0.000000
    7       17.109162   0.000000
    8       18.422707   0.000000
 
 -0.4444444E+00  0.4444444E+00  0.2222222E+00  0.1097394E-01
    1       -1.720032   1.000000
    2       -0.457369   1.000000
    3        4.977483   1.000000
    4        6.200536   1.000000
    5       14.453220   0.000000
    6       15.528274   0.000000
    7       17.818717   0.000000
    8       17.968256   0.000000
 
 -0.3333333E+00  0.4444444E+00  0.2222222E+00  0.2194787E-01
    1       -1.666759   1.000000
    2        0.769511   1.000000
    3        3.886839   1.000000
    4        6.255706   1.000000
    5       12.677931   0.000000
    6       16.000172   0.000000
    7       18.319997   0.000000
    8       18.539216   0.000000
 
 -0.2222222E+00  0.4444444E+00  0.2222222E+00  0.1097394E-01
    1       -0.928057   1.000000
    2        2.177592   1.000000
    3        3.917185   1.000000
    4        6.919299   1.000000
    5        9.044786   0.644901
    6       15.629237   0.000000
    7       17.051737   0.000000
    8       17.204703   0.000000
 
 -0.4444444E+00 -0.4444444E+00  0.2222222E+00  0.1097394E-01
    1       -0.551687   1.000000
    2       -0.546677   1.000000
    3        4.900730   1.000000
    4        4.900935   1.000000
    5       12.607073   0.000000
    6       16.779912   0.000000
    7       17.571820   0.000000
    8       18.555969   0.000000
 
 -0.3333333E+00 -0.4444444E+00  0.2222222E+00  0.2194787E-01
    1        0.040576   1.000000
    2        1.210174   1.000000
    3        4.319690   1.000000
    4        5.456939   1.000000
    5        8.785089   0.986375
    6       15.986648   0.000000
    7       17.960634   0.000000
    8       18.621269   0.000000
 
 -0.2222222E+00 -0.4444444E+00  0.2222222E+00  0.1097394E-01
    1        1.296794   1.000000
    2        3.111980   1.000000
    3        4.855360   1.000000
    4        5.380973   1.000000
    5        6.670105   1.000000
    6       13.508270   0.000000
    7       14.986085   0.000000
    8       17.668965   0.000000
 
 -0.3333333E+00 -0.3333333E+00  0.2222222E+00  0.1097394E-01
    1        2.277523   1.000000
    2        2.337669   1.000000
    3        5.102688   1.000000
    4        5.381915   1.000000
    5        5.565699   1.000000
    6       13.821254   0.000000
    7       16.058291   0.000000
    8       16.642901   0.000000
 
 -0.2222222E+00 -0.3333333E+00  0.2222222E+00  0.1097394E-01
    1        2.142722   1.000000
    2        4.148153   1.000000
    3        4.825236   1.000000
    4        6.372051   1.000000
    5        7.010369   1.000000
    6       11.896397   0.000000
    7       12.991167   0.000000
    8       14.218855   0.000000
 
 -0.2222222E+00 -0.2222222E+00  0.2222222E+00  0.2743484E-02
    1       -0.272226   1.000000
    2        6.911274   1.000000
    3        7.061958   1.000000
    4        8.109071   1.000000
    5        8.109072   1.000000
    6       10.639769   0.000000
    7       11.567619   0.000000
    8       11.567623   0.000000
 
 -0.3333333E+00  0.3333333E+00  0.3333333E+00  0.5486968E-02
    1       -2.011127   1.000000
    2        1.110699   1.000000
    3        2.889797   1.000000
    4        5.940631   1.000000
    5       15.150591   0.000000
    6       16.728538   0.000000
    7       18.072775   0.000000
    8       18.912481   0.000000
 
 -0.4444444E+00  0.4444444E+00  0.3333333E+00  0.1097394E-01
    1       -1.036937   1.000000
    2        0.138912   1.000000
    3        3.292878   1.000000
    4        4.444999   1.000000
    5       15.985220   0.000000
    6       16.393381   0.000000
    7       18.473878   0.000000
    8       19.196957   0.000000
 
 -0.3333333E+00  0.4444444E+00  0.3333333E+00  0.1097394E-01
    1       -0.839118   1.000000
    2        1.014118   1.000000
    3        2.813710   1.000000
    4        4.633815   1.000000
    5       12.420629   0.000000
    6       18.045061   0.000000
    7       19.572169   0.000000
    8       19.945454   0.000000
 
 -0.4444444E+00 -0.4444444E+00  0.3333333E+00  0.1097394E-01
    1        0.186568   1.000000
    2        0.194186   1.000000
    3        3.347267   1.000000
    4        3.349159   1.000000
    5       12.316863   0.000000
    6       19.136627   0.000000
    7       19.805655   0.000000
    8       19.929910   0.000000
 
 -0.3333333E+00 -0.4444444E+00  0.3333333E+00  0.1097394E-01
    1        0.921669   1.000000
    2        1.597991   1.000000
    3        3.385958   1.000000
    4        4.051813   1.000000
    5        8.523890   0.999975
    6       17.297021   0.000000
    7       18.654425   0.000000
    8       19.236605   0.000000
 
 -0.3333333E+00 -0.3333333E+00  0.3333333E+00  0.2743484E-02
    1        2.777181   1.000000
    2        2.873789   1.000000
    3        4.594632   1.000000
    4        4.594633   1.000000
    5        5.170543   1.000000
    6       15.148505   0.000000
    7       15.922600   0.000000
    8       15.922606   0.000000
 
 -0.4444444E+00  0.4444444E+00  0.4444444E+00  0.5486968E-02
    1       -0.152042   1.000000
    2        0.524608   1.000000
    3        2.352615   1.000000
    4        3.021235   1.000000
    5       16.237989   0.000000
    6       16.317810   0.000000
    7       20.097328   0.000000
    8       20.788480   0.000000
 
 -0.4444444E+00 -0.4444444E+00  0.4444444E+00  0.2743484E-02
    1        0.715955   1.000000
    2        0.726496   1.000000
    3        2.544260   1.000000
    4        2.544260   1.000000
    5       12.207405   0.000000
    6       20.217235   0.000000
    7       20.593682   0.000000
    8       20.961458   0.000000
