unknown system                          
   1.00000000000000     
    -0.000000    2.753331    2.753331
     2.753331    0.000000    2.753331
     2.753331    2.753331    0.000000
   Si
     2
Direct
  0.500000  0.500000  0.500000
  0.750000  0.750000  0.750000
 
   24   24   24
 0.79551     0.83354     0.95274      1.1675      1.4992      1.9708      2.5978      3.3756      4.2651      5.1811    
  5.9957      6.5639      6.7685      6.5641      5.9960      5.1812      4.2649      3.3752      2.5973      1.9704    
  1.4990      1.1675     0.95287     0.83364     0.83354     0.89568      1.0277      1.2436      1.5601      1.9909    
  2.5387      3.1853      3.8824      4.5488      5.0807      5.3778      5.3778      5.0808      4.5490      3.8824    
  3.1851      2.5384      1.9906      1.5599      1.2436      1.0279     0.89587     0.83362     0.95274      1.0277    
  1.1624      1.3687      1.6581      2.0359      2.4952      3.0100      3.5313      3.9891      4.3059      4.4195    
  4.3059      3.9891      3.5312      3.0099      2.4951      2.0359      1.6581      1.3688      1.1625      1.0279    
 0.95288     0.92884      1.1675      1.2436      1.3687      1.5523      1.8011      2.1142      2.4792      2.8679    
  3.2357      3.5273      3.6895      3.6895      3.5273      3.2356      2.8677      2.4790      2.1142      1.8012    
  1.5526      1.3689      1.2437      1.1676      1.1319      1.1319      1.4992      1.5601      1.6581      1.8011    
  1.9926      2.2288      2.4952      2.7651      3.0019      3.1654      3.2240      3.1653      3.0017      2.7650    
  2.4951      2.2289      1.9928      1.8012      1.6583      1.5602      1.4992      1.4668      1.4568      1.4669    
  1.9708      1.9909      2.0359      2.1142      2.2288      2.3751      2.5387      2.6976      2.8249      2.8959    
  2.8958      2.8246      2.6973      2.5386      2.3752      2.2291      2.1144      2.0359      1.9908      1.9705    
  1.9649      1.9647      1.9648      1.9650      2.5978      2.5387      2.4952      2.4792      2.4952      2.5387    
  2.5978      2.6562      2.6987      2.7140      2.6985      2.6559      2.5975      2.5386      2.4953      2.4794    
  2.4953      2.5386      2.5974      2.6559      2.6985      2.7141      2.6987      2.6562      3.3756      3.1853    
  3.0100      2.8679      2.7651      2.6976      2.6562      2.6325      2.6214      2.6213      2.6322      2.6560    
  2.6974      2.7650      2.8679      3.0100      3.1852      3.3754      3.5542      3.6931      3.7690      3.7691    
  3.6933      3.5545      4.2651      3.8824      3.5313      3.2357      3.0019      2.8249      2.6987      2.6214    
  2.5950      2.6211      2.6984      2.8247      3.0018      3.2358      3.5313      3.8823      4.2650      4.6383    
  4.9528      5.1627      5.2364      5.1628      4.9530      4.6384      5.1811      4.5488      3.9891      3.5273    
  3.1654      2.8959      2.7140      2.6213      2.6211      2.7138      2.8958      3.1654      3.5274      3.9893    
  4.5490      5.1812      5.8313      6.4227      6.8739      7.1181      7.1181      6.8739      6.4227      5.8313    
  5.9957      5.0807      4.3059      3.6895      3.2240      2.8958      2.6985      2.6322      2.6984      2.8958    
  3.2239      3.6896      4.3060      5.0809      5.9960      6.9911      7.9643      8.7889      9.3428      9.5380    
  9.3427      8.7888      7.9641      6.9909      6.5639      5.3778      4.4195      3.6895      3.1653      2.8246    
  2.6559      2.6560      2.8247      3.1654      3.6896      4.4195      5.3779      6.5640      7.9278      9.3555    
  10.679      11.707      12.270      12.270      11.706      10.679      9.3552      7.9276      6.7685      5.3778    
  4.3059      3.5273      3.0017      2.6973      2.5975      2.6974      3.0018      3.5274      4.3060      5.3779    
  6.7685      8.4547      10.336      12.224      13.865      14.990      15.391      14.990      13.865      12.224    
  10.336      8.4546      6.5641      5.0808      3.9891      3.2356      2.7650      2.5386      2.5386      2.7650    
  3.2358      3.9893      5.0809      6.5640      8.4547      10.691      13.100      15.399      17.213      18.203    
  18.203      17.214      15.399      13.100      10.690      8.4547      5.9960      4.5490      3.5312      2.8677    
  2.4951      2.3752      2.4953      2.8679      3.5313      4.5490      5.9960      7.9278      10.336      13.100    
  15.956      18.458      20.137      20.723      20.137      18.458      15.956      13.100      10.336      7.9278    
  5.1812      3.8824      3.0099      2.4790      2.2289      2.2291      2.4794      3.0100      3.8823      5.1812    
  6.9911      9.3555      12.224      15.399      18.458      20.823      22.093      22.093      20.822      18.458    
  15.399      12.224      9.3555      6.9910      4.2649      3.1851      2.4951      2.1142      1.9928      2.1144    
  2.4953      3.1852      4.2650      5.8313      7.9643      10.679      13.865      17.213      20.137      22.093    
  22.777      22.093      20.136      17.213      13.865      10.679      7.9643      5.8312      3.3752      2.5384    
  2.0359      1.8012      1.8012      2.0359      2.5386      3.3754      4.6383      6.4227      8.7889      11.707    
  14.990      18.203      20.723      22.093      22.093      20.723      18.202      14.990      11.707      8.7890    
  6.4228      4.6382      2.5973      1.9906      1.6581      1.5526      1.6583      1.9908      2.5974      3.5542    
  4.9528      6.8739      9.3428      12.270      15.391      18.203      20.137      20.822      20.136      18.202    
  15.390      12.270      9.3428      6.8740      4.9528      3.5541      1.9704      1.5599      1.3688      1.3689    
  1.5602      1.9705      2.6559      3.6931      5.1627      7.1181      9.5380      12.270      14.990      17.214    
  18.458      18.458      17.213      14.990      12.270      9.5382      7.1181      5.1626      3.6930      2.6559    
  1.4990      1.2436      1.1625      1.2437      1.4992      1.9649      2.6985      3.7690      5.2364      7.1181    
  9.3427      11.706      13.865      15.399      15.956      15.399      13.865      11.707      9.3428      7.1181    
  5.2363      3.7687      2.6983      1.9648      1.1675      1.0279      1.0279      1.1676      1.4668      1.9647    
  2.7141      3.7691      5.1628      6.8739      8.7888      10.679      12.224      13.100      13.100      12.224    
  10.679      8.7890      6.8740      5.1626      3.7687      2.7137      1.9645      1.4667     0.95287     0.89587    
 0.95288      1.1319      1.4568      1.9648      2.6987      3.6933      4.9530      6.4227      7.9641      9.3552    
  10.336      10.690      10.336      9.3555      7.9643      6.4228      4.9528      3.6930      2.6983      1.9645    
  1.4567      1.1319     0.83364     0.83362     0.92884      1.1319      1.4669      1.9650      2.6562      3.5545    
  4.6384      5.8313      6.9909      7.9276      8.4546      8.4547      7.9278      6.9910      5.8312      4.6382    
  3.5541      2.6559      1.9648      1.4667      1.1319     0.92888     0.83354     0.89568      1.0277      1.2436    
  1.5601      1.9909      2.5387      3.1853      3.8824      4.5489      5.0807      5.3778      5.3778      5.0808    
  4.5489      3.8824      3.1851      2.5384      1.9906      1.5599      1.2436      1.0279     0.89587     0.83362    
 0.89568     0.96568      1.0925      1.2888      1.5664      1.9308      2.3751      2.8735      3.3781      3.8208    
  4.1268      4.2364      4.1268      3.8208      3.3782      2.8735      2.3749      1.9306      1.5663      1.2889    
  1.0927     0.96590     0.89582     0.87348      1.0277      1.0925      1.2024      1.3679      1.5965      1.8875    
  2.2289      2.5932      2.9380      3.2111      3.3629      3.3629      3.2110      2.9379      2.5931      2.2288    
  1.8875      1.5964      1.3680      1.2025      1.0927      1.0278     0.99821     0.99816      1.2436      1.2888    
  1.3679      1.4900      1.6591      1.8718      2.1142      2.3612      2.5785      2.7289      2.7828      2.7289    
  2.5784      2.3611      2.1141      1.8718      1.6592      1.4901      1.3681      1.2890      1.2436      1.2218    
  1.2155      1.2218      1.5601      1.5664      1.5965      1.6591      1.7576      1.8875      2.0359      2.1821    
  2.3005      2.3671      2.3670      2.3004      2.1820      2.0358      1.8875      1.7577      1.6593      1.5966    
  1.5665      1.5601      1.5654      1.5715      1.5716      1.5655      1.9909      1.9308      1.8875      1.8718    
  1.8875      1.9308      1.9909      2.0522      2.0978      2.1147      2.0977      2.0521      1.9908      1.9308    
  1.8877      1.8720      1.8877      1.9308      1.9908      2.0521      2.0977      2.1147      2.0978      2.0522    
  2.5387      2.3751      2.2289      2.1142      2.0359      1.9909      1.9708      1.9650      1.9647      1.9647    
  1.9649      1.9706      1.9908      2.0360      2.1144      2.2291      2.3751      2.5386      2.6973      2.8246    
  2.8959      2.8960      2.8249      2.6976      3.1853      2.8735      2.5932      2.3612      2.1821      2.0522    
  1.9650      1.9149      1.8985      1.9148      1.9649      2.0521      2.1820      2.3612      2.5933      2.8737    
  3.1853      3.4973      3.7681      3.9536      4.0199      3.9539      3.7684      3.4975      3.8824      3.3781    
  2.9380      2.5785      2.3005      2.0978      1.9647      1.8985      1.8985      1.9647      2.0978      2.3005    
  2.5786      2.9382      3.3783      3.8826      4.4126      4.9085      5.2975      5.5125      5.5125      5.2976    
  4.9085      4.4126      4.5489      3.8208      3.2111      2.7289      2.3671      2.1147      1.9647      1.9148    
  1.9647      2.1146      2.3671      2.7291      3.2115      3.8212      4.5492      5.3565      6.1675      6.8751    
  7.3622      7.5363      7.3621      6.8750      6.1675      5.3564      5.0807      4.1268      3.3629      2.7828    
  2.3670      2.0977      1.9649      1.9649      2.0978      2.3671      2.7830      3.3633      4.1273      5.0812    
  6.1975      7.3968      8.5419      9.4556      9.9660      9.9660      9.4555      8.5418      7.3967      6.1972    
  5.3778      4.2364      3.3629      2.7289      2.3004      2.0521      1.9706      2.0521      2.3005      2.7291    
  3.3633      4.2369      5.3782      6.7848      8.3937      10.057      11.545      12.588      12.964      12.588    
  11.545      10.057      8.3936      6.7846      5.3778      4.1268      3.2110      2.5784      2.1820      1.9908    
  1.9908      2.1820      2.5786      3.2115      4.1273      5.3782      6.9963      8.9560      11.131      13.268    
  15.013      16.001      16.001      15.013      13.268      11.131      8.9560      6.9962      5.0808      3.8208    
  2.9379      2.3611      2.0358      1.9308      2.0360      2.3612      2.9382      3.8212      5.0812      6.7848    
  8.9560      11.521      14.251      16.753      18.536      19.186      18.536      16.752      14.251      11.521    
  8.9559      6.7846      4.5489      3.3782      2.5931      2.1141      1.8875      1.8877      2.1144      2.5933    
  3.3783      4.5492      6.1975      8.3937      11.131      14.251      17.388      19.992      21.480      21.480    
  19.992      17.388      14.251      11.131      8.3935      6.1972      3.8824      2.8735      2.2288      1.8718    
  1.7577      1.8720      2.2291      2.8737      3.8826      5.3565      7.3968      10.057      13.268      16.753    
  19.992      22.317      23.162      22.317      19.992      16.752      13.268      10.057      7.3967      5.3563    
  3.1851      2.3749      1.8875      1.6592      1.6593      1.8877      2.3751      3.1853      4.4126      6.1675    
  8.5419      11.545      15.013      18.536      21.480      23.162      23.162      21.480      18.536      15.012    
  11.544      8.5418      6.1675      4.4125      2.5384      1.9306      1.5964      1.4901      1.5966      1.9308    
  2.5386      3.4973      4.9085      6.8751      9.4556      12.588      16.001      19.186      21.480      22.317    
  21.480      19.185      16.001      12.587      9.4552      6.8750      4.9084      3.4973      1.9906      1.5663    
  1.3680      1.3681      1.5665      1.9908      2.6973      3.7681      5.2975      7.3622      9.9660      12.964    
  16.001      18.536      19.992      19.992      18.536      16.001      12.963      9.9656      7.3619      5.2974    
  3.7681      2.6973      1.5599      1.2889      1.2025      1.2890      1.5601      2.0521      2.8246      3.9536    
  5.5125      7.5363      9.9660      12.588      15.013      16.752      17.388      16.752      15.012      12.587    
  9.9656      7.5361      5.5124      3.9535      2.8245      2.0519      1.2436      1.0927      1.0927      1.2436    
  1.5654      2.0977      2.8959      4.0199      5.5125      7.3621      9.4555      11.545      13.268      14.251    
  14.251      13.268      11.544      9.4552      7.3619      5.5124      4.0197      2.8956      2.0975      1.5653    
  1.0279     0.96590      1.0278      1.2218      1.5715      2.1147      2.8960      3.9539      5.2976      6.8750    
  8.5418      10.057      11.131      11.521      11.131      10.057      8.5418      6.8750      5.2974      3.9535    
  2.8956      2.1144      1.5714      1.2218     0.89587     0.89582     0.99821      1.2155      1.5716      2.0978    
  2.8249      3.7684      4.9085      6.1675      7.3967      8.3936      8.9560      8.9559      8.3935      7.3967    
  6.1675      4.9084      3.7681      2.8245      2.0975      1.5714      1.2156     0.99833     0.83362     0.87348    
 0.99816      1.2218      1.5655      2.0522      2.6976      3.4975      4.4126      5.3564      6.1972      6.7846    
  6.9962      6.7846      6.1972      5.3563      4.4125      3.4973      2.6973      2.0519      1.5653      1.2218    
 0.99833     0.87363     0.95273      1.0277      1.1624      1.3687      1.6581      2.0359      2.4952      3.0100    
  3.5313      3.9891      4.3059      4.4194      4.3058      3.9890      3.5312      3.0099      2.4951      2.0359    
  1.6582      1.3688      1.1625      1.0279     0.95287     0.92883      1.0277      1.0925      1.2024      1.3679    
  1.5965      1.8875      2.2289      2.5932      2.9380      3.2111      3.3629      3.3628      3.2110      2.9379    
  2.5931      2.2288      1.8875      1.5965      1.3680      1.2025      1.0927      1.0278     0.99820     0.99815    
  1.1624      1.2024      1.2751      1.3902      1.5522      1.7576      1.9926      2.2326      2.4438      2.5900    
  2.6423      2.5898      2.4436      2.2325      1.9927      1.7577      1.5523      1.3903      1.2752      1.2025    
  1.1624      1.1441      1.1390      1.1441      1.3687      1.3679      1.3902      1.4451      1.5362      1.6591    
  1.8011      1.9416      2.0558      2.1202      2.1201      2.0557      1.9415      1.8010      1.6592      1.5364    
  1.4453      1.3903      1.3680      1.3687      1.3797      1.3889      1.3889      1.3797      1.6581      1.5965    
  1.5522      1.5362      1.5522      1.5965      1.6581      1.7212      1.7684      1.7858      1.7683      1.7211    
  1.6580      1.5965      1.5523      1.5364      1.5524      1.5965      1.6581      1.7211      1.7683      1.7858    
  1.7684      1.7212      2.0359      1.8875      1.7576      1.6591      1.5965      1.5664      1.5601      1.5655    
  1.5716      1.5715      1.5654      1.5600      1.5665      1.5966      1.6593      1.7577      1.8875      2.0359    
  2.1820      2.3004      2.3670      2.3671      2.3005      2.1821      2.4952      2.2289      1.9926      1.8011    
  1.6581      1.5601      1.4992      1.4669      1.4568      1.4668      1.4992      1.5601      1.6583      1.8012    
  1.9928      2.2289      2.4951      2.7650      3.0017      3.1653      3.2240      3.1654      3.0019      2.7651    
  3.0100      2.5932      2.2326      1.9416      1.7212      1.5655      1.4669      1.4192      1.4192      1.4670    
  1.5657      1.7214      1.9417      2.2326      2.5932      3.0101      3.4522      3.8696      4.2001      4.3839    
  4.3839      4.2002      3.8697      3.4521      3.5313      2.9380      2.4438      2.0558      1.7684      1.5716    
  1.4568      1.4192      1.4570      1.5718      1.7686      2.0560      2.4438      2.9380      3.5314      4.1938    
  4.8646      5.4548      5.8641      6.0109      5.8640      5.4546      4.8643      4.1936      3.9891      3.2111    
  2.5900      2.1202      1.7858      1.5715      1.4668      1.4670      1.5718      1.7861      2.1203      2.5901    
  3.2112      3.9893      4.9044      5.8948      6.8485      7.6154      8.0462      8.0461      7.6152      6.8482    
  5.8945      4.9042      4.3059      3.3629      2.6423      2.1201      1.7683      1.5654      1.4992      1.5657    
  1.7686      2.1203      2.6425      3.3631      4.3061      5.4730      6.8171      8.2189      9.4831      10.375    
  10.698      10.375      9.4829      8.2186      6.8167      5.4728      4.4194      3.3628      2.5898      2.0557    
  1.7211      1.5600      1.5601      1.7214      2.0560      2.5901      3.3631      4.4196      5.7911      7.4639    
  9.3376      11.196      12.724      13.595      13.595      12.724      11.196      9.3372      7.4637      5.7910    
  4.3058      3.2110      2.4436      1.9415      1.6580      1.5665      1.6583      1.9417      2.4438      3.2112    
  4.3061      5.7911      7.6973      9.9713      12.418      14.678      16.300      16.893      16.300      14.678    
  12.417      9.9712      7.6973      5.7910      3.9890      2.9379      2.2325      1.8010      1.5965      1.5966    
  1.8012      2.2326      2.9380      3.9893      5.4730      7.4639      9.9713      12.862      15.799      18.255    
  19.668      19.668      18.255      15.798      12.862      9.9713      7.4638      5.4727      3.5312      2.5931    
  1.9927      1.6592      1.5523      1.6593      1.9928      2.5932      3.5314      4.9044      6.8171      9.3376    
  12.418      15.799      18.971      21.270      22.113      21.270      18.971      15.798      12.418      9.3375    
  6.8168      4.9040      3.0099      2.2288      1.7577      1.5364      1.5364      1.7577      2.2289      3.0101    
  4.1938      5.8948      8.2189      11.196      14.678      18.255      21.270      23.012      23.012      21.269    
  18.254      14.678      11.196      8.2188      5.8945      4.1934      2.4951      1.8875      1.5523      1.4453    
  1.5524      1.8875      2.4951      3.4522      4.8646      6.8485      9.4831      12.724      16.300      19.668    
  22.113      23.012      22.113      19.668      16.300      12.724      9.4829      6.8482      4.8642      3.4520    
  2.0359      1.5965      1.3903      1.3903      1.5965      2.0359      2.7650      3.8696      5.4548      7.6154    
  10.375      13.595      16.893      19.668      21.270      21.269      19.668      16.892      13.594      10.375    
  7.6149      5.4544      3.8694      2.7650      1.6582      1.3680      1.2752      1.3680      1.6581      2.1820    
  3.0017      4.2001      5.8641      8.0462      10.698      13.595      16.300      18.255      18.971      18.254    
  16.300      13.594      10.698      8.0457      5.8636      4.1998      3.0016      2.1820      1.3688      1.2025    
  1.2025      1.3687      1.7211      2.3004      3.1653      4.3839      6.0109      8.0461      10.375      12.724    
  14.678      15.798      15.798      14.678      12.724      10.375      8.0457      6.0106      4.3836      3.1651    
  2.3003      1.7212      1.1625      1.0927      1.1624      1.3797      1.7683      2.3670      3.2240      4.3839    
  5.8640      7.6152      9.4829      11.196      12.417      12.862      12.418      11.196      9.4829      7.6149    
  5.8636      4.3836      3.2238      2.3670      1.7684      1.3798      1.0279      1.0278      1.1441      1.3889    
  1.7858      2.3671      3.1654      4.2002      5.4546      6.8482      8.2186      9.3372      9.9712      9.9713    
  9.3375      8.2188      6.8482      5.4544      4.1998      3.1651      2.3670      1.7859      1.3890      1.1442    
 0.95287     0.99820      1.1390      1.3889      1.7684      2.3005      3.0019      3.8697      4.8643      5.8945    
  6.8167      7.4637      7.6973      7.4638      6.8168      5.8945      4.8642      3.8694      3.0016      2.3003    
  1.7684      1.3890      1.1392     0.99835     0.92883     0.99815      1.1441      1.3797      1.7212      2.1821    
  2.7651      3.4521      4.1936      4.9042      5.4728      5.7910      5.7910      5.4727      4.9040      4.1934    
  3.4520      2.7650      2.1820      1.7212      1.3798      1.1442     0.99835     0.92892      1.1675      1.2436    
  1.3687      1.5523      1.8011      2.1142      2.4792      2.8679      3.2357      3.5273      3.6895      3.6895    
  3.5272      3.2356      2.8677      2.4791      2.1142      1.8013      1.5526      1.3689      1.2437      1.1675    
  1.1319      1.1319      1.2436      1.2888      1.3679      1.4899      1.6591      1.8718      2.1142      2.3612    
  2.5785      2.7289      2.7828      2.7288      2.5784      2.3611      2.1141      1.8719      1.6593      1.4902    
  1.3681      1.2889      1.2436      1.2217      1.2155      1.2218      1.3687      1.3679      1.3902      1.4451    
  1.5362      1.6591      1.8011      1.9416      2.0558      2.1201      2.1201      2.0557      1.9415      1.8010    
  1.6592      1.5364      1.4453      1.3903      1.3679      1.3686      1.3796      1.3889      1.3889      1.3797    
  1.5523      1.4899      1.4451      1.4289      1.4451      1.4899      1.5523      1.6162      1.6639      1.6815    
  1.6638      1.6161      1.5522      1.4899      1.4453      1.4292      1.4453      1.4899      1.5522      1.6161    
  1.6638      1.6815      1.6639      1.6162      1.8011      1.6591      1.5362      1.4451      1.3902      1.3679    
  1.3687      1.3797      1.3889      1.3889      1.3796      1.3686      1.3679      1.3903      1.4453      1.5364    
  1.6592      1.8010      1.9415      2.0557      2.1201      2.1201      2.0558      1.9416      2.1142      1.8718    
  1.6591      1.4899      1.3679      1.2888      1.2436      1.2218      1.2155      1.2217      1.2436      1.2889    
  1.3681      1.4902      1.6593      1.8719      2.1141      2.3611      2.5784      2.7288      2.7828      2.7289    
  2.5785      2.3612      2.4792      2.1142      1.8011      1.5523      1.3687      1.2436      1.1675      1.1319    
  1.1319      1.1675      1.2437      1.3689      1.5526      1.8013      2.1142      2.4791      2.8677      3.2356    
  3.5272      3.6895      3.6895      3.5273      3.2357      2.8679      2.8679      2.3612      1.9416      1.6162    
  1.3797      1.2218      1.1319      1.1028      1.1320      1.2220      1.3800      1.6164      1.9418      2.3612    
  2.8678      3.4346      4.0092      4.5148      4.8654      4.9912      4.8653      4.5148      4.0092      3.4348    
  3.2357      2.5785      2.0558      1.6639      1.3889      1.2155      1.1319      1.1320      1.2157      1.3892    
  1.6642      2.0560      2.5784      3.2355      4.0091      4.8459      5.6507      6.2970      6.6597      6.6595    
  6.2967      5.6504      4.8457      4.0092      3.5273      2.7289      2.1201      1.6815      1.3889      1.2217    
  1.1675      1.2220      1.3892      1.6819      2.1203      2.7289      3.5270      4.5145      5.6505      6.8331    
  7.8976      8.6474      8.9187      8.6471      7.8971      6.8327      5.6504      4.5148      3.6895      2.7828    
  2.1201      1.6638      1.3796      1.2436      1.2437      1.3800      1.6642      2.1203      2.7828      3.6892    
  4.8650      6.2967      7.8974      9.4820      10.783      11.523      11.523      10.783      9.4816      7.8971    
  6.2967      4.8653      3.6895      2.7288      2.0557      1.6161      1.3686      1.2889      1.3689      1.6164    
  2.0560      2.7289      3.6892      4.9908      6.6594      8.6473      10.783      12.755      14.168      14.684    
  14.168      12.754      10.783      8.6471      6.6595      4.9912      3.5272      2.5784      1.9415      1.5522    
  1.3679      1.3681      1.5526      1.9418      2.5784      3.5270      4.8650      6.6594      8.9187      11.523    
  14.168      16.379      17.652      17.652      16.379      14.168      11.523      8.9187      6.6597      4.8654    
  3.2356      2.3611      1.8010      1.4899      1.3903      1.4902      1.8013      2.3612      3.2355      4.5145    
  6.2967      8.6473      11.523      14.684      17.652      19.803      20.593      19.803      17.652      14.684    
  11.523      8.6474      6.2970      4.5148      2.8677      2.1141      1.6592      1.4453      1.4453      1.6593    
  2.1142      2.8678      4.0091      5.6505      7.8974      10.783      14.168      17.652      20.593      22.295    
  22.295      20.593      17.652      14.168      10.783      7.8976      5.6507      4.0092      2.4791      1.8719    
  1.5364      1.4292      1.5364      1.8719      2.4791      3.4346      4.8459      6.8331      9.4820      12.755    
  16.379      19.803      22.295      23.211      22.295      19.803      16.379      12.755      9.4820      6.8331    
  4.8459      3.4346      2.1142      1.6593      1.4453      1.4453      1.6592      2.1141      2.8677      4.0092    
  5.6507      7.8976      10.783      14.168      17.652      20.593      22.295      22.295      20.593      17.652    
  14.168      10.783      7.8974      5.6505      4.0091      2.8678      1.8013      1.4902      1.3903      1.4899    
  1.8010      2.3611      3.2356      4.5148      6.2970      8.6474      11.523      14.684      17.652      19.803    
  20.593      19.803      17.652      14.684      11.523      8.6473      6.2967      4.5145      3.2355      2.3612    
  1.5526      1.3681      1.3679      1.5522      1.9415      2.5784      3.5272      4.8654      6.6597      8.9187    
  11.523      14.168      16.379      17.652      17.652      16.379      14.168      11.523      8.9187      6.6594    
  4.8650      3.5270      2.5784      1.9418      1.3689      1.2889      1.3686      1.6161      2.0557      2.7288    
  3.6895      4.9912      6.6595      8.6471      10.783      12.754      14.168      14.684      14.168      12.755    
  10.783      8.6473      6.6594      4.9908      3.6892      2.7289      2.0560      1.6164      1.2437      1.2436    
  1.3796      1.6638      2.1201      2.7828      3.6895      4.8653      6.2967      7.8971      9.4816      10.783    
  11.523      11.523      10.783      9.4820      7.8974      6.2967      4.8650      3.6892      2.7828      2.1203    
  1.6642      1.3800      1.1675      1.2217      1.3889      1.6815      2.1201      2.7289      3.5273      4.5148    
  5.6504      6.8327      7.8971      8.6471      8.9187      8.6474      7.8976      6.8331      5.6505      4.5145    
  3.5270      2.7289      2.1203      1.6819      1.3892      1.2220      1.1319      1.2155      1.3889      1.6639    
  2.0558      2.5785      3.2357      4.0092      4.8457      5.6504      6.2967      6.6595      6.6597      6.2970    
  5.6507      4.8459      4.0091      3.2355      2.5784      2.0560      1.6642      1.3892      1.2157      1.1320    
  1.1319      1.2218      1.3797      1.6162      1.9416      2.3612      2.8679      3.4348      4.0092      4.5148    
  4.8653      4.9912      4.8654      4.5148      4.0092      3.4346      2.8678      2.3612      1.9418      1.6164    
  1.3800      1.2220      1.1320      1.1028      1.4992      1.5601      1.6581      1.8011      1.9926      2.2289    
  2.4952      2.7651      3.0019      3.1654      3.2240      3.1653      3.0017      2.7650      2.4951      2.2289    
  1.9928      1.8012      1.6583      1.5601      1.4992      1.4668      1.4568      1.4669      1.5601      1.5664    
  1.5965      1.6591      1.7576      1.8875      2.0359      2.1821      2.3005      2.3671      2.3670      2.3004    
  2.1820      2.0359      1.8875      1.7577      1.6593      1.5966      1.5665      1.5600      1.5654      1.5715    
  1.5716      1.5655      1.6581      1.5965      1.5522      1.5362      1.5522      1.5965      1.6581      1.7212    
  1.7684      1.7858      1.7683      1.7211      1.6581      1.5965      1.5524      1.5364      1.5523      1.5965    
  1.6580      1.7211      1.7683      1.7858      1.7684      1.7212      1.8011      1.6591      1.5362      1.4451    
  1.3902      1.3679      1.3687      1.3797      1.3889      1.3889      1.3797      1.3687      1.3680      1.3903    
  1.4453      1.5364      1.6592      1.8010      1.9415      2.0557      2.1201      2.1202      2.0558      1.9416    
  1.9926      1.7576      1.5522      1.3902      1.2751      1.2024      1.1624      1.1441      1.1390      1.1441    
  1.1624      1.2025      1.2752      1.3903      1.5523      1.7577      1.9927      2.2325      2.4436      2.5898    
  2.6423      2.5900      2.4438      2.2326      2.2289      1.8875      1.5965      1.3679      1.2024      1.0925    
  1.0277     0.99815     0.99820      1.0278      1.0927      1.2025      1.3680      1.5965      1.8875      2.2288    
  2.5931      2.9379      3.2110      3.3628      3.3629      3.2111      2.9380      2.5932      2.4952      2.0359    