unknown system                          
   1.00000000000000     
    -0.000000    2.737835    2.737835
     2.737835    0.000000    2.737835
     2.737835    2.737835    0.000000
   Si
     2
Direct
  0.500000  0.500000  0.500000
  0.750000  0.750000  0.750000
 
   24   24   24
 0.76876254999E+00 0.80603822045E+00 0.92275990960E+00 0.11332097672E+01 0.14588130420E+01
 0.19228382171E+01 0.25414307524E+01 0.33110031473E+01 0.41933375056E+01 0.51040751410E+01
 0.59153908522E+01 0.64818952228E+01 0.66859188242E+01 0.64820003575E+01 0.59155296464E+01
 0.51041644743E+01 0.41933462262E+01 0.33109651332E+01 0.25414041414E+01 0.19228530484E+01
 0.14588525585E+01 0.11332365786E+01 0.92275733514E+00 0.80602403592E+00 0.80603822045E+00
 0.86670591862E+00 0.99569798775E+00 0.12070005438E+01 0.15175321590E+01 0.19412811979E+01
 0.24812733276E+01 0.31199472274E+01 0.38099183514E+01 0.44706290520E+01 0.49985227595E+01
 0.52935779328E+01 0.52935939244E+01 0.49985892597E+01 0.44707610249E+01 0.38100706930E+01
 0.31200374223E+01 0.24812627842E+01 0.19412104191E+01 0.15174704904E+01 0.12069802539E+01
 0.99570504638E+00 0.86671598992E+00 0.80604169391E+00 0.92275990960E+00 0.99569798775E+00
 0.11270574550E+01 0.13289457807E+01 0.16129041347E+01 0.19845057221E+01 0.24370549489E+01
 0.29451720907E+01 0.34604153844E+01 0.39134472049E+01 0.42271901654E+01 0.43397383683E+01
 0.42272164434E+01 0.39134685465E+01 0.34604134797E+01 0.29451672930E+01 0.24370745530E+01
 0.19845380413E+01 0.16129079961E+01 0.13289076981E+01 0.11270139846E+01 0.99568698099E+00
 0.92277138155E+00 0.89950412201E+00 0.11332097672E+01 0.12070005438E+01 0.13289457807E+01
 0.15086617854E+01 0.17528667656E+01 0.20610146116E+01 0.24208321962E+01 0.28045981102E+01
 0.31682713299E+01 0.34568189306E+01 0.36175218359E+01 0.36175644003E+01 0.34568873143E+01
 0.31682604781E+01 0.28044853023E+01 0.24207052518E+01 0.20609743333E+01 0.17529263255E+01
 0.15087512408E+01 0.13289944198E+01 0.12069949559E+01 0.11331821847E+01 0.10988321844E+01
 0.10988459648E+01 0.14588130420E+01 0.15175321590E+01 0.16129041347E+01 0.17528667656E+01
 0.19411657185E+01 0.21739824576E+01 0.24370561936E+01 0.27041865820E+01 0.29389107465E+01
 0.31013124488E+01 0.31595344022E+01 0.31013181636E+01 0.29389180644E+01 0.27041882719E+01
 0.24370457791E+01 0.21739638673E+01 0.19411594771E+01 0.17528941293E+01 0.16129573179E+01
 0.15175731727E+01 0.14588159931E+01 0.14279944717E+01 0.14185423879E+01 0.14280107674E+01
 0.19228382171E+01 0.19412811979E+01 0.19845057221E+01 0.20610146116E+01 0.21739824576E+01
 0.23186853101E+01 0.24812738695E+01 0.26395915433E+01 0.27668075851E+01 0.28380009393E+01
 0.28379771425E+01 0.27667495723E+01 0.26395456023E+01 0.24813038079E+01 0.23188098238E+01
 0.21741317228E+01 0.20610834076E+01 0.19844591456E+01 0.19411867525E+01 0.19227846263E+01
 0.19186116408E+01 0.19192443603E+01 0.19192318923E+01 0.19186072756E+01 0.25414307524E+01
 0.24812733276E+01 0.24370549489E+01 0.24208321962E+01 0.24370561936E+01 0.24812738695E+01
 0.25414287377E+01 0.26013029522E+01 0.26449623825E+01 0.26609096240E+01 0.26449569242E+01
 0.26012722852E+01 0.25413879634E+01 0.24812844998E+01 0.24371529483E+01 0.24209578248E+01
 0.24371059080E+01 0.24812123939E+01 0.25413230669E+01 0.26012377657E+01 0.26449535914E+01
 0.26609215270E+01 0.26449741213E+01 0.26013092728E+01 0.33110031473E+01 0.31199472274E+01
 0.29451720907E+01 0.28045981102E+01 0.27041865820E+01 0.26395915433E+01 0.26013029522E+01
 0.25802265672E+01 0.25707699380E+01 0.25707684923E+01 0.25802350411E+01 0.26013304594E+01
 0.26396123111E+01 0.27041713081E+01 0.28045591358E+01 0.29451466703E+01 0.31199476951E+01
 0.33110106883E+01 0.34915311040E+01 0.36324139203E+01 0.37095828016E+01 0.37095861281E+01
 0.36324205743E+01 0.34915322584E+01 0.41933375056E+01 0.38099183514E+01 0.34604153844E+01
 0.31682713299E+01 0.29389107465E+01 0.27668075851E+01 0.26449623825E+01 0.25707699380E+01
 0.25455981916E+01 0.25707137588E+01 0.26449379499E+01 0.27668643085E+01 0.29389948661E+01
 0.31683010246E+01 0.34603699640E+01 0.38098379391E+01 0.41932776150E+01 0.45695453269E+01
 0.48881053183E+01 0.51014599628E+01 0.51764771817E+01 0.51013999344E+01 0.48880474465E+01
 0.45695450926E+01 0.51040751410E+01 0.44706290520E+01 0.39134472049E+01 0.34568189306E+01
 0.31013124488E+01 0.28380009393E+01 0.26609096240E+01 0.25707684923E+01 0.25707137588E+01
 0.26608120901E+01 0.28379748977E+01 0.31013858363E+01 0.34569251154E+01 0.39135148911E+01
 0.44706330279E+01 0.51040233854E+01 0.57592729935E+01 0.63584758314E+01 0.68175445774E+01
 0.70666695405E+01 0.70666759993E+01 0.68175760820E+01 0.63585426302E+01 0.57593523481E+01
 0.59153908522E+01 0.49985227595E+01 0.42271901654E+01 0.36175218359E+01 0.31595344022E+01
 0.28379771425E+01 0.26449569242E+01 0.25802350411E+01 0.26449379499E+01 0.28379748977E+01
 0.31595630215E+01 0.36175516865E+01 0.42271914912E+01 0.49985008408E+01 0.59153632377E+01
 0.69186676320E+01 0.79050973582E+01 0.87445879876E+01 0.93102249648E+01 0.95099778288E+01
 0.93102736960E+01 0.87446570245E+01 0.79051543704E+01 0.69187037569E+01 0.64818952228E+01
 0.52935779328E+01 0.43397383683E+01 0.36175644003E+01 0.31013181636E+01 0.27667495723E+01
 0.26012722852E+01 0.26013304594E+01 0.27668643085E+01 0.31013858363E+01 0.36175516865E+01
 0.43396777331E+01 0.52934857069E+01 0.64817616077E+01 0.78565344776E+01 0.93037258057E+01
 0.10651165382E+02 0.11700861074E+02 0.12277404602E+02 0.12277340962E+02 0.11700734834E+02
 0.10651103827E+02 0.93037914912E+01 0.78566773179E+01 0.66859188242E+01 0.52935939244E+01
 0.42272164434E+01 0.34568873143E+01 0.29389180644E+01 0.26395456023E+01 0.25413879634E+01
 0.26396123111E+01 0.29389948661E+01 0.34569251154E+01 0.42271914912E+01 0.52934857069E+01
 0.66857432342E+01 0.83847207730E+01 0.10290576430E+02 0.12212091928E+02 0.13887332324E+02
 0.15038363716E+02 0.15448860078E+02 0.15038323214E+02 0.13887242882E+02 0.12212011727E+02
 0.10290604313E+02 0.83848707671E+01 0.64820003575E+01 0.49985892597E+01 0.39134685465E+01
 0.31682604781E+01 0.27041882719E+01 0.24813038079E+01 0.24812844998E+01 0.27041713081E+01
 0.31683010246E+01 0.39135148911E+01 0.49985008408E+01 0.64817616077E+01 0.83847207730E+01
 0.10647952307E+02 0.13098046162E+02 0.15443278186E+02 0.17302119547E+02 0.18319624468E+02
 0.18319762724E+02 0.17302309592E+02 0.15443194452E+02 0.13097759559E+02 0.10647819665E+02
 0.83848814000E+01 0.59155296464E+01 0.44707610249E+01 0.34604134797E+01 0.28044853023E+01
 0.24370457791E+01 0.23188098238E+01 0.24371529483E+01 0.28045591358E+01 0.34603699640E+01
 0.44706330279E+01 0.59153632377E+01 0.78565344776E+01 0.10290576430E+02 0.13098046162E+02
 0.16008859589E+02 0.18572617777E+02 0.20299463291E+02 0.20903774032E+02 0.20299509109E+02
 0.18572531113E+02 0.16008613192E+02 0.13097847954E+02 0.10290582451E+02 0.78566827477E+01
 0.51041644743E+01 0.38100706930E+01 0.29451672930E+01 0.24207052518E+01 0.21739638673E+01
 0.21741317228E+01 0.24209578248E+01 0.29451466703E+01 0.38098379391E+01 0.51040233854E+01
 0.69186676320E+01 0.93037258057E+01 0.12212091928E+02 0.15443278186E+02 0.18572617777E+02
 0.21002390538E+02 0.22310813354E+02 0.22310682596E+02 0.21002092892E+02 0.18572378168E+02
 0.15443254417E+02 0.12212195362E+02 0.93037649628E+01 0.69186659833E+01 0.41933462262E+01
 0.31200374223E+01 0.24370745530E+01 0.20609743333E+01 0.19411594771E+01 0.20610834076E+01
 0.24371059080E+01 0.31199476951E+01 0.41932776150E+01 0.57592729935E+01 0.79050973582E+01
 0.10651165382E+02 0.13887332324E+02 0.17302119547E+02 0.20299463291E+02 0.22310813354E+02
 0.23013851176E+02 0.22310812471E+02 0.20299365890E+02 0.17301974210E+02 0.13887300798E+02
 0.10651248485E+02 0.79051508036E+01 0.57592819952E+01 0.33109651332E+01 0.24812627842E+01
 0.19845380413E+01 0.17529263255E+01 0.17528941293E+01 0.19844591456E+01 0.24812123939E+01
 0.33110106883E+01 0.45695453269E+01 0.63584758314E+01 0.87445879876E+01 0.11700861074E+02
 0.15038363716E+02 0.18319624468E+02 0.20903774032E+02 0.22310682596E+02 0.22310812471E+02
 0.20903925386E+02 0.18319489948E+02 0.15038083182E+02 0.11700780848E+02 0.87447225702E+01
 0.63585628041E+01 0.45694927811E+01 0.25414041414E+01 0.19412104191E+01 0.16129079961E+01
 0.15087512408E+01 0.16129573179E+01 0.19411867525E+01 0.25413230669E+01 0.34915311040E+01
 0.48881053183E+01 0.68175445774E+01 0.93102249648E+01 0.12277404602E+02 0.15448860078E+02
 0.18319762724E+02 0.20299509109E+02 0.21002092892E+02 0.20299365890E+02 0.18319489948E+02
 0.15448616805E+02 0.12277370122E+02 0.93103340369E+01 0.68175830235E+01 0.48880481717E+01
 0.34915329516E+01 0.19228530484E+01 0.15174704904E+01 0.13289076981E+01 0.13289944198E+01
 0.15175731727E+01 0.19227846263E+01 0.26012377657E+01 0.36324139203E+01 0.51014599628E+01
 0.70666695405E+01 0.95099778288E+01 0.12277340962E+02 0.15038323214E+02 0.17302309592E+02
 0.18572531113E+02 0.18572378168E+02 0.17301974210E+02 0.15038083182E+02 0.12277370122E+02
 0.95101425575E+01 0.70667019132E+01 0.51013395974E+01 0.36323734265E+01 0.26013564191E+01
 0.14588525585E+01 0.12069802539E+01 0.11270139846E+01 0.12069949559E+01 0.14588159931E+01
 0.19186116408E+01 0.26449535914E+01 0.37095828016E+01 0.51764771817E+01 0.70666759993E+01
 0.93102736960E+01 0.11700734834E+02 0.13887242882E+02 0.15443194452E+02 0.16008613192E+02
 0.15443254417E+02 0.13887300798E+02 0.11700780848E+02 0.93103340369E+01 0.70667019132E+01
 0.51763993039E+01 0.37094615942E+01 0.26449201277E+01 0.19186688223E+01 0.11332365786E+01
 0.99570504638E+00 0.99568698099E+00 0.11331821847E+01 0.14279944717E+01 0.19192443603E+01
 0.26609215270E+01 0.37095861281E+01 0.51013999344E+01 0.68175760820E+01 0.87446570245E+01
 0.10651103827E+02 0.12212011727E+02 0.13097759559E+02 0.13097847954E+02 0.12212195362E+02
 0.10651248485E+02 0.87447225702E+01 0.68175830235E+01 0.51013395974E+01 0.37094615942E+01
 0.26608114941E+01 0.19192276669E+01 0.14280507577E+01 0.92275733514E+00 0.86671598992E+00
 0.92277138155E+00 0.10988321844E+01 0.14185423879E+01 0.19192318923E+01 0.26449741213E+01
 0.36324205743E+01 0.48880474465E+01 0.63585426302E+01 0.79051543704E+01 0.93037914912E+01
 0.10290604313E+02 0.10647819665E+02 0.10290582451E+02 0.93037649628E+01 0.79051508036E+01
 0.63585628041E+01 0.48880481717E+01 0.36323734265E+01 0.26449201277E+01 0.19192276669E+01
 0.14185741679E+01 0.10988437904E+01 0.80602403592E+00 0.80604169391E+00 0.89950412201E+00
 0.10988459648E+01 0.14280107674E+01 0.19186072756E+01 0.26013092728E+01 0.34915322584E+01
 0.45695450926E+01 0.57593523481E+01 0.69187037569E+01 0.78566773179E+01 0.83848707671E+01
 0.83848814000E+01 0.78566827477E+01 0.69186659833E+01 0.57592819952E+01 0.45694927811E+01
 0.34915329516E+01 0.26013564191E+01 0.19186688223E+01 0.14280507577E+01 0.10988437904E+01
 0.89947392219E+00 0.80603825161E+00 0.86670875435E+00 0.99570003788E+00 0.12070007073E+01
 0.15175325474E+01 0.19412823131E+01 0.24812737490E+01 0.31199492856E+01 0.38099283281E+01
 0.44706482029E+01 0.49985413326E+01 0.52935807929E+01 0.52935709313E+01 0.49985416721E+01
 0.44707032778E+01 0.38100263923E+01 0.31200262985E+01 0.24812861239E+01 0.19412506982E+01
 0.15175066913E+01 0.12070017428E+01 0.99571229423E+00 0.86671464494E+00 0.80603861012E+00
 0.86670875435E+00 0.93477421793E+00 0.10584670808E+01 0.12504623496E+01 0.15227469225E+01
 0.18810525379E+01 0.23186866417E+01 0.28105104800E+01 0.33090379512E+01 0.37469023368E+01
 0.40497803183E+01 0.41583402314E+01 0.40498158674E+01 0.37470181291E+01 0.33092275113E+01
 0.28106742851E+01 0.23187213337E+01 0.18809610447E+01 0.15226285713E+01 0.12504031067E+01
 0.10584695625E+01 0.93479320753E+00 0.86671750562E+00 0.84511609394E+00 0.99570003788E+00
 0.10584670808E+01 0.11654021552E+01 0.13272666396E+01 0.15514942549E+01 0.18377660305E+01
 0.21739840683E+01 0.25332725661E+01 0.28736816818E+01 0.31434821449E+01 0.32935753107E+01
 0.32935952747E+01 0.31435400188E+01 0.28737651859E+01 0.25333519190E+01 0.21740215693E+01
 0.18377405428E+01 0.15514186365E+01 0.13271805290E+01 0.11653448977E+01 0.10584522585E+01
 0.99571086780E+00 0.96722603676E+00 0.96721791949E+00 0.12070007073E+01 0.12504623496E+01
 0.13272666396E+01 0.14465848374E+01 0.16127175569E+01 0.18220855950E+01 0.20610157375E+01
 0.23048155057E+01 0.25195513387E+01 0.26683095475E+01 0.27216899149E+01 0.26683654880E+01
 0.25196099368E+01 0.23048163326E+01 0.20609427543E+01 0.18219810370E+01 0.16126474994E+01
 0.14465840574E+01 0.13273102598E+01 0.12504938872E+01 0.12069915654E+01 0.11863896653E+01
 0.11805586825E+01 0.11864142904E+01 0.15175325474E+01 0.15227469225E+01 0.15514942549E+01
 0.16127175569E+01 0.17095944473E+01 0.18377652723E+01 0.19845079109E+01 0.21292952985E+01
 0.22467919665E+01 0.23129847421E+01 0.23130120654E+01 0.22468548887E+01 0.21293451921E+01
 0.19844944917E+01 0.18376781067E+01 0.17094860445E+01 0.16126700956E+01 0.15515440262E+01
 0.15228455181E+01 0.15175997432E+01 0.15239050052E+01 0.15305085800E+01 0.15305150279E+01
 0.15238945714E+01 0.19412823131E+01 0.18810525379E+01 0.18377660305E+01 0.18220855950E+01
 0.18377652723E+01 0.18810532183E+01 0.19412842499E+01 0.20028449115E+01 0.20487989810E+01
 0.20658263451E+01 0.20488293783E+01 0.20028734759E+01 0.19412907713E+01 0.18810526093E+01
 0.18377789283E+01 0.18221084471E+01 0.18377781701E+01 0.18810532898E+01 0.19412927081E+01
 0.20028741563E+01 0.20488286202E+01 0.20658263451E+01 0.20487997391E+01 0.20028442310E+01
 0.24812737490E+01 0.23186866417E+01 0.21739840683E+01 0.20610157375E+01 0.19845079109E+01
 0.19412842499E+01 0.19228387901E+01 0.19186039755E+01 0.19192293250E+01 0.19192506458E+01
 0.19186329911E+01 0.19228206110E+01 0.19412264897E+01 0.19844827016E+01 0.20610735062E+01
 0.21740883844E+01 0.23187522153E+01 0.24812564366E+01 0.26395231510E+01 0.27667522161E+01
 0.28379944932E+01 0.28380191278E+01 0.27668174232E+01 0.26395933852E+01 0.31199492856E+01
 0.28105104800E+01 0.25332725661E+01 0.23048155057E+01 0.21292952985E+01 0.20028449115E+01
 0.19186039755E+01 0.18704956708E+01 0.18548617805E+01 0.18705267962E+01 0.19186158048E+01
 0.20027906554E+01 0.21291921316E+01 0.23047454747E+01 0.25333073712E+01 0.28106311352E+01
 0.31200530774E+01 0.34309022890E+01 0.37014230530E+01 0.38871857772E+01 0.39535393611E+01
 0.38872823608E+01 0.37015226602E+01 0.34309053089E+01 0.38099283281E+01 0.33090379512E+01
 0.28736816818E+01 0.25195513387E+01 0.22467919665E+01 0.20487989810E+01 0.19192293250E+01
 0.18548617805E+01 0.18548601002E+01 0.19192039392E+01 0.20487270293E+01 0.22467033616E+01
 0.25195129692E+01 0.28737247205E+01 0.33091224304E+01 0.38099863262E+01 0.43385430217E+01
 0.48346808479E+01 0.52249945811E+01 0.54410354426E+01 0.54410519651E+01 0.52250361647E+01
 0.48347210601E+01 0.43385436044E+01 0.44706482029E+01 0.37469023368E+01 0.31434821449E+01
 0.26683095475E+01 0.23129847421E+01 0.20658263451E+01 0.19192506458E+01 0.18705267962E+01
 0.19192039392E+01 0.20656883004E+01 0.23128146373E+01 0.26682765792E+01 0.31436582466E+01
 0.37471385291E+01 0.44707325822E+01 0.52766471613E+01 0.60894036134E+01 0.68007339255E+01
 0.72915566651E+01 0.74672476487E+01 0.72915794372E+01 0.68008343365E+01 0.60895748025E+01
 0.52767581528E+01 0.49985413326E+01 0.40497803183E+01 0.32935753107E+01 0.27216899149E+01
 0.23130120654E+01 0.20488293783E+01 0.19186329911E+01 0.19186158048E+01 0.20487270293E+01
 0.23128146373E+01 0.27215718366E+01 0.32937107162E+01 0.40500770400E+01 0.49987193520E+01
 0.61140020098E+01 0.73173018215E+01 0.84702846638E+01 0.93926761358E+01 0.99088398381E+01
 0.99088720307E+01 0.93927941155E+01 0.84705067470E+01 0.73175482509E+01 0.61140896270E+01
 0.52935807929E+01 0.41583402314E+01 0.32935952747E+01 0.26683654880E+01 0.22468548887E+01
 0.20028734759E+01 0.19228206110E+01 0.20027906554E+01 0.22467033616E+01 0.26682765792E+01
 0.32937107162E+01 0.41585748457E+01 0.52936779826E+01 0.66995194706E+01 0.83147881644E+01
 0.99912247954E+01 0.11494586414E+02 0.12550481960E+02 0.12932012403E+02 0.12550523251E+02
 0.11494671914E+02 0.99913951386E+01 0.83150281633E+01 0.66996647948E+01 0.52935709313E+01
 0.40498158674E+01 0.31435400188E+01 0.25196099368E+01 0.21293451921E+01 0.19412907713E+01
 0.19412264897E+01 0.21291921316E+01 0.25195129692E+01 0.31436582466E+01 0.40500770400E+01
 0.52936779826E+01 0.69104609725E+01 0.88779608077E+01 0.11070380128E+02 0.13231303978E+02
 0.14998509303E+02 0.16001302579E+02 0.16001319752E+02 0.14998514928E+02 0.13231299677E+02
 0.11070504100E+02 0.88782391366E+01 0.69106502804E+01 0.49985416721E+01 0.37470181291E+01
 0.28737651859E+01 0.23048163326E+01 0.19844944917E+01 0.18810526093E+01 0.19844827016E+01
 0.23047454747E+01 0.28737247205E+01 0.37471385291E+01 0.49987193520E+01 0.66995194706E+01
 0.88779608077E+01 0.11462193378E+02 0.14222538156E+02 0.16756697433E+02 0.18566118159E+02
 0.19225461860E+02 0.18566152166E+02 0.16756676228E+02 0.14222516799E+02 0.11462308355E+02
 0.88781327835E+01 0.66995191956E+01 0.44707032778E+01 0.33092275113E+01 0.25333519190E+01
 0.20609427543E+01 0.18376781067E+01 0.18377789283E+01 0.20610735062E+01 0.25333073712E+01
 0.33091224304E+01 0.44707325822E+01 0.61140020098E+01 0.83147881644E+01 0.11070380128E+02
 0.14222538156E+02 0.17399127656E+02 0.20040447079E+02 0.21552396754E+02 0.21552406235E+02
 0.20040417593E+02 0.17399037232E+02 0.14222508326E+02 0.11070452210E+02 0.83148113484E+01
 0.61139148302E+01 0.38100263923E+01 0.28106742851E+01 0.21740215693E+01 0.18219810370E+01
 0.17094860445E+01 0.18221084471E+01 0.21740883844E+01 0.28106311352E+01 0.38099863262E+01
 0.52766471613E+01 0.73173018215E+01 0.99912247954E+01 0.13231303978E+02 0.16756697433E+02
 0.20040447079E+02 0.22402218884E+02 0.23262310496E+02 0.22402302017E+02 0.20040394692E+02
 0.16756503070E+02 0.13231216517E+02 0.99913301171E+01 0.73174212992E+01 0.52766838946E+01
 0.31200262985E+01 0.23187213337E+01 0.18377405428E+01 0.16126474994E+01 0.16126700956E+01
 0.18377781701E+01 0.23187522153E+01 0.31200530774E+01 0.43385430217E+01 0.60894036134E+01
 0.84702846638E+01 0.11494586414E+02 0.14998509303E+02 0.18566118159E+02 0.21552396754E+02
 0.23262310496E+02 0.23262507265E+02 0.21552666286E+02 0.18566021496E+02 0.14998181037E+02
 0.11494483846E+02 0.84704976521E+01 0.60896329413E+01 0.43386047043E+01 0.24812861239E+01
 0.18809610447E+01 0.15514186365E+01 0.14465840574E+01 0.15515440262E+01 0.18810532898E+01
 0.24812564366E+01 0.34309022890E+01 0.48346808479E+01 0.68007339255E+01 0.93926761358E+01
 0.12550481960E+02 0.16001302579E+02 0.19225461860E+02 0.21552406235E+02 0.22402302017E+02
 0.21552666286E+02 0.19225558424E+02 0.16001053618E+02 0.12550193321E+02 0.93926532739E+01
 0.68009186552E+01 0.48348742368E+01 0.34310265332E+01 0.19412506982E+01 0.15226285713E+01
 0.13271805290E+01 0.13273102598E+01 0.15228455181E+01 0.19412927081E+01 0.26395231510E+01
 0.37014230530E+01 0.52249945811E+01 0.72915566651E+01 0.99088398381E+01 0.12932012403E+02
 0.16001319752E+02 0.18566152166E+02 0.20040417593E+02 0.20040394692E+02 0.18566021496E+02
 0.16001053618E+02 0.12931769053E+02 0.99087831716E+01 0.72916605628E+01 0.52251586865E+01
 0.37016141857E+01 0.26396709630E+01 0.15175066913E+01 0.12504031067E+01 0.11653448977E+01
 0.12504938872E+01 0.15175997432E+01 0.20028741563E+01 0.27667522161E+01 0.38871857772E+01
 0.54410354426E+01 0.74672476487E+01 0.99088720307E+01 0.12550523251E+02 0.14998514928E+02
 0.16756676228E+02 0.17399037232E+02 0.16756503070E+02 0.14998181037E+02 0.12550193321E+02
 0.99087831716E+01 0.74674356871E+01 0.54412976928E+01 0.38873413328E+01 0.27667893358E+01
 0.20028369526E+01 0.12070017428E+01 0.10584695625E+01 0.10584522585E+01 0.12069915654E+01
 0.15239050052E+01 0.20488286202E+01 0.28379944932E+01 0.39535393611E+01 0.54410519651E+01
 0.72915794372E+01 0.93927941155E+01 0.11494671914E+02 0.13231299677E+02 0.14222516799E+02
 0.14222508326E+02 0.13231216517E+02 0.11494483846E+02 0.93926532739E+01 0.72916605628E+01
 0.54412976928E+01 0.39537162385E+01 0.28379797007E+01 0.20487173146E+01 0.15238411007E+01
 0.99571229423E+00 0.93479320753E+00 0.99571086780E+00 0.11863896653E+01 0.15305085800E+01
 0.20658263451E+01 0.28380191278E+01 0.38872823608E+01 0.52250361647E+01 0.68008343365E+01
 0.84705067470E+01 0.99913951386E+01 0.11070504100E+02 0.11462308355E+02 0.11070452210E+02
 0.99913301171E+01 0.84704976521E+01 0.68009186552E+01 0.52251586865E+01 0.38873413328E+01
 0.28379797007E+01 0.20657474639E+01 0.15304575556E+01 0.11863767085E+01 0.86671464494E+00
 0.86671750562E+00 0.96722603676E+00 0.11805586825E+01 0.15305150279E+01 0.20487997391E+01
 0.27668174232E+01 0.37015226602E+01 0.48347210601E+01 0.60895748025E+01 0.73175482509E+01
 0.83150281633E+01 0.88782391366E+01 0.88781327835E+01 0.83148113484E+01 0.73174212992E+01
 0.60896329413E+01 0.48348742368E+01 0.37016141857E+01 0.27667893358E+01 0.20487173146E+01
 0.15304575556E+01 0.11805392251E+01 0.96721983130E+00 0.80603861012E+00 0.84511609394E+00
 0.96721791949E+00 0.11864142904E+01 0.15238945714E+01 0.20028442310E+01 0.26395933852E+01
 0.34309053089E+01 0.43385436044E+01 0.52767581528E+01 0.61140896270E+01 0.66996647948E+01
 0.69106502804E+01 0.66995191956E+01 0.61139148302E+01 0.52766838946E+01 0.43386047043E+01
 0.34310265332E+01 0.26396709630E+01 0.20028369526E+01 0.15238411007E+01 0.11863767085E+01
 0.96721983130E+00 0.84513327119E+00 0.92275916780E+00 0.99569973390E+00 0.11270570747E+01
 0.13289436141E+01 0.16129032005E+01 0.19845060323E+01 0.24370556907E+01 0.29451772070E+01
 0.34604287483E+01 0.39134612745E+01 0.42271865220E+01 0.43397029968E+01 0.42271528197E+01
 0.39133976448E+01 0.34603648143E+01 0.29451651264E+01 0.24371219038E+01 0.19846109993E+01
 0.16129716198E+01 0.13289410133E+01 0.11270189426E+01 0.99567724462E+00 0.92275933226E+00
 0.89949694935E+00 0.99569973390E+00 0.10584662620E+01 0.11653996543E+01 0.13272640387E+01
 0.15514926040E+01 0.18377648058E+01 0.21739839197E+01 0.25332753534E+01 0.28736851392E+01
 0.31434773345E+01 0.32935534225E+01 0.32935574627E+01 0.31434998572E+01 0.28737421426E+01
 0.25333609302E+01 0.21740634326E+01 0.18377986891E+01 0.15514678352E+01 0.13272034046E+01
 0.11653417412E+01 0.10584357979E+01 0.99569415435E+00 0.96721566069E+00 0.96721425026E+00
 0.11270570747E+01 0.11653996543E+01 0.12359469813E+01 0.13484295802E+01 0.15074766527E+01
 0.17095942015E+01 0.19411665737E+01 0.21778188964E+01 0.23863273566E+01 0.25307412772E+01
 0.25825251767E+01 0.25307359244E+01 0.23863483176E+01 0.21778855743E+01 0.19412503396E+01
 0.17096352365E+01 0.15074379981E+01 0.13483303495E+01 0.12358416875E+01 0.11653308118E+01
 0.11270301547E+01 0.11098473504E+01 0.11051923335E+01 0.11098517901E+01 0.13289436141E+01
 0.13272640387E+01 0.13484295802E+01 0.14020300863E+01 0.14915567065E+01 0.16127157824E+01
 0.17528662658E+01 0.18918195043E+01 0.20048484826E+01 0.20685922113E+01 0.20686012749E+01
 0.20048634383E+01 0.18918186276E+01 0.17528420833E+01 0.16126768065E+01 0.14915117359E+01
 0.14019818188E+01 0.13483828906E+01 0.13272298508E+01 0.13289293563E+01 0.13406498978E+01
 0.13502238937E+01 0.13502215026E+01 0.13406494071E+01 0.16129032005E+01 0.15514926040E+01
 0.15074766527E+01 0.14915567065E+01 0.15074754189E+01 0.15514917099E+01 0.16129045941E+01
 0.16758741220E+01 0.17230062575E+01 0.17404902945E+01 0.17230252218E+01 0.16758972685E+01
 0.16129062257E+01 0.15514500281E+01 0.15073947746E+01 0.14914752501E+01 0.15074418259E+01
 0.15515217818E+01 0.16129705012E+01 0.16759314357E+01 0.17230285656E+01 0.17404783915E+01
 0.17229945078E+01 0.16758681536E+01 0.19845060323E+01 0.18377648058E+01 0.17095942015E+01
 0.16127157824E+01 0.15514917099E+01 0.15227460500E+01 0.15175339734E+01 0.15238970065E+01
 0.15305162303E+01 0.15305029432E+01 0.15238840111E+01 0.15175615790E+01 0.15228037819E+01
 0.15515213352E+01 0.16126813619E+01 0.17095287342E+01 0.18377353590E+01 0.19845440425E+01
 0.21293696424E+01 0.22468513799E+01 0.23129933497E+01 0.23129672022E+01 0.22467824845E+01
 0.21292912770E+01 0.24370556907E+01 0.21739839197E+01 0.19411665737E+01 0.17528662658E+01
 0.16129045941E+01 0.15175339734E+01 0.14588135449E+01 0.14280093053E+01 0.14185415327E+01
 0.14279949715E+01 0.14588155337E+01 0.15175713583E+01 0.16129568150E+01 0.17528955914E+01
 0.19411603322E+01 0.21739633675E+01 0.24370462385E+01 0.27041900863E+01 0.29389185674E+01
 0.31013167015E+01 0.31595335470E+01 0.31013129486E+01 0.29389102871E+01 0.27041847676E+01
 0.29451772070E+01 0.25332753534E+01 0.21778188964E+01 0.18918195043E+01 0.16758741220E+01
 0.15238970065E+01 0.14280093053E+01 0.13817874969E+01 0.13817997716E+01 0.14280419993E+01
 0.15239326811E+01 0.16758812616E+01 0.18917769701E+01 0.21777500832E+01 0.25332406261E+01
 0.29452105291E+01 0.33831214532E+01 0.37975358847E+01 0.41261606021E+01 0.43091303322E+01
 0.43091526337E+01 0.41261893757E+01 0.37975139708E+01 0.33830594123E+01 0.34604287483E+01
 0.28736851392E+01 0.23863273566E+01 0.20048484826E+01 0.17230062575E+01 0.15305162303E+01
 0.14185415327E+01 0.13817997716E+01 0.14185920633E+01 0.15305668201E+01 0.17230098990E+01
 0.20047923660E+01 0.23862271963E+01 0.28735878691E+01 0.34604029657E+01 0.41172817937E+01
 0.47842940200E+01 0.53725446735E+01 0.57811158055E+01 0.59279215254E+01 0.57811017790E+01
 0.53724759051E+01 0.47841818026E+01 0.41172088500E+01 0.39134612745E+01 0.31434773345E+01
 0.25307412772E+01 0.20685922113E+01 0.17404902945E+01 0.15305029432E+01 0.14279949715E+01
 0.14280419993E+01 0.15305668201E+01 0.17404645011E+01 0.20685022221E+01 0.25306834689E+01
 0.31434729590E+01 0.39134709962E+01 0.48220183371E+01 0.58084297695E+01 0.67609687943E+01
 0.75285960065E+01 0.79603503183E+01 0.79603498805E+01 0.75285748174E+01 0.67609151244E+01
 0.58083796084E+01 0.48219974592E+01 0.42271865220E+01 0.32935534225E+01 0.25825251767E+01
 0.20686012749E+01 0.17230252218E+01 0.15238840111E+01 0.14588155337E+01 0.15239326811E+01
 0.17230098990E+01 0.20685022221E+01 0.25824518138E+01 0.32935669909E+01 0.42272429294E+01
 0.53867811736E+01 0.67270599568E+01 0.81294373710E+01 0.93973771390E+01 0.10293670027E+02
 0.10618711556E+02 0.10293818032E+02 0.93974981100E+01 0.81294313408E+01 0.67269892668E+01
 0.53867145783E+01 0.43397029968E+01 0.32935574627E+01 0.25307359244E+01 0.20048634383E+01
 0.16758972685E+01 0.15175615790E+01 0.15175713583E+01 0.16758812616E+01 0.20047923660E+01
 0.25306834689E+01 0.32935669909E+01 0.43397098715E+01 0.57030005546E+01 0.73721991003E+01
 0.92485109163E+01 0.11114849813E+02 0.12652806508E+02 0.13529852273E+02 0.13529976295E+02
 0.12653010274E+02 0.11114893345E+02 0.92484233906E+01 0.73721524487E+01 0.57030150394E+01
 0.42271528197E+01 0.31434998572E+01 0.23863483176E+01 0.18918186276E+01 0.16129062257E+01
 0.15228037819E+01 0.16129568150E+01 0.18917769701E+01 0.23862271963E+01 0.31434729590E+01
 0.42272429294E+01 0.57030005546E+01 0.76051625027E+01 0.98831655606E+01 0.12341622069E+02
 0.14618878298E+02 0.16255111185E+02 0.16853239721E+02 0.16255136639E+02 0.14618851882E+02
 0.12341576033E+02 0.98831975838E+01 0.76052216348E+01 0.57029585720E+01 0.39133976448E+01
 0.28737421426E+01 0.21778855743E+01 0.17528420833E+01 0.15514500281E+01 0.15515213352E+01
 0.17528955914E+01 0.21777500832E+01 0.28735878691E+01 0.39134709962E+01 0.53867811736E+01
 0.73721991003E+01 0.98831655606E+01 0.12788548503E+02 0.15747003135E+02 0.18226195877E+02
 0.19653987253E+02 0.19653947615E+02 0.18226095743E+02 0.15746929543E+02 0.12788593391E+02
 0.98832449784E+01 0.73721197484E+01 0.53865704551E+01 0.34603648143E+01 0.25333609302E+01
 0.19412503396E+01 0.16126768065E+01 0.15073947746E+01 0.16126813619E+01 0.19411603322E+01
 0.25332406261E+01 0.34604029657E+01 0.48220183371E+01 0.67270599568E+01 0.92485109163E+01
 0.12341622069E+02 0.15747003135E+02 0.18948862449E+02 0.21271955064E+02 0.22125211860E+02
 0.21271984705E+02 0.18948839317E+02 0.15746955206E+02 0.12341639961E+02 0.92485279603E+01
 0.67269382119E+01 0.48218320030E+01 0.29451651264E+01 0.21740634326E+01 0.17096352365E+01
 0.14915117359E+01 0.14914752501E+01 0.17095287342E+01 0.21739633675E+01 0.29452105291E+01
 0.41172817937E+01 0.58084297695E+01 0.81294373710E+01 0.11114849813E+02 0.14618878298E+02
 0.18226195877E+02 0.21271955064E+02 0.23033696961E+02 0.23033764393E+02 0.21272049846E+02
 0.18226201674E+02 0.14618884085E+02 0.11114949899E+02 0.81295061366E+01 0.58083221310E+01
 0.41171026830E+01 0.24371219038E+01 0.18377986891E+01 0.15074379981E+01 0.14019818188E+01
 0.15074418259E+01 0.18377353590E+01 0.24370462385E+01 0.33831214532E+01 0.47842940200E+01
 0.67609687943E+01 0.93973771390E+01 0.12652806508E+02 0.16255111185E+02 0.19653987253E+02
 0.22125211860E+02 0.23033764393E+02 0.22125307453E+02 0.19654113491E+02 0.16255259311E+02
 0.12652985718E+02 0.93974862790E+01 0.67608977200E+01 0.47841318327E+01 0.33830658488E+01
 0.19846109993E+01 0.15514678352E+01 0.13483303495E+01 0.13483828906E+01 0.15515217818E+01
 0.19845440425E+01 0.27041900863E+01 0.37975358847E+01 0.53725446735E+01 0.75285960065E+01
 0.10293670027E+02 0.13529852273E+02 0.16853239721E+02 0.19653947615E+02 0.21271984705E+02
 0.21272049846E+02 0.19654113491E+02 0.16853450825E+02 0.13530047695E+02 0.10293758819E+02
 0.75285191239E+01 0.53723971536E+01 0.37974989446E+01 0.27042884053E+01 0.16129716198E+01
 0.13272034046E+01 0.12358416875E+01 0.13272298508E+01 0.16129705012E+01 0.21293696424E+01
 0.29389185674E+01 0.41261606021E+01 0.57811158055E+01 0.79603503183E+01 0.10618711556E+02
 0.13529976295E+02 0.16255136639E+02 0.18226095743E+02 0.18948839317E+02 0.18226201674E+02
 0.16255259311E+02 0.13530047695E+02 0.10618733148E+02 0.79603411376E+01 0.57810879732E+01
 0.41261459230E+01 0.29389454841E+01 0.21294093242E+01 0.13289410133E+01 0.11653417412E+01
 0.11653308118E+01 0.13289293563E+01 0.16759314357E+01 0.22468513799E+01 0.31013167015E+01
 0.43091303322E+01 0.59279215254E+01 0.79603498805E+01 0.10293818032E+02 0.12653010274E+02
 0.14618851882E+02 0.15746929543E+02 0.15746955206E+02 0.14618884085E+02 0.12652985718E+02
 0.10293758819E+02 0.79603411376E+01 0.59279951661E+01 0.43092231840E+01 0.31013553018E+01