 vasp.5.4.4.18Apr17-6-g9f103f2a35 (build Dec 09 2018 21:25:21) complex          
  
 executed on IFC18.0.1.163_CrayMP date 2019.03.20  09:42:10
 running on    8 total cores
 distrk:  each k-point on    8 cores,    1 groups
 distr:  one band on NCORES_PER_BAND=   1 cores,    8 groups


--------------------------------------------------------------------------------------------------------


 INCAR:
 POTCAR:   PAW_PBE Si 05Jan2001                   

 ----------------------------------------------------------------------------- 
|                                                                             |
|           W    W    AA    RRRRR   N    N  II  N    N   GGGG   !!!           |
|           W    W   A  A   R    R  NN   N  II  NN   N  G    G  !!!           |
|           W    W  A    A  R    R  N N  N  II  N N  N  G       !!!           |
|           W WW W  AAAAAA  RRRRR   N  N N  II  N  N N  G  GGG   !            |
|           WW  WW  A    A  R   R   N   NN  II  N   NN  G    G                |
|           W    W  A    A  R    R  N    N  II  N    N   GGGG   !!!           |
|                                                                             |
|      For optimal performance we recommend to set                            |
|        NCORE= 4 - approx SQRT( number of cores)                             |
|      NCORE specifies how many cores store one orbital (NPAR=cpu/NCORE).     |
|      This setting can  greatly improve the performance of VASP for DFT.     |
|      The default,   NCORE=1            might be grossly inefficient         |
|      on modern multi-core architectures or massively parallel machines.     |
|      Do your own testing !!!!                                               |
|      Unfortunately you need to use the default for GW and RPA calculations. |
|      (for HF NCORE is supported but not extensively tested yet)             |
|                                                                             |
 ----------------------------------------------------------------------------- 

 POTCAR:   PAW_PBE Si 05Jan2001                   
   VRHFIN =Si: s2p2                                                             
   LEXCH  = PE                                                                  
   EATOM  =   103.0669 eV,    7.5752 Ry                                         
                                                                                
   TITEL  = PAW_PBE Si 05Jan2001                                                
   LULTRA =        F    use ultrasoft PP ?                                      
   IUNSCR =        1    unscreen: 0-lin 1-nonlin 2-no                           
   RPACOR =    1.500    partial core radius                                     
   POMASS =   28.085; ZVAL   =    4.000    mass and valenz                      
   RCORE  =    1.900    outmost cutoff radius                                   
   RWIGS  =    2.480; RWIGS  =    1.312    wigner-seitz radius (au A)           
   ENMAX  =  245.345; ENMIN  =  184.009 eV                                      
   ICORE  =        2    local potential                                         
   LCOR   =        T    correct aug charges                                     
   LPAW   =        T    paw PP                                                  
   EAUG   =  322.069                                                            
   DEXC   =    -.007                                                            
   RMAX   =    2.944    core radius for proj-oper                               
   RAUG   =    1.300    factor for augmentation sphere                          
   RDEP   =    1.993    radius for radial grids                                 
   QCUT   =   -4.246; QGAM   =    8.493    optimization parameters              
                                                                                
   Description                                                                  
     l     E      TYP  RCUT    TYP  RCUT                                        
     0   .000     23  1.900                                                     
     0   .000     23  1.900                                                     
     1   .000     23  1.900                                                     
     1   .000     23  1.900                                                     
     2   .000      7  1.900                                                     
  local pseudopotential read in
  partial core-charges read in
  atomic valenz-charges read in
  non local Contribution for L=           0  read in
    real space projection operators read in
  non local Contribution for L=           0  read in
    real space projection operators read in
  non local Contribution for L=           1  read in
    real space projection operators read in
  non local Contribution for L=           1  read in
    real space projection operators read in
    PAW grid and wavefunctions read in
 
   number of l-projection  operators is LMAX  =           4
   number of lm-projection operators is LMMAX =           8
 
 PAW_PBE Si 05Jan2001                   :
 energy of atom  1       EATOM= -103.0669
 kinetic energy error for atom=    0.0210 (will be added to EATOM!!)
 
 
 POSCAR: Si2                                     
  positions in direct lattice
  No initial velocities read in
 exchange correlation table for  LEXCH =        8
   RHO(1)=    0.500       N(1)  =     2000
   RHO(2)=  100.500       N(2)  =     4000
 


--------------------------------------------------------------------------------------------------------


 ion  position               nearest neighbor table
   1  0.500  0.500  0.500-   2 2.35   2 2.35   2 2.35   2 2.35
   2  0.750  0.750  0.750-   1 2.35   1 2.35   1 2.35   1 2.35
 
  LATTYP: Found a face centered cubic cell.
 ALAT       =     5.4300000000
  
  Lattice vectors:
  
 A1 = (   0.0000000000,   2.7150000000,   2.7150000000)
 A2 = (   2.7150000000,   0.0000000000,   2.7150000000)
 A3 = (   2.7150000000,   2.7150000000,   0.0000000000)


Analysis of symmetry for initial positions (statically):
=====================================================================
 Subroutine PRICEL returns:
 Original cell was already a primitive cell.
 

 Routine SETGRP: Setting up the symmetry group for a 
 face centered cubic supercell.


 Subroutine GETGRP returns: Found 48 space group operations
 (whereof 24 operations were pure point group operations)
 out of a pool of 48 trial point group operations.


The static configuration has the point symmetry T_d .
 The point group associated with its full space group is O_h .


Analysis of symmetry for dynamics (positions and initial velocities):
=====================================================================
 Subroutine PRICEL returns:
 Original cell was already a primitive cell.
 

 Routine SETGRP: Setting up the symmetry group for a 
 face centered cubic supercell.


 Subroutine GETGRP returns: Found 48 space group operations
 (whereof 24 operations were pure point group operations)
 out of a pool of 48 trial point group operations.


The dynamic configuration has the point symmetry T_d .
 The point group associated with its full space group is O_h .


 Subroutine INISYM returns: Found 48 space group operations
 (whereof 24 operations are pure point group operations),
 and found     1 'primitive' translations

 
 
 KPOINTS: Automatic kpoint scheme                 

Automatic generation of k-mesh.
Space group operators:
 irot       det(A)        alpha          n_x          n_y          n_z        tau_x        tau_y        tau_z
    1     1.000000     0.000001     1.000000     0.000000     0.000000     0.000000     0.000000     0.000000
    2     1.000000   120.000000    -0.577350    -0.577350    -0.577350     0.000000     0.000000     0.000000
    3     1.000000   120.000000     0.577350     0.577350     0.577350     0.000000     0.000000     0.000000
    4    -1.000000    90.000000    -0.000000    -0.000000    -1.000000     0.000000     0.000000     0.000000
    5    -1.000000   180.000000    -0.000000     0.707107     0.707107     0.000000     0.000000     0.000000
    6    -1.000000    90.000000    -0.000000     1.000000    -0.000000     0.000000     0.000000     0.000000
    7     1.000000   180.000000     0.000000     0.000000    -1.000000     0.000000     0.000000     0.000000
    8     1.000000   120.000000    -0.577350     0.577350     0.577350     0.000000     0.000000     0.000000
    9     1.000000   120.000000    -0.577350     0.577350    -0.577350     0.000000     0.000000     0.000000
   10    -1.000000    90.000000     0.000000     0.000000     1.000000     0.000000     0.000000     0.000000
   11    -1.000000    90.000000    -1.000000     0.000000    -0.000000     0.000000     0.000000     0.000000
   12    -1.000000   180.000000     0.707107     0.000000     0.707107     0.000000     0.000000     0.000000
   13     1.000000   120.000000     0.577350    -0.577350     0.577350     0.000000     0.000000     0.000000
   14     1.000000   120.000000    -0.577350    -0.577350     0.577350     0.000000     0.000000     0.000000
   15     1.000000   180.000000     1.000000     0.000000     0.000000     0.000000     0.000000     0.000000
   16    -1.000000    90.000000     0.000000    -1.000000     0.000000     0.000000     0.000000     0.000000
   17    -1.000000   180.000000     0.707107     0.707107    -0.000000     0.000000     0.000000     0.000000
   18    -1.000000    90.000000     1.000000     0.000000     0.000000     0.000000     0.000000     0.000000
   19     1.000000   120.000000     0.577350    -0.577350    -0.577350     0.000000     0.000000     0.000000
   20     1.000000   180.000000     0.000000    -1.000000     0.000000     0.000000     0.000000     0.000000
   21     1.000000   120.000000     0.577350     0.577350    -0.577350     0.000000     0.000000     0.000000
   22    -1.000000   180.000000    -0.000000    -0.707107     0.707107     0.000000     0.000000     0.000000
   23    -1.000000   180.000000     0.707107    -0.707107    -0.000000     0.000000     0.000000     0.000000
   24    -1.000000   180.000000    -0.707107     0.000000     0.707107     0.000000     0.000000     0.000000
   25    -1.000000     0.000001     1.000000     0.000000     0.000000     0.250000     0.250000     0.250000
   26    -1.000000   120.000000    -0.577350    -0.577350    -0.577350     0.250000     0.250000     0.250000
   27    -1.000000   120.000000     0.577350     0.577350     0.577350     0.250000     0.250000     0.250000
   28     1.000000    90.000000    -0.000000    -0.000000    -1.000000     0.250000     0.250000     0.250000
   29     1.000000   180.000000    -0.000000     0.707107     0.707107     0.250000     0.250000     0.250000
   30     1.000000    90.000000    -0.000000     1.000000    -0.000000     0.250000     0.250000     0.250000
   31    -1.000000   180.000000     0.000000     0.000000    -1.000000     0.250000     0.250000     0.250000
   32    -1.000000   120.000000    -0.577350     0.577350     0.577350     0.250000     0.250000     0.250000
   33    -1.000000   120.000000    -0.577350     0.577350    -0.577350     0.250000     0.250000     0.250000
   34     1.000000    90.000000     0.000000     0.000000     1.000000     0.250000     0.250000     0.250000
   35     1.000000    90.000000    -1.000000     0.000000    -0.000000     0.250000     0.250000     0.250000
   36     1.000000   180.000000     0.707107     0.000000     0.707107     0.250000     0.250000     0.250000
   37    -1.000000   120.000000     0.577350    -0.577350     0.577350     0.250000     0.250000     0.250000
   38    -1.000000   120.000000    -0.577350    -0.577350     0.577350     0.250000     0.250000     0.250000
   39    -1.000000   180.000000     1.000000     0.000000     0.000000     0.250000     0.250000     0.250000
   40     1.000000    90.000000     0.000000    -1.000000     0.000000     0.250000     0.250000     0.250000
   41     1.000000   180.000000     0.707107     0.707107    -0.000000     0.250000     0.250000     0.250000
   42     1.000000    90.000000     1.000000     0.000000     0.000000     0.250000     0.250000     0.250000
   43    -1.000000   120.000000     0.577350    -0.577350    -0.577350     0.250000     0.250000     0.250000
   44    -1.000000   180.000000     0.000000    -1.000000     0.000000     0.250000     0.250000     0.250000
   45    -1.000000   120.000000     0.577350     0.577350    -0.577350     0.250000     0.250000     0.250000
   46     1.000000   180.000000    -0.000000    -0.707107     0.707107     0.250000     0.250000     0.250000
   47     1.000000   180.000000     0.707107    -0.707107    -0.000000     0.250000     0.250000     0.250000
   48     1.000000   180.000000    -0.707107     0.000000     0.707107     0.250000     0.250000     0.250000
 
 Subroutine IBZKPT returns following result:
 ===========================================
 
 Found      2 irreducible k-points:
 
 Following reciprocal coordinates:
            Coordinates               Weight
  0.250000  0.250000  0.250000     96.000000
 -0.250000  0.250000  0.250000    288.000000
 
 Following cartesian coordinates:
            Coordinates               Weight
  0.046041  0.046041  0.046041     96.000000
  0.138122 -0.046041 -0.046041    288.000000
 


--------------------------------------------------------------------------------------------------------




 Dimension of arrays:
   k-points           NKPTS =      2   k-points in BZ     NKDIM =      2   number of bands    NBANDS=      8
   number of dos      NEDOS =    301   number of ions     NIONS =      2
   non local maximal  LDIM  =      4   non local SUM 2l+1 LMDIM =      8
   total plane-waves  NPLWV =   1728
   max r-space proj   IRMAX =      1   max aug-charges    IRDMAX=   1643
   dimension x,y,z NGX =    12 NGY =   12 NGZ =   12
   dimension x,y,z NGXF=    24 NGYF=   24 NGZF=   24
   support grid    NGXF=    24 NGYF=   24 NGZF=   24
   ions per type =               2
   NGX,Y,Z   is equivalent  to a cutoff of   5.20,  5.20,  5.20 a.u.
   NGXF,Y,Z  is equivalent  to a cutoff of  10.39, 10.39, 10.39 a.u.

 SYSTEM =  unknown system                          
 POSCAR =  Si2                                     

 Startparameter for this run:
   NWRITE =      2    write-flag & timer
   PREC   = normal    normal or accurate (medium, high low for compatibility)
   ISTART =      0    job   : 0-new  1-cont  2-samecut
   ICHARG =      2    charge: 1-file 2-atom 10-const
   ISPIN  =      1    spin polarized calculation?
   LNONCOLLINEAR =      F non collinear calculations
   LSORBIT =      F    spin-orbit coupling
   INIWAV =      1    electr: 0-lowe 1-rand  2-diag
   LASPH  =      F    aspherical Exc in radial PAW
   METAGGA=      F    non-selfconsistent MetaGGA calc.

 Electronic Relaxation 1
   ENCUT  =  150.0 eV  11.02 Ry    3.32 a.u.   3.83  3.83  3.83*2*pi/ulx,y,z
   ENINI  =  150.0     initial cutoff
   ENAUG  =  322.1 eV  augmentation charge cutoff
   NELM   =     60;   NELMIN=  2; NELMDL= -5     # of ELM steps 
   EDIFF  = 0.4E-03   stopping-criterion for ELM
   LREAL  =      F    real-space projection
   NLSPLINE    = F    spline interpolate recip. space projectors
   LCOMPAT=      F    compatible to vasp.4.4
   GGA_COMPAT  = T    GGA compatible to vasp.4.4-vasp.4.6
   LMAXPAW     = -100 max onsite density
   LMAXMIX     =    2 max onsite mixed and CHGCAR
   VOSKOWN=      0    Vosko Wilk Nusair interpolation
   ROPT   =    0.00000
 Ionic relaxation
   EDIFFG = -.1E-01   stopping-criterion for IOM
   NSW    =     15    number of steps for IOM
   NBLOCK =      1;   KBLOCK =     15    inner block; outer block 
   IBRION =      2    ionic relax: 0-MD 1-quasi-New 2-CG
   NFREE  =      1    steps in history (QN), initial steepest desc. (CG)
   ISIF   =      3    stress and relaxation
   IWAVPR =     11    prediction:  0-non 1-charg 2-wave 3-comb
   ISYM   =      2    0-nonsym 1-usesym 2-fastsym
   LCORR  =      T    Harris-Foulkes like correction to forces

   POTIM  = 0.5000    time-step for ionic-motion
   TEIN   =    0.0    initial temperature
   TEBEG  =    0.0;   TEEND  =   0.0 temperature during run
   SMASS  =  -3.00    Nose mass-parameter (am)
   estimated Nose-frequenzy (Omega)   =  0.10E-29 period in steps =****** mass=  -0.337E-27a.u.
   SCALEE = 1.0000    scale energy and forces
   NPACO  =    256;   APACO  = 16.0  distance and # of slots for P.C.
   PSTRESS=    0.0 pullay stress

  Mass of Ions in am
   POMASS =  28.09
  Ionic Valenz
   ZVAL   =   4.00
  Atomic Wigner-Seitz radii
   RWIGS  =  -1.00
  virtual crystal weights 
   VCA    =   1.00
   NELECT =       8.0000    total number of electrons
   NUPDOWN=      -1.0000    fix difference up-down

 DOS related values:
   EMIN   =  10.00;   EMAX   =-10.00  energy-range for DOS
   EFERMI =   0.00
   ISMEAR =     0;   SIGMA  =   0.20  broadening in eV -4-tet -1-fermi 0-gaus

 Electronic relaxation 2 (details)
   IALGO  =     38    algorithm
   LDIAG  =      T    sub-space diagonalisation (order eigenvalues)
   LSUBROT=      F    optimize rotation matrix (better conditioning)
   TURBO    =      0    0=normal 1=particle mesh
   IRESTART =      0    0=no restart 2=restart with 2 vectors
   NREBOOT  =      0    no. of reboots
   NMIN     =      0    reboot dimension
   EREF     =   0.00    reference energy to select bands
   IMIX   =      4    mixing-type and parameters
     AMIX     =   0.40;   BMIX     =  1.00
     AMIX_MAG =   1.60;   BMIX_MAG =  1.00
     AMIN     =   0.10
     WC   =   100.;   INIMIX=   1;  MIXPRE=   1;  MAXMIX= -45

 Intra band minimization:
   WEIMIN = 0.0010     energy-eigenvalue tresh-hold
   EBREAK =  0.13E-04  absolut break condition
   DEPER  =   0.30     relativ break condition  

   TIME   =   0.40     timestep for ELM

  volume/ion in A,a.u.               =      20.01       135.05
  Fermi-wavevector in a.u.,A,eV,Ry     =   0.957176  1.808800 12.465458  0.916185
  Thomas-Fermi vector in A             =   2.086170
 
 Write flags
   LWAVE        =      T    write WAVECAR
   LDOWNSAMPLE  =      F    k-point downsampling of WAVECAR
   LCHARG       =      T    write CHGCAR
   LVTOT        =      F    write LOCPOT, total local potential
   LVHAR        =      F    write LOCPOT, Hartree potential only
   LELF         =      F    write electronic localiz. function (ELF)
   LORBIT       =      0    0 simple, 1 ext, 2 COOP (PROOUT), +10 PAW based schemes


 Dipole corrections
   LMONO  =      F    monopole corrections only (constant potential shift)
   LDIPOL =      F    correct potential (dipole corrections)
   IDIPOL =      0    1-x, 2-y, 3-z, 4-all directions 
   EPSILON=  1.0000000 bulk dielectric constant

 Exchange correlation treatment:
   GGA     =    --    GGA type
   LEXCH   =     8    internal setting for exchange type
   VOSKOWN=      0    Vosko Wilk Nusair interpolation
   LHFCALC =     F    Hartree Fock is set to
   LHFONE  =     F    Hartree Fock one center treatment
   AEXX    =    0.0000 exact exchange contribution

 Linear response parameters
   LEPSILON=     F    determine dielectric tensor
   LRPA    =     F    only Hartree local field effects (RPA)
   LNABLA  =     F    use nabla operator in PAW spheres
   LVEL    =     F    velocity operator in full k-point grid
   LINTERFAST=   F  fast interpolation
   KINTER  =     0    interpolate to denser k-point grid
   CSHIFT  =0.1000    complex shift for real part using Kramers Kronig
   OMEGAMAX=  -1.0    maximum frequency
   DEG_THRESHOLD= 0.2000000E-02 threshold for treating states as degnerate
   RTIME   =   -0.100 relaxation time in fs
  (WPLASMAI=    0.000 imaginary part of plasma frequency in eV, 0.658/RTIME)
   DFIELD  = 0.0000000 0.0000000 0.0000000 field for delta impulse in time
 
 Orbital magnetization related:
   ORBITALMAG=     F  switch on orbital magnetization
   LCHIMAG   =     F  perturbation theory with respect to B field
   DQ        =  0.001000  dq finite difference perturbation B field
   LLRAUG    =     F  two centre corrections for induced B field



--------------------------------------------------------------------------------------------------------


 conjugate gradient relaxation of ions
 charge density and potential will be updated during run
 non-spin polarized calculation
 Variant of blocked Davidson
 Davidson routine will perform the subspace rotation
 perform sub-space diagonalisation
    after iterative eigenvector-optimisation
 modified Broyden-mixing scheme, WC =      100.0
 initial mixing is a Kerker type mixing with AMIX =  0.4000 and BMIX =      1.0000
 Hartree-type preconditioning will be used
 using additional bands            4
 reciprocal scheme for non local part
 use partial core corrections
 calculate Harris-corrections to forces 
   (improved forces if not selfconsistent)
 use gradient corrections 
 use of overlap-Matrix (Vanderbilt PP)
 Gauss-broadening in eV      SIGMA  =   0.20


--------------------------------------------------------------------------------------------------------


  energy-cutoff  :      150.00
  volume of cell :       40.03
      direct lattice vectors                 reciprocal lattice vectors
     0.000000000  2.715000000  2.715000000    -0.184162063  0.184162063  0.184162063
     2.715000000  0.000000000  2.715000000     0.184162063 -0.184162063  0.184162063
     2.715000000  2.715000000  0.000000000     0.184162063  0.184162063 -0.184162063

  length of vectors
     3.839589822  3.839589822  3.839589822     0.318978049  0.318978049  0.318978049


 
 k-points in units of 2pi/SCALE and weight: Automatic kpoint scheme                 
   0.04604052  0.04604052  0.04604052       0.250
   0.13812155 -0.04604052 -0.04604052       0.750
 
 k-points in reciprocal lattice and weights: Automatic kpoint scheme                 
   0.25000000  0.25000000  0.25000000       0.250
  -0.25000000  0.25000000  0.25000000       0.750
 
 position of ions in fractional coordinates (direct lattice) 
   0.50000000  0.50000000  0.50000000
   0.75000000  0.75000000  0.75000000
 
 position of ions in cartesian coordinates  (Angst):
   2.71500000  2.71500000  2.71500000
   4.07250000  4.07250000  4.07250000
 


--------------------------------------------------------------------------------------------------------


 k-point  1 :   0.2500 0.2500 0.2500  plane waves:     162
 k-point  2 :  -0.2500 0.2500 0.2500  plane waves:     171

 maximum and minimum number of plane-waves per node :       171      162

 maximum number of plane-waves:       171
 maximum index in each direction: 
   IXMAX=    4   IYMAX=    3   IZMAX=    3
   IXMIN=   -4   IYMIN=   -4   IZMIN=   -4


 serial   3D FFT for wavefunctions
 parallel 3D FFT for charge:
    minimum data exchange during FFTs selected (reduces bandwidth)


 total amount of memory used by VASP MPI-rank0    30264. kBytes
=======================================================================

   base      :      30000. kBytes
   nonl-proj :         28. kBytes
   fftplans  :         66. kBytes
   grid      :        158. kBytes
   one-center:          6. kBytes
   wavefun   :          6. kBytes
 
     INWAV:  cpu time    0.0000: real time    0.0005
 Broyden mixing: mesh for mixing (old mesh)
   NGX =  7   NGY =  7   NGZ =  7
  (NGX  = 24   NGY  = 24   NGZ  = 24)
  gives a total of    343 points

 initial charge density was supplied:
 charge density of overlapping atoms calculated
 number of electron       8.0000000 magnetization 
 keeping initial charge density in first step


--------------------------------------------------------------------------------------------------------


 Maximum index for augmentation-charges          204 (set IRDMAX)


--------------------------------------------------------------------------------------------------------


 First call to EWALD:  gamma=   0.518
 Maximum number of real-space cells 3x 3x 3
 Maximum number of reciprocal cells 3x 3x 3

    FEWALD:  cpu time    0.0080: real time    0.0072


--------------------------------------- Iteration      1(   1)  ---------------------------------------


    POTLOK:  cpu time    0.0240: real time    0.0324
    SETDIJ:  cpu time    0.0080: real time    0.0086
     EDDAV:  cpu time    0.0320: real time    0.0334
       DOS:  cpu time    0.0000: real time    0.0016
    --------------------------------------------
      LOOP:  cpu time    0.0640: real time    0.0768

 eigenvalue-minimisations  :    40
 total energy-change (2. order) :-0.5584399E+01  (-0.1815689E+03)
 number of electron       8.0000000 magnetization 
 augmentation part        8.0000000 magnetization 

 Free energy of the ion-electron system (eV)
  ---------------------------------------------------
  alpha Z        PSCENC =         3.36414203
  Ewald energy   TEWEN  =      -228.56352493
  -Hartree energ DENC   =       -11.00108243
  -exchange      EXHF   =         0.00000000
  -V(xc)+E(xc)   XCENC  =       -18.60155909
  PAW double counting   =        65.95520812      -30.76852678
  entropy T*S    EENTRO =        -0.07729402
  eigenvalues    EBANDS =         8.01640202
  atomic energy  EATOM  =       206.09183643
  Solvation  Ediel_sol  =         0.00000000
  ---------------------------------------------------
  free energy    TOTEN  =        -5.58439866 eV

  energy without entropy =       -5.50710464  energy(sigma->0) =       -5.54575165


--------------------------------------------------------------------------------------------------------




--------------------------------------- Iteration      1(   2)  ---------------------------------------


     EDDAV:  cpu time    0.0280: real time    0.0356
       DOS:  cpu time    0.0000: real time    0.0011
    --------------------------------------------
      LOOP:  cpu time    0.0280: real time    0.0367

 eigenvalue-minimisations  :    48
 total energy-change (2. order) :-0.5169348E+01  (-0.3975094E+01)
 number of electron       8.0000000 magnetization 
 augmentation part        8.0000000 magnetization 

 Free energy of the ion-electron system (eV)
  ---------------------------------------------------
  alpha Z        PSCENC =         3.36414203
  Ewald energy   TEWEN  =      -228.56352493
  -Hartree energ DENC   =       -11.00108243
  -exchange      EXHF   =         0.00000000
  -V(xc)+E(xc)   XCENC  =       -18.60155909
  PAW double counting   =        65.95520812      -30.76852678
  entropy T*S    EENTRO =        -0.00000000
  eigenvalues    EBANDS =         2.76975968
  atomic energy  EATOM  =       206.09183643
  Solvation  Ediel_sol  =         0.00000000
  ---------------------------------------------------
  free energy    TOTEN  =       -10.75374698 eV

  energy without entropy =      -10.75374698  energy(sigma->0) =      -10.75374698


--------------------------------------------------------------------------------------------------------




--------------------------------------- Iteration      1(   3)  ---------------------------------------


     EDDAV:  cpu time    0.0200: real time    0.0242
       DOS:  cpu time    0.0000: real time    0.0011
    --------------------------------------------
      LOOP:  cpu time    0.0240: real time    0.0251

 eigenvalue-minimisations  :    32
 total energy-change (2. order) :-0.3167864E-01  (-0.3167864E-01)
 number of electron       8.0000000 magnetization 
 augmentation part        8.0000000 magnetization 

 Free energy of the ion-electron system (eV)
  ---------------------------------------------------
  alpha Z        PSCENC =         3.36414203
  Ewald energy   TEWEN  =      -228.56352493
  -Hartree energ DENC   =       -11.00108243
  -exchange      EXHF   =         0.00000000
  -V(xc)+E(xc)   XCENC  =       -18.60155909
  PAW double counting   =        65.95520812      -30.76852678
  entropy T*S    EENTRO =        -0.00000000
  eigenvalues    EBANDS =         2.73808103
  atomic energy  EATOM  =       206.09183643
  Solvation  Ediel_sol  =         0.00000000
  ---------------------------------------------------
  free energy    TOTEN  =       -10.78542563 eV

  energy without entropy =      -10.78542563  energy(sigma->0) =      -10.78542563


--------------------------------------------------------------------------------------------------------




--------------------------------------- Iteration      1(   4)  ---------------------------------------


     EDDAV:  cpu time    0.0400: real time    0.0455
       DOS:  cpu time    0.0000: real time    0.0011
    --------------------------------------------
      LOOP:  cpu time    0.0360: real time    0.0467

 eigenvalue-minimisations  :    56
 total energy-change (2. order) :-0.7659735E-04  (-0.7659732E-04)
 number of electron       8.0000000 magnetization 
 augmentation part        8.0000000 magnetization 

 Free energy of the ion-electron system (eV)
  ---------------------------------------------------
  alpha Z        PSCENC =         3.36414203
  Ewald energy   TEWEN  =      -228.56352493
  -Hartree energ DENC   =       -11.00108243
  -exchange      EXHF   =         0.00000000
  -V(xc)+E(xc)   XCENC  =       -18.60155909
  PAW double counting   =        65.95520812      -30.76852678
  entropy T*S    EENTRO =        -0.00000000
  eigenvalues    EBANDS =         2.73800444
  atomic energy  EATOM  =       206.09183643
  Solvation  Ediel_sol  =         0.00000000
  ---------------------------------------------------
  free energy    TOTEN  =       -10.78550222 eV

  energy without entropy =      -10.78550222  energy(sigma->0) =      -10.78550222


--------------------------------------------------------------------------------------------------------




--------------------------------------- Iteration      1(   5)  ---------------------------------------


     EDDAV:  cpu time    0.0160: real time    0.0210
       DOS:  cpu time    0.0000: real time    0.0012
    CHARGE:  cpu time    0.0080: real time    0.0065
    MIXING:  cpu time    0.0000: real time    0.0017
    --------------------------------------------
      LOOP:  cpu time    0.0240: real time    0.0304

 eigenvalue-minimisations  :    24
 total energy-change (2. order) :-0.3995382E-08  (-0.3991310E-08)
 number of electron       8.0000043 magnetization 
 augmentation part       -0.4609765 magnetization 

 Broyden mixing:
  rms(total) = 0.30750E+00    rms(broyden)= 0.30703E+00
  rms(prec ) = 0.89889E+00
  weight for this iteration     100.00

 Free energy of the ion-electron system (eV)
  ---------------------------------------------------
  alpha Z        PSCENC =         3.36414203
  Ewald energy   TEWEN  =      -228.56352493
  -Hartree energ DENC   =       -11.00108243
  -exchange      EXHF   =         0.00000000
  -V(xc)+E(xc)   XCENC  =       -18.60155909
  PAW double counting   =        65.95520812      -30.76852678
  entropy T*S    EENTRO =        -0.00000000
  eigenvalues    EBANDS =         2.73800443
  atomic energy  EATOM  =       206.09183643
  Solvation  Ediel_sol  =         0.00000000
  ---------------------------------------------------
  free energy    TOTEN  =       -10.78550223 eV

  energy without entropy =      -10.78550223  energy(sigma->0) =      -10.78550223


--------------------------------------------------------------------------------------------------------




--------------------------------------- Iteration      1(   6)  ---------------------------------------


    POTLOK:  cpu time    0.0160: real time    0.0203
    SETDIJ:  cpu time    0.0080: real time    0.0083
     EDDAV:  cpu time    0.0160: real time    0.0152
       DOS:  cpu time    0.0000: real time    0.0012
    CHARGE:  cpu time    0.0040: real time    0.0055
    MIXING:  cpu time    0.0000: real time    0.0014
    --------------------------------------------
      LOOP:  cpu time    0.0480: real time    0.0520

 eigenvalue-minimisations  :    32
 total energy-change (2. order) : 0.1373282E+00  (-0.8367424E-02)
 number of electron       8.0000042 magnetization 
 augmentation part       -0.4546882 magnetization 

 Broyden mixing:
  rms(total) = 0.18233E+00    rms(broyden)= 0.18230E+00
  rms(prec ) = 0.53135E+00
  weight for this iteration     100.00

 eigenvalues of (default mixing * dielectric matrix)
  average eigenvalue GAMMA=   2.4406
  2.4406

 Free energy of the ion-electron system (eV)
  ---------------------------------------------------
  alpha Z        PSCENC =         3.36414203
  Ewald energy   TEWEN  =      -228.56352493
  -Hartree energ DENC   =       -12.56719631
  -exchange      EXHF   =         0.00000000
  -V(xc)+E(xc)   XCENC  =       -18.33938040
  PAW double counting   =        70.89383904      -35.82591219
  entropy T*S    EENTRO =        -0.00000000
  eigenvalues    EBANDS =         4.29802229
  atomic energy  EATOM  =       206.09183643
  Solvation  Ediel_sol  =         0.00000000
  ---------------------------------------------------
  free energy    TOTEN  =       -10.64817405 eV

  energy without entropy =      -10.64817405  energy(sigma->0) =      -10.64817405


--------------------------------------------------------------------------------------------------------




--------------------------------------- Iteration      1(   7)  ---------------------------------------


    POTLOK:  cpu time    0.0160: real time    0.0211
    SETDIJ:  cpu time    0.0080: real time    0.0082
     EDDAV:  cpu time    0.0200: real time    0.0187
       DOS:  cpu time    0.0000: real time    0.0012
    CHARGE:  cpu time    0.0040: real time    0.0055
    MIXING:  cpu time    0.0040: real time    0.0012
    --------------------------------------------
      LOOP:  cpu time    0.0480: real time    0.0558

 eigenvalue-minimisations  :    40
 total energy-change (2. order) : 0.6297207E-01  (-0.1596210E-01)
 number of electron       8.0000041 magnetization 
 augmentation part       -0.4470781 magnetization 

 Broyden mixing:
  rms(total) = 0.15743E-01    rms(broyden)= 0.15632E-01
  rms(prec ) = 0.41135E-01
  weight for this iteration     100.00

 eigenvalues of (default mixing * dielectric matrix)
  average eigenvalue GAMMA=   2.4802
  2.4802  2.4802

 Free energy of the ion-electron system (eV)
  ---------------------------------------------------
  alpha Z        PSCENC =         3.36414203
  Ewald energy   TEWEN  =      -228.56352493
  -Hartree energ DENC   =       -15.12891165
  -exchange      EXHF   =         0.00000000
  -V(xc)+E(xc)   XCENC  =       -17.90797388
  PAW double counting   =        77.70869851      -42.79604861
  entropy T*S    EENTRO =        -0.00000000
  eigenvalues    EBANDS =         6.64658013
  atomic energy  EATOM  =       206.09183643
  Solvation  Ediel_sol  =         0.00000000
  ---------------------------------------------------
  free energy    TOTEN  =       -10.58520198 eV

  energy without entropy =      -10.58520198  energy(sigma->0) =      -10.58520198


--------------------------------------------------------------------------------------------------------




--------------------------------------- Iteration      1(   8)  ---------------------------------------


    POTLOK:  cpu time    0.0160: real time    0.0200
    SETDIJ:  cpu time    0.0080: real time    0.0082
     EDDAV:  cpu time    0.0120: real time    0.0147
       DOS:  cpu time    0.0000: real time    0.0012
    CHARGE:  cpu time    0.0080: real time    0.0055
    MIXING:  cpu time    0.0000: real time    0.0012
    --------------------------------------------
      LOOP:  cpu time    0.0440: real time    0.0509

 eigenvalue-minimisations  :    32
 total energy-change (2. order) :-0.1754657E-02  (-0.4095420E-03)
 number of electron       8.0000041 magnetization 
 augmentation part       -0.4479923 magnetization 

 Broyden mixing:
  rms(total) = 0.26103E-02    rms(broyden)= 0.25907E-02
  rms(prec ) = 0.90995E-02
  weight for this iteration     100.00

 eigenvalues of (default mixing * dielectric matrix)
  average eigenvalue GAMMA=   2.1435
  1.4219  2.8368  2.1718

 Free energy of the ion-electron system (eV)
  ---------------------------------------------------
  alpha Z        PSCENC =         3.36414203
  Ewald energy   TEWEN  =      -228.56352493
  -Hartree energ DENC   =       -15.09791566
  -exchange      EXHF   =         0.00000000
  -V(xc)+E(xc)   XCENC  =       -17.89838083
  PAW double counting   =        76.81257202      -41.87035398
  entropy T*S    EENTRO =        -0.00000000
  eigenvalues    EBANDS =         6.57466829
  atomic energy  EATOM  =       206.09183643
  Solvation  Ediel_sol  =         0.00000000
  ---------------------------------------------------
  free energy    TOTEN  =       -10.58695663 eV

  energy without entropy =      -10.58695663  energy(sigma->0) =      -10.58695663


--------------------------------------------------------------------------------------------------------




--------------------------------------- Iteration      1(   9)  ---------------------------------------


    POTLOK:  cpu time    0.0160: real time    0.0221
    SETDIJ:  cpu time    0.0080: real time    0.0083
     EDDAV:  cpu time    0.0160: real time    0.0156
       DOS:  cpu time    0.0000: real time    0.0011
    --------------------------------------------
      LOOP:  cpu time    0.0400: real time    0.0471

 eigenvalue-minimisations  :    32
 total energy-change (2. order) :-0.1283268E-03  (-0.1172295E-04)
 number of electron       8.0000041 magnetization 
 augmentation part       -0.4479923 magnetization 

 Free energy of the ion-electron system (eV)
  ---------------------------------------------------
  alpha Z        PSCENC =         3.36414203
  Ewald energy   TEWEN  =      -228.56352493
  -Hartree energ DENC   =       -15.14530765
  -exchange      EXHF   =         0.00000000
  -V(xc)+E(xc)   XCENC  =       -17.89027382
  PAW double counting   =        76.84264744      -41.90100306
  entropy T*S    EENTRO =        -0.00000000
  eigenvalues    EBANDS =         6.61439860
  atomic energy  EATOM  =       206.09183643
  Solvation  Ediel_sol  =         0.00000000
  ---------------------------------------------------
  free energy    TOTEN  =       -10.58708496 eV

  energy without entropy =      -10.58708496  energy(sigma->0) =      -10.58708496


--------------------------------------------------------------------------------------------------------




 average (electrostatic) potential at core
  the test charge radii are     0.9892
  (the norm of the test charge is              1.0000)
       1 -83.2119       2 -83.2119
 
 
 
 E-fermi :   6.0479     XC(G=0):  -9.3929     alpha+bet :-11.9845


 k-point     1 :       0.2500    0.2500    0.2500
  band No.  band energies     occupation 
      1      -5.3051      2.00000
      2       1.9495      2.00000
      3       5.1340      2.00000
      4       5.1340      2.00000
      5       7.9487      0.00000
      6       9.4460      0.00000
      7       9.4460      0.00000
      8      12.8267      0.00000

 k-point     2 :      -0.2500    0.2500    0.2500
  band No.  band energies     occupation 
      1      -3.3813      2.00000
      2      -0.5160      2.00000
      3       2.3360      2.00000
      4       3.6668      2.00000
      5       7.4474      0.00000
      6      10.4056      0.00000
      7      11.6869      0.00000
      8      11.9062      0.00000


--------------------------------------------------------------------------------------------------------


 soft charge-density along one line, spin component           1
         0         1         2         3         4         5         6         7         8         9
 total charge-density along one line
 
 pseudopotential strength for first ion, spin component:           1
 18.415  -0.001  -0.000  -0.000  -0.000   0.000   0.000   0.000
 -0.001   0.006   0.000   0.000   0.000  -0.000  -0.000  -0.000
 -0.000   0.000   4.180  -0.000  -0.000  -0.005   0.000   0.000
 -0.000   0.000  -0.000   4.180  -0.000   0.000  -0.005   0.000
 -0.000   0.000  -0.000  -0.000   4.180   0.000   0.000  -0.005
  0.000  -0.000  -0.005   0.000   0.000   0.005  -0.000  -0.000
  0.000  -0.000   0.000  -0.005   0.000  -0.000   0.005  -0.000
  0.000  -0.000   0.000   0.000  -0.005  -0.000  -0.000   0.005
 total augmentation occupancy for first ion, spin component:           1
  1.460  -1.022  -0.000  -0.000   0.000   0.000   0.000  -0.000
 -1.022   1.059  -0.000  -0.000   0.000   0.000  -0.000   0.000
 -0.000   0.000   1.031  -0.000   0.000  -0.929   0.000  -0.000
 -0.000  -0.000  -0.000   1.031   0.000   0.000  -0.929  -0.000
 -0.000  -0.000   0.000   0.000   1.031  -0.000  -0.000  -0.929
  0.000   0.000  -0.929   0.000  -0.000   0.905  -0.000   0.000
  0.000  -0.000   0.000  -0.929  -0.000  -0.000   0.905   0.000
 -0.000  -0.000  -0.000  -0.000  -0.929   0.000   0.000   0.905


------------------------ aborting loop because EDIFF is reached ----------------------------------------


    CHARGE:  cpu time    0.0040: real time    0.0051
    FORLOC:  cpu time    0.0000: real time    0.0004
    FORNL :  cpu time    0.0040: real time    0.0035
    STRESS:  cpu time    0.0120: real time    0.0116
    FORCOR:  cpu time    0.0080: real time    0.0091
    FORHAR:  cpu time    0.0040: real time    0.0028
    MIXING:  cpu time    0.0000: real time    0.0008
    OFIELD:  cpu time    0.0000: real time    0.0005

  FORCE on cell =-STRESS in cart. coord.  units (eV):
  Direction    XX          YY          ZZ          XY          YZ          ZX
  --------------------------------------------------------------------------------------
  Alpha Z     3.36414     3.36414     3.36414
  Ewald     -76.18788   -76.18788   -76.18788    -0.00000    -0.00000     0.00000
  Hartree     5.05125     5.05125     5.05125     0.00000     0.00000     0.00000
  E(xc)     -25.43189   -25.43189   -25.43189    -0.00014    -0.00014    -0.00014
  Local     -29.56645   -29.56645   -29.56644     0.00022     0.00023     0.00023
  n-local    74.35561    79.70049    79.70049    -0.62380    -3.24180    -0.62380
  augment   -11.38241   -11.38241   -11.38241    -0.00014    -0.00014    -0.00014
  Kinetic    54.68474    57.88713    57.88714    -0.82084    -6.16107    -0.82084
  Fock        0.00000     0.00000     0.00000     0.00000     0.00000     0.00000
  -------------------------------------------------------------------------------------
  Total       0.58530     0.58530     0.58530    -0.00000     0.00000    -0.00000
  in kB      23.42889    23.42889    23.42889    -0.00000     0.00000    -0.00000
  external pressure =       23.43 kB  Pullay stress =        0.00 kB


 VOLUME and BASIS-vectors are now :
 -----------------------------------------------------------------------------
  energy-cutoff  :      150.00
  volume of cell :       40.03
      direct lattice vectors                 reciprocal lattice vectors
     0.000000000  2.715000000  2.715000000    -0.184162063  0.184162063  0.184162063
     2.715000000  0.000000000  2.715000000     0.184162063 -0.184162063  0.184162063
     2.715000000  2.715000000  0.000000000     0.184162063  0.184162063 -0.184162063

  length of vectors
     3.839589822  3.839589822  3.839589822     0.318978049  0.318978049  0.318978049


 FORCES acting on ions
    electron-ion (+dipol)            ewald-force                    non-local-force                 convergence-correction
 -----------------------------------------------------------------------------------------------
   0.772E-05 0.772E-05 0.696E-05   -.476E-15 -.149E-14 0.391E-14   -.315E-15 -.278E-15 -.174E-15   -.199E-05 -.199E-05 -.199E-05
   -.772E-05 -.772E-05 -.696E-05   0.623E-15 0.106E-14 -.375E-14   0.305E-15 0.258E-15 0.176E-15   0.199E-05 0.199E-05 0.199E-05
 -----------------------------------------------------------------------------------------------
   -.994E-13 -.330E-13 -.229E-13   0.147E-15 -.426E-15 0.164E-15   -.102E-16 -.206E-16 0.220E-17   0.258E-15 -.998E-15 -.162E-14
 
 
 POSITION                                       TOTAL-FORCE (eV/Angst)
 -----------------------------------------------------------------------------------
      2.71500      2.71500      2.71500         0.000000      0.000000      0.000000
      4.07250      4.07250      4.07250        -0.000000     -0.000000     -0.000000
 -----------------------------------------------------------------------------------
    total drift:                               -0.000000     -0.000000     -0.000000


--------------------------------------------------------------------------------------------------------



  FREE ENERGIE OF THE ION-ELECTRON SYSTEM (eV)
  ---------------------------------------------------
  free  energy   TOTEN  =       -10.58708496 eV

  energy  without entropy=      -10.58708496  energy(sigma->0) =      -10.58708496
 


--------------------------------------------------------------------------------------------------------


    POTLOK:  cpu time    0.0280: real time    0.0365


--------------------------------------------------------------------------------------------------------




--------------------------------------------------------------------------------------------------------


    WAVPRE:  cpu time    0.2880: real time    0.4300
    FEWALD:  cpu time    0.0000: real time    0.0008
    GENKIN:  cpu time    0.0000: real time    0.0007
    ORTHCH:  cpu time    0.0040: real time    0.0014
     LOOP+:  cpu time    0.7400: real time    0.9847


--------------------------------------- Iteration      2(   1)  ---------------------------------------


    POTLOK:  cpu time    0.0160: real time    0.0188
    SETDIJ:  cpu time    0.0080: real time    0.0081
     EDDAV:  cpu time    0.0160: real time    0.0185
       DOS:  cpu time    0.0040: real time    0.0012
    CHARGE:  cpu time    0.0040: real time    0.0055
    MIXING:  cpu time    0.0000: real time    0.0009
    --------------------------------------------
      LOOP:  cpu time    0.0480: real time    0.0538

 eigenvalue-minimisations  :    40
 total energy-change (2. order) :-0.1312530E-01  (-0.3703261E-01)
 number of electron       7.9999987 magnetization 
 augmentation part       -0.4507946 magnetization 

 Broyden mixing:
  rms(total) = 0.38435E-01    rms(broyden)= 0.37824E-01
  rms(prec ) = 0.13869E+00
  weight for this iteration     100.00

 Free energy of the ion-electron system (eV)
  ---------------------------------------------------
  alpha Z        PSCENC =         3.22558498
  Ewald energy   TEWEN  =      -225.38152522
  -Hartree energ DENC   =       -14.94622642
  -exchange      EXHF   =         0.00000000
  -V(xc)+E(xc)   XCENC  =       -18.09678057
  PAW double counting   =        76.84572603      -41.90523085
  entropy T*S    EENTRO =        -0.00000000
  eigenvalues    EBANDS =         3.56653369
  atomic energy  EATOM  =       206.09183643
  Solvation  Ediel_sol  =         0.00000000
  ---------------------------------------------------
  free energy    TOTEN  =       -10.60008193 eV

  energy without entropy =      -10.60008193  energy(sigma->0) =      -10.60008193


--------------------------------------------------------------------------------------------------------




--------------------------------------- Iteration      2(   2)  ---------------------------------------


    POTLOK:  cpu time    0.0160: real time    0.0218
    SETDIJ:  cpu time    0.0080: real time    0.0083
     EDDAV:  cpu time    0.0160: real time    0.0148
       DOS:  cpu time    0.0000: real time    0.0012
    CHARGE:  cpu time    0.0040: real time    0.0055
    MIXING:  cpu time    0.0000: real time    0.0011
    --------------------------------------------
      LOOP:  cpu time    0.0480: real time    0.0526

 eigenvalue-minimisations  :    32
 total energy-change (2. order) : 0.6279762E-02  (-0.4667061E-03)
 number of electron       7.9999987 magnetization 
 augmentation part       -0.4495676 magnetization 

 Broyden mixing:
  rms(total) = 0.21870E-01    rms(broyden)= 0.21841E-01
  rms(prec ) = 0.79975E-01
  weight for this iteration     100.00

 eigenvalues of (default mixing * dielectric matrix)
  average eigenvalue GAMMA=   2.3189
  2.3189

 Free energy of the ion-electron system (eV)
  ---------------------------------------------------
  alpha Z        PSCENC =         3.22558498
  Ewald energy   TEWEN  =      -225.38152522
  -Hartree energ DENC   =       -15.24894164
  -exchange      EXHF   =         0.00000000
  -V(xc)+E(xc)   XCENC  =       -18.08640778
  PAW double counting   =        76.42324801      -41.47233879
  entropy T*S    EENTRO =        -0.00000000
  eigenvalues    EBANDS =         3.85474183
  atomic energy  EATOM  =       206.09183643
  Solvation  Ediel_sol  =         0.00000000
  ---------------------------------------------------
  free energy    TOTEN  =       -10.59380217 eV

  energy without entropy =      -10.59380217  energy(sigma->0) =      -10.59380217


--------------------------------------------------------------------------------------------------------




--------------------------------------- Iteration      2(   3)  ---------------------------------------


    POTLOK:  cpu time    0.0160: real time    0.0208
    SETDIJ:  cpu time    0.0080: real time    0.0082
     EDDAV:  cpu time    0.0200: real time    0.0186
       DOS:  cpu time    0.0000: real time    0.0014
    CHARGE:  cpu time    0.0040: real time    0.0056
    MIXING:  cpu time    0.0040: real time    0.0010
    --------------------------------------------
      LOOP:  cpu time    0.0480: real time    0.0555

 eigenvalue-minimisations  :    40
 total energy-change (2. order) : 0.3310661E-02  (-0.6485686E-03)
 number of electron       7.9999987 magnetization 
 augmentation part       -0.4471542 magnetization 

 Broyden mixing:
  rms(total) = 0.26615E-02    rms(broyden)= 0.26436E-02
  rms(prec ) = 0.60284E-02
  weight for this iteration     100.00

 eigenvalues of (default mixing * dielectric matrix)
  average eigenvalue GAMMA=   2.1226
  1.9933  2.2520

 Free energy of the ion-electron system (eV)
  ---------------------------------------------------
  alpha Z        PSCENC =         3.22558498
  Ewald energy   TEWEN  =      -225.38152522
  -Hartree energ DENC   =       -15.65523219
  -exchange      EXHF   =         0.00000000
  -V(xc)+E(xc)   XCENC  =       -18.07782275
  PAW double counting   =        75.65625360      -40.68556505
  entropy T*S    EENTRO =        -0.00000000
  eigenvalues    EBANDS =         4.23597870
  atomic energy  EATOM  =       206.09183643
  Solvation  Ediel_sol  =         0.00000000
  ---------------------------------------------------
  free energy    TOTEN  =       -10.59049151 eV

  energy without entropy =      -10.59049151  energy(sigma->0) =      -10.59049151


--------------------------------------------------------------------------------------------------------




--------------------------------------- Iteration      2(   4)  ---------------------------------------


    POTLOK:  cpu time    0.0160: real time    0.0201
    SETDIJ:  cpu time    0.0080: real time    0.0082
     EDDAV:  cpu time    0.0080: real time    0.0089
       DOS:  cpu time    0.0000: real time    0.0011
    --------------------------------------------
      LOOP:  cpu time    0.0320: real time    0.0383

 eigenvalue-minimisations  :    16
 total energy-change (2. order) : 0.8582678E-05  (-0.5045851E-05)
 number of electron       7.9999987 magnetization 
 augmentation part       -0.4471542 magnetization 

 Free energy of the ion-electron system (eV)
  ---------------------------------------------------
  alpha Z        PSCENC =         3.22558498
  Ewald energy   TEWEN  =      -225.38152522
  -Hartree energ DENC   =       -15.65142719
  -exchange      EXHF   =         0.00000000
  -V(xc)+E(xc)   XCENC  =       -18.08159415
  PAW double counting   =        75.45729902      -40.47937141
  entropy T*S    EENTRO =        -0.00000000
  eigenvalues    EBANDS =         4.22871462
  atomic energy  EATOM  =       206.09183643
  Solvation  Ediel_sol  =         0.00000000
  ---------------------------------------------------
  free energy    TOTEN  =       -10.59048292 eV

  energy without entropy =      -10.59048292  energy(sigma->0) =      -10.59048292


--------------------------------------------------------------------------------------------------------




 average (electrostatic) potential at core
  the test charge radii are     0.9892
  (the norm of the test charge is              1.0000)
       1 -83.6788       2 -83.6788
 
 
 
 E-fermi :   5.6709     XC(G=0):  -9.2268     alpha+bet :-11.4909


 k-point     1 :       0.2500    0.2500    0.2500
  band No.  band energies     occupation 
      1      -5.4678      2.00000
      2       1.6061      2.00000
      3       4.7433      2.00000
      4       4.7433      2.00000
      5       7.3806      0.00000
      6       8.9921      0.00000
      7       8.9921      0.00000
      8      12.0709      0.00000

 k-point     2 :      -0.2500    0.2500    0.2500
  band No.  band energies     occupation 
      1      -3.6224      2.00000
      2      -0.8239      2.00000
      3       2.0559      2.00000
      4       3.3346      2.00000
      5       7.0698      0.00000
      6       9.9494      0.00000
      7      11.0709      0.00000
      8      11.3996      0.00000


--------------------------------------------------------------------------------------------------------


 soft charge-density along one line, spin component           1
         0         1         2         3         4         5         6         7         8         9
 total charge-density along one line
 
 pseudopotential strength for first ion, spin component:           1
 18.462  -0.001   0.000   0.000   0.000  -0.000  -0.000  -0.000
 -0.001   0.006  -0.000  -0.000  -0.000   0.000   0.000   0.000
  0.000  -0.000   4.184  -0.000  -0.000  -0.004   0.000   0.000
  0.000  -0.000  -0.000   4.184  -0.000   0.000  -0.004   0.000
  0.000  -0.000  -0.000  -0.000   4.184   0.000   0.000  -0.004
 -0.000   0.000  -0.004   0.000   0.000   0.005  -0.000  -0.000
 -0.000   0.000   0.000  -0.004   0.000  -0.000   0.005  -0.000
 -0.000   0.000   0.000   0.000  -0.004  -0.000  -0.000   0.005
 total augmentation occupancy for first ion, spin component:           1
  1.469  -0.933  -0.000  -0.000  -0.000  -0.000   0.000   0.000
 -0.933   0.925  -0.000  -0.000   0.000   0.000  -0.000  -0.000
  0.000   0.000   1.000   0.000   0.000  -0.905   0.000   0.000
  0.000   0.000  -0.000   1.000  -0.000   0.000  -0.905   0.000
  0.000   0.000  -0.000   0.000   1.000   0.000   0.000  -0.905
  0.000   0.000  -0.905   0.000   0.000   0.882   0.000   0.000
  0.000  -0.000  -0.000  -0.905   0.000   0.000   0.882   0.000
 -0.000  -0.000   0.000  -0.000  -0.905   0.000   0.000   0.882


------------------------ aborting loop because EDIFF is reached ----------------------------------------


    CHARGE:  cpu time    0.0080: real time    0.0052
    FORLOC:  cpu time    0.0000: real time    0.0003
    FORNL :  cpu time    0.0040: real time    0.0031
    STRESS:  cpu time    0.0080: real time    0.0108
    FORCOR:  cpu time    0.0080: real time    0.0090
    FORHAR:  cpu time    0.0040: real time    0.0025
    MIXING:  cpu time    0.0000: real time    0.0007
    OFIELD:  cpu time    0.0000: real time    0.0004

  FORCE on cell =-STRESS in cart. coord.  units (eV):
  Direction    XX          YY          ZZ          XY          YZ          ZX
  --------------------------------------------------------------------------------------
  Alpha Z     3.22558     3.22558     3.22558
  Ewald     -75.12721   -75.12721   -75.12721     0.00000    -0.00000    -0.00000
  Hartree     5.21851     5.21851     5.21851     0.00000     0.00000     0.00000
  E(xc)     -25.18668   -25.18668   -25.18667    -0.00018    -0.00018    -0.00018
  Local     -30.12862   -30.12862   -30.12861     0.00024     0.00024     0.00024
  n-local    73.62629    78.86862    78.86861    -0.62613    -3.11002    -0.62613
  augment   -11.37503   -11.37503   -11.37503    -0.00017    -0.00017    -0.00017
  Kinetic    53.43578    57.06474    57.06474    -0.82323    -6.10580    -0.82323
  Fock        0.00000     0.00000     0.00000     0.00000     0.00000     0.00000
  -------------------------------------------------------------------------------------
  Total      -0.39718    -0.39718    -0.39718     0.00000     0.00000     0.00000
  in kB     -15.24363   -15.24363   -15.24363     0.00000     0.00000     0.00000
  external pressure =      -15.24 kB  Pullay stress =        0.00 kB


 VOLUME and BASIS-vectors are now :
 -----------------------------------------------------------------------------
  energy-cutoff  :      150.00
  volume of cell :       41.75
      direct lattice vectors                 reciprocal lattice vectors
    -0.000000000  2.753331133  2.753331133    -0.181598208  0.181598208  0.181598208
     2.753331133  0.000000000  2.753331133     0.181598208 -0.181598208  0.181598208
     2.753331133  2.753331133  0.000000000     0.181598208  0.181598208 -0.181598208

  length of vectors
     3.893798230  3.893798230  3.893798230     0.314537323  0.314537323  0.314537323


 FORCES acting on ions
    electron-ion (+dipol)            ewald-force                    non-local-force                 convergence-correction
 -----------------------------------------------------------------------------------------------
   0.164E-04 0.164E-04 0.156E-04   -.462E-15 -.242E-14 0.158E-14   0.861E-16 0.192E-15 0.603E-16   -.940E-07 -.940E-07 -.939E-07
   -.164E-04 -.164E-04 -.156E-04   0.375E-15 0.193E-14 -.166E-14   -.716E-16 -.181E-15 -.553E-16   0.940E-07 0.940E-07 0.939E-07
 -----------------------------------------------------------------------------------------------
   -.143E-12 -.695E-13 -.344E-13   -.872E-16 -.487E-15 -.781E-16   0.145E-16 0.111E-16 0.495E-17   0.770E-15 0.383E-14 -.736E-15
 
 
 POSITION                                       TOTAL-FORCE (eV/Angst)
 -----------------------------------------------------------------------------------
      2.75333      2.75333      2.75333         0.000000      0.000000      0.000000
      4.13000      4.13000      4.13000        -0.000000     -0.000000     -0.000000
 -----------------------------------------------------------------------------------
    total drift:                               -0.000000     -0.000000     -0.000000


--------------------------------------------------------------------------------------------------------



  FREE ENERGIE OF THE ION-ELECTRON SYSTEM (eV)
  ---------------------------------------------------
  free  energy   TOTEN  =       -10.59048292 eV

  energy  without entropy=      -10.59048292  energy(sigma->0) =      -10.59048292
 
 d Force = 0.0000000E+00[ 0.000E+00, 0.000E+00]  d Energy = 0.3397964E-02-0.340E-02
 d Force = 0.0000000E+00[ 0.000E+00, 0.000E+00]  d Ewald  =-0.3182000E+01 0.318E+01


--------------------------------------------------------------------------------------------------------


    POTLOK:  cpu time    0.0280: real time    0.0372


--------------------------------------------------------------------------------------------------------


 Steepest descent step on ions:
 trial-energy change:   -0.003398  1 .order   -0.003984   -0.024790    0.016822
  (g-gl).g = 0.248E-01      g.g   = 0.248E-01  gl.gl    = 0.000E+00
 g(Force)  = 0.155E-43   g(Stress)= 0.248E-01 ortho     = 0.000E+00
 gamma     =   0.00000
 trial     =   1.00000
 opt step  =   0.59574  (harmonic =   0.59574) maximal distance =0.00000000
 next E    =   -10.594469   (d E  =  -0.00738)


--------------------------------------------------------------------------------------------------------


    WAVPRE:  cpu time    0.0120: real time    0.0215
    FEWALD:  cpu time    0.0000: real time    0.0007
    GENKIN:  cpu time    0.0000: real time    0.0008
    ORTHCH:  cpu time    0.0000: real time    0.0014
     LOOP+:  cpu time    0.2800: real time    0.3545


--------------------------------------- Iteration      3(   1)  ---------------------------------------


    POTLOK:  cpu time    0.0160: real time    0.0189
    SETDIJ:  cpu time    0.0080: real time    0.0083
     EDDAV:  cpu time    0.0200: real time    0.0187
       DOS:  cpu time    0.0000: real time    0.0012
    CHARGE:  cpu time    0.0080: real time    0.0055
    MIXING:  cpu time    0.0000: real time    0.0010
    --------------------------------------------
      LOOP:  cpu time    0.0520: real time    0.0547

 eigenvalue-minimisations  :    40
 total energy-change (2. order) :-0.5141634E-02  (-0.6205703E-02)
 number of electron       8.0000010 magnetization 
 augmentation part       -0.4458735 magnetization 

 Broyden mixing:
  rms(total) = 0.15847E-01    rms(broyden)= 0.15591E-01
  rms(prec ) = 0.56964E-01
  weight for this iteration     100.00

 Free energy of the ion-electron system (eV)
  ---------------------------------------------------
  alpha Z        PSCENC =         3.28066443
  Ewald energy   TEWEN  =      -226.65714869
  -Hartree energ DENC   =       -15.74336034
  -exchange      EXHF   =         0.00000000
  -V(xc)+E(xc)   XCENC  =       -18.00030824
  PAW double counting   =        75.39681623      -40.41661117
  entropy T*S    EENTRO =        -0.00000000
  eigenvalues    EBANDS =         5.45247821
  atomic energy  EATOM  =       206.09183643
  Solvation  Ediel_sol  =         0.00000000
  ---------------------------------------------------
  free energy    TOTEN  =       -10.59563314 eV

  energy without entropy =      -10.59563314  energy(sigma->0) =      -10.59563314


--------------------------------------------------------------------------------------------------------




--------------------------------------- Iteration      3(   2)  ---------------------------------------


    POTLOK:  cpu time    0.0160: real time    0.0245
    SETDIJ:  cpu time    0.0080: real time    0.0083
     EDDAV:  cpu time    0.0120: real time    0.0148
       DOS:  cpu time    0.0040: real time    0.0012
    CHARGE:  cpu time    0.0040: real time    0.0056
    MIXING:  cpu time    0.0000: real time    0.0012
    --------------------------------------------
      LOOP:  cpu time    0.0440: real time    0.0555

 eigenvalue-minimisations  :    32
 total energy-change (2. order) : 0.1028646E-02  (-0.7608578E-04)
 number of electron       8.0000010 magnetization 
 augmentation part       -0.4463916 magnetization 

 Broyden mixing:
  rms(total) = 0.90076E-02    rms(broyden)= 0.89952E-02
  rms(prec ) = 0.32785E-01
  weight for this iteration     100.00

 eigenvalues of (default mixing * dielectric matrix)
  average eigenvalue GAMMA=   2.3174
  2.3174

 Free energy of the ion-electron system (eV)
  ---------------------------------------------------
  alpha Z        PSCENC =         3.28066443
  Ewald energy   TEWEN  =      -226.65714869
  -Hartree energ DENC   =       -15.61651631
  -exchange      EXHF   =         0.00000000
  -V(xc)+E(xc)   XCENC  =       -18.00450702
  PAW double counting   =        75.56390487      -40.58777020
  entropy T*S    EENTRO =        -0.00000000
  eigenvalues    EBANDS =         5.33493199
  atomic energy  EATOM  =       206.09183643
  Solvation  Ediel_sol  =         0.00000000
  ---------------------------------------------------
  free energy    TOTEN  =       -10.59460449 eV

  energy without entropy =      -10.59460449  energy(sigma->0) =      -10.59460449


--------------------------------------------------------------------------------------------------------




--------------------------------------- Iteration      3(   3)  ---------------------------------------


    POTLOK:  cpu time    0.0160: real time    0.0244
    SETDIJ:  cpu time    0.0080: real time    0.0083
     EDDAV:  cpu time    0.0160: real time    0.0151
       DOS:  cpu time    0.0000: real time    0.0012
    CHARGE:  cpu time    0.0040: real time    0.0056
    MIXING:  cpu time    0.0040: real time    0.0011
    --------------------------------------------
      LOOP:  cpu time    0.0480: real time    0.0554

 eigenvalue-minimisations  :    32
 total energy-change (2. order) : 0.5478741E-03  (-0.1079793E-03)
 number of electron       8.0000010 magnetization 
 augmentation part       -0.4473702 magnetization 

 Broyden mixing:
  rms(total) = 0.10877E-02    rms(broyden)= 0.10811E-02
  rms(prec ) = 0.24669E-02
  weight for this iteration     100.00

 eigenvalues of (default mixing * dielectric matrix)
  average eigenvalue GAMMA=   2.1625
  2.0945  2.2304

 Free energy of the ion-electron system (eV)
  ---------------------------------------------------
  alpha Z        PSCENC =         3.28066443
  Ewald energy   TEWEN  =      -226.65714869
  -Hartree energ DENC   =       -15.45157843
  -exchange      EXHF   =         0.00000000
  -V(xc)+E(xc)   XCENC  =       -18.00741171
  PAW double counting   =        75.87077165      -40.90250740
  entropy T*S    EENTRO =        -0.00000000
  eigenvalues    EBANDS =         5.18131708
  atomic energy  EATOM  =       206.09183643
  Solvation  Ediel_sol  =         0.00000000
  ---------------------------------------------------
  free energy    TOTEN  =       -10.59405662 eV

  energy without entropy =      -10.59405662  energy(sigma->0) =      -10.59405662


--------------------------------------------------------------------------------------------------------




--------------------------------------- Iteration      3(   4)  ---------------------------------------


    POTLOK:  cpu time    0.0120: real time    0.0209
    SETDIJ:  cpu time    0.0080: real time    0.0082
     EDDAV:  cpu time    0.0080: real time    0.0088
       DOS:  cpu time    0.0040: real time    0.0012
    --------------------------------------------
      LOOP:  cpu time    0.0320: real time    0.0390

 eigenvalue-minimisations  :    16
 total energy-change (2. order) :-0.2880958E-05  (-0.8863493E-06)
 number of electron       8.0000010 magnetization 
 augmentation part       -0.4473702 magnetization 

 Free energy of the ion-electron system (eV)
  ---------------------------------------------------
  alpha Z        PSCENC =         3.28066443
  Ewald energy   TEWEN  =      -226.65714869
  -Hartree energ DENC   =       -15.45366127
  -exchange      EXHF   =         0.00000000
  -V(xc)+E(xc)   XCENC  =       -18.00568509
  PAW double counting   =        75.95573997      -40.99055345
  entropy T*S    EENTRO =        -0.00000000
  eigenvalues    EBANDS =         5.18474818
  atomic energy  EATOM  =       206.09183643
  Solvation  Ediel_sol  =         0.00000000
  ---------------------------------------------------
  free energy    TOTEN  =       -10.59405950 eV

  energy without entropy =      -10.59405950  energy(sigma->0) =      -10.59405950


--------------------------------------------------------------------------------------------------------




 average (electrostatic) potential at core
  the test charge radii are     0.9892
  (the norm of the test charge is              1.0000)
       1 -83.4890       2 -83.4890
 
 
 
 E-fermi :   5.8089     XC(G=0):  -9.2910     alpha+bet :-11.6872


 k-point     1 :       0.2500    0.2500    0.2500
  band No.  band energies     occupation 
      1      -5.4022      2.00000
      2       1.7443      2.00000
      3       4.8993      2.00000
      4       4.8993      2.00000
      5       7.6093      0.00000
      6       9.1735      0.00000
      7       9.1735      0.00000
      8      12.3741      0.00000

 k-point     2 :      -0.2500    0.2500    0.2500
  band No.  band energies     occupation 
      1      -3.5256      2.00000
      2      -0.7000      2.00000
      3       2.1680      2.00000
      4       3.4672      2.00000
      5       7.2228      0.00000
      6      10.1346      0.00000
      7      11.3165      0.00000
      8      11.6026      0.00000


--------------------------------------------------------------------------------------------------------


 soft charge-density along one line, spin component           1
         0         1         2         3         4         5         6         7         8         9
 total charge-density along one line
 
 pseudopotential strength for first ion, spin component:           1
 18.443  -0.001   0.000   0.000   0.000  -0.000  -0.000  -0.000
 -0.001   0.006  -0.000  -0.000  -0.000   0.000   0.000   0.000
  0.000  -0.000   4.182  -0.000  -0.000  -0.005   0.000   0.000
  0.000  -0.000  -0.000   4.182  -0.000   0.000  -0.005   0.000
  0.000  -0.000  -0.000  -0.000   4.182   0.000   0.000  -0.005
 -0.000   0.000  -0.005   0.000   0.000   0.005  -0.000  -0.000
 -0.000   0.000   0.000  -0.005   0.000  -0.000   0.005  -0.000
 -0.000   0.000   0.000   0.000  -0.005  -0.000  -0.000   0.005
 total augmentation occupancy for first ion, spin component:           1
  1.465  -0.972  -0.000  -0.000  -0.000  -0.000  -0.000  -0.000
 -0.972   0.982   0.000   0.000  -0.000   0.000  -0.000   0.000
 -0.000  -0.000   1.012  -0.000   0.000  -0.915   0.000  -0.000
  0.000  -0.000  -0.000   1.012  -0.000  -0.000  -0.915  -0.000
  0.000  -0.000  -0.000   0.000   1.012   0.000   0.000  -0.915
  0.000   0.000  -0.915  -0.000  -0.000   0.891   0.000   0.000
 -0.000   0.000   0.000  -0.915   0.000   0.000   0.891   0.000
 -0.000   0.000  -0.000  -0.000  -0.915   0.000   0.000   0.891


------------------------ aborting loop because EDIFF is reached ----------------------------------------


    CHARGE:  cpu time    0.0040: real time    0.0053
    FORLOC:  cpu time    0.0000: real time    0.0003
    FORNL :  cpu time    0.0000: real time    0.0031
    STRESS:  cpu time    0.0120: real time    0.0108
    FORCOR:  cpu time    0.0080: real time    0.0087
    FORHAR:  cpu time    0.0040: real time    0.0024
    MIXING:  cpu time    0.0000: real time    0.0007
    OFIELD:  cpu time    0.0000: real time    0.0004

  FORCE on cell =-STRESS in cart. coord.  units (eV):
  Direction    XX          YY          ZZ          XY          YZ          ZX
  --------------------------------------------------------------------------------------
  Alpha Z     3.28066     3.28066     3.28066
  Ewald     -75.55242   -75.55242   -75.55242     0.00000     0.00000    -0.00000
  Hartree     5.15069     5.15069     5.15069     0.00000     0.00000     0.00000
  E(xc)     -25.28654   -25.28654   -25.28654    -0.00018    -0.00018    -0.00018
  Local     -29.89828   -29.89828   -29.89827     0.00023     0.00024     0.00024
  n-local    73.90320    79.18665    79.18665    -0.62444    -3.16083    -0.62444
  augment   -11.37483   -11.37483   -11.37483    -0.00017    -0.00017    -0.00017
  Kinetic    53.92925    57.39062    57.39062    -0.82103    -6.12713    -0.82103
  Fock        0.00000     0.00000     0.00000     0.00000     0.00000     0.00000
  -------------------------------------------------------------------------------------
  Total      -0.01839    -0.01839    -0.01839    -0.00000    -0.00000     0.00000
  in kB      -0.71773    -0.71773    -0.71773    -0.00000    -0.00000     0.00000
  external pressure =       -0.72 kB  Pullay stress =        0.00 kB


 VOLUME and BASIS-vectors are now :
 -----------------------------------------------------------------------------
  energy-cutoff  :      150.00
  volume of cell :       41.04
      direct lattice vectors                 reciprocal lattice vectors
    -0.000000000  2.737835421  2.737835421    -0.182626025  0.182626025  0.182626025
     2.737835421  0.000000000  2.737835421     0.182626025 -0.182626025  0.182626025
     2.737835421  2.737835421  0.000000000     0.182626025  0.182626025 -0.182626025

  length of vectors
     3.871883984  3.871883984  3.871883984     0.316317554  0.316317554  0.316317554


 FORCES acting on ions
    electron-ion (+dipol)            ewald-force                    non-local-force                 convergence-correction
 -----------------------------------------------------------------------------------------------
   0.129E-04 0.129E-04 0.121E-04   -.770E-15 0.446E-15 0.976E-15   -.162E-15 -.409E-16 -.805E-16   0.951E-07 0.951E-07 0.951E-07
   -.129E-04 -.129E-04 -.121E-04   0.684E-15 -.217E-15 -.583E-15   0.172E-15 0.405E-16 0.637E-16   -.951E-07 -.951E-07 -.951E-07
 -----------------------------------------------------------------------------------------------
   -.143E-12 -.837E-13 -.281E-13   -.853E-16 0.228E-15 0.393E-15   0.101E-16 -.337E-18 -.168E-16   -.155E-14 -.753E-15 -.267E-14
 
 
 POSITION                                       TOTAL-FORCE (eV/Angst)
 -----------------------------------------------------------------------------------
      2.73784      2.73784      2.73784         0.000000     -0.000000      0.000000
      4.10675      4.10675      4.10675        -0.000000      0.000000     -0.000000
 -----------------------------------------------------------------------------------
    total drift:                               -0.000000     -0.000000     -0.000000


--------------------------------------------------------------------------------------------------------



  FREE ENERGIE OF THE ION-ELECTRON SYSTEM (eV)
  ---------------------------------------------------
  free  energy   TOTEN  =       -10.59405950 eV

  energy  without entropy=      -10.59405950  energy(sigma->0) =      -10.59405950
 
 d Force = 0.0000000E+00[ 0.000E+00, 0.000E+00]  d Energy = 0.3576577E-02-0.358E-02
 d Force = 0.0000000E+00[ 0.000E+00, 0.000E+00]  d Ewald  = 0.1275623E+01-0.128E+01


--------------------------------------------------------------------------------------------------------


    POTLOK:  cpu time    0.0280: real time    0.0360


--------------------------------------------------------------------------------------------------------




--------------------------------------------------------------------------------------------------------


  
 reached required accuracy - stopping structural energy minimisation
 writing wavefunctions
     LOOP+:  cpu time    0.2840: real time    0.4122
    4ORBIT:  cpu time    0.0000: real time    0.0000

 total amount of memory used by VASP MPI-rank0    30264. kBytes
=======================================================================

   base      :      30000. kBytes
   nonl-proj :         28. kBytes
   fftplans  :         66. kBytes
   grid      :        158. kBytes
   one-center:          6. kBytes
   wavefun   :          6. kBytes
 
  
  
 General timing and accounting informations for this job:
 ========================================================
  
                  Total CPU time used (sec):        5.224
                            User time (sec):        3.772
                          System time (sec):        1.452
                         Elapsed time (sec):       15.919
  
                   Maximum memory used (kb):        9124.
                   Average memory used (kb):           0.
  
                          Minor page faults:        37920
                          Major page faults:           23
                 Voluntary context switches:        17143
