 running on    8 total cores
 distrk:  each k-point on    8 cores,    1 groups
 distr:  one band on    1 cores,    8 groups
 using from now: INCAR     
 vasp.5.4.4.18Apr17-6-g9f103f2a35 (build Dec 09 2018 21:25:21) complex          
  
 POSCAR found type information on POSCAR  Si
 POSCAR found :  1 types and       2 ions
 scaLAPACK will be used

 ----------------------------------------------------------------------------- 
|                                                                             |
|           W    W    AA    RRRRR   N    N  II  N    N   GGGG   !!!           |
|           W    W   A  A   R    R  NN   N  II  NN   N  G    G  !!!           |
|           W    W  A    A  R    R  N N  N  II  N N  N  G       !!!           |
|           W WW W  AAAAAA  RRRRR   N  N N  II  N  N N  G  GGG   !            |
|           WW  WW  A    A  R   R   N   NN  II  N   NN  G    G                |
|           W    W  A    A  R    R  N    N  II  N    N   GGGG   !!!           |
|                                                                             |
|      For optimal performance we recommend to set                            |
|        NCORE= 4 - approx SQRT( number of cores)                             |
|      NCORE specifies how many cores store one orbital (NPAR=cpu/NCORE).     |
|      This setting can  greatly improve the performance of VASP for DFT.     |
|      The default,   NCORE=1            might be grossly inefficient         |
|      on modern multi-core architectures or massively parallel machines.     |
|      Do your own testing !!!!                                               |
|      Unfortunately you need to use the default for GW and RPA calculations. |
|      (for HF NCORE is supported but not extensively tested yet)             |
|                                                                             |
 ----------------------------------------------------------------------------- 

 LDA part: xc-table for Pade appr. of Perdew
 POSCAR, INCAR and KPOINTS ok, starting setup
 FFT: planning ...
 WAVECAR not read
 entering main loop
       N       E                     dE             d eps       ncg     rms          rms(c)
DAV:   1    -0.144993675300E+01   -0.14499E+01   -0.20709E+03  3080   0.377E+02
DAV:   2    -0.108877436408E+02   -0.94378E+01   -0.90329E+01  4632   0.553E+01
DAV:   3    -0.109766354546E+02   -0.88892E-01   -0.88892E-01  3576   0.662E+00
DAV:   4    -0.109768400142E+02   -0.20456E-03   -0.20456E-03  4688   0.330E-01
DAV:   5    -0.109768400913E+02   -0.77060E-07   -0.77283E-07  3440   0.533E-03    0.299E+00
DAV:   6    -0.108528842649E+02    0.12396E+00   -0.80491E-02  3408   0.147E+00    0.177E+00
DAV:   7    -0.107962999657E+02    0.56584E-01   -0.14798E-01  3760   0.212E+00    0.151E-01
DAV:   8    -0.107975820609E+02   -0.12821E-02   -0.36353E-03  3264   0.436E-01    0.246E-02
DAV:   9    -0.107976750084E+02   -0.92947E-04   -0.87083E-05  2312   0.740E-02
   1 F= -.10797675E+02 E0= -.10797645E+02  d E =-.107977E+02
 curvature:   0.00 expect dE= 0.000E+00 dE for cont linesearch  0.000E+00
 trial: gam= 0.00000 g(F)=  0.420E-44 g(S)=  0.158E-01 ort = 0.000E+00 (trialstep = 0.100E+01)
 search vector abs. value=  0.158E-01
 bond charge predicted
       N       E                     dE             d eps       ncg     rms          rms(c)
DAV:   1    -0.108063189933E+02   -0.87369E-02   -0.23996E-01  3776   0.271E+00    0.311E-01
DAV:   2    -0.108022283508E+02    0.40906E-02   -0.31959E-03  3720   0.350E-01    0.178E-01
DAV:   3    -0.108001069091E+02    0.21214E-02   -0.42823E-03  3440   0.328E-01    0.222E-02
DAV:   4    -0.108000946423E+02    0.12267E-04   -0.40018E-05  1536   0.533E-02
   2 F= -.10800095E+02 E0= -.10800077E+02  d E =-.241963E-02
 trial-energy change:   -0.002420  1 .order   -0.002758   -0.015793    0.010277
 step:   0.6058(harm=  0.6058)  dis= 0.00000  next Energy=   -10.802458 (dE=-0.478E-02)
 bond charge predicted
       N       E                     dE             d eps       ncg     rms          rms(c)
DAV:   1    -0.108031835600E+02   -0.30767E-02   -0.38157E-02  3672   0.109E+00    0.125E-01
DAV:   2    -0.108025402546E+02    0.64331E-03   -0.50436E-04  3656   0.139E-01    0.715E-02
DAV:   3    -0.108022138686E+02    0.32639E-03   -0.66323E-04  2096   0.131E-01
   3 F= -.10802214E+02 E0= -.10802193E+02  d E =-.453886E-02
 curvature:  -0.30 expect dE=-0.393E-05 dE for cont linesearch -0.393E-05
 trial: gam= 0.00000 g(F)=  0.254E-42 g(S)=  0.130E-04 ort =-0.452E-03 (trialstep = 0.921E+00)
 search vector abs. value=  0.130E-04
 reached required accuracy - stopping structural energy minimisation
 writing wavefunctions
