unknown system                          
   1.00000000000000     
    -2.414239    2.414239    1.313086
     2.414239   -2.414239    1.313086
     2.414239    2.414239   -1.313086
   Si
     2
Direct
  0.250000  0.750000  0.500000
  0.000000  0.000000  0.000000
 
   28   28   28
 -5.4684     -3.9341     0.54534E-01  4.9719      9.1323      11.428      11.679      10.494      8.8066      7.1993    
  5.8461      4.8125      4.1007      3.6876      3.5524      3.6876      4.1007      4.8127      5.8462      7.1993    
  8.8066      10.494      11.679      11.428      9.1323      4.9720     0.54413E-01 -3.9343     -3.9343     -4.7263    
 -2.5762      1.6506      6.3552      9.9782      11.653      11.424      10.021      8.3333      6.7889      5.5227    
  4.5799      3.9526      3.6161      3.5523      3.7573      4.2422      5.0296      6.1390      7.5572      9.2007    
  10.850      11.812      11.188      8.5207      4.1985     -.51470     0.54413E-01 -2.5764     -2.6376     -.11347    
  3.9674      8.0623      10.849      11.749      11.021      9.4546      7.8053      6.3480      5.1857      4.3434    
  3.8051      3.5461      3.5519      3.8220      4.3703      5.2197      6.3854      7.8436      9.4960      11.084    
  11.868      11.037      8.2980      4.1985      4.9720      1.6505     -.11353     0.41842      3.0094      6.5784    
  9.7579      11.535      11.631      10.471      8.8329      7.2514      5.9008      4.8528      4.1149      3.6653    
  3.4813      3.5517      3.8788      4.4784      5.3728      6.5720      8.0432      9.6786      11.198      11.882    
  11.037      8.5207      9.1323      6.3552      3.9674      3.0094      3.9106      6.2611      9.0390      11.139    
  11.887      11.270      9.8155      8.1905      6.7021      5.4712      4.5412      3.9056      3.5404      3.4252    
  3.5518      3.9248      4.5607      5.4803      6.6885      8.1458      9.7404      11.198      11.868      11.188    
  11.428      9.9782      8.0623      6.5784      6.2613      7.2797      9.1458      10.987      12.006      11.847    
  10.704      9.1266      7.5638      6.1875      5.0815      4.2662      3.7259      3.4366      3.3807      3.5524    
  3.9574      4.6123      5.5357      6.7281      8.1458      9.6786      11.084      11.812      11.679      11.652    
  10.849      9.7579      9.0391      9.1459      10.061      11.307      12.217      12.297      11.461      10.027    
  8.4586      6.9879      5.7341      4.7503      4.0402      3.5840      3.3589      3.3501      3.5530      3.9742    
  4.6299      5.5357      6.6885      8.0432      9.4960      10.850      10.494      11.424      11.749      11.535    
  11.139      10.987      11.307      11.975      12.587      12.702      12.091      10.858      9.3552      7.8526    
  6.4935      5.3629      4.4914      3.8728      3.4862      3.3110      3.3345      3.5532      3.9742      4.6123    
  5.4803      6.5720      7.8436      9.2007      8.8066      10.021      11.021      11.631      11.887      12.005    
  12.217      12.587      12.958      13.035      12.581      11.570      10.210      8.7499      7.3446      6.1043    
  5.0889      4.3143      3.7701      3.4363      3.2949      3.3345      3.5530      3.9574      4.5607      5.3728    
  6.3854      7.5572      7.1993      8.3333      9.4547      10.471      11.270      11.847      12.297      12.702    
  13.035      13.146      12.858      12.096      10.960      9.6297      8.2555      6.9626      5.8369      4.9213    
  4.2245      3.7355      3.4363      3.3110      3.3501      3.5524      3.9248      4.4784      5.2197      6.1390    
  5.8462      6.7888      7.8053      8.8329      9.8157      10.704      11.461      12.091      12.581      12.858    
  12.808      12.353      11.523      10.421      9.1732      7.9064      6.7260      5.7009      4.8649      4.2245    
  3.7701      3.4862      3.3589      3.3807      3.5518      3.8788      4.3703      5.0296      4.8127      5.5227    
  6.3479      7.2513      8.1905      9.1267      10.028      10.858      11.570      12.096      12.353      12.267    
  11.817      11.040      10.024      8.8819      7.7260      6.6459      5.7009      4.9213      4.3143      3.8728    
  3.5840      3.4366      3.4252      3.5517      3.8220      4.2422      4.1007      4.5800      5.1857      5.9007    
  6.7020      7.5637      8.4586      9.3552      10.210      10.960      11.523      11.817      11.782      11.403    
  10.720      9.8128      8.7818      7.7260      6.7260      5.8369      5.0889      4.4914      4.0402      3.7259    
  3.5404      3.4813      3.5519      3.7573      3.6876      3.9526      4.3435      4.8529      5.4712      6.1875    
  6.9879      7.8526      8.7499      9.6297      10.421      11.040      11.403      11.455      11.179      10.609    
  9.8128      8.8819      7.9064      6.9626      6.1043      5.3629      4.7503      4.2662      3.9056      3.6653    
  3.5461      3.5523      3.5524      3.6160      3.8049      4.1148      4.5412      5.0815      5.7340      6.4934    
  7.3445      8.2555      9.1732      10.024      10.720      11.179      11.340      11.179      10.720      10.024    
  9.1732      8.2555      7.3446      6.4935      5.7341      5.0815      4.5412      4.1149      3.8051      3.6161    
  3.6876      3.5523      3.5460      3.6651      3.9055      4.2661      4.7503      5.3629      6.1043      6.9625    
  7.9064      8.8819      9.8128      10.609      11.179      11.455      11.403      11.040      10.421      9.6297    
  8.7499      7.8526      6.9879      6.1875      5.4712      4.8528      4.3434      3.9526      4.1007      3.7573    
  3.5519      3.4812      3.5402      3.7257      4.0402      4.4914      5.0889      5.8369      6.7259      7.7260    
  8.7818      9.8128      10.720      11.403      11.782      11.817      11.523      10.960      10.210      9.3552    
  8.4586      7.5638      6.7021      5.9008      5.1857      4.5799      4.8125      4.2421      3.8220      3.5516    
  3.4251      3.4364      3.5839      3.8727      4.3143      4.9213      5.7009      6.6459      7.7260      8.8819    
  10.024      11.040      11.817      12.267      12.353      12.096      11.570      10.858      10.027      9.1266    
  8.1905      7.2514      6.3480      5.5227      5.8461      5.0294      4.3701      3.8787      3.5518      3.3807    
  3.3589      3.4861      3.7700      4.2245      4.8649      5.7009      6.7259      7.9064      9.1732      10.421    
  11.523      12.353      12.808      12.858      12.581      12.091      11.461      10.704      9.8155      8.8329    
  7.8053      6.7889      7.1993      6.1389      5.2196      4.4783      3.9247      3.5523      3.3501      3.3111    
  3.4363      3.7354      4.2245      4.9213      5.8369      6.9625      8.2555      9.6297      10.960      12.096    
  12.858      13.146      13.035      12.702      12.297      11.847      11.270      10.471      9.4546      8.3333    
  8.8066      7.5572      6.3854      5.3727      4.5606      3.9572      3.5529      3.3346      3.2949      3.4363    
  3.7700      4.3143      5.0889      6.1043      7.3445      8.7499      10.210      11.570      12.581      13.035    
  12.958      12.587      12.217      12.006      11.887      11.631      11.021      10.021      10.494      9.2006    
  7.8435      6.5720      5.4803      4.6122      3.9741      3.5532      3.3346      3.3111      3.4861      3.8727    
  4.4914      5.3629      6.4934      7.8526      9.3552      10.858      12.091      12.702      12.587      11.975    
  11.307      10.987      11.139      11.535      11.749      11.424      11.679      10.850      9.4958      8.0431    
  6.6885      5.5357      4.6298      3.9741      3.5529      3.3501      3.3589      3.5839      4.0402      4.7503    
  5.7340      6.9879      8.4586      10.028      11.461      12.297      12.217      11.307      10.061      9.1458    
  9.0390      9.7579      10.849      11.653      11.428      11.812      11.084      9.6785      8.1456      6.7281    
  5.5357      4.6122      3.9572      3.5523      3.3807      3.4364      3.7257      4.2661      5.0815      6.1875    
  7.5637      9.1267      10.704      11.847      12.005      10.987      9.1459      7.2797      6.2611      6.5784    
  8.0623      9.9782      9.1323      11.188      11.868      11.199      9.7403      8.1456      6.6885      5.4803    
  4.5606      3.9247      3.5518      3.4251      3.5402      3.9055      4.5412      5.4712      6.7020      8.1905    
  9.8157      11.270      11.887      11.139      9.0391      6.2613      3.9106      3.0094      3.9674      6.3552    
  4.9719      8.5206      11.037      11.882      11.199      9.6785      8.0431      6.5720      5.3727      4.4783    
  3.8787      3.5516      3.4812      3.6651      4.1148      4.8529      5.9007      7.2513      8.8329      10.471    
  11.631      11.535      9.7579      6.5784      3.0094     0.41842     -.11347      1.6506     0.54534E-01  4.1984    
  8.2979      11.037      11.868      11.084      9.4958      7.8435      6.3854      5.2196      4.3701      3.8220    
  3.5519      3.5460      3.8049      4.3435      5.1857      6.3479      7.8053      9.4547      11.021      11.749    
  10.849      8.0623      3.9674     -.11353     -2.6376     -2.5762     -3.9341     -.51456      4.1984      8.5206    
  11.188      11.812      10.850      9.2006      7.5572      6.1389      5.0294      4.2421      3.7573      3.5523    
  3.6160      3.9526      4.5800      5.5227      6.7888      8.3333      10.021      11.424      11.652      9.9782    
  6.3552      1.6505     -2.5764     -4.7263     -3.9337     -2.8227     0.65184      5.1386      9.0486      11.268    
  11.544      10.400      8.7230      7.1075      5.7362      4.6799      3.9435      3.5030      3.3341      3.4262    
  3.7856      4.4335      5.3963      6.6798      8.2321      9.9071      11.242      11.358      9.6046      6.0335    
  1.5755     -2.2372     -2.8229     -3.9338     -2.2371      1.5756      6.0335      9.6047      11.359      11.242    
  9.9071      8.2322      6.6799      5.3963      4.4334      3.7856      3.4263      3.3341      3.5030      3.9436    
  4.6800      5.7361      7.1074      8.7229      10.400      11.543      11.268      9.0485      5.1387     0.65173    
 0.77078     -2.1067     -2.5760     -.46347      3.3536      7.3993      10.311      11.406      10.837      9.3394    
  7.7003      6.2342      5.0555      4.1964      3.6421      3.3658      3.3499      3.5929      4.1092      4.9243    
  6.0581      7.4952      9.1487      10.798      11.769      11.232      8.8078      4.9185      5.4323      1.9149    
 -.22204     -.11329      2.1642      5.6374      8.9406      10.969      11.316      10.316      8.7281      7.1528    
  5.7922      4.7299      3.9793      3.5191      3.3239      3.3807      3.6920      4.2748      5.1543      6.3454    
  7.8228      9.4880      11.093      11.947      11.316      8.9663      9.5029      6.5794      3.8649      2.4829    
  3.0095      5.1728      8.0047      10.347      11.401      11.032      9.7010      8.1041      6.6167      5.3755    
  4.4345      3.7914      3.4215      3.3025      3.4254      3.7957      4.4318      5.3573      6.5818      8.0719    
  9.7222      11.278      12.087      11.533      11.833      10.296      8.1256      6.2543      5.5291      6.2612    
  8.0615      10.060      11.369      11.503      10.555      9.0453      7.4978      6.1182      5.0035      4.1821    
  3.6406      3.3536      3.3026      3.4817      3.8985      4.5714      5.5215      6.7533      8.2273      9.8367    
  11.343      12.174      12.171      12.124      11.159      9.7624      8.6582      8.4189      9.1457      10.415    
  11.525      11.875      11.266      9.9456      8.4051      6.9398      5.6812      4.6927      3.9832      3.5331    
  3.3184      3.3240      3.5466      3.9944      4.6851      5.6367      6.8488      8.2785      9.8217      11.274    
  11.059      12.030      12.293      11.886      11.184      10.692      10.746      11.307      11.987      12.286    
  11.875      10.773      9.3093      7.8181      6.4585      5.3254      4.4559      3.8457      3.4734      3.3175    
  3.3659      3.6166      4.0780      4.7662      5.6956      6.8618      8.2205      9.6742      9.3986      10.694    
  11.717      12.248      12.311      12.158      12.095      12.275      12.587      12.730      12.401      11.494    
  10.173      8.7223      7.3184      6.0776      5.0658      4.3017      3.7748      3.4642      3.3514      3.4264    
  3.6880      4.1444      4.8097      5.6945      6.7906      8.0547      7.7892      9.0080      10.194      11.223    
  11.943      12.350      12.577      12.773      12.967      13.035      12.775      12.060      10.937      9.6055    
  8.2289      6.9353      5.8146      4.9118      4.2355      3.7733      3.5065      3.4192      3.5030      3.7575    
  4.1905      4.8134      5.6332      6.6388      6.4146      7.4383      8.5240      9.5949      10.578      11.395    
  12.013      12.469      12.798      12.964      12.858      12.379      11.522      10.399      9.1379      7.8662    
  6.6905      5.6806      4.8688      4.2598      3.8421      3.5996      3.5188      3.5926      3.8220      4.2139    
  4.7774      5.5153      5.3474      6.1307      7.0223      7.9752      8.9346      9.8506      10.686      11.403    
  11.977      12.371      12.521      12.353      11.838      11.016      9.9714      8.8162      7.6621      6.5982    
  5.6816      4.9390      4.3747      3.9799      3.7409      3.6464      3.6916      3.8785      4.2139      4.7038    
  4.5964      5.1386      5.8032      6.5660      7.3949      8.2545      9.1108      9.9320      10.682      11.311    
  11.754      11.940      11.817      11.371      10.642      9.7089      8.6737      7.6334      6.6650      5.8192    
  5.1214      4.5780      4.1828      3.9252      3.7967      3.7952      3.9243      4.1903      4.1442      4.4607    
  4.9003      5.4510      6.0965      6.8183      7.5962      8.4071      9.2211      9.9958      10.672      11.176    
  11.437      11.403      11.064      10.455      9.6466      8.7280      7.7859      6.8907      6.0905      5.4120    
  4.8640      4.4439      4.1449      3.9625      3.8979      3.9568      3.9736      4.0776      4.3040      4.6459    
  5.0941      5.6407      6.2781      6.9972      7.7815      8.6021      9.4129      10.150      10.736      11.097    
  11.179      10.967      10.486      9.7970      8.9797      8.1144      7.2680      6.4880      5.8024      5.2232    
  4.7525      4.3894      4.1348      3.9940      4.0777      3.9737      3.9939      4.1347      4.3893      4.7525    
  5.2231      5.8023      6.4879      7.2679      8.1144      8.9797      9.7970      10.486      10.967      11.179    
  11.097      10.736      10.150      9.4130      8.6022      7.7816      6.9973      6.2782      5.6407      5.0941    
  4.6459      4.3041      4.4608      4.1443      3.9569      3.8979      3.9625      4.1449      4.4439      4.8640    
  5.4120      6.0905      6.8907      7.7859      8.7280      9.6466      10.455      11.064      11.403      11.437    
  11.176      10.672      9.9958      9.2212      8.4071      7.5963      6.8184      6.0965      5.4509      4.9003    
  5.1385      4.5964      4.1904      3.9245      3.7952      3.7968      3.9252      4.1827      4.5779      5.1214    
  5.8192      6.6650      7.6334      8.6737      9.7089      10.642      11.371      11.817      11.940      11.754    
  11.311      10.682      9.9321      9.1109      8.2546      7.3951      6.5661      5.8032      6.1306      5.3473    
  4.7038      4.2140      3.8786      3.6917      3.6465      3.7409      3.9798      4.3747      4.9390      5.6816    
  6.5982      7.6621      8.8162      9.9714      11.016      11.838      12.353      12.521      12.371      11.977    
  11.403      10.686      9.8506      8.9346      7.9753      7.0224      7.4383      6.4146      5.5153      4.7774    
  4.2140      3.8220      3.5927      3.5189      3.5996      3.8420      4.2598      4.8689      5.6806      6.6905    
  7.8663      9.1379      10.399      11.522      12.379      12.858      12.964      12.798      12.469      12.013    
  11.395      10.578      9.5949      8.5241      9.0080      7.7891      6.6388      5.6332      4.8134      4.1905    
  3.7575      3.5030      3.4193      3.5064      3.7732      4.2355      4.9118      5.8145      6.9353      8.2290    
  9.6056      10.937      12.060      12.775      13.035      12.967      12.773      12.577      12.350      11.943    
  11.222      10.194      10.694      9.3985      8.0546      6.7906      5.6945      4.8097      4.1444      3.6880    
  3.4264      3.3514      3.4640      3.7747      4.3017      5.0658      6.0776      7.3184      8.7224      10.173    
  11.494      12.401      12.730      12.587      12.275      12.095      12.158      12.311      12.248      11.717    
  12.030      11.059      9.6740      8.2204      6.8618      5.6957      4.7661      4.0778      3.6165      3.3659    
  3.3174      3.4732      3.8457      4.4559      5.3255      6.4585      7.8181      9.3094      10.773      11.875    
  12.286      11.987      11.307      10.746      10.692      11.184      11.886      12.293      12.124      12.171    
  11.274      9.8215      8.2783      6.8488      5.6368      4.6850      3.9942      3.5465      3.3239      3.3182    
  3.5329      3.9832      4.6928      5.6812      6.9398      8.4052      9.9457      11.266      11.875      11.525    
  10.415      9.1456      8.4187      8.6580      9.7623      11.159      10.296      11.833      12.174      11.343    
  9.8365      8.2271      6.7533      5.5216      4.5712      3.8983      3.4816      3.3025      3.3535      3.6405    
  4.1821      5.0036      6.1182      7.4978      9.0454      10.555      11.503      11.368      10.060      8.0615    
  6.2611      5.5289      6.2542      8.1255      6.5793      9.5027      11.533      12.087      11.278      9.7221    
  8.0718      6.5819      5.3573      4.4317      3.7956      3.4253      3.3024      3.4214      3.7914      4.4346    
  5.3755      6.6167      8.1041      9.7011      11.032      11.401      10.346      8.0047      5.1728      3.0095    
  2.4829      3.8649      1.9150      5.4322      8.9662      11.317      11.947      11.093      9.4879      7.8228    
  6.3455      5.1542      4.2747      3.6919      3.3807      3.3238      3.5190      3.9794      4.7300      5.7922    
  7.1528      8.7281      10.316      11.316      10.968      8.9404      5.6374      2.1643     -.11323     -.22190    
 -2.1065     0.77090      4.9185      8.8077      11.232      11.769      10.798      9.1487      7.4953      6.0582    
  4.9242      4.1091      3.5928      3.3499      3.3657      3.6421      4.1965      5.0556      6.2341      7.7002    
  9.3394      10.837      11.406      10.311      7.3992      3.3536     -.46351     -2.5759     0.55455E-01 0.77150    
  3.4428      6.9852      10.062      11.706      11.684      10.448      8.7777      7.1759      5.8083      4.7437    
  3.9884      3.5192      3.3111      3.3515      3.6438      4.2065      5.0663      6.2362      7.6817      9.2887    
  10.765      11.393      10.523      8.0599      4.6661      1.5761     0.65239     -.51353     0.65250      3.6583    
  7.2850      10.198      11.549      11.260      9.8965      8.2438      6.7089      5.4312      4.4634      3.8015    
  3.4195      3.2948      3.4194      3.8015      4.4635      5.4312      6.7088      8.2438      9.8965      11.260    
  11.548      10.198      7.2850      3.6583      3.4428     0.77144     0.55516E-01  1.5762      4.6661      8.0599    
  10.523      11.393      10.765      9.2886      7.6817      6.2362      5.0663      4.2065      3.6439      3.3516    
  3.3110      3.5191      3.9885      4.7438      5.8082      7.1758      8.7777      10.448      11.684      11.706    
  10.062      6.9852      7.2569      4.0787      1.9155      1.6514      3.3540      6.2436      9.1058      10.893    
  11.170      10.195      8.6549      7.1173      5.7799      4.7296      3.9832      3.5211      3.3176      3.3589    
  3.6468      4.1971      5.0350      6.1791      7.6137      9.2565      10.920      12.049      11.921      10.206    
  10.636      8.0624      5.4467      3.8652      3.9678      5.6376      8.0615      10.167      11.153      10.822    
  9.5620      8.0226      6.5753      5.3597      4.4347      3.8017      3.4370      3.3183      3.4366      3.7971    
  4.4176      5.3221      6.5239      7.9979      9.6532      11.289      12.353      12.208      12.532      11.274    
  9.2393      7.2800      6.2543      6.5784      8.0046      9.7676      11.004      11.187      10.334      8.9063    
  7.4174      6.0790      4.9928      4.1925      3.6679      3.3943      3.3535      3.5404      3.9627      4.6384    
  5.5891      6.8220      8.3050      9.9422      11.536      12.577      12.687      12.819      11.971      10.544    
  9.2307      8.6580      9.0387      10.060      11.073      11.460      10.954      9.7391      8.2737      6.8654    
  5.6491      4.6934      4.0116      3.5862      3.3942      3.4213      3.6653      4.1349      4.8469      5.8196    
  7.0546      8.5142      10.102      11.636      11.570      12.636      12.975      12.557      11.712      10.954    
  10.692      10.987      11.525      11.816      11.489      10.495      9.1178      7.6951      6.3910      5.3030    
  4.4723      3.8979      3.5594      3.4367      3.5188      3.8051      4.3040      5.0306      5.9991      7.2059    
  8.6099      10.117      9.9811      11.327      12.391      12.916      12.882      12.525      12.187      12.095    
  12.216      12.286      11.987      11.163      9.9218      8.5409      7.2005      6.0157      5.0543      4.3372    
  3.8555      3.5890      3.5206      3.6419      3.9526      4.4606      5.1786      6.1162      7.2654      8.5833    
  8.4337      9.6995      10.915      11.941      12.597      12.856      12.860      12.801      12.773      12.702    
  12.400      11.712      10.640      9.3638      8.0486      6.8167      5.7563      4.9121      4.2929      3.8864    
  3.6747      3.6434      3.7853      4.1007      4.5962      5.2820      6.1634      7.2282      7.0960      8.1690    
  9.2877      10.364      11.310      12.027      12.475      12.712      12.816      12.798      12.581      12.060    
  11.203      10.104      8.8896      7.6763      6.5656      5.6242      4.8819      4.3414      3.9909      3.8149    
  3.8010      3.9431      4.2421      4.7037      5.3353      6.1379      6.0409      6.8765      7.8052      8.7718    
  9.7104      10.560      11.274      11.817      12.186      12.381      12.371      12.096      11.522      10.683    
  9.6567      8.5449      7.4524      6.4624      5.6263      4.9661      4.4831      4.1675      4.0059      3.9879    
  4.1087      4.3701      4.7775      5.3355      5.2825      5.8782      6.5827      7.3655      8.1858      8.9988    
  9.7632      10.446      11.021      11.459      11.719      11.754      11.523      11.016      10.268      9.3527    
  8.3654      7.3966      6.5157      5.7652      5.1643      4.7157      4.4117      4.2416      4.1966      4.2743    
  4.4782      4.8136      4.8099      5.1791      5.6591      6.2329      6.8779      7.5679      8.2758      8.9749    
  9.6385      10.236      10.727      11.058      11.176      11.040      10.642      10.016      9.2326      8.3738    
  7.5189      6.7279      6.0394      5.4730      5.0335      4.7161      4.5125      4.4173      4.4314      4.5605    
  4.6122      4.7664      5.0312      5.3966      5.8485      6.3729      6.9565      7.5855      8.2428      8.9048    
  9.5374      10.093      10.512      10.736      10.720      10.455      9.9680      9.3181      8.5786      7.8192    
  7.0951      6.4433      5.8847      5.4268      5.0685      4.8059      4.6385      4.5712      4.6852      4.6298    
  4.6853      4.8474      5.1065      5.4528      5.8804      6.3861      6.9652      7.6065      8.2879      8.9734    
  9.6110      10.137      10.486      10.609      10.486      10.137      9.6110      8.9734      8.2880      7.6065    
  6.9651      6.3860      5.8804      5.4528      5.1064      4.8473      5.0312      4.7665      4.6123      4.5713    
  4.6386      4.8061      5.0686      5.4269      5.8848      6.4434      7.0951      7.8192      8.5786      9.3182    
  9.9680      10.455      10.720      10.736      10.512      10.093      9.5374      8.9049      8.2428      7.5854    
  6.9565      6.3729      5.8485      5.3965      5.6591      5.1792      4.8101      4.5607      4.4316      4.4175    
  4.5126      4.7161      5.0335      5.4731      6.0395      6.7279      7.5188      8.3739      9.2326      10.016    
  10.642      11.040      11.176      11.058      10.727      10.236      9.6386      8.9749      8.2758      7.5679    
  6.8779      6.2329      6.5828      5.8783      5.2826      4.8138      4.4783      4.2745      4.1968      4.2417    
  4.4118      4.7156      5.1644      5.7652      6.5157      7.3966      8.3654      9.3527      10.268      11.016    
  11.523      11.754      11.719      11.459      11.021      10.446      9.7632      8.9988      8.1858      7.3655    
  7.8053      6.8765      6.0411      5.3357      4.7776      4.3701      4.1088      3.9880      4.0060      4.1674    
  4.4831      4.9662      5.6264      6.4624      7.4524      8.5449      9.6567      10.683      11.522      12.096    
  12.371      12.381      12.186      11.817      11.274      10.560      9.7104      8.7719      9.2878      8.1691    
  7.0961      6.1380      5.3355      4.7038      4.2421      3.9432      3.8010      3.8149      3.9909      4.3415    
  4.8820      5.6242      6.5656      7.6763      8.8897      10.104      11.203      12.060      12.581      12.798    
  12.816      12.712      12.475      12.027      11.309      10.364      10.915      9.6996      8.4337      7.2283    
  6.1636      5.2822      4.5962      4.1006      3.7853      3.6434      3.6746      3.8864      4.2929      4.9121    
  5.7562      6.8167      8.0487      9.3639      10.640      11.712      12.400      12.702      12.773      12.801    
  12.860      12.856      12.597      11.941      12.391      11.327      9.9812      8.5833      7.2654      6.1163    
  5.1786      4.4605      3.9525      3.6418      3.5206      3.5889      3.8555      4.3373      5.0543      6.0157    
  7.2004      8.5410      9.9218      11.163      11.987      12.285      12.216      12.095      12.187      12.525    
  12.882      12.916      12.975      12.636      11.570      10.117      8.6099      7.2060      5.9992      5.0306    
  4.3039      3.8051      3.5188      3.4367      3.5594      3.8979      4.4724      5.3030      6.3910      7.6951    
  9.1178      10.495      11.488      11.816      11.525      10.987      10.692      10.954      11.712      12.557    
  11.971      12.819      12.687      11.636      10.102      8.5142      7.0546      5.8196      4.8469      4.1348    
  3.6653      3.4213      3.3941      3.5861      4.0116      4.6935      5.6490      6.8653      8.2737      9.7391    
  10.954      11.459      11.073      10.060      9.0385      8.6578      9.2307      10.544      9.2392      11.273    
  12.532      12.577      11.536      9.9421      8.3050      6.8220      5.5890      4.6383      3.9627      3.5405    
  3.3535      3.3942      3.6678      4.1926      4.9929      6.0789      7.4174      8.9063      10.334      11.187    
  11.004      9.7676      8.0045      6.5782      6.2542      7.2799      5.4467      8.0623      10.636      12.207    
  12.353      11.289      9.6531      7.9979      6.5239      5.3221      4.4175      3.7971      3.4367      3.3183    
  3.4369      3.8017      4.4348      5.3597      6.5753      8.0226      9.5620      10.822      11.153      10.167    
  8.0615      5.6375      3.9676      3.8651      1.9155      4.0787      7.2569      10.206      11.921      12.049    
  10.920      9.2565      7.6137      6.1792      5.0349      4.1970      3.6468      3.3590      3.3176      3.5210    
  3.9833      4.7297      5.7799      7.1172      8.6550      10.195      11.170      10.893      9.1057      6.2436    
  3.3539      1.6513      4.9727      5.4326      7.2567      9.6560      11.627      12.448      11.973      10.601    
  8.9624      7.4053      6.0674      5.0106      4.2417      3.7410      3.4861      3.4640      3.6749      4.1321    
  4.8589      5.8728      7.1570      8.6307      10.126      11.198      11.258      10.089      8.0600      6.0339    
  5.1392      4.1994      4.9191      6.9851      9.4867      11.393      12.048      11.414      9.9785      8.3704    
  6.8815      5.6342      4.6766      4.0062      3.5998      3.4362      3.5065      3.8152      4.3801      5.2256    
  6.3626      7.7588      9.3108      10.794      11.640      11.294      9.6645      7.2850      6.9851      4.9191    
  4.1995      5.1393      7.2849      9.6644      11.294      11.640      10.794      9.3106      7.7588      6.3627    
  5.2255      4.3800      3.8152      3.5066      3.4362      3.5997      4.0063      4.6768      5.6342      6.8815    
  8.3705      9.9787      11.414      12.048      11.393      9.4868      9.6560      7.2567      5.4327      4.9729    
  6.0340      8.0599      10.089      11.258      11.198      10.126      8.6305      7.1570      5.8729      4.8588    