unknown system                          
   1.00000000000000     
    -2.383505    2.383505    1.346677
     2.383505   -2.383505    1.346677
     2.383505    2.383505   -1.346677
   Si
     2
Direct
  0.250000  0.750000  0.500000
 -0.000000 -0.000000  0.000000
 
   28   28   28
 -.55012771779E+01 -.40063212454E+01 -.97103320691E-01 0.47860056840E+01 0.90210687364E+01
 0.11493812391E+02 0.11951067862E+02 0.10912961863E+02 0.92691679228E+01 0.76521531942E+01
 0.62618808630E+01 0.51816733601E+01 0.44286492299E+01 0.39886403060E+01 0.38442122328E+01
 0.39885726902E+01 0.44286965713E+01 0.51818268032E+01 0.62619359587E+01 0.76520860524E+01
 0.92691563716E+01 0.10913032368E+02 0.11951078394E+02 0.11493775351E+02 0.90211256695E+01
 0.47860961045E+01 -.97171617040E-01 -.40064836514E+01 -.40064836514E+01 -.46792686801E+01
 -.25039613580E+01 0.16728690184E+01 0.63282904711E+01 0.99718376561E+01 0.11747621937E+02
 0.11653454296E+02 0.10348550696E+02 0.86964410312E+01 0.71529903751E+01 0.58663616409E+01
 0.48961034779E+01 0.42465023976E+01 0.39005795859E+01 0.38439248248E+01 0.40744985709E+01
 0.46034833662E+01 0.54495503145E+01 0.66217313403E+01 0.80890853166E+01 0.97466729477E+01
 0.11330128251E+02 0.12091250278E+02 0.11198073373E+02 0.83088573308E+01 0.39052557530E+01
 -.73626792348E+00 -.97171617040E-01 -.25040732760E+01 -.23927030288E+01 0.17175901274E+00
 0.41756482516E+01 0.81600994222E+01 0.10887120895E+02 0.11810731404E+02 0.11159112322E+02
 0.96657199109E+01 0.80594311902E+01 0.66195586541E+01 0.54566836260E+01 0.46073548031E+01
 0.40657688196E+01 0.38145573089E+01 0.38432844124E+01 0.41543935937E+01 0.47622342522E+01
 0.56852151662E+01 0.69258580906E+01 0.84397113029E+01 0.10104669500E+02 0.11597315862E+02
 0.12137462055E+02 0.11005758018E+02 0.80452153476E+01 0.39052557530E+01 0.47860961045E+01
 0.16728402177E+01 0.17172640621E+00 0.87209621840E+00 0.34580464025E+01 0.68781240454E+01
 0.98674140754E+01 0.11514823109E+02 0.11584002633E+02 0.10476695144E+02 0.89153886366E+01
 0.73941574520E+01 0.60816667907E+01 0.50546564077E+01 0.43299944160E+01 0.38953880027E+01
 0.37350924796E+01 0.38428177589E+01 0.42246431302E+01 0.48967484810E+01 0.58757375447E+01
 0.71569871121E+01 0.86847048520E+01 0.10325744632E+02 0.11725740767E+02 0.12145536746E+02
 0.11005758018E+02 0.83088573308E+01 0.90211256695E+01 0.63283253104E+01 0.41756640188E+01
 0.34580904410E+01 0.44599662610E+01 0.67156601167E+01 0.92599279246E+01 0.11109484169E+02
 0.11698033702E+02 0.11052545372E+02 0.96697215485E+01 0.81439964323E+01 0.67386775181E+01
 0.55686234997E+01 0.46809042189E+01 0.40777181535E+01 0.37438994948E+01 0.36665288848E+01
 0.38429377210E+01 0.42816916375E+01 0.49994497597E+01 0.60098693854E+01 0.73015241809E+01
 0.88106523662E+01 0.10400319141E+02 0.11725740767E+02 0.12137462055E+02 0.11198073373E+02
 0.11493775351E+02 0.99718133336E+01 0.81600764858E+01 0.68781709744E+01 0.67157526130E+01
 0.77235664718E+01 0.93952488173E+01 0.10944205947E+02 0.11701966431E+02 0.11413023490E+02
 0.10290702602E+02 0.88330491452E+01 0.73972256628E+01 0.61292709753E+01 0.51066801119E+01
 0.43533813141E+01 0.38624527491E+01 0.36187412967E+01 0.36124541290E+01 0.38436208073E+01
 0.43221358991E+01 0.50639729113E+01 0.60792033392E+01 0.73507141618E+01 0.88106523662E+01
 0.10325744632E+02 0.11597315862E+02 0.12091250278E+02 0.11951078394E+02 0.11747600484E+02
 0.10887036562E+02 0.98673492773E+01 0.92599836245E+01 0.93953521752E+01 0.10180757253E+02
 0.11160336534E+02 0.11772643123E+02 0.11645393619E+02 0.10763471481E+02 0.94374543235E+01
 0.80314921222E+01 0.67176594261E+01 0.55968634351E+01 0.47169869573E+01 0.40862637633E+01
 0.36936152416E+01 0.35256496594E+01 0.35753275314E+01 0.38444125473E+01 0.43431664288E+01
 0.50859941142E+01 0.60792033392E+01 0.73015241809E+01 0.86847048520E+01 0.10104669500E+02
 0.11330128251E+02 0.10913032368E+02 0.11653539727E+02 0.11810734023E+02 0.11514718208E+02
 0.11109403287E+02 0.10944250661E+02 0.11160419884E+02 0.11606735182E+02 0.11935231393E+02
 0.11809899907E+02 0.11098207985E+02 0.99385198492E+01 0.86181174903E+01 0.73143603618E+01
 0.61403472872E+01 0.51647580285E+01 0.44146585280E+01 0.38895520507E+01 0.35778069667E+01
 0.34684339206E+01 0.35564966804E+01 0.38447582759E+01 0.43431664288E+01 0.50639729113E+01
 0.60098693854E+01 0.71569871121E+01 0.84397113029E+01 0.97466729477E+01 0.92691563716E+01
 0.10348632525E+02 0.11159234867E+02 0.11584030381E+02 0.11697945999E+02 0.11701894275E+02
 0.11772666721E+02 0.11935279337E+02 0.12043166161E+02 0.11876174226E+02 0.11288511044E+02
 0.10311801290E+02 0.91302841354E+01 0.78956752226E+01 0.67215440963E+01 0.56905769577E+01
 0.48482319083E+01 0.42091144264E+01 0.37694281881E+01 0.35190009026E+01 0.34491510315E+01
 0.35564966804E+01 0.38444125473E+01 0.43221358991E+01 0.49994497597E+01 0.58757375447E+01
 0.69258580906E+01 0.80890853166E+01 0.76520860524E+01 0.86963885771E+01 0.96657779329E+01
 0.10476812086E+02 0.11052590237E+02 0.11412974713E+02 0.11645345669E+02 0.11809902376E+02
 0.11876186962E+02 0.11737124415E+02 0.11289234838E+02 0.10521732199E+02 0.95329529017E+01
 0.84299508821E+01 0.73166537272E+01 0.62813839766E+01 0.53841169511E+01 0.46557988817E+01
 0.41053362128E+01 0.37290691308E+01 0.35190009026E+01 0.34684339206E+01 0.35753275314E+01
 0.38436208073E+01 0.42816916375E+01 0.48967484810E+01 0.56852151662E+01 0.66217313403E+01
 0.62619359587E+01 0.71529261724E+01 0.80593534227E+01 0.89154038629E+01 0.96698019964E+01
 0.10290751463E+02 0.10763463723E+02 0.11098187634E+02 0.11288498982E+02 0.11289222909E+02
 0.11041926430E+02 0.10528186179E+02 0.97846089950E+01 0.88772212979E+01 0.78920296391E+01
 0.69140265956E+01 0.60113806302E+01 0.52292392987E+01 0.45913080335E+01 0.41053362128E+01
 0.37694281881E+01 0.35778069667E+01 0.35256496594E+01 0.36124541290E+01 0.38429377210E+01
 0.42246431302E+01 0.47622342522E+01 0.54495503145E+01 0.51818268032E+01 0.58664413050E+01
 0.66195194007E+01 0.73940780974E+01 0.81439713167E+01 0.88330824984E+01 0.94374950555E+01
 0.99385408559E+01 0.10311802566E+02 0.10521714645E+02 0.10528163748E+02 0.10303149500E+02
 0.98470052923E+01 0.91942331373E+01 0.84059998336E+01 0.75545814124E+01 0.67080158924E+01
 0.59204875926E+01 0.52292392987E+01 0.46557988817E+01 0.42091144264E+01 0.38895520507E+01
 0.36936152416E+01 0.36187412967E+01 0.36665288848E+01 0.38428177589E+01 0.41543935937E+01
 0.46034833662E+01 0.44286965713E+01 0.48962089139E+01 0.54567630009E+01 0.60816610975E+01
 0.67386176276E+01 0.73971777834E+01 0.80314861589E+01 0.86181428932E+01 0.91303161247E+01
 0.95329660080E+01 0.97845941228E+01 0.98469842751E+01 0.96985436795E+01 0.93438385900E+01
 0.88142506377E+01 0.81602115544E+01 0.74396981542E+01 0.67080158924E+01 0.60113806302E+01
 0.53841169511E+01 0.48482319083E+01 0.44146585280E+01 0.40862637633E+01 0.38624527491E+01
 0.37438994948E+01 0.37350924796E+01 0.38432844124E+01 0.40744985709E+01 0.39885726902E+01
 0.42464548766E+01 0.46073791384E+01 0.50547122048E+01 0.55686449757E+01 0.61292407409E+01
 0.67176102287E+01 0.73143323346E+01 0.78956833123E+01 0.84299784117E+01 0.88772377232E+01
 0.91942257767E+01 0.93438247983E+01 0.93047707018E+01 0.90773796654E+01 0.86832774532E+01
 0.81602115544E+01 0.75545814124E+01 0.69140265956E+01 0.62813839766E+01 0.56905769577E+01
 0.51647580285E+01 0.47169869573E+01 0.43533813141E+01 0.40777181535E+01 0.38953880027E+01
 0.38145573089E+01 0.38439248248E+01 0.38442122328E+01 0.39004669048E+01 0.40656405091E+01
 0.43299401258E+01 0.46809250321E+01 0.51067135609E+01 0.55968612707E+01 0.61403129298E+01
 0.67215108048E+01 0.73166460824E+01 0.78920444640E+01 0.84060150210E+01 0.88142508039E+01
 0.90773718421E+01 0.91682951300E+01 0.90773796654E+01 0.88142506377E+01 0.84059998336E+01
 0.78920296391E+01 0.73166537272E+01 0.67215440963E+01 0.61403472872E+01 0.55968634351E+01
 0.51066801119E+01 0.46809042189E+01 0.43299944160E+01 0.40657688196E+01 0.39005795859E+01
 0.39886403060E+01 0.38439120410E+01 0.38144317425E+01 0.38952264119E+01 0.40776200325E+01
 0.43533715447E+01 0.47170176030E+01 0.51647756255E+01 0.56905643395E+01 0.62813554742E+01
 0.69140069868E+01 0.75545839462E+01 0.81602249498E+01 0.86832807346E+01 0.90773718421E+01
 0.93047707018E+01 0.93438385900E+01 0.91942331373E+01 0.88772212979E+01 0.84299508821E+01
 0.78956752226E+01 0.73143603618E+01 0.67176594261E+01 0.61292709753E+01 0.55686234997E+01
 0.50546564077E+01 0.46073548031E+01 0.42465023976E+01 0.44286492299E+01 0.40745067881E+01
 0.38432635572E+01 0.37349926013E+01 0.37437656585E+01 0.38623600333E+01 0.40862387351E+01
 0.44146783799E+01 0.48482603383E+01 0.53841240991E+01 0.60113589033E+01 0.67079897517E+01
 0.74396957146E+01 0.81602249498E+01 0.88142508039E+01 0.93438247983E+01 0.96985436795E+01
 0.98470052923E+01 0.97846089950E+01 0.95329529017E+01 0.91302841354E+01 0.86181174903E+01
 0.80314921222E+01 0.73972256628E+01 0.67386775181E+01 0.60816667907E+01 0.54566836260E+01
 0.48961034779E+01 0.51816733601E+01 0.46033668216E+01 0.41543518195E+01 0.38427987764E+01
 0.36664873935E+01 0.36186851820E+01 0.36935679502E+01 0.38895275647E+01 0.42091231759E+01
 0.46558319312E+01 0.52292579204E+01 0.59204688071E+01 0.67079897517E+01 0.75545839462E+01
 0.84060150210E+01 0.91942257767E+01 0.98469842751E+01 0.10303149500E+02 0.10528186179E+02
 0.10521732199E+02 0.10311801290E+02 0.99385198492E+01 0.94374543235E+01 0.88330491452E+01
 0.81439964323E+01 0.73941574520E+01 0.66195586541E+01 0.58663616409E+01 0.62618808630E+01
 0.54494045102E+01 0.47621026913E+01 0.42245800318E+01 0.38429336158E+01 0.36124875568E+01
 0.35256906921E+01 0.35778178432E+01 0.37694113833E+01 0.41053384725E+01 0.45913422672E+01
 0.52292579204E+01 0.60113589033E+01 0.69140069868E+01 0.78920444640E+01 0.88772377232E+01
 0.97845941228E+01 0.10528163748E+02 0.11041926430E+02 0.11289234838E+02 0.11288511044E+02
 0.11098207985E+02 0.10763471481E+02 0.10290702602E+02 0.96697215485E+01 0.89153886366E+01
 0.80594311902E+01 0.71529903751E+01 0.76521531942E+01 0.66217168814E+01 0.56851322805E+01
 0.48966598206E+01 0.42816400177E+01 0.38436410994E+01 0.35754300788E+01 0.34685537919E+01
 0.35190511646E+01 0.37290564581E+01 0.41053384725E+01 0.46558319312E+01 0.53841240991E+01
 0.62813554742E+01 0.73166460824E+01 0.84299784117E+01 0.95329660080E+01 0.10521714645E+02
 0.11289222909E+02 0.11737124415E+02 0.11876174226E+02 0.11809899907E+02 0.11645393619E+02
 0.11413023490E+02 0.11052545372E+02 0.10476695144E+02 0.96657199109E+01 0.86964410312E+01
 0.92691679228E+01 0.80891293254E+01 0.69258868882E+01 0.58757501945E+01 0.49994382701E+01
 0.43221142790E+01 0.38444559879E+01 0.35566406429E+01 0.34493010419E+01 0.35190511646E+01
 0.37694113833E+01 0.42091231759E+01 0.48482603383E+01 0.56905643395E+01 0.67215108048E+01
 0.78956833123E+01 0.91303161247E+01 0.10311802566E+02 0.11288498982E+02 0.11876186962E+02
 0.12043166161E+02 0.11935231393E+02 0.11772643123E+02 0.11701966431E+02 0.11698033702E+02
 0.11584002633E+02 0.11159112322E+02 0.10348550696E+02 0.10912961863E+02 0.97466421851E+01
 0.84397141256E+01 0.71570506707E+01 0.60099750400E+01 0.50640327612E+01 0.43431690290E+01
 0.38448112572E+01 0.35566406429E+01 0.34685537919E+01 0.35778178432E+01 0.38895275647E+01
 0.44146783799E+01 0.51647756255E+01 0.61403129298E+01 0.73143323346E+01 0.86181428932E+01
 0.99385408559E+01 0.11098187634E+02 0.11809902376E+02 0.11935279337E+02 0.11606735182E+02
 0.11160336534E+02 0.10944205947E+02 0.11109484169E+02 0.11514823109E+02 0.11810731404E+02
 0.11653454296E+02 0.11951067862E+02 0.11330103188E+02 0.10104606685E+02 0.86846649277E+01
 0.73016088341E+01 0.60793656591E+01 0.50860826801E+01 0.43431690290E+01 0.38444559879E+01
 0.35754300788E+01 0.35256906921E+01 0.36935679502E+01 0.40862387351E+01 0.47170176030E+01
 0.55968612707E+01 0.67176102287E+01 0.80314861589E+01 0.94374950555E+01 0.10763463723E+02
 0.11645345669E+02 0.11772666721E+02 0.11160419884E+02 0.10180757253E+02 0.93952488173E+01
 0.92599279246E+01 0.98674140754E+01 0.10887120895E+02 0.11747621937E+02 0.11493812391E+02
 0.12091329801E+02 0.11597349240E+02 0.10325663998E+02 0.88105855997E+01 0.73508057017E+01
 0.60793656591E+01 0.50640327612E+01 0.43221142790E+01 0.38436410994E+01 0.36124875568E+01
 0.36186851820E+01 0.38623600333E+01 0.43533715447E+01 0.51067135609E+01 0.61292407409E+01
 0.73971777834E+01 0.88330824984E+01 0.10290751463E+02 0.11412974713E+02 0.11701894275E+02
 0.10944250661E+02 0.93953521752E+01 0.77235664718E+01 0.67156601167E+01 0.68781240454E+01
 0.81600994222E+01 0.99718376561E+01 0.90210687364E+01 0.11198116297E+02 0.12137614599E+02
 0.11725814636E+02 0.10400233118E+02 0.88105855997E+01 0.73016088341E+01 0.60099750400E+01
 0.49994382701E+01 0.42816400177E+01 0.38429336158E+01 0.36664873935E+01 0.37437656585E+01
 0.40776200325E+01 0.46809250321E+01 0.55686449757E+01 0.67386176276E+01 0.81439713167E+01
 0.96698019964E+01 0.11052590237E+02 0.11697945999E+02 0.11109403287E+02 0.92599836245E+01
 0.67157526130E+01 0.44599662610E+01 0.34580464025E+01 0.41756482516E+01 0.63282904711E+01
 0.47860056840E+01 0.83087304013E+01 0.11005801522E+02 0.12145717308E+02 0.11725814636E+02
 0.10325663998E+02 0.86846649277E+01 0.71570506707E+01 0.58757501945E+01 0.48966598206E+01
 0.42245800318E+01 0.38427987764E+01 0.37349926013E+01 0.38952264119E+01 0.43299401258E+01
 0.50547122048E+01 0.60816610975E+01 0.73940780974E+01 0.89154038629E+01 0.10476812086E+02
 0.11584030381E+02 0.11514718208E+02 0.98673492773E+01 0.68781709744E+01 0.34580904410E+01
 0.87209621840E+00 0.17175901274E+00 0.16728690184E+01 -.97103320691E-01 0.39051313292E+01
 0.80450608172E+01 0.11005801522E+02 0.12137614599E+02 0.11597349240E+02 0.10104606685E+02
 0.84397141256E+01 0.69258868882E+01 0.56851322805E+01 0.47621026913E+01 0.41543518195E+01
 0.38432635572E+01 0.38144317425E+01 0.40656405091E+01 0.46073791384E+01 0.54567630009E+01
 0.66195194007E+01 0.80593534227E+01 0.96657779329E+01 0.11159234867E+02 0.11810734023E+02
 0.10887036562E+02 0.81600764858E+01 0.41756640188E+01 0.17172640621E+00 -.23927030288E+01
 -.25039613580E+01 -.40063212454E+01 -.73618384926E+00 0.39051313292E+01 0.83087304013E+01
 0.11198116297E+02 0.12091329801E+02 0.11330103188E+02 0.97466421851E+01 0.80891293254E+01
 0.66217168814E+01 0.54494045102E+01 0.46033668216E+01 0.40745067881E+01 0.38439120410E+01
 0.39004669048E+01 0.42464548766E+01 0.48962089139E+01 0.58664413050E+01 0.71529261724E+01
 0.86963885771E+01 0.10348632525E+02 0.11653539727E+02 0.11747600484E+02 0.99718133336E+01
 0.63283253104E+01 0.16728402177E+01 -.25040732760E+01 -.46792686801E+01 -.40060170832E+01
 -.29651807730E+01 0.41047951327E+00 0.48592927417E+01 0.88553233527E+01 0.11272801150E+02
 0.11775611760E+02 0.10791610359E+02 0.91585426945E+01 0.75272314321E+01 0.61116074788E+01
 0.50013557267E+01 0.42166632681E+01 0.37420913483E+01 0.35562739864E+01 0.36485668941E+01
 0.40240980599E+01 0.47011722221E+01 0.56987271664E+01 0.70099712145E+01 0.85676875797E+01
 0.10209611428E+02 0.11431659706E+02 0.11384709740E+02 0.94923335987E+01 0.58670064526E+01
 0.14402902130E+01 -.23160751513E+01 -.29653357662E+01 -.40060612391E+01 -.23160094526E+01
 0.14403164255E+01 0.58669991936E+01 0.94924168370E+01 0.11384851655E+02 0.11431726227E+02
 0.10209632029E+02 0.85677875090E+01 0.70101022397E+01 0.56987423383E+01 0.47011047002E+01
 0.40240943058E+01 0.36486106287E+01 0.35562449021E+01 0.37420235932E+01 0.42166736193E+01
 0.50013889440E+01 0.61115236743E+01 0.75270721263E+01 0.91584460984E+01 0.10791548391E+02
 0.11775479864E+02 0.11272673298E+02 0.88553333536E+01 0.48593524083E+01 0.41040658212E+00
 0.55140269328E+00 -.21627584549E+01 -.25037639541E+01 -.36544435322E+00 0.33909774872E+01
 0.73641968470E+01 0.10262270031E+02 0.11419832858E+02 0.10951196524E+02 0.95328862527E+01
 0.79305162434E+01 0.64742483146E+01 0.52872529363E+01 0.44138600307E+01 0.38497667017E+01
 0.35748314474E+01 0.35751538057E+01 0.38515776451E+01 0.44194058415E+01 0.53007449257E+01
 0.65052129673E+01 0.79991153205E+01 0.96738523006E+01 0.11258962393E+02 0.12026413411E+02
 0.11217683903E+02 0.85739848371E+01 0.46131994607E+01 0.52104742405E+01 0.18409489061E+01
 -.83157997148E-01 0.17188484024E+00 0.24550771157E+01 0.58148150558E+01 0.89731052157E+01
 0.10911481262E+02 0.11258230121E+02 0.10319694633E+02 0.88020510453E+01 0.72777917721E+01
 0.59461109787E+01 0.48964684755E+01 0.41520708001E+01 0.37007240601E+01 0.35237365244E+01
 0.36124329779E+01 0.39727582177E+01 0.46230031711E+01 0.55841810386E+01 0.68588279017E+01
 0.84007322283E+01 0.10087609468E+02 0.11606589258E+02 0.12229517076E+02 0.11316049164E+02
 0.87663903405E+01 0.94050047210E+01 0.65167095029E+01 0.39907593028E+01 0.28245952911E+01
 0.34580905719E+01 0.55574294293E+01 0.81964981007E+01 0.10322695655E+02 0.11236774459E+02
 0.10840892696E+02 0.95695301495E+01 0.80582705796E+01 0.66417981155E+01 0.54510151608E+01
 0.45438744782E+01 0.39266305159E+01 0.35830127164E+01 0.34975851199E+01 0.36666745107E+01
 0.40999847259E+01 0.48170064238E+01 0.58359700044E+01 0.71519275383E+01 0.87086256746E+01
 0.10376254362E+02 0.11830945114E+02 0.12404161733E+02 0.11587396484E+02 0.11964270944E+02
 0.10324026195E+02 0.82218276259E+01 0.65315360410E+01 0.59660385280E+01 0.67156171808E+01
 0.83584475017E+01 0.10093404919E+02 0.11150584116E+02 0.11143941427E+02 0.10191764600E+02
 0.87766125426E+01 0.73390521004E+01 0.60538105383E+01 0.50117013880E+01 0.42444018848E+01
 0.37466304319E+01 0.35014990333E+01 0.34976257195E+01 0.37353656114E+01 0.42265866866E+01
 0.49903123524E+01 0.60408049971E+01 0.73660784011E+01 0.89030498716E+01 0.10520874842E+02
 0.11920567456E+02 0.12529734604E+02 0.12550299122E+02 0.12314290968E+02 0.11272104347E+02
 0.99330814263E+01 0.89464490933E+01 0.87626075218E+01 0.93951311812E+01 0.10425239653E+02
 0.11240929054E+02 0.11362220097E+02 0.10667220061E+02 0.94109459178E+01 0.80091967099E+01
 0.66816277757E+01 0.55416522371E+01 0.46469004310E+01 0.40098274922E+01 0.36190795043E+01
 0.34595864717E+01 0.35238405645E+01 0.38148921322E+01 0.43452778027E+01 0.51322088385E+01
 0.61853325555E+01 0.74866614980E+01 0.89696318671E+01 0.10508024880E+02 0.11854445096E+02
 0.11609914324E+02 0.12396571068E+02 0.12486411928E+02 0.11991080287E+02 0.11287517877E+02
 0.10807929280E+02 0.10793282320E+02 0.11160178294E+02 0.11560897721E+02 0.11594032326E+02
 0.11033929914E+02 0.99473772671E+01 0.86296398459E+01 0.73124756735E+01 0.61190791488E+01
 0.51275229360E+01 0.43704687072E+01 0.38485430354E+01 0.35487742738E+01 0.34590596126E+01
 0.35749465533E+01 0.39009076608E+01 0.44489856388E+01 0.52336413021E+01 0.62597250408E+01
 0.75045637491E+01 0.89011487908E+01 0.10332003266E+02 0.99978740798E+01 0.11176785087E+02
 0.12016440568E+02 0.12363987309E+02 0.12293062002E+02 0.12046609453E+02 0.11874962370E+02
 0.11875267690E+02 0.11935075943E+02 0.11813281738E+02 0.11302299235E+02 0.10367577723E+02
 0.91763881332E+01 0.79224266708E+01 0.67261366782E+01 0.56773633177E+01 0.48270029969E+01
 0.41914231306E+01 0.37658118852E+01 0.35384198150E+01 0.35001625937E+01 0.36486604625E+01
 0.39889010632E+01 0.45317088241E+01 0.52882718080E+01 0.62588025884E+01 0.74172846810E+01
 0.86988207313E+01 0.83728551788E+01 0.95220554852E+01 0.10571316653E+02 0.11401808506E+02
 0.11905473109E+02 0.12110602108E+02 0.12145204355E+02 0.12126233982E+02 0.12068576525E+02
 0.11876054581E+02 0.11418168338E+02 0.10638143957E+02 0.96154354768E+01 0.84802600108E+01
 0.73379696721E+01 0.62812144384E+01 0.53742353749E+01 0.46494999070E+01 0.41147874729E+01
 0.37643583206E+01 0.35888968538E+01 0.35817897228E+01 0.37420059291E+01 0.40746511224E+01
 0.45890574314E+01 0.52929942453E+01 0.61824180722E+01 0.72292435748E+01 0.69513952939E+01
 0.79421598215E+01 0.89323036256E+01 0.98409090248E+01 0.10601047188E+02 0.11159229325E+02
 0.11506429699E+02 0.11685769392E+02 0.11729451267E+02 0.11616997346E+02 0.11289161814E+02
 0.10706438708E+02 0.99015655048E+01 0.89446835637E+01 0.79197925193E+01 0.69141443317E+01
 0.59989029276E+01 0.52200889047E+01 0.45997362309E+01 0.41427592244E+01 0.38449171433E+01
 0.36994083694E+01 0.37015303857E+01 0.38513974942E+01 0.41543486859E+01 0.46183363029E+01
 0.52478615588E+01 0.60351723632E+01 0.58257824026E+01 0.66003979417E+01 0.74331771562E+01
 0.82658144414E+01 0.90399670134E+01 0.97099502402E+01 0.10249143522E+02 0.10644495716E+02
 0.10888204519E+02 0.10967503474E+02 0.10855107211E+02 0.10528150657E+02 0.99886734235E+01
 0.92684925502E+01 0.84277128038E+01 0.75403235852E+01 0.66767429140E+01 0.58916063859E+01
 0.52199077766E+01 0.46794149946E+01 0.42755432973E+01 0.40063511884E+01 0.38672648366E+01
 0.38554055796E+01 0.39724312289E+01 0.42244252918E+01 0.46183130481E+01 0.51556729890E+01
 0.50215661548E+01 0.55664090780E+01 0.61974632692E+01 0.68777796472E+01 0.75655320478E+01
 0.82216268793E+01 0.88153600053E+01 0.93248105562E+01 0.97316061156E+01 0.10013958315E+02
 0.10144099960E+02 0.10093942432E+02 0.98469892837E+01 0.94096104308E+01 0.88146562150E+01
 0.81151586049E+01 0.73717777689E+01 0.66404470726E+01 0.59649516235E+01 0.53750892755E+01
 0.48881300922E+01 0.45113419752E+01 0.42451427172E+01 0.40872921440E+01 0.40374051557E+01
 0.40995928556E+01 0.42813587315E+01 0.45889798736E+01 0.45315564396E+01 0.48528038171E+01
 0.52720121004E+01 0.57668392470E+01 0.63102927591E+01 0.68752883754E+01 0.74377068647E+01
 0.79767267146E+01 0.84722188017E+01 0.89006345410E+01 0.92324699933E+01 0.94344267527E+01
 0.94769059517E+01 0.93438259683E+01 0.90397508697E+01 0.85906071680E+01 0.80378570538E+01
 0.74292784643E+01 0.68104257155E+01 0.62192639683E+01 0.56840113576E+01 0.52229298788E+01
 0.48453643797E+01 0.45543903107E+01 0.43511390578E+01 0.42391778404E+01 0.42262333110E+01
 0.43217516093E+01 0.43427763239E+01 0.44487373425E+01 0.46586595797E+01 0.49595540591E+01
 0.53338584494E+01 0.57640398592E+01 0.62349044395E+01 0.67328181056E+01 0.72428293603E+01
 0.77452966514E+01 0.82135885037E+01 0.86143625138E+01 0.89114127131E+01 0.90725723107E+01
 0.90773620449E+01 0.89223831221E+01 0.86224054058E+01 0.82069731645E+01 0.77140595739E+01
 0.71831057238E+01 0.66494228576E+01 0.61408335440E+01 0.56765497193E+01 0.52681762069E+01
 0.49227482679E+01 0.46469276995E+01 0.44502349288E+01 0.43450318645E+01 0.44488557739E+01
 0.43427952787E+01 0.43449346803E+01 0.44501102250E+01 0.46468483582E+01 0.49227050450E+01
 0.52681357826E+01 0.56765067257E+01 0.61407887682E+01 0.66493707024E+01 0.71830615504E+01
 0.77140506989E+01 0.82069919855E+01 0.86224158504E+01 0.89223759493E+01 0.90773577626E+01
 0.90725724304E+01 0.89113997424E+01 0.86143473329E+01 0.82136063041E+01 0.77453545470E+01
 0.72429024294E+01 0.67328905677E+01 0.62349703866E+01 0.57640807498E+01 0.53338745893E+01
 0.49595980506E+01 0.46587707865E+01 0.48528526010E+01 0.45316600410E+01 0.43218047255E+01
 0.42261928878E+01 0.42390980598E+01 0.43510719362E+01 0.45543357520E+01 0.48453189223E+01
 0.52229052420E+01 0.56839963398E+01 0.62192339200E+01 0.68103931849E+01 0.74292757204E+01
 0.80378737123E+01 0.85906048042E+01 0.90397302324E+01 0.93438189855E+01 0.94769130260E+01
 0.94344245471E+01 0.92324693915E+01 0.89006690398E+01 0.84722876984E+01 0.79768062560E+01
 0.74377955522E+01 0.68753810391E+01 0.63103417108E+01 0.57668164326E+01 0.52719824897E+01
 0.55663022017E+01 0.50215399509E+01 0.45890478414E+01 0.42814342440E+01 0.40996244437E+01
 0.40374047182E+01 0.40872651965E+01 0.42450874591E+01 0.45112942459E+01 0.48881249803E+01
 0.53750999940E+01 0.59649369265E+01 0.66404258845E+01 0.73717864503E+01 0.81151746677E+01
 0.88146397265E+01 0.94095818479E+01 0.98469916896E+01 0.10093965961E+02 0.10144115317E+02
 0.10013982324E+02 0.97316635423E+01 0.93248782718E+01 0.88154182456E+01 0.82217084932E+01
 0.75656435965E+01 0.68778373486E+01 0.61974018756E+01 0.66003115416E+01 0.58256337270E+01
 0.51555988330E+01 0.46183425845E+01 0.42245031465E+01 0.39725194792E+01 0.38554766653E+01
 0.38672731348E+01 0.40062981717E+01 0.42755047439E+01 0.46794347195E+01 0.52199356002E+01
 0.58915987581E+01 0.66767382348E+01 0.75403543809E+01 0.84277343066E+01 0.92684689182E+01
 0.99886490597E+01 0.10528168401E+02 0.10855140317E+02 0.10967529658E+02 0.10888255848E+02
 0.10644574847E+02 0.10249190163E+02 0.97099548890E+01 0.90400104762E+01 0.82659196099E+01
 0.74332309821E+01 0.79421858423E+01 0.69513040576E+01 0.60350375385E+01 0.52477848771E+01
 0.46183335476E+01 0.41544041295E+01 0.38515035376E+01 0.37016305261E+01 0.36994232755E+01
 0.38448667412E+01 0.41427456997E+01 0.45997836422E+01 0.52201216710E+01 0.59988977411E+01
 0.69141656974E+01 0.79198542220E+01 0.89447145526E+01 0.99015439956E+01 0.10706427729E+02
 0.11289185679E+02 0.11617014666E+02 0.11729468631E+02 0.11685840099E+02 0.11506519875E+02
 0.11159235975E+02 0.10600977458E+02 0.98408879567E+01 0.89323658845E+01 0.95220442167E+01
 0.83728295581E+01 0.72291656319E+01 0.61823438333E+01 0.52929495966E+01 0.45890269469E+01
 0.40746636379E+01 0.37420879729E+01 0.35818682704E+01 0.35888890910E+01 0.37643160968E+01
 0.41148127269E+01 0.46495698833E+01 0.53742607490E+01 0.62812139341E+01 0.73380259520E+01
 0.84803511072E+01 0.96154718819E+01 0.10638130007E+02 0.11418171468E+02 0.11876063317E+02
 0.12068546481E+02 0.12126219938E+02 0.12145277617E+02 0.12110685294E+02 0.11905431915E+02
 0.11401670022E+02 0.10571225240E+02 0.11176646620E+02 0.99977823691E+01 0.86987350506E+01
 0.74172322933E+01 0.62588064673E+01 0.52882654449E+01 0.45316511744E+01 0.39888656709E+01
 0.36486955387E+01 0.35001880991E+01 0.35383796035E+01 0.37657915599E+01 0.41914927145E+01
 0.48270822621E+01 0.56773742406E+01 0.67261498626E+01 0.79225192407E+01 0.91764917413E+01
 0.10367605870E+02 0.11302293090E+02 0.11813294821E+02 0.11935052185E+02 0.11875174729E+02
 0.11874906326E+02 0.12046665122E+02 0.12293116855E+02 0.12363906303E+02 0.12016269233E+02
 0.12396421017E+02 0.11609774480E+02 0.10331854845E+02 0.89010201899E+01 0.75045452321E+01
 0.62597937799E+01 0.52336549300E+01 0.44489046349E+01 0.39008416263E+01 0.35749399019E+01
 0.34590318023E+01 0.35487164445E+01 0.38485615338E+01 0.43705760829E+01 0.51275944608E+01
 0.61190777671E+01 0.73125138499E+01 0.86297569140E+01 0.99474627491E+01 0.11033931590E+02
 0.11594033127E+02 0.11560920840E+02 0.11160126609E+02 0.10793145284E+02 0.10807843475E+02
 0.11287539172E+02 0.11991087023E+02 0.12486311522E+02 0.12314195660E+02 0.12550220549E+02
 0.11854351930E+02 0.10507864981E+02 0.89695003221E+01 0.74866842003E+01 0.61854357188E+01
 0.51322180503E+01 0.43451888879E+01 0.38148300696E+01 0.35238174975E+01 0.34595290089E+01
 0.36190329699E+01 0.40098946516E+01 0.46470263175E+01 0.55417008613E+01 0.66816242318E+01
 0.80092654674E+01 0.94110614104E+01 0.10667252726E+02 0.11362182433E+02 0.11240939379E+02
 0.10425281448E+02 0.93950828254E+01 0.87624796041E+01 0.89463669023E+01 0.99330596470E+01
 0.11272050342E+02 0.10323913063E+02 0.11964202596E+02 0.12529753112E+02 0.11920548886E+02
 0.10520750509E+02 0.89029629615E+01 0.73661473518E+01 0.60409111909E+01 0.49903039896E+01
 0.42265164091E+01 0.37353427804E+01 0.34976120047E+01 0.35014411443E+01 0.37466207954E+01
 0.42445114726E+01 0.50118170127E+01 0.60538264697E+01 0.73390577465E+01 0.87767044529E+01
 0.10191844635E+02 0.11143897845E+02 0.11150508578E+02 0.10093429678E+02 0.83585175126E+01
 0.67156137568E+01 0.59659835208E+01 0.65314957414E+01 0.82217639098E+01 0.65166146083E+01
 0.94048539727E+01 0.11587371645E+02 0.12404269664E+02 0.11830997368E+02 0.10376195865E+02
 0.87086180498E+01 0.71520389530E+01 0.58360560031E+01 0.48169836231E+01 0.40999585790E+01
 0.36667062755E+01 0.34975890499E+01 0.35829730696E+01 0.39266668016E+01 0.45440020599E+01
 0.54510890331E+01 0.66417776207E+01 0.80582896118E+01 0.95696231236E+01 0.10840908521E+02
 0.11236656721E+02 0.10322600723E+02 0.81965371161E+01 0.55575219458E+01 0.34581544091E+01
 0.28246515273E+01 0.39907822228E+01 0.18410257498E+01 0.52103669518E+01 0.87662424460E+01
 0.11316078422E+02 0.12229679394E+02 0.11606681776E+02 0.10087621951E+02 0.84008105809E+01
 0.68589633631E+01 0.55842326047E+01 0.46229776699E+01 0.39727845930E+01 0.36125037150E+01
 0.35237447089E+01 0.37007056349E+01 0.41521422326E+01 0.48965780618E+01 0.59461182342E+01
 0.72777364104E+01 0.88020754808E+01 0.10319757911E+02 0.11258171865E+02 0.10911321982E+02
 0.89730202317E+01 0.58148554788E+01 0.24551608506E+01 0.17199759237E+00 -.83003160620E-01
 -.21625654855E+01 0.55149808242E+00 0.46131039092E+01 0.85738878650E+01 0.11217768798E+02
 0.12026582472E+02 0.11259055043E+02 0.96739198811E+01 0.79992560320E+01 0.65053404295E+01
 0.53007544967E+01 0.44193869545E+01 0.38516406670E+01 0.35752240273E+01 0.35748205631E+01
 0.38497626988E+01 0.44139426298E+01 0.52873099460E+01 0.64741799544E+01 0.79304324317E+01
 0.95328979443E+01 0.10951202024E+02 0.11419715666E+02 0.10262122509E+02 0.73641500359E+01
 0.33909954494E+01 -.36541708798E+00 -.25036563689E+01 -.96278320236E-01 0.55203156618E+00
 0.31510959409E+01 0.66933549013E+01 0.98892493750E+01 0.11749557968E+02 0.11954675596E+02
 0.10863787145E+02 0.92171249246E+01 0.75834738262E+01 0.61576132140E+01 0.50274265383E+01
 0.42139167182E+01 0.37018647559E+01 0.34684817637E+01 0.35002488302E+01 0.37987463710E+01
 0.43798184073E+01 0.52642005276E+01 0.64548134640E+01 0.79045472358E+01 0.94891700373E+01
 0.10890637905E+02 0.11397805417E+02 0.10416082039E+02 0.78980899393E+01 0.45094290877E+01
 0.14407406861E+01 0.41095935180E+00 -.73526823743E+00 0.41105641240E+00 0.33860032572E+01
 0.70306229116E+01 0.10049322439E+02 0.11576222226E+02 0.11465436827E+02 0.10209752640E+02
 0.85750568249E+01 0.70202285626E+01 0.57019155034E+01 0.46885350345E+01 0.39883667809E+01
 0.35820140982E+01 0.34491354992E+01 0.35819346155E+01 0.39883352077E+01 0.46885567892E+01
 0.57018709813E+01 0.70201226902E+01 0.85750256869E+01 0.10209811446E+02 0.11465459699E+02
 0.11576180664E+02 0.10049309167E+02 0.70306361881E+01 0.33859467250E+01 0.31510353759E+01
 0.55195350848E+00 -.96251539467E-01 0.14408216187E+01 0.45094498063E+01 0.78980863745E+01