   2   2   0   0
  0.1529437E+02  0.3691622E-09  0.3691622E-09  0.3691622E-09  0.5000000E-15
  1.000000000000000E-004
  CAR 
 unknown system                          
     23.75526127     -6.50251614  301      9.07764825      1.00000000
     -6.503  0.0000E+00  0.0000E+00
     -6.402  0.0000E+00  0.0000E+00
     -6.301  0.0000E+00  0.0000E+00
     -6.200  0.0000E+00  0.0000E+00
     -6.099  0.0000E+00  0.0000E+00
     -5.998  0.0000E+00  0.0000E+00
     -5.897  0.0000E+00  0.0000E+00
     -5.797  0.0000E+00  0.0000E+00
     -5.696  0.0000E+00  0.0000E+00
     -5.595  0.5848E-16  0.5898E-17
     -5.494  0.1222E-13  0.1238E-14
     -5.393  0.1554E-11  0.1579E-12
     -5.292  0.1199E-09  0.1225E-10
     -5.191  0.5620E-08  0.5791E-09
     -5.090  0.1604E-06  0.1676E-07
     -4.990  0.2791E-05  0.2983E-06
     -4.889  0.2969E-04  0.3293E-05
     -4.788  0.1936E-03  0.2282E-04
     -4.687  0.7790E-03  0.1014E-03
     -4.586  0.1965E-02  0.2996E-03
     -4.485  0.3272E-02  0.6296E-03
     -4.384  0.4265E-02  0.1060E-02
     -4.284  0.6039E-02  0.1669E-02
     -4.183  0.9803E-02  0.2658E-02
     -4.082  0.1371E-01  0.4040E-02
     -3.981  0.1455E-01  0.5507E-02
     -3.880  0.1242E-01  0.6760E-02
     -3.779  0.9718E-02  0.7740E-02
     -3.678  0.8219E-02  0.8569E-02
     -3.578  0.9320E-02  0.9509E-02
     -3.477  0.1407E-01  0.1093E-01
     -3.376  0.2129E-01  0.1308E-01
     -3.275  0.2551E-01  0.1565E-01
     -3.174  0.2208E-01  0.1788E-01
     -3.073  0.1618E-01  0.1951E-01
     -2.972  0.1604E-01  0.2113E-01
     -2.872  0.1993E-01  0.2314E-01
     -2.771  0.2077E-01  0.2523E-01
     -2.670  0.1829E-01  0.2708E-01
     -2.569  0.1744E-01  0.2883E-01
     -2.468  0.1962E-01  0.3081E-01
     -2.367  0.2243E-01  0.3308E-01
     -2.266  0.2463E-01  0.3556E-01
     -2.166  0.2615E-01  0.3820E-01
     -2.065  0.2512E-01  0.4073E-01
     -1.964  0.2213E-01  0.4296E-01
     -1.863  0.2400E-01  0.4538E-01
     -1.762  0.3208E-01  0.4862E-01
     -1.661  0.3565E-01  0.5221E-01
     -1.560  0.2847E-01  0.5509E-01
     -1.460  0.1773E-01  0.5687E-01
     -1.359  0.1124E-01  0.5801E-01
     -1.258  0.1152E-01  0.5917E-01
     -1.157  0.2024E-01  0.6121E-01
     -1.056  0.3642E-01  0.6489E-01
     -0.955  0.5122E-01  0.7005E-01
     -0.854  0.5261E-01  0.7536E-01
     -0.754  0.4106E-01  0.7950E-01
     -0.653  0.3046E-01  0.8257E-01
     -0.552  0.2842E-01  0.8544E-01
     -0.451  0.2973E-01  0.8844E-01
     -0.350  0.2871E-01  0.9133E-01
     -0.249  0.2522E-01  0.9388E-01
     -0.148  0.2170E-01  0.9607E-01
     -0.048  0.2117E-01  0.9820E-01
      0.053  0.2465E-01  0.1007E+00
      0.154  0.2854E-01  0.1036E+00
      0.255  0.2947E-01  0.1065E+00
      0.356  0.3126E-01  0.1097E+00
      0.457  0.3972E-01  0.1137E+00
      0.558  0.5232E-01  0.1190E+00
      0.658  0.5864E-01  0.1249E+00
      0.759  0.5219E-01  0.1302E+00
      0.860  0.3936E-01  0.1341E+00
      0.961  0.3143E-01  0.1373E+00
      1.062  0.3166E-01  0.1405E+00
      1.163  0.3878E-01  0.1444E+00
      1.264  0.5048E-01  0.1495E+00
      1.365  0.5858E-01  0.1554E+00
      1.465  0.5680E-01  0.1611E+00
      1.566  0.4916E-01  0.1661E+00
      1.667  0.4127E-01  0.1702E+00
      1.768  0.3276E-01  0.1736E+00
      1.869  0.2364E-01  0.1759E+00
      1.970  0.1724E-01  0.1777E+00
      2.071  0.1568E-01  0.1793E+00
      2.171  0.1865E-01  0.1811E+00
      2.272  0.2424E-01  0.1836E+00
      2.373  0.2977E-01  0.1866E+00
      2.474  0.3310E-01  0.1899E+00
      2.575  0.3509E-01  0.1935E+00
      2.676  0.4115E-01  0.1976E+00
      2.777  0.5307E-01  0.2030E+00
      2.877  0.6280E-01  0.2093E+00
      2.978  0.6392E-01  0.2157E+00
      3.079  0.5874E-01  0.2217E+00
      3.180  0.5086E-01  0.2268E+00
      3.281  0.4185E-01  0.2310E+00
      3.382  0.3313E-01  0.2344E+00
      3.483  0.2624E-01  0.2370E+00
      3.583  0.2325E-01  0.2394E+00
      3.684  0.2699E-01  0.2421E+00
      3.785  0.3681E-01  0.2458E+00
      3.886  0.4419E-01  0.2502E+00
      3.987  0.4176E-01  0.2545E+00
      4.088  0.3359E-01  0.2578E+00
      4.189  0.2837E-01  0.2607E+00
      4.289  0.3121E-01  0.2639E+00
      4.390  0.4268E-01  0.2682E+00
      4.491  0.5913E-01  0.2741E+00
      4.592  0.7271E-01  0.2815E+00
      4.693  0.7691E-01  0.2892E+00
      4.794  0.7494E-01  0.2968E+00
      4.895  0.7105E-01  0.3039E+00
      4.995  0.6183E-01  0.3102E+00
      5.096  0.4762E-01  0.3150E+00
      5.197  0.3703E-01  0.3187E+00
      5.298  0.3280E-01  0.3220E+00
      5.399  0.2904E-01  0.3249E+00
      5.500  0.2548E-01  0.3275E+00
      5.601  0.2874E-01  0.3304E+00
      5.701  0.4062E-01  0.3345E+00
      5.802  0.5571E-01  0.3401E+00
      5.903  0.6891E-01  0.3471E+00
      6.004  0.7878E-01  0.3550E+00
      6.105  0.8279E-01  0.3634E+00
      6.206  0.7650E-01  0.3711E+00
      6.307  0.5964E-01  0.3771E+00
      6.407  0.4125E-01  0.3813E+00
      6.508  0.3412E-01  0.3847E+00
      6.609  0.4299E-01  0.3890E+00
      6.710  0.6052E-01  0.3952E+00
      6.811  0.7126E-01  0.4023E+00
      6.912  0.6494E-01  0.4089E+00
      7.013  0.5168E-01  0.4141E+00
      7.113  0.4947E-01  0.4191E+00
      7.214  0.5922E-01  0.4251E+00
      7.315  0.7222E-01  0.4323E+00
      7.416  0.8588E-01  0.4410E+00
      7.517  0.9595E-01  0.4507E+00
      7.618  0.9443E-01  0.4602E+00
      7.719  0.8063E-01  0.4683E+00
      7.819  0.6402E-01  0.4748E+00
      7.920  0.5487E-01  0.4803E+00
      8.021  0.5248E-01  0.4856E+00
      8.122  0.4950E-01  0.4906E+00
      8.223  0.4390E-01  0.4950E+00
      8.324  0.3754E-01  0.4988E+00
      8.425  0.3231E-01  0.5021E+00
      8.526  0.3259E-01  0.5054E+00
      8.626  0.3888E-01  0.5093E+00
      8.727  0.4401E-01  0.5137E+00
      8.828  0.4668E-01  0.5184E+00
      8.929  0.5410E-01  0.5239E+00
      9.030  0.6323E-01  0.5303E+00
      9.131  0.6142E-01  0.5365E+00
      9.232  0.4915E-01  0.5414E+00
      9.332  0.4032E-01  0.5455E+00
      9.433  0.4245E-01  0.5498E+00
      9.534  0.4987E-01  0.5548E+00
      9.635  0.5161E-01  0.5600E+00
      9.736  0.4355E-01  0.5644E+00
      9.837  0.3184E-01  0.5676E+00
      9.938  0.2343E-01  0.5700E+00
     10.038  0.2121E-01  0.5721E+00
     10.139  0.2657E-01  0.5748E+00
     10.240  0.3781E-01  0.5786E+00
     10.341  0.5022E-01  0.5837E+00
     10.442  0.6031E-01  0.5898E+00
     10.543  0.6439E-01  0.5963E+00
     10.644  0.5921E-01  0.6022E+00
     10.744  0.4870E-01  0.6071E+00
     10.845  0.4274E-01  0.6115E+00
     10.946  0.5011E-01  0.6165E+00
     11.047  0.7065E-01  0.6236E+00
     11.148  0.8833E-01  0.6325E+00
     11.249  0.8473E-01  0.6411E+00
     11.350  0.6520E-01  0.6477E+00
     11.450  0.5075E-01  0.6528E+00
     11.551  0.4941E-01  0.6578E+00
     11.652  0.5607E-01  0.6634E+00
     11.753  0.6444E-01  0.6699E+00
     11.854  0.7121E-01  0.6771E+00
     11.955  0.7924E-01  0.6851E+00
     12.056  0.9041E-01  0.6942E+00
     12.156  0.9827E-01  0.7041E+00
     12.257  0.9662E-01  0.7139E+00
     12.358  0.8661E-01  0.7226E+00
     12.459  0.7124E-01  0.7298E+00
     12.560  0.5093E-01  0.7349E+00
     12.661  0.2986E-01  0.7379E+00
     12.762  0.1735E-01  0.7397E+00
     12.862  0.1678E-01  0.7414E+00
     12.963  0.2454E-01  0.7439E+00
     13.064  0.4006E-01  0.7479E+00
     13.165  0.6343E-01  0.7543E+00
     13.266  0.8622E-01  0.7630E+00
     13.367  0.9623E-01  0.7727E+00
     13.468  0.8933E-01  0.7817E+00
     13.568  0.7128E-01  0.7889E+00
     13.669  0.5387E-01  0.7943E+00
     13.770  0.4880E-01  0.7992E+00
     13.871  0.5698E-01  0.8050E+00
     13.972  0.7031E-01  0.8121E+00
     14.073  0.8417E-01  0.8206E+00
     14.174  0.9585E-01  0.8302E+00
     14.274  0.9708E-01  0.8400E+00
     14.375  0.8483E-01  0.8486E+00
     14.476  0.7162E-01  0.8558E+00
     14.577  0.7221E-01  0.8631E+00
     14.678  0.8315E-01  0.8715E+00
     14.779  0.8779E-01  0.8803E+00
     14.880  0.8061E-01  0.8885E+00
     14.981  0.7241E-01  0.8958E+00
     15.081  0.7083E-01  0.9029E+00
     15.182  0.7074E-01  0.9101E+00
     15.283  0.6566E-01  0.9167E+00
     15.384  0.5588E-01  0.9223E+00
     15.485  0.4500E-01  0.9268E+00
     15.586  0.3815E-01  0.9307E+00
     15.687  0.3943E-01  0.9347E+00
     15.787  0.4596E-01  0.9393E+00
     15.888  0.5105E-01  0.9445E+00
     15.989  0.5492E-01  0.9500E+00
     16.090  0.6330E-01  0.9564E+00
     16.191  0.7132E-01  0.9636E+00
     16.292  0.6742E-01  0.9704E+00
     16.393  0.5488E-01  0.9759E+00
     16.493  0.4494E-01  0.9804E+00
     16.594  0.4146E-01  0.9846E+00
     16.695  0.4310E-01  0.9890E+00
     16.796  0.4442E-01  0.9934E+00
     16.897  0.4026E-01  0.9975E+00
     16.998  0.3629E-01  0.1001E+01
     17.099  0.4249E-01  0.1005E+01
     17.199  0.5503E-01  0.1011E+01
     17.300  0.6072E-01  0.1017E+01
     17.401  0.5517E-01  0.1023E+01
     17.502  0.4181E-01  0.1027E+01
     17.603  0.2564E-01  0.1029E+01
     17.704  0.1436E-01  0.1031E+01
     17.805  0.1267E-01  0.1032E+01
     17.905  0.1676E-01  0.1034E+01
     18.006  0.1899E-01  0.1036E+01
     18.107  0.1580E-01  0.1037E+01
     18.208  0.1030E-01  0.1038E+01
     18.309  0.7300E-02  0.1039E+01
     18.410  0.1011E-01  0.1040E+01
     18.511  0.2040E-01  0.1042E+01
     18.611  0.3323E-01  0.1046E+01
     18.712  0.3746E-01  0.1049E+01
     18.813  0.2959E-01  0.1052E+01
     18.914  0.1728E-01  0.1054E+01
     19.015  0.7731E-02  0.1055E+01
     19.116  0.3062E-02  0.1055E+01
     19.217  0.2643E-02  0.1055E+01
     19.317  0.4546E-02  0.1056E+01
     19.418  0.6000E-02  0.1057E+01
     19.519  0.5768E-02  0.1057E+01
     19.620  0.6002E-02  0.1058E+01
     19.721  0.8451E-02  0.1059E+01
     19.822  0.1100E-01  0.1060E+01
     19.923  0.1108E-01  0.1061E+01
     20.023  0.9533E-02  0.1062E+01
     20.124  0.7867E-02  0.1063E+01
     20.225  0.5607E-02  0.1063E+01
     20.326  0.2859E-02  0.1063E+01
     20.427  0.9598E-03  0.1064E+01
     20.528  0.3311E-03  0.1064E+01
     20.629  0.6406E-03  0.1064E+01
     20.729  0.1728E-02  0.1064E+01
     20.830  0.3169E-02  0.1064E+01
     20.931  0.4143E-02  0.1065E+01
     21.032  0.4249E-02  0.1065E+01
     21.133  0.3468E-02  0.1065E+01
     21.234  0.2067E-02  0.1066E+01
     21.335  0.8332E-03  0.1066E+01
     21.435  0.3133E-03  0.1066E+01
     21.536  0.5376E-03  0.1066E+01
     21.637  0.1461E-02  0.1066E+01
     21.738  0.2579E-02  0.1066E+01
     21.839  0.2802E-02  0.1066E+01
     21.940  0.1870E-02  0.1067E+01
     22.041  0.7661E-03  0.1067E+01
     22.142  0.1925E-03  0.1067E+01
     22.242  0.2963E-04  0.1067E+01
     22.343  0.2789E-05  0.1067E+01
     22.444  0.1604E-06  0.1067E+01
     22.545  0.5619E-08  0.1067E+01
     22.646  0.1199E-09  0.1067E+01
     22.747  0.1554E-11  0.1067E+01
     22.848  0.1222E-13  0.1067E+01
     22.948  0.5848E-16  0.1067E+01
     23.049  0.0000E+00  0.1067E+01
     23.150  0.0000E+00  0.1067E+01
     23.251  0.0000E+00  0.1067E+01
     23.352  0.0000E+00  0.1067E+01
     23.453  0.0000E+00  0.1067E+01
     23.554  0.0000E+00  0.1067E+01
     23.654  0.0000E+00  0.1067E+01
     23.755  0.0000E+00  0.1067E+01
