Automatically generated mesh
      56
Reciprocal lattice
    0.06250000000000    0.06250000000000    0.06250000000000           128
    0.18750000000000    0.06250000000000    0.06250000000000           256
    0.31250000000000    0.06250000000000    0.06250000000000           256
    0.43750000000000    0.06250000000000    0.06250000000000           128
   -0.06250000000000    0.06250000000000    0.06250000000000            64
    0.18750000000000    0.18750000000000    0.06250000000000           128
    0.31250000000000    0.18750000000000    0.06250000000000           256
    0.43750000000000    0.18750000000000    0.06250000000000           256
   -0.43750000000000    0.18750000000000    0.06250000000000           256
   -0.31250000000000    0.18750000000000    0.06250000000000           128
   -0.18750000000000    0.18750000000000    0.06250000000000           128
   -0.06250000000000    0.18750000000000    0.06250000000000           128
    0.31250000000000    0.31250000000000    0.06250000000000           128
    0.43750000000000    0.31250000000000    0.06250000000000           256
   -0.43750000000000    0.31250000000000    0.06250000000000           128
   -0.31250000000000    0.31250000000000    0.06250000000000           128
   -0.18750000000000    0.31250000000000    0.06250000000000           256
   -0.06250000000000    0.31250000000000    0.06250000000000           128
    0.43750000000000    0.43750000000000    0.06250000000000            64
   -0.43750000000000    0.43750000000000    0.06250000000000           128
   -0.31250000000000    0.43750000000000    0.06250000000000           256
   -0.18750000000000    0.43750000000000    0.06250000000000           256
   -0.06250000000000    0.43750000000000    0.06250000000000           128
   -0.43750000000000   -0.43750000000000    0.06250000000000           128
   -0.31250000000000   -0.43750000000000    0.06250000000000           256
   -0.18750000000000   -0.43750000000000    0.06250000000000           256
   -0.06250000000000   -0.43750000000000    0.06250000000000           128
   -0.31250000000000   -0.31250000000000    0.06250000000000           128
   -0.18750000000000   -0.31250000000000    0.06250000000000           256
   -0.06250000000000   -0.31250000000000    0.06250000000000           128
   -0.18750000000000   -0.18750000000000    0.06250000000000           128
   -0.06250000000000   -0.18750000000000    0.06250000000000           128
   -0.06250000000000   -0.06250000000000    0.06250000000000            32
    0.18750000000000    0.18750000000000    0.18750000000000           128
    0.31250000000000    0.18750000000000    0.18750000000000           128
   -0.18750000000000    0.18750000000000    0.18750000000000            64
    0.31250000000000    0.31250000000000    0.18750000000000            64
   -0.31250000000000    0.31250000000000    0.18750000000000           128
   -0.18750000000000    0.31250000000000    0.18750000000000           128
   -0.43750000000000    0.43750000000000    0.18750000000000           128
   -0.31250000000000    0.43750000000000    0.18750000000000           256
   -0.18750000000000    0.43750000000000    0.18750000000000           128
   -0.43750000000000   -0.43750000000000    0.18750000000000           128
   -0.31250000000000   -0.43750000000000    0.18750000000000           256
   -0.18750000000000   -0.43750000000000    0.18750000000000           128
   -0.31250000000000   -0.31250000000000    0.18750000000000           128
   -0.18750000000000   -0.31250000000000    0.18750000000000           128
   -0.18750000000000   -0.18750000000000    0.18750000000000            32
   -0.31250000000000    0.31250000000000    0.31250000000000            64
   -0.43750000000000    0.43750000000000    0.31250000000000           128
   -0.31250000000000    0.43750000000000    0.31250000000000           128
   -0.43750000000000   -0.43750000000000    0.31250000000000           128
   -0.31250000000000   -0.43750000000000    0.31250000000000           128
   -0.31250000000000   -0.31250000000000    0.31250000000000            32
   -0.43750000000000    0.43750000000000    0.43750000000000            64
   -0.43750000000000   -0.43750000000000    0.43750000000000            32
