       N       E                     dE             d eps       ncg     rms          rms(c)
DAV:   1    -0.450599756645E+01   -0.45060E+01   -0.17206E+03   312   0.306E+02
DAV:   2    -0.101038506924E+02   -0.55979E+01   -0.52636E+01   456   0.397E+01
DAV:   3    -0.101395178624E+02   -0.35667E-01   -0.35664E-01   336   0.386E+00
DAV:   4    -0.101395486411E+02   -0.30779E-04   -0.30779E-04   472   0.110E-01
DAV:   5    -0.101395486481E+02   -0.69491E-08   -0.70891E-08   296   0.985E-04    0.146E+00
DAV:   6    -0.101308273581E+02    0.87213E-02   -0.18481E-03   344   0.265E-01    0.913E-01
DAV:   7    -0.101241942120E+02    0.66331E-02   -0.51648E-03   336   0.461E-01    0.359E-02
DAV:   8    -0.101241687168E+02    0.25495E-04   -0.82541E-05   168   0.629E-02
   1 F= -.10124169E+02 E0= -.10114475E+02  d E =-.101242E+02
       N       E                     dE             d eps       ncg     rms          rms(c)
DAV:   1    -0.101582925037E+02   -0.34098E-01   -0.72238E-01   416   0.477E+00    0.571E-01
DAV:   2    -0.101485299499E+02    0.97626E-02   -0.15818E-02   328   0.902E-01    0.319E-01
DAV:   3    -0.101438079357E+02    0.47220E-02   -0.12957E-02   368   0.620E-01    0.294E-02
DAV:   4    -0.101438236907E+02   -0.15755E-04   -0.36745E-04   152   0.149E-01
   2 F= -.10143824E+02 E0= -.10131474E+02  d E =-.196550E-01
       N       E                     dE             d eps       ncg     rms          rms(c)
DAV:   1    -0.101449404865E+02   -0.11326E-02   -0.23063E-02   408   0.869E-01    0.967E-02
DAV:   2    -0.101446617013E+02    0.27879E-03   -0.49913E-04   232   0.162E-01
   3 F= -.10144662E+02 E0= -.10132731E+02  d E =-.204930E-01
       N       E                     dE             d eps       ncg     rms          rms(c)
DAV:   1    -0.101439799689E+02    0.96052E-03   -0.80934E-02   416   0.163E+00    0.193E-01
DAV:   2    -0.101428569814E+02    0.11230E-02   -0.18129E-03   320   0.304E-01    0.108E-01
DAV:   3    -0.101423224111E+02    0.53457E-03   -0.14880E-03   328   0.211E-01    0.100E-02
DAV:   4    -0.101423248437E+02   -0.24326E-05   -0.47440E-05   144   0.536E-02
   4 F= -.10142325E+02 E0= -.10131190E+02  d E =-.181561E-01
       N       E                     dE             d eps       ncg     rms          rms(c)
DAV:   1    -0.101455350390E+02   -0.32126E-02   -0.55683E-02   416   0.136E+00    0.155E-01
DAV:   2    -0.101448282736E+02    0.70677E-03   -0.12777E-03   288   0.257E-01    0.867E-02
DAV:   3    -0.101444809016E+02    0.34737E-03   -0.93898E-04   208   0.169E-01
   5 F= -.10144481E+02 E0= -.10132720E+02  d E =-.203122E-01
       N       E                     dE             d eps       ncg     rms          rms(c)
DAV:   1    -0.101445267933E+02    0.30148E-03   -0.50299E-04   240   0.140E-01    0.127E-02
DAV:   2    -0.101445237898E+02    0.30035E-05   -0.95315E-06   144   0.233E-02
   6 F= -.10144524E+02 E0= -.10132689E+02  d E =-.203551E-01
       N       E                     dE             d eps       ncg     rms          rms(c)
DAV:   1    -0.101445449582E+02   -0.18165E-04   -0.40945E-04   272   0.118E-01    0.139E-02
DAV:   2    -0.101445397476E+02    0.52106E-05   -0.12794E-05   144   0.260E-02
   7 F= -.10144540E+02 E0= -.10132633E+02  d E =-.203710E-01
       N       E                     dE             d eps       ncg     rms          rms(c)
DAV:   1    -0.101445366634E+02    0.82949E-05   -0.64948E-05   144   0.479E-02    0.638E-03
DAV:   2    -0.101445356558E+02    0.10076E-05   -0.27986E-06   144   0.121E-02
   8 F= -.10144536E+02 E0= -.10132600E+02  d E =-.203669E-01
       N       E                     dE             d eps       ncg     rms          rms(c)
DAV:   1    -0.101445360396E+02    0.62378E-06   -0.98192E-06   144   0.179E-02    0.143E-03
DAV:   2    -0.101445360130E+02    0.26549E-07   -0.41632E-07   144   0.519E-03
   9 F= -.10144536E+02 E0= -.10132610E+02  d E =-.203673E-01
       N       E                     dE             d eps       ncg     rms          rms(c)
DAV:   1    -0.101445372998E+02   -0.12602E-05   -0.14564E-05   144   0.221E-02    0.257E-03
DAV:   2    -0.101445370907E+02    0.20912E-06   -0.56344E-07   144   0.562E-03
  10 F= -.10144537E+02 E0= -.10132625E+02  d E =-.203684E-01
       N       E                     dE             d eps       ncg     rms          rms(c)
DAV:   1    -0.101448433381E+02   -0.30604E-03   -0.11021E-02   400   0.595E-01    0.683E-02
DAV:   2    -0.101447284795E+02    0.11486E-03   -0.13938E-04   152   0.851E-02
  11 F= -.10144728E+02 E0= -.10132902E+02  d E =-.191389E-03
       N       E                     dE             d eps       ncg     rms          rms(c)
DAV:   1    -0.101447166687E+02    0.12667E-03   -0.67462E-04   224   0.147E-01    0.116E-02
DAV:   2    -0.101447145139E+02    0.21547E-05   -0.16528E-05   144   0.322E-02
  12 F= -.10144715E+02 E0= -.10132872E+02  d E =-.177423E-03
       N       E                     dE             d eps       ncg     rms          rms(c)
DAV:   1    -0.101447520392E+02   -0.35371E-04   -0.64744E-04   320   0.144E-01    0.176E-02
DAV:   2    -0.101447433139E+02    0.87253E-05   -0.12038E-05   144   0.250E-02
  13 F= -.10144743E+02 E0= -.10132878E+02  d E =-.206223E-03
       N       E                     dE             d eps       ncg     rms          rms(c)
DAV:   1    -0.101447365955E+02    0.15444E-04   -0.69964E-06   144   0.160E-02    0.300E-03
DAV:   2    -0.101447360807E+02    0.51485E-06   -0.39622E-07   144   0.435E-03
  14 F= -.10144736E+02 E0= -.10132867E+02  d E =-.198990E-03
