unknown system                          
           1
    -2.450000    2.450000    1.274000
     2.450000   -2.450000    1.274000
     2.450000    2.450000   -1.274000
   Si
   2
Direct configuration=     1
   0.25000000  0.75000000  0.50000000
   0.00000000  0.00000000  0.00000000
unknown system                          
           1
    -2.486962    2.486962    1.254384
     2.486962   -2.486962    1.254384
     2.486962    2.486962   -1.254384
   Si
   2
Direct configuration=     2
   0.25000000  0.75000000  0.50000000
   0.00000000 -0.00000000 -0.00000000
unknown system                          
           1
    -2.493530    2.493530    1.250898
     2.493530   -2.493530    1.250898
     2.493530    2.493530   -1.250898
   Si
   2
Direct configuration=     3
   0.25000000  0.75000000  0.50000000
   0.00000000 -0.00000000 -0.00000000
unknown system                          
           1
    -2.506665    2.506665    1.243927
     2.506665   -2.506665    1.243927
     2.506665    2.506665   -1.243927
   Si
   2
Direct configuration=     4
   0.25000000  0.75000000  0.50000000
   0.00000000 -0.00000000 -0.00000000
unknown system                          
           1
    -2.496365    2.496365    1.249394
     2.496365   -2.496365    1.249394
     2.496365    2.496365   -1.249394
   Si
   2
Direct configuration=     5
   0.25000000  0.75000000  0.50000000
   0.00000000 -0.00000000 -0.00000000
unknown system                          
           1
    -2.495470    2.495470    1.249869
     2.495470   -2.495470    1.249869
     2.495470    2.495470   -1.249869
   Si
   2
Direct configuration=     6
   0.25000000  0.75000000  0.50000000
   0.00000000 -0.00000000 -0.00000000
unknown system                          
           1
    -2.494500    2.494500    1.250383
     2.494500   -2.494500    1.250383
     2.494500    2.494500   -1.250383
   Si
   2
Direct configuration=     7
   0.25000000  0.75000000  0.50000000
   0.00000000 -0.00000000 -0.00000000
unknown system                          
           1
    -2.494052    2.494052    1.250621
     2.494052   -2.494052    1.250621
     2.494052    2.494052   -1.250621
   Si
   2
Direct configuration=     8
   0.25000000  0.75000000  0.50000000
   0.00000000 -0.00000000 -0.00000000
unknown system                          
           1
    -2.494143    2.494143    1.250573
     2.494143   -2.494143    1.250573
     2.494143    2.494143   -1.250573
   Si
   2
Direct configuration=     9
   0.25000000  0.75000000  0.50000000
   0.00000000 -0.00000000 -0.00000000
unknown system                          
           1
    -2.494322    2.494322    1.250478
     2.494322   -2.494322    1.250478
     2.494322    2.494322   -1.250478
   Si
   2
Direct configuration=    10
   0.25000000  0.75000000  0.50000000
   0.00000000 -0.00000000 -0.00000000
unknown system                          
           1
    -2.491028    2.491028    1.245989
     2.491028   -2.491028    1.245989
     2.491028    2.491028   -1.245989
   Si
   2
Direct configuration=    11
   0.25000000  0.75000000  0.50000000
  -0.00000000  0.00000000  0.00000000
unknown system                          
           1
    -2.491549    2.491549    1.246699
     2.491549   -2.491549    1.246699
     2.491549    2.491549   -1.246699
   Si
   2
Direct configuration=    12
   0.25000000  0.75000000  0.50000000
   0.00000000 -0.00000000  0.00000000
unknown system                          
           1
    -2.492386    2.492386    1.247840
     2.492386   -2.492386    1.247840
     2.492386    2.492386   -1.247840
   Si
   2
Direct configuration=    13
   0.25000000  0.75000000  0.50000000
   0.00000000 -0.00000000  0.00000000
unknown system                          
           1
    -2.492526    2.492526    1.248030
     2.492526   -2.492526    1.248030
     2.492526    2.492526   -1.248030
   Si
   2
Direct configuration=    14
   0.25000000  0.75000000  0.50000000
   0.00000000 -0.00000000  0.00000000
