unknown system                          
   1.00000000000000     
     0.000000    2.715000    2.715000
     2.715000    0.000000    2.715000
     2.715000    2.715000    0.000000
   Si
     2
Direct
  0.500000  0.500000  0.500000
  0.750000  0.750000  0.750000
 
   24   24   24
 0.87228     0.90961      1.0267      1.2381      1.5649      2.0298      2.6482      3.4154      4.2921      5.1937    
  5.9943      6.5519      6.7525      6.5520      5.9944      5.1937      4.2920      3.4152      2.6479      2.0296    
  1.5648      1.2381      1.0268     0.90969     0.90961     0.97040      1.0998      1.3119      1.6232      2.0473    
  2.5869      3.2235      3.9090      4.5631      5.0840      5.3746      5.3746      5.0841      4.5632      3.9090    
  3.2234      2.5867      2.0471      1.6230      1.3119      1.1000     0.97056     0.90967      1.0267      1.0998    
  1.2316      1.4341      1.7185      2.0902      2.5421      3.0483      3.5599      4.0082      4.3177      4.4286    
  4.3178      4.0083      3.5599      3.0482      2.5420      2.0901      1.7185      1.4341      1.2317      1.1000    
  1.0268      1.0035      1.2381      1.3119      1.4341      1.6142      1.8587      2.1668      2.5258      2.9078    
  3.2687      3.5541      3.7127      3.7127      3.5541      3.2686      2.9076      2.5257      2.1668      1.8588    
  1.6143      1.4342      1.3120      1.2381      1.2038      1.2038      1.5649      1.6232      1.7185      1.8587    
  2.0472      2.2798      2.5421      2.8081      3.0412      3.2022      3.2598      3.2021      3.0411      2.8079    
  2.5421      2.2798      2.0473      1.8589      1.7186      1.6232      1.5649      1.5346      1.5254      1.5346    
  2.0298      2.0473      2.0902      2.1668      2.2798      2.4244      2.5869      2.7452      2.8724      2.9436    
  2.9435      2.8722      2.7450      2.5868      2.4245      2.2799      2.1669      2.0902      2.0472      2.0297    
  2.0267      2.0282      2.0283      2.0268      2.6482      2.5869      2.5421      2.5258      2.5421      2.5869    
  2.6482      2.7097      2.7548      2.7713      2.7546      2.7095      2.6480      2.5868      2.5422      2.5258    
  2.5421      2.5868      2.6480      2.7095      2.7546      2.7713      2.7548      2.7097      3.4154      3.2235    
  3.0483      2.9078      2.8081      2.7452      2.7097      2.6917      2.6842      2.6842      2.6915      2.7095    
  2.7450      2.8079      2.9077      3.0483      3.2235      3.4153      3.5969      3.7391      3.8173      3.8173    
  3.7394      3.5972      4.2921      3.9090      3.5599      3.2687      3.0412      2.8724      2.7548      2.6842    
  2.6605      2.6841      2.7546      2.8723      3.0411      3.2686      3.5600      3.9091      4.2920      4.6678    
  4.9859      5.1991      5.2741      5.1991      4.9860      4.6679      5.1937      4.5631      4.0082      3.5541    
  3.2022      2.9436      2.7713      2.6842      2.6841      2.7711      2.9435      3.2022      3.5542      4.0083    
  4.5633      5.1938      5.8452      6.4399      6.8949      7.1416      7.1416      6.8950      6.4400      5.8452    
  5.9943      5.0840      4.3177      3.7127      3.2598      2.9435      2.7546      2.6915      2.7546      2.9435    
  3.2598      3.7128      4.3178      5.0842      5.9945      6.9887      7.9636      8.7910      9.3472      9.5433    
  9.3471      8.7909      7.9635      6.9885      6.5519      5.3746      4.4286      3.7127      3.2021      2.8722    
  2.7095      2.7095      2.8723      3.2022      3.7128      4.4286      5.3747      6.5521      7.9111      9.3372    
  10.660      11.686      12.249      12.249      11.686      10.660      9.3370      7.9110      6.7525      5.3746    
  4.3178      3.5541      3.0411      2.7450      2.6480      2.7450      3.0411      3.5542      4.3178      5.3747    
  6.7525      8.4297      10.304      12.186      13.818      14.935      15.332      14.935      13.818      12.186    
  10.304      8.4296      6.5520      5.0841      4.0083      3.2686      2.8079      2.5868      2.5868      2.8079    
  3.2686      4.0083      5.0842      6.5521      8.4297      10.654      13.050      15.331      17.124      18.100    
  18.100      17.125      15.331      13.050      10.654      8.4297      5.9944      4.5632      3.5599      2.9076    
  2.5421      2.4245      2.5422      2.9077      3.5600      4.5633      5.9945      7.9111      10.304      13.050    
  15.880      18.347      19.995      20.569      19.995      18.347      15.880      13.050      10.304      7.9111    
  5.1937      3.9090      3.0482      2.5257      2.2798      2.2799      2.5258      3.0483      3.9091      5.1938    
  6.9887      9.3372      12.186      15.331      18.347      20.665      21.905      21.905      20.665      18.347    
  15.331      12.186      9.3372      6.9885      4.2920      3.2234      2.5420      2.1668      2.0473      2.1669    
  2.5421      3.2235      4.2920      5.8452      7.9636      10.660      13.818      17.124      19.995      21.905    
  22.569      21.905      19.995      17.124      13.818      10.660      7.9635      5.8451      3.4152      2.5867    
  2.0901      1.8588      1.8589      2.0902      2.5868      3.4153      4.6678      6.4399      8.7910      11.686    
  14.935      18.100      20.569      21.905      21.905      20.569      18.099      14.935      11.686      8.7910    
  6.4399      4.6677      2.6479      2.0471      1.7185      1.6143      1.7186      2.0472      2.6480      3.5969    
  4.9859      6.8949      9.3472      12.249      15.332      18.100      19.995      20.665      19.995      18.099    
  15.332      12.249      9.3471      6.8949      4.9859      3.5969      2.0296      1.6230      1.4341      1.4342    
  1.6232      2.0297      2.7095      3.7391      5.1991      7.1416      9.5433      12.249      14.935      17.125    
  18.347      18.347      17.124      14.935      12.249      9.5433      7.1416      5.1990      3.7391      2.7094    
  1.5648      1.3119      1.2317      1.3120      1.5649      2.0267      2.7546      3.8173      5.2741      7.1416    
  9.3471      11.686      13.818      15.331      15.880      15.331      13.818      11.686      9.3471      7.1416    
  5.2740      3.8171      2.7545      2.0266      1.2381      1.1000      1.1000      1.2381      1.5346      2.0282    
  2.7713      3.8173      5.1991      6.8950      8.7909      10.660      12.186      13.050      13.050      12.186    
  10.660      8.7910      6.8949      5.1990      3.8171      2.7710      2.0281      1.5345      1.0268     0.97056    
  1.0268      1.2038      1.5254      2.0283      2.7548      3.7394      4.9860      6.4400      7.9635      9.3370    
  10.304      10.654      10.304      9.3372      7.9635      6.4399      4.9859      3.7391      2.7545      2.0281    
  1.5253      1.2038     0.90969     0.90967      1.0035      1.2038      1.5346      2.0268      2.7097      3.5972    
  4.6679      5.8452      6.9885      7.9110      8.4296      8.4297      7.9111      6.9885      5.8451      4.6677    
  3.5969      2.7094      2.0266      1.5345      1.2038      1.0035     0.90960     0.97040      1.0998      1.3119    
  1.6232      2.0473      2.5869      3.2235      3.9090      4.5631      5.0841      5.3746      5.3746      5.0841    
  4.5632      3.9090      3.2234      2.5867      2.0471      1.6230      1.3119      1.1000     0.97056     0.90967    
 0.97040      1.0387      1.1628      1.3555      1.6284      1.9870      2.4244      2.9147      3.4100      3.8433    
  4.1421      4.2490      4.1421      3.8434      3.4100      2.9147      2.4243      1.9869      1.6283      1.3555    
  1.1629      1.0388     0.97051     0.94881      1.0998      1.1628      1.2702      1.4326      1.6574      1.9439    
  2.2798      2.6378      2.9758      3.2427      3.3907      3.3907      3.2427      2.9758      2.6377      2.2797    
  1.9438      1.6574      1.4327      1.2703      1.1629      1.0999      1.0714      1.0713      1.3119      1.3555    
  1.4326      1.5524      1.7189      1.9283      2.1668      2.4095      2.6227      2.7699      2.8226      2.7699    
  2.6226      2.4094      2.1667      1.9283      1.7190      1.5525      1.4328      1.3555      1.3119      1.2913    
  1.2856      1.2913      1.6232      1.6284      1.6574      1.7189      1.8159      1.9439      2.0902      2.2345    
  2.3514      2.4171      2.4171      2.3513      2.2343      2.0901      1.9439      1.8160      1.7190      1.6575    
  1.6284      1.6231      1.6297      1.6366      1.6366      1.6298      2.0473      1.9870      1.9439      1.9283    
  1.9439      1.9870      2.0473      2.1092      2.1555      2.1726      2.1554      2.1091      2.0472      1.9870    
  1.9440      1.9284      1.9440      1.9870      2.0472      2.1091      2.1554      2.1726      2.1555      2.1092    
  2.5869      2.4244      2.2798      2.1668      2.0902      2.0473      2.0298      2.0268      2.0283      2.0282    
  2.0267      2.0297      2.0473      2.0902      2.1669      2.2799      2.4244      2.5868      2.7450      2.8722    
  2.9435      2.9436      2.8724      2.7452      3.2235      2.9147      2.6378      2.4095      2.2345      2.1092    
  2.0268      1.9804      1.9654      1.9804      2.0267      2.1091      2.2344      2.4095      2.6379      2.9148    
  3.2235      3.5334      3.8028      3.9877      4.0538      3.9879      3.8030      3.5335      3.9090      3.4100    
  2.9758      2.6227      2.3514      2.1555      2.0283      1.9654      1.9654      2.0282      2.1555      2.3513    
  2.6227      2.9759      3.4102      3.9092      4.4350      4.9278      5.3149      5.5290      5.5290      5.3150    
  4.9278      4.4350      4.5631      3.8433      3.2427      2.7699      2.4171      2.1726      2.0282      1.9804    
  2.0282      2.1726      2.4171      2.7700      3.2430      3.8437      4.5634      5.3638      6.1695      6.8731    
  7.3577      7.5310      7.3576      6.8730      6.1694      5.3637      5.0841      4.1421      3.3907      2.8226    
  2.4171      2.1554      2.0267      2.0267      2.1555      2.4171      2.8227      3.3911      4.1425      5.0844    
  6.1902      7.3808      8.5187      9.4267      9.9338      9.9338      9.4266      8.5186      7.3807      6.1900    
  5.3746      4.2490      3.3907      2.7699      2.3513      2.1091      2.0297      2.1091      2.3513      2.7700    
  3.3911      4.2494      5.3749      6.7667      8.3624      10.013      11.489      12.523      12.896      12.523    
  11.489      10.013      8.3623      6.7666      5.3746      4.1421      3.2427      2.6226      2.2343      2.0472    
  2.0473      2.2344      2.6227      3.2430      4.1425      5.3749      6.9742      8.9157      11.072      13.189    
  14.915      15.891      15.891      14.914      13.189      11.072      8.9156      6.9741      5.0841      3.8434    
  2.9758      2.4094      2.0901      1.9870      2.0902      2.4095      2.9759      3.8437      5.0844      6.7667    
  8.9157      11.456      14.157      16.628      18.386      19.025      18.385      16.627      14.157      11.456    
  8.9156      6.7666      4.5632      3.4100      2.6377      2.1667      1.9439      1.9440      2.1669      2.6379    
  3.4102      4.5634      6.1902      8.3624      11.072      14.157      17.253      19.816      21.278      21.278    
  19.816      17.252      14.157      11.072      8.3623      6.1900      3.9090      2.9147      2.2797      1.9283    
  1.8160      1.9284      2.2799      2.9148      3.9092      5.3638      7.3808      10.013      13.189      16.628    
  19.816      22.098      22.927      22.098      19.816      16.627      13.189      10.013      7.3807      5.3637    
  3.2234      2.4243      1.9438      1.7190      1.7190      1.9440      2.4244      3.2235      4.4350      6.1695    
  8.5187      11.489      14.915      18.386      21.278      22.927      22.927      21.278      18.385      14.914    
  11.489      8.5186      6.1694      4.4349      2.5867      1.9869      1.6574      1.5525      1.6575      1.9870    
  2.5868      3.5334      4.9278      6.8731      9.4267      12.523      15.891      19.025      21.278      22.098    
  21.278      19.025      15.891      12.523      9.4264      6.8730      4.9277      3.5333      2.0471      1.6283    
  1.4327      1.4328      1.6284      2.0472      2.7450      3.8028      5.3149      7.3577      9.9338      12.896    
  15.891      18.385      19.816      19.816      18.385      15.891      12.896      9.9334      7.3575      5.3148    
  3.8028      2.7449      1.6230      1.3555      1.2703      1.3555      1.6231      2.1091      2.8722      3.9877    
  5.5290      7.5310      9.9338      12.523      14.914      16.627      17.252      16.627      14.914      12.523    
  9.9334      7.5308      5.5289      3.9876      2.8721      2.1090      1.3119      1.1629      1.1629      1.3119    
  1.6297      2.1554      2.9435      4.0538      5.5290      7.3576      9.4266      11.489      13.189      14.157    
  14.157      13.189      11.489      9.4264      7.3575      5.5289      4.0536      2.9433      2.1552      1.6296    
  1.1000      1.0388      1.0999      1.2913      1.6366      2.1726      2.9436      3.9879      5.3150      6.8730    
  8.5186      10.013      11.072      11.456      11.072      10.013      8.5186      6.8730      5.3148      3.9876    
  2.9433      2.1724      1.6365      1.2914     0.97056     0.97051      1.0714      1.2856      1.6366      2.1555    
  2.8724      3.8030      4.9278      6.1694      7.3807      8.3623      8.9156      8.9156      8.3623      7.3807    
  6.1694      4.9277      3.8028      2.8721      2.1552      1.6365      1.2856      1.0715     0.90967     0.94881    
  1.0713      1.2913      1.6298      2.1092      2.7452      3.5335      4.4350      5.3637      6.1900      6.7666    
  6.9741      6.7666      6.1900      5.3637      4.4349      3.5333      2.7449      2.1090      1.6296      1.2914    
  1.0715     0.94894      1.0267      1.0998      1.2316      1.4341      1.7185      2.0902      2.5422      3.0483    
  3.5599      4.0082      4.3177      4.4286      4.3177      4.0082      3.5599      3.0482      2.5421      2.0902    
  1.7185      1.4341      1.2317      1.1000      1.0268      1.0035      1.0998      1.1628      1.2702      1.4326    
  1.6574      1.9439      2.2798      2.6378      2.9758      3.2427      3.3907      3.3907      3.2426      2.9757    
  2.6378      2.2798      1.9439      1.6574      1.4327      1.2703      1.1629      1.0999      1.0714      1.0713    
  1.2316      1.2702      1.3412      1.4542      1.6136      1.8159      2.0472      2.2829      2.4899      2.6328    
  2.6840      2.6328      2.4899      2.2829      2.0472      1.8159      1.6137      1.4543      1.3413      1.2702    
  1.2316      1.2144      1.2097      1.2144      1.4341      1.4326      1.4542      1.5081      1.5978      1.7189    
  1.8587      1.9971      2.1094      2.1725      2.1725      2.1093      1.9970      1.8586      1.7189      1.5979    
  1.5083      1.4543      1.4327      1.4340      1.4457      1.4553      1.4553      1.4457      1.7185      1.6574    
  1.6136      1.5978      1.6136      1.6574      1.7185      1.7813      1.8283      1.8457      1.8282      1.7812    
  1.7184      1.6574      1.6137      1.5980      1.6137      1.6574      1.7185      1.7812      1.8282      1.8457    
  1.8283      1.7813      2.0902      1.9439      1.8159      1.7189      1.6574      1.6284      1.6232      1.6298    
  1.6366      1.6366      1.6297      1.6231      1.6284      1.6575      1.7190      1.8160      1.9439      2.0902    
  2.2344      2.3513      2.4171      2.4171      2.3514      2.2345      2.5422      2.2798      2.0472      1.8587    
  1.7185      1.6232      1.5649      1.5346      1.5254      1.5346      1.5649      1.6232      1.7186      1.8589    
  2.0473      2.2798      2.5421      2.8079      3.0411      3.2021      3.2598      3.2022      3.0412      2.8081    
  3.0483      2.6378      2.2829      1.9971      1.7813      1.6298      1.5346      1.4890      1.4890      1.5347    
  1.6299      1.7814      1.9972      2.2830      2.6378      3.0483      3.4839      3.8952      4.2208      4.4018    
  4.4018      4.2208      3.8953      3.4839      3.5599      2.9758      2.4899      2.1094      1.8283      1.6366    
  1.5254      1.4890      1.5255      1.6368      1.8284      2.1095      2.4900      2.9759      3.5600      4.2129    
  4.8746      5.4571      5.8609      6.0058      5.8608      5.4569      4.8745      4.2128      4.0082      3.2427    
  2.6328      2.1725      1.8457      1.6366      1.5346      1.5347      1.6368      1.8459      2.1727      2.6330    
  3.2428      4.0083      4.9105      5.8885      6.8311      7.5891      8.0148      8.0147      7.5889      6.8308    
  5.8883      4.9104      4.3177      3.3907      2.6840      2.1725      1.8282      1.6297      1.5649      1.6299    
  1.8284      2.1727      2.6842      3.3909      4.3179      5.4680      6.7956      8.1819      9.4324      10.315    
  10.634      10.314      9.4322      8.1816      6.7953      5.4678      4.4286      3.3907      2.6328      2.1093    
  1.7812      1.6231      1.6232      1.7814      2.1095      2.6330      3.3909      4.4287      5.7795      7.4312    
  9.2839      11.122      12.632      13.492      13.492      12.632      11.122      9.2837      7.4311      5.7795    
  4.3177      3.2426      2.4899      1.9970      1.7184      1.6284      1.7186      1.9972      2.4900      3.2428    
  4.3179      5.7795      7.6605      9.9080      12.326      14.559      16.159      16.743      16.159      14.559    
  12.326      9.9079      7.6605      5.7795      4.0082      2.9757      2.2829      1.8586      1.6574      1.6575    
  1.8589      2.2830      2.9759      4.0083      5.4680      7.4312      9.9080      12.764      15.662      18.083    
  19.473      19.473      18.082      15.662      12.764      9.9079      7.4312      5.4679      3.5599      2.6378    
  2.0472      1.7189      1.6137      1.7190      2.0473      2.6378      3.5600      4.9105      6.7956      9.2839    
  12.326      15.662      18.787      21.047      21.876      21.047      18.787      15.662      12.326      9.2838    
  6.7955      4.9104      3.0482      2.2798      1.8159      1.5979      1.5980      1.8160      2.2798      3.0483    
  4.2129      5.8885      8.1819      11.122      14.559      18.083      21.047      22.758      22.758      21.047    
  18.082      14.559      11.122      8.1818      5.8884      4.2127      2.5421      1.9439      1.6137      1.5083    
  1.6137      1.9439      2.5421      3.4839      4.8746      6.8311      9.4324      12.632      16.159      19.473    
  21.876      22.758      21.876      19.473      16.159      12.632      9.4322      6.8309      4.8744      3.4838    
  2.0902      1.6574      1.4543      1.4543      1.6574      2.0902      2.8079      3.8952      5.4571      7.5891    
  10.315      13.492      16.743      19.473      21.047      21.047      19.473      16.743      13.492      10.314    
  7.5888      5.4568      3.8951      2.8079      1.7185      1.4327      1.3413      1.4327      1.7185      2.2344    
  3.0411      4.2208      5.8609      8.0148      10.634      13.492      16.159      18.082      18.787      18.082    
  16.159      13.492      10.634      8.0145      5.8606      4.2205      3.0410      2.2344      1.4341      1.2703    
  1.2702      1.4340      1.7812      2.3513      3.2021      4.4018      6.0058      8.0147      10.314      12.632    
  14.559      15.662      15.662      14.559      12.632      10.314      8.0145      6.0056      4.4015      3.2020    
  2.3512      1.7813      1.2317      1.1629      1.2316      1.4457      1.8282      2.4171      3.2598      4.4018    
  5.8608      7.5889      9.4322      11.122      12.326      12.764      12.326      11.122      9.4322      7.5888    
  5.8606      4.4015      3.2596      2.4170      1.8283      1.4458      1.1000      1.0999      1.2144      1.4553    
  1.8457      2.4171      3.2022      4.2208      5.4569      6.8308      8.1816      9.2837      9.9079      9.9079    
  9.2838      8.1818      6.8309      5.4568      4.2205      3.2020      2.4170      1.8457      1.4554      1.2145    
  1.0268      1.0714      1.2097      1.4553      1.8283      2.3514      3.0412      3.8953      4.8745      5.8883    
  6.7953      7.4311      7.6605      7.4312      6.7955      5.8884      4.8744      3.8951      3.0410      2.3512    
  1.8283      1.4554      1.2099      1.0715      1.0035      1.0713      1.2144      1.4457      1.7813      2.2345    
  2.8081      3.4839      4.2128      4.9104      5.4678      5.7795      5.7795      5.4679      4.9104      4.2127    
  3.4838      2.8079      2.2344      1.7813      1.4458      1.2145      1.0715      1.0035      1.2381      1.3119    
  1.4341      1.6142      1.8587      2.1668      2.5258      2.9078      3.2686      3.5541      3.7127      3.7127    
  3.5541      3.2686      2.9077      2.5257      2.1668      1.8589      1.6144      1.4342      1.3120      1.2381    
  1.2038      1.2038      1.3119      1.3555      1.4326      1.5524      1.7189      1.9283      2.1668      2.4095    
  2.6226      2.7699      2.8226      2.7698      2.6226      2.4094      2.1667      1.9283      1.7190      1.5526    
  1.4328      1.3555      1.3119      1.2913      1.2855      1.2913      1.4341      1.4326      1.4542      1.5081    
  1.5978      1.7189      1.8587      1.9971      2.1093      2.1725      2.1725      2.1093      1.9970      1.8587    
  1.7189      1.5979      1.5083      1.4543      1.4326      1.4340      1.4456      1.4552      1.4553      1.4457    
  1.6142      1.5524      1.5081      1.4921      1.5081      1.5524      1.6142      1.6775      1.7248      1.7423    
  1.7247      1.6774      1.6141      1.5524      1.5082      1.4923      1.5082      1.5524      1.6141      1.6774    
  1.7247      1.7423      1.7248      1.6775      1.8587      1.7189      1.5978      1.5081      1.4542      1.4326    
  1.4341      1.4457      1.4553      1.4552      1.4456      1.4340      1.4326      1.4543      1.5083      1.5979    
  1.7189      1.8587      1.9970      2.1093      2.1725      2.1725      2.1093      1.9971      2.1668      1.9283    
  1.7189      1.5524      1.4326      1.3555      1.3119      1.2913      1.2855      1.2913      1.3119      1.3555    
  1.4328      1.5526      1.7190      1.9283      2.1667      2.4094      2.6226      2.7698      2.8226      2.7699    
  2.6226      2.4095      2.5258      2.1668      1.8587      1.6142      1.4341      1.3119      1.2381      1.2038    
  1.2038      1.2381      1.3120      1.4342      1.6144      1.8589      2.1668      2.5257      2.9077      3.2686    
  3.5541      3.7127      3.7127      3.5541      3.2686      2.9078      2.9078      2.4095      1.9971      1.6775    
  1.4457      1.2913      1.2038      1.1756      1.2039      1.2915      1.4459      1.6777      1.9972      2.4095    
  2.9076      3.4650      4.0295      4.5257      4.8693      4.9926      4.8693      4.5257      4.0295      3.4651    
  3.2686      2.6226      2.1093      1.7248      1.4553      1.2855      1.2038      1.2039      1.2857      1.4555    
  1.7250      2.1095      2.6226      3.2685      4.0294      4.8528      5.6447      6.2803      6.6367      6.6366    
  6.2801      5.6444      4.8527      4.0295      3.5541      2.7699      2.1725      1.7423      1.4552      1.2913    
  1.2381      1.2915      1.4555      1.7426      2.1727      2.7699      3.5539      4.5255      5.6445      6.8103    
  7.8596      8.5987      8.8660      8.5984      7.8593      6.8100      5.6444      4.5257      3.7127      2.8226    
  2.1725      1.7247      1.4456      1.3119      1.3120      1.4459      1.7250      2.1727      2.8226      3.7125    
  4.8691      6.2800      7.8595      9.4238      10.708      11.438      11.438      10.707      9.4234      7.8593    
  6.2801      4.8693      3.7127      2.7698      2.1093      1.6774      1.4340      1.3555      1.4342      1.6777    
  2.1095      2.7699      3.7125      4.9923      6.6365      8.5986      10.708      12.654      14.047      14.556    
  14.047      12.653      10.707      8.5984      6.6366      4.9926      3.5541      2.6226      1.9970      1.6141    
  1.4326      1.4328      1.6144      1.9972      2.6226      3.5539      4.8691      6.6365      8.8659      11.438    
  14.048      16.228      17.481      17.481      16.228      14.047      11.438      8.8660      6.6367      4.8693    
  3.2686      2.4094      1.8587      1.5524      1.4543      1.5526      1.8589      2.4095      3.2685      4.5255    
  6.2800      8.5986      11.438      14.556      17.481      19.598      20.375      19.598      17.481      14.556    
  11.438      8.5987      6.2803      4.5257      2.9077      2.1667      1.7189      1.5082      1.5083      1.7190    
  2.1668      2.9076      4.0294      5.6445      7.8595      10.708      14.048      17.481      20.375      22.047    
  22.047      20.375      17.481      14.047      10.708      7.8596      5.6447      4.0295      2.5257      1.9283    
  1.5979      1.4923      1.5979      1.9283      2.5257      3.4650      4.8528      6.8103      9.4238      12.654    
  16.228      19.598      22.047      22.946      22.047      19.598      16.228      12.654      9.4238      6.8103    
  4.8528      3.4650      2.1668      1.7190      1.5083      1.5082      1.7189      2.1667      2.9077      4.0295    
  5.6447      7.8596      10.708      14.047      17.481      20.375      22.047      22.047      20.375      17.481    
  14.048      10.708      7.8595      5.6445      4.0294      2.9076      1.8589      1.5526      1.4543      1.5524    
  1.8587      2.4094      3.2686      4.5257      6.2803      8.5987      11.438      14.556      17.481      19.598    
  20.375      19.598      17.481      14.556      11.438      8.5986      6.2800      4.5255      3.2685      2.4095    
  1.6144      1.4328      1.4326      1.6141      1.9970      2.6226      3.5541      4.8693      6.6367      8.8660    
  11.438      14.047      16.228      17.481      17.481      16.228      14.048      11.438      8.8659      6.6365    
  4.8691      3.5539      2.6226      1.9972      1.4342      1.3555      1.4340      1.6774      2.1093      2.7698    
  3.7127      4.9926      6.6366      8.5984      10.707      12.653      14.047      14.556      14.047      12.654    
  10.708      8.5986      6.6365      4.9923      3.7125      2.7699      2.1095      1.6777      1.3120      1.3119    
  1.4456      1.7247      2.1725      2.8226      3.7127      4.8693      6.2801      7.8593      9.4234      10.707    
  11.438      11.438      10.708      9.4238      7.8595      6.2800      4.8691      3.7125      2.8226      2.1727    
  1.7250      1.4459      1.2381      1.2913      1.4552      1.7423      2.1725      2.7699      3.5541      4.5257    
  5.6444      6.8100      7.8593      8.5984      8.8660      8.5987      7.8596      6.8103      5.6445      4.5255    
  3.5539      2.7699      2.1727      1.7426      1.4555      1.2915      1.2038      1.2855      1.4553      1.7248    
  2.1093      2.6226      3.2686      4.0295      4.8527      5.6444      6.2801      6.6366      6.6367      6.2803    
  5.6447      4.8528      4.0294      3.2685      2.6226      2.1095      1.7250      1.4555      1.2857      1.2039    
  1.2038      1.2913      1.4457      1.6775      1.9971      2.4095      2.9078      3.4651      4.0295      4.5257    
  4.8693      4.9926      4.8693      4.5257      4.0295      3.4650      2.9076      2.4095      1.9972      1.6777    
  1.4459      1.2915      1.2039      1.1756      1.5649      1.6232      1.7185      1.8587      2.0472      2.2798    
  2.5422      2.8081      3.0412      3.2022      3.2598      3.2021      3.0411      2.8079      2.5421      2.2798    
  2.0473      1.8589      1.7186      1.6232      1.5649      1.5346      1.5254      1.5346      1.6232      1.6284    
  1.6574      1.7189      1.8159      1.9439      2.0902      2.2345      2.3514      2.4171      2.4171      2.3513    
  2.2344      2.0902      1.9439      1.8160      1.7190      1.6575      1.6284      1.6231      1.6297      1.6366    
  1.6366      1.6298      1.7185      1.6574      1.6136      1.5978      1.6136      1.6574      1.7185      1.7813    
  1.8283      1.8457      1.8282      1.7812      1.7185      1.6574      1.6137      1.5980      1.6137      1.6574    
  1.7184      1.7812      1.8282      1.8457      1.8283      1.7813      1.8587      1.7189      1.5978      1.5081    
  1.4542      1.4326      1.4341      1.4457      1.4553      1.4553      1.4457      1.4340      1.4327      1.4543    
  1.5083      1.5979      1.7189      1.8586      1.9970      2.1093      2.1725      2.1725      2.1094      1.9971    
  2.0472      1.8159      1.6136      1.4542      1.3412      1.2702      1.2316      1.2144      1.2097      1.2144    
  1.2316      1.2702      1.3413      1.4543      1.6137      1.8159      2.0472      2.2829      2.4899      2.6328    
  2.6840      2.6328      2.4899      2.2829      2.2798      1.9439      1.6574      1.4326      1.2702      1.1628    
  1.0998      1.0713      1.0714      1.0999      1.1629      1.2703      1.4327      1.6574      1.9439      2.2798    
  2.6378      2.9757      3.2426      3.3907      3.3907      3.2427      2.9758      2.6378      2.5422      2.0902    