unknown system                          
   1.00000000000000     
     0.000000    2.734248    2.734248
     2.734248    0.000000    2.734248
     2.734248    2.734248   -0.000000
   Si
     2
Direct
  0.500000  0.500000  0.500000
  0.750000  0.750000  0.750000
 
   24   24   24
 0.84666916297E+00 0.88342680190E+00 0.99868349090E+00 0.12067711381E+01 0.15289271699E+01
 0.19880815062E+01 0.26000504729E+01 0.33608943080E+01 0.42321133475E+01 0.51297656059E+01
 0.59278911975E+01 0.64842923070E+01 0.66844544827E+01 0.64842731720E+01 0.59278691026E+01
 0.51297612882E+01 0.42321370904E+01 0.33609389831E+01 0.26000978308E+01 0.19881151678E+01
 0.15289410314E+01 0.12067689625E+01 0.99867403657E+00 0.88341917539E+00 0.88342680190E+00
 0.94311161175E+00 0.10702457744E+01 0.12788136246E+01 0.15855624704E+01 0.20042800441E+01
 0.25378007349E+01 0.31682942042E+01 0.38482596156E+01 0.44978847917E+01 0.50157264028E+01
 0.53046735990E+01 0.53046691574E+01 0.50157385581E+01 0.44979520722E+01 0.38483724691E+01
 0.31683934243E+01 0.25378354201E+01 0.20042520175E+01 0.15855129789E+01 0.12787806200E+01
 0.10702392848E+01 0.94311923153E+00 0.88343173660E+00 0.99868349090E+00 0.10702457744E+01
 0.11994971791E+01 0.13985791687E+01 0.16788919043E+01 0.20458192515E+01 0.24924930207E+01
 0.29933965590E+01 0.35002663830E+01 0.39447926678E+01 0.42519218152E+01 0.43619402520E+01
 0.42519492860E+01 0.39448399835E+01 0.35003170554E+01 0.29934321273E+01 0.24925051811E+01
 0.20458126082E+01 0.16788751539E+01 0.13985582567E+01 0.11994766630E+01 0.10702304013E+01
 0.99867584253E+00 0.97590592449E+00 0.12067711381E+01 0.12788136246E+01 0.13985791687E+01
 0.15757417432E+01 0.18168207466E+01 0.21210256022E+01 0.24759704181E+01 0.28540260988E+01
 0.32116057386E+01 0.34947142198E+01 0.36521076552E+01 0.36521300956E+01 0.34947545849E+01
 0.32116126191E+01 0.28539800845E+01 0.24759065198E+01 0.21209980832E+01 0.18168492240E+01
 0.15757951624E+01 0.13986100306E+01 0.12788026887E+01 0.12067394357E+01 0.11734043641E+01
 0.11734206197E+01 0.15289271699E+01 0.15855624704E+01 0.16788919043E+01 0.18168207466E+01
 0.20027765695E+01 0.22327286736E+01 0.24924991953E+01 0.27561832111E+01 0.29877441808E+01
 0.31478376452E+01 0.32051963597E+01 0.31478296348E+01 0.29877341904E+01 0.27561772431E+01
 0.24925000743E+01 0.22327376914E+01 0.20027932971E+01 0.18168405190E+01 0.16789077242E+01
 0.15855709820E+01 0.15289303601E+01 0.14998174221E+01 0.14910216522E+01 0.14998164383E+01
 0.19880815062E+01 0.20042800441E+01 0.20458192515E+01 0.21210256022E+01 0.22327286736E+01
 0.23761731201E+01 0.25377977911E+01 0.26956725832E+01 0.28228706257E+01 0.28941703800E+01
 0.28941547426E+01 0.28228461038E+01 0.26956816959E+01 0.25378584498E+01 0.23762606509E+01
 0.22327943353E+01 0.21210319748E+01 0.20457709948E+01 0.20042251002E+01 0.19880681956E+01
 0.19862425989E+01 0.19884234850E+01 0.19884052322E+01 0.19862165499E+01 0.26000504729E+01
 0.25378007349E+01 0.24924930207E+01 0.24759704181E+01 0.24924991953E+01 0.25377977911E+01
 0.26000366711E+01 0.26626881428E+01 0.27088062437E+01 0.27257394102E+01 0.27088166359E+01
 0.26627210469E+01 0.26000845725E+01 0.25378333314E+01 0.24925101549E+01 0.24759677580E+01
 0.24924835648E+01 0.25377804173E+01 0.26000258467E+01 0.26626865716E+01 0.27088113993E+01
 0.27257440526E+01 0.27088110254E+01 0.26626991282E+01 0.33608943080E+01 0.31682942042E+01
 0.29933965590E+01 0.28540260988E+01 0.27561832111E+01 0.26956725832E+01 0.26626881428E+01
 0.26468960852E+01 0.26408120414E+01 0.26408192824E+01 0.26469251677E+01 0.26627285867E+01
 0.26956747279E+01 0.27561207961E+01 0.28539498325E+01 0.29933775510E+01 0.31683366901E+01
 0.33609453987E+01 0.35441958757E+01 0.36881263171E+01 0.37673287727E+01 0.37673297282E+01
 0.36881232434E+01 0.35441719408E+01 0.42321133475E+01 0.38482596156E+01 0.35002663830E+01
 0.32116057386E+01 0.29877441808E+01 0.28228706257E+01 0.27088062437E+01 0.26408120414E+01
 0.26180437853E+01 0.26407904132E+01 0.27087902244E+01 0.28228605053E+01 0.29877175366E+01
 0.32115749992E+01 0.35002719796E+01 0.38483038902E+01 0.42321586854E+01 0.46105345100E+01
 0.49322190352E+01 0.51484057837E+01 0.52245780758E+01 0.51483716886E+01 0.49321823632E+01
 0.46105020288E+01 0.51297656059E+01 0.44978847917E+01 0.39447926678E+01 0.34947142198E+01
 0.31478376452E+01 0.28941703800E+01 0.27257394102E+01 0.26408192824E+01 0.26407904132E+01
 0.27256843268E+01 0.28941374869E+01 0.31478377228E+01 0.34947439195E+01 0.39448617805E+01
 0.44979782655E+01 0.51298272137E+01 0.57857786063E+01 0.63872767276E+01 0.68490598299E+01
 0.70999780836E+01 0.70999723528E+01 0.68490625272E+01 0.63872993764E+01 0.57857785233E+01
 0.59278911975E+01 0.50157264028E+01 0.42519218152E+01 0.36521076552E+01 0.32051963597E+01
 0.28941547426E+01 0.27088166359E+01 0.26469251677E+01 0.27087902244E+01 0.28941374869E+01
 0.32052059809E+01 0.36521350560E+01 0.42519689773E+01 0.50158005911E+01 0.59279633927E+01
 0.69291950264E+01 0.79154161937E+01 0.87554856843E+01 0.93216531340E+01 0.95215743589E+01
 0.93216648751E+01 0.87555173501E+01 0.79154424085E+01 0.69291716727E+01 0.64842923070E+01
 0.53046735990E+01 0.43619402520E+01 0.36521300956E+01 0.31478296348E+01 0.28228461038E+01
 0.26627210469E+01 0.26627285867E+01 0.28228605053E+01 0.31478377228E+01 0.36521350560E+01
 0.43619619323E+01 0.53047171514E+01 0.64843278635E+01 0.78529192678E+01 0.92953245527E+01
 0.10638034864E+02 0.11682976527E+02 0.12256310712E+02 0.12256286137E+02 0.11682936529E+02
 0.10638029582E+02 0.92953474285E+01 0.78529220523E+01 0.66844544827E+01 0.53046691574E+01
 0.42519492860E+01 0.34947545849E+01 0.29877341904E+01 0.26956816959E+01 0.26000845725E+01
 0.26956747279E+01 0.29877175366E+01 0.34947439195E+01 0.42519689773E+01 0.53047171514E+01
 0.66845022699E+01 0.83726181506E+01 0.10267858630E+02 0.12176787913E+02 0.13837373117E+02
 0.14975580684E+02 0.15380812429E+02 0.14975597129E+02 0.13837386373E+02 0.12176786689E+02
 0.10267845025E+02 0.83725891174E+01 0.64842731720E+01 0.50157385581E+01 0.39448399835E+01
 0.32116126191E+01 0.27561772431E+01 0.25378584498E+01 0.25378333314E+01 0.27561207961E+01
 0.32115749992E+01 0.39448617805E+01 0.50158005911E+01 0.64843278635E+01 0.83726181506E+01
 0.10619765786E+02 0.13049062227E+02 0.15367486564E+02 0.17197640027E+02 0.18195667759E+02
 0.18195750161E+02 0.17197783587E+02 0.15367528163E+02 0.13048989130E+02 0.10619680309E+02
 0.83725654641E+01 0.59278691026E+01 0.44979520722E+01 0.35003170554E+01 0.28539800845E+01
 0.24925000743E+01 0.23762606509E+01 0.24925101549E+01 0.28539498325E+01 0.35002719796E+01
 0.44979782655E+01 0.59279633927E+01 0.78529192678E+01 0.10267858630E+02 0.13049062227E+02
 0.15922905902E+02 0.18441108739E+02 0.20128005766E+02 0.20716240554E+02 0.20128067664E+02
 0.18441154126E+02 0.15922911135E+02 0.13049067344E+02 0.10267852493E+02 0.78528516806E+01
 0.51297612882E+01 0.38483724691E+01 0.29934321273E+01 0.24759065198E+01 0.22327376914E+01
 0.22327943353E+01 0.24759677580E+01 0.29933775510E+01 0.38483038902E+01 0.51298272137E+01
 0.69291950264E+01 0.92953245527E+01 0.12176787913E+02 0.15367486564E+02 0.18441108739E+02
 0.20812028557E+02 0.22081895379E+02 0.22081880348E+02 0.20812004343E+02 0.18441142498E+02
 0.15367625387E+02 0.12176941134E+02 0.92953338702E+01 0.69290716701E+01 0.42321370904E+01
 0.31683934243E+01 0.24925051811E+01 0.21209980832E+01 0.20027932971E+01 0.21210319748E+01
 0.24924835648E+01 0.31683366901E+01 0.42321586854E+01 0.57857786063E+01 0.79154161937E+01
 0.10638034864E+02 0.13837373117E+02 0.17197640027E+02 0.20128005766E+02 0.22081895379E+02
 0.22762146530E+02 0.22082049797E+02 0.20128167829E+02 0.17197749703E+02 0.13837486481E+02
 0.10638132523E+02 0.79154058127E+01 0.57856934420E+01 0.33609389831E+01 0.25378354201E+01
 0.20458126082E+01 0.18168492240E+01 0.18168405190E+01 0.20457709948E+01 0.25377804173E+01
 0.33609453987E+01 0.46105345100E+01 0.63872767276E+01 0.87554856843E+01 0.11682976527E+02
 0.14975580684E+02 0.18195667759E+02 0.20716240554E+02 0.22081880348E+02 0.22082049797E+02
 0.20716550763E+02 0.18195822860E+02 0.14975581988E+02 0.11682999430E+02 0.87555460384E+01
 0.63872687155E+01 0.46104735734E+01 0.26000978308E+01 0.20042520175E+01 0.16788751539E+01
 0.15757951624E+01 0.16789077242E+01 0.20042251002E+01 0.26000258467E+01 0.35441958757E+01
 0.49322190352E+01 0.68490598299E+01 0.93216531340E+01 0.12256310712E+02 0.15380812429E+02
 0.18195750161E+02 0.20128067664E+02 0.20812004343E+02 0.20128167829E+02 0.18195822860E+02
 0.15380828370E+02 0.12256356318E+02 0.93217261714E+01 0.68490639405E+01 0.49321664518E+01
 0.35442028147E+01 0.19881151678E+01 0.15855129789E+01 0.13985582567E+01 0.13986100306E+01
 0.15855709820E+01 0.19880681956E+01 0.26626865716E+01 0.36881263171E+01 0.51484057837E+01
 0.70999780836E+01 0.95215743589E+01 0.12256286137E+02 0.14975597129E+02 0.17197783587E+02
 0.18441154126E+02 0.18441142498E+02 0.17197749703E+02 0.14975581988E+02 0.12256356318E+02
 0.95216963822E+01 0.71000235796E+01 0.51483515228E+01 0.36881049993E+01 0.26627592538E+01
 0.15289410314E+01 0.12787806200E+01 0.11994766630E+01 0.12788026887E+01 0.15289303601E+01
 0.19862425989E+01 0.27088113993E+01 0.37673287727E+01 0.52245780758E+01 0.70999723528E+01
 0.93216648751E+01 0.11682936529E+02 0.13837386373E+02 0.15367528163E+02 0.15922911135E+02
 0.15367625387E+02 0.13837486481E+02 0.11682999430E+02 0.93217261714E+01 0.71000235796E+01
 0.52245645083E+01 0.37672706855E+01 0.27087932379E+01 0.19862735358E+01 0.12067689625E+01
 0.10702392848E+01 0.10702304013E+01 0.12067394357E+01 0.14998174221E+01 0.19884234850E+01
 0.27257440526E+01 0.37673297282E+01 0.51483716886E+01 0.68490625272E+01 0.87555173501E+01
 0.10638029582E+02 0.12176786689E+02 0.13048989130E+02 0.13049067344E+02 0.12176941134E+02
 0.10638132523E+02 0.87555460384E+01 0.68490639405E+01 0.51483515228E+01 0.37672706855E+01
 0.27256814546E+01 0.19884112351E+01 0.14998489714E+01 0.99867403657E+00 0.94311923153E+00
 0.99867584253E+00 0.11734043641E+01 0.14910216522E+01 0.19884052322E+01 0.27088110254E+01
 0.36881232434E+01 0.49321823632E+01 0.63872993764E+01 0.79154424085E+01 0.92953474285E+01
 0.10267845025E+02 0.10619680309E+02 0.10267852493E+02 0.92953338702E+01 0.79154058127E+01
 0.63872687155E+01 0.49321664518E+01 0.36881049993E+01 0.27087932379E+01 0.19884112351E+01
 0.14910477285E+01 0.11734200721E+01 0.88341917539E+00 0.88343173660E+00 0.97590592449E+00
 0.11734206197E+01 0.14998164383E+01 0.19862165499E+01 0.26626991282E+01 0.35441719408E+01
 0.46105020288E+01 0.57857785233E+01 0.69291716727E+01 0.78529220523E+01 0.83725891174E+01
 0.83725654641E+01 0.78528516806E+01 0.69290716701E+01 0.57856934420E+01 0.46104735734E+01
 0.35442028147E+01 0.26627592538E+01 0.19862735358E+01 0.14998489714E+01 0.11734200721E+01
 0.97588467502E+00 0.88342140834E+00 0.94310907884E+00 0.10702469301E+01 0.12788138942E+01
 0.15855605806E+01 0.20042804448E+01 0.25378060448E+01 0.31683026987E+01 0.38482710843E+01
 0.44979001065E+01 0.50157391485E+01 0.53046708989E+01 0.53046447291E+01 0.50156992952E+01
 0.44979107289E+01 0.38483406934E+01 0.31683815498E+01 0.25378485773E+01 0.20042825324E+01
 0.15855440830E+01 0.12788011388E+01 0.10702494733E+01 0.94312244734E+00 0.88342907881E+00
 0.94310907884E+00 0.10099019765E+01 0.11316582229E+01 0.13210481792E+01 0.15899331747E+01
 0.19439260065E+01 0.23761732900E+01 0.28612863905E+01 0.33518125913E+01 0.37813674621E+01
 0.40777092941E+01 0.41837606616E+01 0.40777348409E+01 0.37814535872E+01 0.33519552660E+01
 0.28614141692E+01 0.23762157447E+01 0.19438860595E+01 0.15898713639E+01 0.13210129513E+01
 0.11316524323E+01 0.10099059771E+01 0.94311124228E+00 0.92197312117E+00 0.10702469301E+01
 0.11316582229E+01 0.12368296739E+01 0.13965083306E+01 0.16179874533E+01 0.19008063825E+01
 0.22327235182E+01 0.25867632197E+01 0.29212643127E+01 0.31855740373E+01 0.33322678228E+01
 0.33322941384E+01 0.31856478913E+01 0.29213627348E+01 0.25868430147E+01 0.22327471744E+01
 0.19007732727E+01 0.16179308082E+01 0.13964615387E+01 0.12368024183E+01 0.11316429900E+01
 0.10702371271E+01 0.10425314033E+01 0.10425352273E+01 0.12788138942E+01 0.13210481792E+01
 0.13965083306E+01 0.15142734502E+01 0.16784299997E+01 0.18852474492E+01 0.21210258336E+01
 0.23612011522E+01 0.25722763455E+01 0.27181813803E+01 0.27704631206E+01 0.27182255734E+01
 0.25723234452E+01 0.23612059727E+01 0.21209795929E+01 0.18851831595E+01 0.16783890257E+01
 0.15142683966E+01 0.13965187910E+01 0.13210481311E+01 0.12787979175E+01 0.12591614769E+01
 0.12536958497E+01 0.12591778251E+01 0.15855605806E+01 0.15899331747E+01 0.16179874533E+01
 0.16784299997E+01 0.17741694109E+01 0.19008095294E+01 0.20458234244E+01 0.21889442267E+01
 0.23050855457E+01 0.23704916909E+01 0.23705013835E+01 0.23051057483E+01 0.21889529335E+01
 0.20458012891E+01 0.19007598733E+01 0.17741204650E+01 0.16784108714E+01 0.16180025167E+01
 0.15899631028E+01 0.15855845418E+01 0.15928548242E+01 0.16001068139E+01 0.16001041127E+01
 0.15928435200E+01 0.20042804448E+01 0.19439260065E+01 0.19008063825E+01 0.18852474492E+01
 0.19008095294E+01 0.19439260124E+01 0.20042772803E+01 0.20663392251E+01 0.21128760640E+01
 0.21301495340E+01 0.21128891141E+01 0.20663614720E+01 0.20042965398E+01 0.19439299368E+01
 0.19007999637E+01 0.18852372095E+01 0.19008032551E+01 0.19439302220E+01 0.20042937703E+01
 0.20663618595E+01 0.21128926030E+01 0.21301498133E+01 0.21128731147E+01 0.20663393215E+01
 0.25378060448E+01 0.23761732900E+01 0.22327235182E+01 0.21210258336E+01 0.20458234244E+01
 0.20042772803E+01 0.19880727737E+01 0.19862137415E+01 0.19884113716E+01 0.19884334324E+01
 0.19862599030E+01 0.19880994283E+01 0.20042589540E+01 0.20457844049E+01 0.21210173743E+01
 0.22327630800E+01 0.23762228644E+01 0.25378194397E+01 0.26956543237E+01 0.28228435324E+01
 0.28941705564E+01 0.28941854536E+01 0.28228787353E+01 0.26956809270E+01 0.31683026987E+01
 0.28612863905E+01 0.25867632197E+01 0.23612011522E+01 0.21889442267E+01 0.20663392251E+01
 0.19862137415E+01 0.19414427108E+01 0.19271117573E+01 0.19414789975E+01 0.19862341952E+01
 0.20662953679E+01 0.21888538307E+01 0.23611454445E+01 0.25868045650E+01 0.28613952355E+01
 0.31683857332E+01 0.34773776353E+01 0.37467249391E+01 0.39318850279E+01 0.39980422947E+01
 0.39319443506E+01 0.37467912169E+01 0.34773808807E+01 0.38482710843E+01 0.33518125913E+01
 0.29212643127E+01 0.25722763455E+01 0.23050855457E+01 0.21128760640E+01 0.19884113716E+01
 0.19271117573E+01 0.19271071961E+01 0.19883796788E+01 0.21127981204E+01 0.23049954156E+01
 0.25722500095E+01 0.29213407160E+01 0.33519420792E+01 0.38483618764E+01 0.43730807527E+01
 0.48662518808E+01 0.52545843372E+01 0.54696357727E+01 0.54696496970E+01 0.52546237975E+01
 0.48662932445E+01 0.43730718552E+01 0.44979001065E+01 0.37813674621E+01 0.31855740373E+01
 0.27181813803E+01 0.23704916909E+01 0.21301495340E+01 0.19884334324E+01 0.19414789975E+01
 0.19883796788E+01 0.21300344381E+01 0.23703753537E+01 0.27181817536E+01 0.31857349136E+01
 0.37815804856E+01 0.44980078189E+01 0.52974843042E+01 0.61047195024E+01 0.68116273522E+01
 0.72994756967E+01 0.74740992907E+01 0.72994875212E+01 0.68116896670E+01 0.61048211557E+01
 0.52975262429E+01 0.50157391485E+01 0.40777092941E+01 0.33322678228E+01 0.27704631206E+01
 0.23705013835E+01 0.21128891141E+01 0.19862599030E+01 0.19862341952E+01 0.21127981204E+01
 0.23703753537E+01 0.27704326127E+01 0.33324301742E+01 0.40779714117E+01 0.50158923031E+01
 0.61211234172E+01 0.73151470283E+01 0.84596084345E+01 0.93748671484E+01 0.98867757339E+01
 0.98867902723E+01 0.93749355335E+01 0.84597583528E+01 0.73153215571E+01 0.61211787220E+01
 0.53046708989E+01 0.41837606616E+01 0.33322941384E+01 0.27182255734E+01 0.23051057483E+01
 0.20663614720E+01 0.19880994283E+01 0.20662953679E+01 0.23049954156E+01 0.27181817536E+01
 0.33324301742E+01 0.41840098756E+01 0.53048179931E+01 0.66962924202E+01 0.82972121373E+01
 0.99588828546E+01 0.11447707218E+02 0.12492184584E+02 0.12869296623E+02 0.12492236447E+02
 0.11447818820E+02 0.99590659899E+01 0.82974130766E+01 0.66963646716E+01 0.53046447291E+01
 0.40777348409E+01 0.31856478913E+01 0.25723234452E+01 0.21889529335E+01 0.20042965398E+01
 0.20042589540E+01 0.21888538307E+01 0.25722500095E+01 0.31857349136E+01 0.40779714117E+01
 0.53048179931E+01 0.69033907841E+01 0.88512666335E+01 0.11021516276E+02 0.13157696873E+02
 0.14901464307E+02 0.15889478957E+02 0.15889517388E+02 0.14901546526E+02 0.13157803818E+02
 0.11021688951E+02 0.88514655553E+01 0.69034445533E+01 0.50156992952E+01 0.37814535872E+01
 0.29213627348E+01 0.23612059727E+01 0.20458012891E+01 0.19439299368E+01 0.20457844049E+01
 0.23611454445E+01 0.29213407160E+01 0.37815804856E+01 0.50158923031E+01 0.66962924202E+01
 0.88512666335E+01 0.11407113571E+02 0.14132606919E+02 0.16628784470E+02 0.18407149853E+02
 0.19054347575E+02 0.18407231274E+02 0.16628865463E+02 0.14132692525E+02 0.11407260337E+02
 0.88513913616E+01 0.66962400459E+01 0.44979107289E+01 0.33519552660E+01 0.25868430147E+01
 0.21209795929E+01 0.19007598733E+01 0.19007999637E+01 0.21210173743E+01 0.25868045650E+01
 0.33519420792E+01 0.44980078189E+01 0.61211234172E+01 0.82972121373E+01 0.11021516276E+02
 0.14132606919E+02 0.17259312612E+02 0.19851914671E+02 0.21332728488E+02 0.21332786516E+02
 0.19852010875E+02 0.17259365766E+02 0.14132675336E+02 0.11021634223E+02 0.82972614921E+01
 0.61210341274E+01 0.38483406934E+01 0.28614141692E+01 0.22327471744E+01 0.18851831595E+01
 0.17741204650E+01 0.18852372095E+01 0.22327630800E+01 0.28613952355E+01 0.38483618764E+01
 0.52974843042E+01 0.73151470283E+01 0.99588828546E+01 0.13157696873E+02 0.16628784470E+02
 0.19851914671E+02 0.22163465340E+02 0.23003790543E+02 0.22163650173E+02 0.19852055529E+02
 0.16628800187E+02 0.13157734493E+02 0.99590041882E+01 0.73152269456E+01 0.52974647150E+01
 0.31683815498E+01 0.23762157447E+01 0.19007732727E+01 0.16783890257E+01 0.16784108714E+01
 0.19008032551E+01 0.23762228644E+01 0.31683857332E+01 0.43730807527E+01 0.61047195024E+01
 0.84596084345E+01 0.11447707218E+02 0.14901464307E+02 0.18407149853E+02 0.21332728488E+02
 0.23003790543E+02 0.23003985669E+02 0.21333068011E+02 0.18407270078E+02 0.14901389630E+02
 0.11447707852E+02 0.84597484686E+01 0.61048404023E+01 0.43731075561E+01 0.25378485773E+01
 0.19438860595E+01 0.16179308082E+01 0.15142683966E+01 0.16180025167E+01 0.19439302220E+01
 0.25378194397E+01 0.34773776353E+01 0.48662518808E+01 0.68116273522E+01 0.93748671484E+01
 0.12492184584E+02 0.15889478957E+02 0.19054347575E+02 0.21332786516E+02 0.22163650173E+02
 0.21333068011E+02 0.19054562076E+02 0.15889436045E+02 0.12492062438E+02 0.93748768245E+01
 0.68117453791E+01 0.48663642364E+01 0.34774527088E+01 0.20042825324E+01 0.15898713639E+01
 0.13964615387E+01 0.13965187910E+01 0.15899631028E+01 0.20042937703E+01 0.26956543237E+01
 0.37467249391E+01 0.52545843372E+01 0.72994756967E+01 0.98867757339E+01 0.12869296623E+02
 0.15889517388E+02 0.18407231274E+02 0.19852010875E+02 0.19852055529E+02 0.18407270078E+02
 0.15889436045E+02 0.12869168222E+02 0.98867469912E+01 0.72995571924E+01 0.52546907822E+01
 0.37468193662E+01 0.26957228844E+01 0.15855440830E+01 0.13210129513E+01 0.12368024183E+01
 0.13210481311E+01 0.15855845418E+01 0.20663618595E+01 0.28228435324E+01 0.39318850279E+01
 0.54696357727E+01 0.74740992907E+01 0.98867902723E+01 0.12492236447E+02 0.14901546526E+02
 0.16628865463E+02 0.17259365766E+02 0.16628800187E+02 0.14901389630E+02 0.12492062438E+02
 0.98867469912E+01 0.74742176520E+01 0.54697861515E+01 0.39319515508E+01 0.28228347539E+01
 0.20663294390E+01 0.12788011388E+01 0.11316524323E+01 0.11316429900E+01 0.12787979175E+01
 0.15928548242E+01 0.21128926030E+01 0.28941705564E+01 0.39980422947E+01 0.54696496970E+01
 0.72994875212E+01 0.93749355335E+01 0.11447818820E+02 0.13157803818E+02 0.14132692525E+02
 0.14132675336E+02 0.13157734493E+02 0.11447707852E+02 0.93748768245E+01 0.72995571924E+01
 0.54697861515E+01 0.39981090114E+01 0.28941200347E+01 0.21128010594E+01 0.15928073911E+01
 0.10702494733E+01 0.10099059771E+01 0.10702371271E+01 0.12591614769E+01 0.16001068139E+01
 0.21301498133E+01 0.28941854536E+01 0.39319443506E+01 0.52546237975E+01 0.68116896670E+01
 0.84597583528E+01 0.99590659899E+01 0.11021688951E+02 0.11407260337E+02 0.11021634223E+02
 0.99590041882E+01 0.84597484686E+01 0.68117453791E+01 0.52546907822E+01 0.39319515508E+01
 0.28941200347E+01 0.21300652610E+01 0.16000594024E+01 0.12591588889E+01 0.94312244734E+00
 0.94311124228E+00 0.10425314033E+01 0.12536958497E+01 0.16001041127E+01 0.21128731147E+01
 0.28228787353E+01 0.37467912169E+01 0.48662932445E+01 0.61048211557E+01 0.73153215571E+01
 0.82974130766E+01 0.88514655553E+01 0.88513913616E+01 0.82972614921E+01 0.73152269456E+01
 0.61048404023E+01 0.48663642364E+01 0.37468193662E+01 0.28228347539E+01 0.21128010594E+01
 0.16000594024E+01 0.12536948106E+01 0.10425518305E+01 0.88342907881E+00 0.92197312117E+00
 0.10425352273E+01 0.12591778251E+01 0.15928435200E+01 0.20663393215E+01 0.26956809270E+01
 0.34773808807E+01 0.43730718552E+01 0.52975262429E+01 0.61211787220E+01 0.66963646716E+01
 0.69034445533E+01 0.66962400459E+01 0.61210341274E+01 0.52974647150E+01 0.43731075561E+01
 0.34774527088E+01 0.26957228844E+01 0.20663294390E+01 0.15928073911E+01 0.12591588889E+01
 0.10425518305E+01 0.92199981261E+00 0.99867379883E+00 0.10702427680E+01 0.11994994414E+01
 0.13985794093E+01 0.16788898295E+01 0.20458221953E+01 0.24925030559E+01 0.29934079890E+01
 0.35002754717E+01 0.39447974502E+01 0.42519128192E+01 0.43619060540E+01 0.42518945217E+01
 0.39447867244E+01 0.35002861555E+01 0.29934318826E+01 0.24925353310E+01 0.20458649641E+01
 0.16789295750E+01 0.13985926950E+01 0.11994858146E+01 0.10702256231E+01 0.99866716063E+00
 0.97589522009E+00 0.10702427680E+01 0.11316579149E+01 0.12368309216E+01 0.13965084101E+01
 0.16179873791E+01 0.19008090467E+01 0.22327283540E+01 0.25867662658E+01 0.29212620784E+01
 0.31855636742E+01 0.33322462202E+01 0.33322627243E+01 0.31856175910E+01 0.29213487052E+01
 0.25868533155E+01 0.22327784649E+01 0.19008150172E+01 0.16179697225E+01 0.13964851625E+01
 0.12368055098E+01 0.11316314786E+01 0.10702221231E+01 0.10425195355E+01 0.10425272602E+01
 0.11994994414E+01 0.12368309216E+01 0.13062125291E+01 0.14172593963E+01 0.15744397542E+01
 0.17741674038E+01 0.20027725115E+01 0.22359118696E+01 0.24407488037E+01 0.25822420740E+01
 0.26329145664E+01 0.25822843195E+01 0.24408172394E+01 0.22359779255E+01 0.20028078459E+01
 0.17741598997E+01 0.15743975974E+01 0.14172009124E+01 0.13061549560E+01 0.12367861021E+01
 0.11994724165E+01 0.11830523311E+01 0.11786991127E+01 0.11830636184E+01 0.13985794093E+01
 0.13965084101E+01 0.14172593963E+01 0.14702214152E+01 0.15587152576E+01 0.16784299847E+01
 0.18168208882E+01 0.19538699474E+01 0.20651733731E+01 0.21278572544E+01 0.21278712061E+01
 0.20651984667E+01 0.19538741607E+01 0.18167901448E+01 0.16783783772E+01 0.15586646116E+01
 0.14701796133E+01 0.14172228963E+01 0.13964779207E+01 0.13985619826E+01 0.14106931232E+01
 0.14205566679E+01 0.14205557662E+01 0.14106967104E+01 0.16788898295E+01 0.16179873791E+01
 0.15744397542E+01 0.15587152576E+01 0.15744415719E+01 0.16179903855E+01 0.16788957748E+01
 0.17414858579E+01 0.17884038776E+01 0.18058140412E+01 0.17884011155E+01 0.17414723230E+01
 0.16788630029E+01 0.16179396281E+01 0.15743866279E+01 0.15586735016E+01 0.15744210677E+01
 0.16179923290E+01 0.16789134822E+01 0.17415064842E+01 0.17884140068E+01 0.18058091231E+01
 0.17883909085E+01 0.17414747091E+01 0.20458221953E+01 0.19008090467E+01 0.17741674038E+01
 0.16784299847E+01 0.16179903855E+01 0.15899356642E+01 0.15855620884E+01 0.15928463592E+01
 0.16001047911E+01 0.16000962660E+01 0.15928300178E+01 0.15855532000E+01 0.15899361305E+01
 0.16179887962E+01 0.16784184570E+01 0.17741522197E+01 0.19008051638E+01 0.20458405126E+01
 0.21889736242E+01 0.23051089122E+01 0.23704929294E+01 0.23704765020E+01 0.23050703294E+01
 0.21889360526E+01 0.24925030559E+01 0.22327283540E+01 0.20027725115E+01 0.18168208882E+01
 0.16788957748E+01 0.15855620884E+01 0.15289229661E+01 0.14998163759E+01 0.14910253156E+01
 0.14998169000E+01 0.15289261491E+01 0.15855710869E+01 0.16789117330E+01 0.18168404819E+01
 0.20027896364E+01 0.22327383182E+01 0.24925044849E+01 0.27561774191E+01 0.29877305247E+01
 0.31478300539E+01 0.32052004150E+01 0.31478373988E+01 0.29877401106E+01 0.27561833122E+01
 0.29934079890E+01 0.25867662658E+01 0.22359118696E+01 0.19538699474E+01 0.17414858579E+01
 0.15928463592E+01 0.14998163759E+01 0.14553128294E+01 0.14553201705E+01 0.14998290699E+01
 0.15928514446E+01 0.17414854946E+01 0.19538741794E+01 0.22359237606E+01 0.25867832719E+01
 0.29934249892E+01 0.34256484604E+01 0.38345734450E+01 0.41586839287E+01 0.43390452753E+01
 0.43390667541E+01 0.41587263364E+01 0.38345989219E+01 0.34256454510E+01 0.35002754717E+01
 0.29212620784E+01 0.24407488037E+01 0.20651733731E+01 0.17884038776E+01 0.16001047911E+01
 0.14910253156E+01 0.14553201705E+01 0.14910342165E+01 0.16001006778E+01 0.17883907876E+01
 0.20651792943E+01 0.24407736748E+01 0.29212758781E+01 0.35002706862E+01 0.41487719927E+01
 0.48074921151E+01 0.53884106771E+01 0.57917771909E+01 0.59366798376E+01 0.57917864622E+01
 0.53884100171E+01 0.48074829688E+01 0.41487727827E+01 0.39447974502E+01 0.31855636742E+01
 0.25822420740E+01 0.21278572544E+01 0.18058140412E+01 0.16000962660E+01 0.14998169000E+01
 0.14998290699E+01 0.16001006778E+01 0.18057853655E+01 0.21278461071E+01 0.25822938328E+01
 0.31856298706E+01 0.39448066105E+01 0.48417970642E+01 0.58165824707E+01 0.67581904805E+01
 0.75168576273E+01 0.79434201677E+01 0.79434239410E+01 0.75168587799E+01 0.67581898985E+01
 0.58166054532E+01 0.48418330557E+01 0.42519128192E+01 0.33322462202E+01 0.26329145664E+01
 0.21278712061E+01 0.17884011155E+01 0.15928300178E+01 0.15289261491E+01 0.15928514446E+01
 0.17883907876E+01 0.21278461071E+01 0.26329481292E+01 0.33323269341E+01 0.42519482375E+01
 0.53961519785E+01 0.67206671617E+01 0.81073808342E+01 0.93608534424E+01 0.10246348410E+02
 0.10567289292E+02 0.10246437310E+02 0.93609413466E+01 0.81074321673E+01 0.67207171713E+01
 0.53961875876E+01 0.43619060540E+01 0.33322627243E+01 0.25822843195E+01 0.20651984667E+01
 0.17414723230E+01 0.15855532000E+01 0.15855710869E+01 0.17414854946E+01 0.20651792943E+01
 0.25822938328E+01 0.33323269341E+01 0.43619366727E+01 0.57062204312E+01 0.73549543535E+01
 0.92095961005E+01 0.11053721597E+02 0.12571914108E+02 0.13436880194E+02 0.13436972713E+02
 0.12572086057E+02 0.11053827118E+02 0.92096527940E+01 0.73550349806E+01 0.57062800760E+01
 0.42518945217E+01 0.31856175910E+01 0.24408172394E+01 0.19538741607E+01 0.16788630029E+01
 0.15899361305E+01 0.16789117330E+01 0.19538741794E+01 0.24407736748E+01 0.31856298706E+01
 0.42519482375E+01 0.57062204312E+01 0.75839265783E+01 0.98343193955E+01 0.12261679436E+02
 0.14507116204E+02 0.16118227171E+02 0.16706694973E+02 0.16118337823E+02 0.14507212864E+02
 0.12261732993E+02 0.98344090491E+01 0.75840375004E+01 0.57062450619E+01 0.39447867244E+01
 0.29213487052E+01 0.22359779255E+01 0.18167901448E+01 0.16179396281E+01 0.16179887962E+01
 0.18168404819E+01 0.22359237606E+01 0.29212758781E+01 0.39448066105E+01 0.53961519785E+01
 0.73549543535E+01 0.98343193955E+01 0.12701548331E+02 0.15616397689E+02 0.18054400370E+02
 0.19456479266E+02 0.19456514477E+02 0.18054447956E+02 0.15616406618E+02 0.12701581771E+02
 0.98344091311E+01 0.73550025266E+01 0.53961099229E+01 0.35002861555E+01 0.25868533155E+01
 0.20028078459E+01 0.16783783772E+01 0.15743866279E+01 0.16784184570E+01 0.20027896364E+01
 0.25867832719E+01 0.35002706862E+01 0.48417970642E+01 0.67206671617E+01 0.92095961005E+01
 0.12261679436E+02 0.15616397689E+02 0.18763672351E+02 0.21042705301E+02 0.21878860756E+02
 0.21042780069E+02 0.18763705653E+02 0.15616376734E+02 0.12261703737E+02 0.92096673583E+01
 0.67206834250E+01 0.48417597349E+01 0.29934318826E+01 0.22327784649E+01 0.17741598997E+01
 0.15586646116E+01 0.15586735016E+01 0.17741522197E+01 0.22327383182E+01 0.29934249892E+01
 0.41487719927E+01 0.58165824707E+01 0.81073808342E+01 0.11053721597E+02 0.14507116204E+02
 0.18054400370E+02 0.21042705301E+02 0.22768420132E+02 0.22768494766E+02 0.21042832073E+02
 0.18054455796E+02 0.14507142829E+02 0.11053803077E+02 0.81074622213E+01 0.58165758820E+01
 0.41487254774E+01 0.24925353310E+01 0.19008150172E+01 0.15743975974E+01 0.14701796133E+01
 0.15744210677E+01 0.19008051638E+01 0.24925044849E+01 0.34256484604E+01 0.48074921151E+01
 0.67581904805E+01 0.93608534424E+01 0.12571914108E+02 0.16118227171E+02 0.19456479266E+02
 0.21878860756E+02 0.22768494766E+02 0.21878992408E+02 0.19456630867E+02 0.16118339877E+02
 0.12572014308E+02 0.93609302698E+01 0.67581893750E+01 0.48074371276E+01 0.34256302211E+01
 0.20458649641E+01 0.16179697225E+01 0.14172009124E+01 0.14172228963E+01 0.16179923290E+01
 0.20458405126E+01 0.27561774191E+01 0.38345734450E+01 0.53884106771E+01 0.75168576273E+01
 0.10246348410E+02 0.13436880194E+02 0.16706694973E+02 0.19456514477E+02 0.21042780069E+02
 0.21042832073E+02 0.19456630867E+02 0.16706810045E+02 0.13436965124E+02 0.10246388894E+02
 0.75168344491E+01 0.53883490208E+01 0.38345459523E+01 0.27562072385E+01 0.16789295750E+01
 0.13964851625E+01 0.13061549560E+01 0.13964779207E+01 0.16789134822E+01 0.21889736242E+01
 0.29877305247E+01 0.41586839287E+01 0.57917771909E+01 0.79434201677E+01 0.10567289292E+02
 0.13436972713E+02 0.16118337823E+02 0.18054447956E+02 0.18763705653E+02 0.18054455796E+02
 0.16118339877E+02 0.13436965124E+02 0.10567278465E+02 0.79434024183E+01 0.57917441051E+01
 0.41586473833E+01 0.29877155400E+01 0.21889842896E+01 0.13985926950E+01 0.12368055098E+01
 0.12367861021E+01 0.13985619826E+01 0.17415064842E+01 0.23051089122E+01 0.31478300539E+01
 0.43390452753E+01 0.59366798376E+01 0.79434239410E+01 0.10246437310E+02 0.12572086057E+02
 0.14507212864E+02 0.15616406618E+02 0.15616376734E+02 0.14507142829E+02 0.12572014308E+02
 0.10246388894E+02 0.79434024183E+01 0.59366734161E+01 0.43390323785E+01 0.31477977458E+01