    2    2   15    1
  0.2001288E+02  0.3839590E-09  0.3839590E-09  0.3839590E-09  0.5000000E-15
  1.000000000000000E-004
  CAR 
 unknown system                          
      8    110      8
 
  0.5000000E-01  0.5000000E-01  0.5000000E-01  0.2000000E-02
    1       -6.171176   1.000000
    2        5.298726   1.000000
    3        5.608063   0.996654
    4        5.608063   0.996654
    5        8.274086   0.000000
    6        8.313096   0.000000
    7        8.313096   0.000000
    8        9.009928   0.000000
 
  0.1500000E+00  0.5000000E-01  0.5000000E-01  0.6000000E-02
    1       -5.999890   1.000000
    2        4.151871   1.000000
    3        5.039151   1.000000
    4        5.530799   0.999439
    5        8.320345   0.000000
    6        8.477376   0.000000
    7        8.709966   0.000000
    8       10.152579   0.000000
 
  0.2500000E+00  0.5000000E-01  0.5000000E-01  0.6000000E-02
    1       -5.580152   1.000000
    2        2.341192   1.000000
    3        4.602811   1.000000
    4        5.178276   1.000000
    5        7.967690   0.000000
    6        8.945434   0.000000
    7        9.276491   0.000000
    8       11.672528   0.000000
 
  0.3500000E+00  0.5000000E-01  0.5000000E-01  0.6000000E-02
    1       -4.944507   1.000000
    2        0.625316   1.000000
    3        4.312225   1.000000
    4        4.813182   1.000000
    5        7.637226   0.000000
    6        9.165824   0.000000
    7        9.359662   0.000000
    8       12.909127   0.000000
 
  0.4500000E+00  0.5000000E-01  0.5000000E-01  0.6000000E-02
    1       -4.217075   1.000000
    2       -0.743733   1.000000
    3        4.183242   1.000000
    4        4.536940   1.000000
    5        7.412431   0.000000
    6        9.158792   0.000000
    7        9.161008   0.000000
    8       13.501804   0.000000
 
 -0.4500000E+00  0.5000000E-01  0.5000000E-01  0.6000000E-02
    1       -3.907414   1.000000
    2       -1.215658   1.000000
    3        4.220595   1.000000
    4        4.394652   1.000000
    5        7.361148   0.000000
    6        9.026454   0.000000
    7        9.210359   0.000000
    8       13.484229   0.000000
 
 -0.3500000E+00  0.5000000E-01  0.5000000E-01  0.6000000E-02
    1       -4.451925   1.000000
    2       -0.347964   1.000000
    3        4.402886   1.000000
    4        4.408076   1.000000
    5        7.471610   0.000000
    6        9.022803   0.000000
    7        9.379515   0.000000
    8       13.198194   0.000000
 
 -0.2500000E+00  0.5000000E-01  0.5000000E-01  0.6000000E-02
    1       -5.176024   1.000000
    2        1.171218   1.000000
    3        4.574081   1.000000
    4        4.726392   1.000000
    5        7.744043   0.000000
    6        9.014032   0.000000
    7        9.525851   0.000000
    8       12.140124   0.000000
 
 -0.1500000E+00  0.5000000E-01  0.5000000E-01  0.6000000E-02
    1       -5.746282   1.000000
    2        2.953281   1.000000
    3        4.893885   1.000000
    4        5.119523   1.000000
    5        8.079273   0.000000
    6        8.692220   0.000000
    7        9.298459   0.000000
    8       11.118486   0.000000
 
 -0.5000000E-01  0.5000000E-01  0.5000000E-01  0.6000000E-02
    1       -6.085249   1.000000
    2        4.739201   1.000000
    3        5.304986   0.999999
    4        5.432036   0.999962
    5        8.120433   0.000000
    6        8.529027   0.000000
    7        8.718850   0.000000
    8        9.563904   0.000000
 
  0.1500000E+00  0.1500000E+00  0.5000000E-01  0.6000000E-02
    1       -5.913912   1.000000
    2        4.042364   1.000000
    3        4.869808   1.000000
    4        4.972257   1.000000
    5        7.811432   0.000000
    6        9.092339   0.000000
    7        9.361370   0.000000
    8       10.133238   0.000000
 
  0.2500000E+00  0.1500000E+00  0.5000000E-01  0.1200000E-01
    1       -5.575797   1.000000
    2        2.801703   1.000000
    3        4.124968   1.000000
    4        4.780004   1.000000
    5        7.877273   0.000000
    6        9.259488   0.000000
    7        9.988369   0.000000
    8       10.502111   0.000000
 
  0.3500000E+00  0.1500000E+00  0.5000000E-01  0.1200000E-01
    1       -5.006880   1.000000
    2        1.173368   1.000000
    3        3.693672   1.000000
    4        4.415630   1.000000
    5        8.091812   0.000000
    6        9.235498   0.000000
    7       10.262949   0.000000
    8       10.754361   0.000000
 
  0.4500000E+00  0.1500000E+00  0.5000000E-01  0.1200000E-01
    1       -4.282741   1.000000
    2       -0.289801   1.000000
    3        3.419433   1.000000
    4        4.135715   1.000000
    5        8.029737   0.000000
    6        9.113120   0.000000
    7       10.137814   0.000000
    8       11.892248   0.000000
 
 -0.4500000E+00  0.1500000E+00  0.5000000E-01  0.1200000E-01
    1       -3.735666   1.000000
    2       -1.142005   1.000000
    3        3.238905   1.000000
    4        4.090359   1.000000
    5        8.012962   0.000000
    6        8.989941   0.000000
    7        9.978508   0.000000
    8       13.463858   0.000000
 
 -0.3500000E+00  0.1500000E+00  0.5000000E-01  0.1200000E-01
    1       -4.049977   1.000000
    2       -0.671911   1.000000
    3        3.179769   1.000000
    4        4.280091   1.000000
    5        8.132681   0.000000
    6        9.014393   0.000000
    7        9.943474   0.000000
    8       12.951908   0.000000
 
 -0.2500000E+00  0.1500000E+00  0.5000000E-01  0.1200000E-01
    1       -4.778473   1.000000
    2        0.656927   1.000000
    3        3.301376   1.000000
    4        4.634243   1.000000
    5        8.363665   0.000000
    6        9.071380   0.000000
    7        9.985637   0.000000
    8       11.573979   0.000000
 
 -0.1500000E+00  0.1500000E+00  0.5000000E-01  0.1200000E-01
    1       -5.411881   1.000000
    2        2.231163   1.000000
    3        3.683588   1.000000
    4        5.042129   1.000000
    5        8.513912   0.000000
    6        8.873771   0.000000
    7        9.765275   0.000000
    8       10.950001   0.000000
 
 -0.5000000E-01  0.1500000E+00  0.5000000E-01  0.1200000E-01
    1       -5.829719   1.000000
    2        3.488708   1.000000
    3        4.593802   1.000000
    4        5.274516   1.000000
    5        8.200034   0.000000
    6        8.710966   0.000000
    7        9.240321   0.000000
    8       10.677743   0.000000
 
  0.2500000E+00  0.2500000E+00  0.5000000E-01  0.6000000E-02
    1       -5.319580   1.000000
    2        2.449503   1.000000
    3        3.962209   1.000000
    4        3.990392   1.000000
    5        7.111715   0.000000
    6        9.279857   0.000000
    7       10.812337   0.000000
    8       10.927292   0.000000
 
  0.3500000E+00  0.2500000E+00  0.5000000E-01  0.1200000E-01
    1       -4.824591   1.000000
    2        1.362189   1.000000
    3        3.278823   1.000000
    4        3.747691   1.000000
    5        7.249142   0.000000
    6        8.891589   0.000000
    7       10.961680   0.000000
    8       11.681784   0.000000
 
  0.4500000E+00  0.2500000E+00  0.5000000E-01  0.1200000E-01
    1       -4.136954   1.000000
    2        0.085953   1.000000
    3        2.670037   1.000000
    4        3.522909   1.000000
    5        7.501029   0.000000
    6        9.587901   0.000000
    7       10.655814   0.000000
    8       11.756520   0.000000
 
 -0.4500000E+00  0.2500000E+00  0.5000000E-01  0.1200000E-01
    1       -3.453667   1.000000
    2       -0.930422   1.000000
    3        2.194655   1.000000
    4        3.542460   1.000000
    5        7.617182   0.000000
    6       10.318105   0.000000
    7       11.227041   0.000000
    8       11.552461   0.000000
 
 -0.3500000E+00  0.2500000E+00  0.5000000E-01  0.1200000E-01
    1       -3.477778   1.000000
    2       -0.891185   1.000000
    3        1.948916   1.000000
    4        3.790551   1.000000
    5        7.892577   0.000000
    6       10.098618   0.000000
    7       11.363816   0.000000
    8       12.853281   0.000000
 
 -0.2500000E+00  0.2500000E+00  0.5000000E-01  0.1200000E-01
    1       -4.168565   1.000000
    2        0.112217   1.000000
    3        2.051840   1.000000
    4        4.209590   1.000000
    5        8.332898   0.000000
    6        9.863042   0.000000
    7       11.092305   0.000000
    8       11.403863   0.000000
 
 -0.1500000E+00  0.2500000E+00  0.5000000E-01  0.1200000E-01
    1       -4.847539   1.000000
    2        1.092025   1.000000
    3        2.798799   1.000000
    4        4.671780   1.000000
    5        8.696225   0.000000
    6        9.156510   0.000000
    7       10.377428   0.000000
    8       10.960587   0.000000
 
 -0.5000000E-01  0.2500000E+00  0.5000000E-01  0.1200000E-01
    1       -5.332826   1.000000
    2        1.742941   1.000000
    3        4.164858   1.000000
    4        4.908741   1.000000
    5        8.140293   0.000000
    6        8.915449   0.000000
    7        9.684164   0.000000
    8       11.409900   0.000000
 
  0.3500000E+00  0.3500000E+00  0.5000000E-01  0.6000000E-02
    1       -4.403699   1.000000
    2        0.744951   1.000000
    3        3.210161   1.000000
    4        3.320105   1.000000
    5        6.596376   0.000009
    6        7.906546   0.000000
    7       12.566884   0.000000
    8       12.645167   0.000000
 
  0.4500000E+00  0.3500000E+00  0.5000000E-01  0.1200000E-01
    1       -3.770706   1.000000
    2       -0.178334   1.000000
    3        2.672548   1.000000
    4        3.057702   1.000000
    5        6.853278   0.000000
    6        7.786599   0.000000
    7       12.579372   0.000000
    8       13.509732   0.000000
 
 -0.4500000E+00  0.3500000E+00  0.5000000E-01  0.1200000E-01
    1       -3.036115   1.000000
    2       -1.056142   1.000000
    3        1.870192   1.000000
    4        3.065540   1.000000
    5        7.067057   0.000000
    6        8.999674   0.000000
    7       12.236907   0.000000
    8       13.467281   0.000000
 
 -0.3500000E+00  0.3500000E+00  0.5000000E-01  0.1200000E-01
    1       -2.812272   1.000000
    2       -1.281122   1.000000
    3        1.375516   1.000000
    4        3.304165   1.000000
    5        7.343176   0.000000
    6       10.862874   0.000000
    7       11.896161   0.000000
    8       12.857746   0.000000
 
 -0.2500000E+00  0.3500000E+00  0.5000000E-01  0.1200000E-01
    1       -3.443742   1.000000
    2       -0.687944   1.000000
    3        1.536110   1.000000
    4        3.728753   1.000000
    5        7.823912   0.000000
    6       10.758453   0.000000
    7       11.897297   0.000000
    8       12.218719   0.000000
 
 -0.1500000E+00  0.3500000E+00  0.5000000E-01  0.1200000E-01
    1       -4.125502   1.000000
    2       -0.245362   1.000000
    3        2.529032   1.000000
    4        4.235063   1.000000
    5        8.315566   0.000000
    6        9.370153   0.000000
    7       10.545604   0.000000
    8       12.088704   0.000000
 
 -0.5000000E-01  0.3500000E+00  0.5000000E-01  0.1200000E-01
    1       -4.643836   1.000000
    2        0.134899   1.000000
    3        3.917385   1.000000
    4        4.550505   1.000000
    5        7.875730   0.000000
    6        9.021916   0.000000
    7        9.637045   0.000000
    8       12.397275   0.000000
 
  0.4500000E+00  0.4500000E+00  0.5000000E-01  0.6000000E-02
    1       -3.193599   1.000000
    2       -0.937942   1.000000
    3        2.788119   1.000000
    4        2.934577   1.000000
    5        6.408306   0.001606
    6        6.963097   0.000000
    7       14.431698   0.000000
    8       14.435671   0.000000
 
 -0.4500000E+00  0.4500000E+00  0.5000000E-01  0.1200000E-01
    1       -2.460232   1.000000
    2       -1.721529   1.000000
    3        2.395326   1.000000
    4        2.773695   1.000000
    5        6.731703   0.000000
    6        7.243914   0.000000
    7       14.301557   0.000000
    8       14.995359   0.000000
 
 -0.3500000E+00  0.4500000E+00  0.5000000E-01  0.1200000E-01
    1       -2.478422   1.000000
    2       -1.620345   1.000000
    3        1.696374   1.000000
    4        2.977733   1.000000
    5        6.972948   0.000000
    6        8.882051   0.000000
    7       13.064112   0.000000
    8       13.933514   0.000000
 
 -0.2500000E+00  0.4500000E+00  0.5000000E-01  0.1200000E-01
    1       -3.066352   1.000000
    2       -1.148716   1.000000
    3        1.676824   1.000000
    4        3.382829   1.000000
    5        7.437282   0.000000
    6       10.873155   0.000000
    7       11.231025   0.000000
    8       12.369270   0.000000
 
 -0.1500000E+00  0.4500000E+00  0.5000000E-01  0.1200000E-01
    1       -3.568346   1.000000
    2       -1.088277   1.000000
    3        2.569814   1.000000
    4        3.912135   1.000000
    5        8.001511   0.000000
    6        9.443689   0.000000
    7       10.630487   0.000000
    8       13.339475   0.000000
 
 -0.5000000E-01  0.4500000E+00  0.5000000E-01  0.1200000E-01
    1       -3.965428   1.000000
    2       -1.019814   1.000000
    3        3.814733   1.000000
    4        4.331023   1.000000
    5        7.717034   0.000000
    6        8.965094   0.000000
    7        9.476805   0.000000
    8       13.527873   0.000000
 
 -0.4500000E+00 -0.4500000E+00  0.5000000E-01  0.6000000E-02
    1       -2.492416   1.000000
    2       -1.737057   1.000000
    3        2.703471   1.000000
    4        2.856400   1.000000
    5        6.441742   0.000728
    6        6.695689   0.000000
    7       15.253896   0.000000
    8       15.295170   0.000000
 
 -0.3500000E+00 -0.4500000E+00  0.5000000E-01  0.1200000E-01
    1       -3.143131   1.000000
    2       -0.959289   1.000000
    3        2.488346   1.000000
    4        2.867490   1.000000
    5        6.762964   0.000000
    6        7.435760   0.000000
    7       13.431770   0.000000
    8       14.426573   0.000000
 
 -0.2500000E+00 -0.4500000E+00  0.5000000E-01  0.1200000E-01
    1       -3.608065   1.000000
    2       -0.471313   1.000000
    3        2.205927   1.000000
    4        3.244206   1.000000
    5        7.248144   0.000000
    6        9.233708   0.000000
    7       11.426245   0.000000
    8       12.596618   0.000000
 
 -0.1500000E+00 -0.4500000E+00  0.5000000E-01  0.1200000E-01
    1       -3.876679   1.000000
    2       -0.644323   1.000000
    3        2.813693   1.000000
    4        3.789817   1.000000
    5        7.850605   0.000000
    6        9.642926   0.000000
    7       10.789178   0.000000
    8       11.501238   0.000000
 
 -0.3500000E+00 -0.3500000E+00  0.5000000E-01  0.6000000E-02
    1       -3.832877   1.000000
    2       -0.105560   1.000000
    3        2.957697   1.000000
    4        3.090007   1.000000
    5        6.458094   0.000485
    6        7.371987   0.000000
    7       13.508585   0.000000
    8       13.539189   0.000000
 
 -0.2500000E+00 -0.3500000E+00  0.5000000E-01  0.1200000E-01
    1       -4.333191   1.000000
    2        0.601259   1.000000
    3        2.939572   1.000000
    4        3.349700   1.000000
    5        7.015767   0.000000
    6        8.279525   0.000000
    7       11.753858   0.000000
    8       12.585481   0.000000
 
 -0.1500000E+00 -0.3500000E+00  0.5000000E-01  0.1200000E-01
    1       -4.606381   1.000000
    2        0.626794   1.000000
    3        3.190041   1.000000
    4        3.917132   1.000000
    5        7.804919   0.000000
    6        9.849535   0.000000
    7       10.145458   0.000000
    8       10.987191   0.000000
 
 -0.2500000E+00 -0.2500000E+00  0.5000000E-01  0.6000000E-02
    1       -4.900232   1.000000
    2        1.602560   1.000000
    3        3.547562   1.000000
    4        3.623188   1.000000
    5        6.817584   0.000000
    6        8.578950   0.000000
    7       11.670405   0.000000
    8       11.776354   0.000000
 
 -0.1500000E+00 -0.2500000E+00  0.5000000E-01  0.1200000E-01
    1       -5.239877   1.000000
    2        2.095119   1.000000
    3        3.679535   1.000000
    4        4.238401   1.000000
    5        7.544600   0.000000
    6        9.480410   0.000000
    7       10.311693   0.000000
    8       10.813454   0.000000
 
 -0.1500000E+00 -0.1500000E+00  0.5000000E-01  0.6000000E-02
    1       -5.658164   1.000000
    2        3.269265   1.000000
    3        4.413805   1.000000
    4        4.448621   1.000000
    5        7.455403   0.000000
    6        9.668419   0.000000
    7       10.113755   0.000000
    8       10.233654   0.000000
 
  0.1500000E+00  0.1500000E+00  0.1500000E+00  0.2000000E-02
    1       -5.915142   1.000000
    2        3.588936   1.000000
    3        5.279103   1.000000
    4        5.279103   1.000000
    5        8.014083   0.000000
    6        8.790818   0.000000
    7        8.790818   0.000000
    8       10.621776   0.000000
 
  0.2500000E+00  0.1500000E+00  0.1500000E+00  0.6000000E-02
    1       -5.661902   1.000000
    2        2.862464   1.000000
    3        4.149950   1.000000
    4        5.344052   0.999998
    5        8.493188   0.000000
    6        8.808072   0.000000
    7        9.122859   0.000000
    8       11.172845   0.000000
 
  0.3500000E+00  0.1500000E+00  0.1500000E+00  0.6000000E-02
    1       -5.168127   1.000000
    2        1.653423   1.000000
    3        3.223939   1.000000
    4        5.020030   1.000000
    5        8.580992   0.000000
    6        9.315103   0.000000
    7        9.604784   0.000000
    8       11.391780   0.000000
 
  0.4500000E+00  0.1500000E+00  0.1500000E+00  0.6000000E-02
    1       -4.481703   1.000000
    2        0.179200   1.000000
    3        2.903111   1.000000
    4        4.578677   1.000000
    5        8.247719   0.000000
    6        9.661609   0.000000
    7        9.695360   0.000000
    8       12.440669   0.000000
 
 -0.4500000E+00  0.1500000E+00  0.1500000E+00  0.6000000E-02
    1       -3.799318   1.000000
    2       -0.948893   1.000000
    3        2.886119   1.000000
    4        4.207553   1.000000
    5        7.948193   0.000000
    6        9.513749   0.000000
    7        9.886804   0.000000
    8       13.842325   0.000000
 
 -0.3500000E+00  0.1500000E+00  0.1500000E+00  0.6000000E-02
    1       -3.793068   1.000000
    2       -0.960649   1.000000
    3        3.091057   1.000000
    4        3.979038   1.000000
    5        7.797884   0.000000
    6        9.499241   0.000000
    7       10.123871   0.000000
    8       12.493778   0.000000
 
 -0.2500000E+00  0.1500000E+00  0.1500000E+00  0.6000000E-02
    1       -4.473108   1.000000
    2        0.161294   1.000000
    3        3.480293   1.000000
    4        3.934345   1.000000
    5        7.799615   0.000000
    6        9.623289   0.000000
    7       10.424131   0.000000
    8       10.915905   0.000000
 
 -0.1500000E+00  0.1500000E+00  0.1500000E+00  0.6000000E-02
    1       -5.161676   1.000000
    2        1.692500   1.000000
    3        3.984053   1.000000
    4        4.084701   1.000000
    5        7.733833   0.000000
    6        9.575327   0.000000
    7       10.274028   0.000000
    8       10.538698   0.000000
 
  0.2500000E+00  0.2500000E+00  0.1500000E+00  0.6000000E-02
    1       -5.494459   1.000000
    2        2.319078   1.000000
    3        4.479254   1.000000
    4        4.612011   1.000000
    5        8.032733   0.000000
    6        8.985140   0.000000
    7        9.895200   0.000000
    8       10.833697   0.000000
 
  0.3500000E+00  0.2500000E+00  0.1500000E+00  0.1200000E-01
    1       -5.081767   1.000000
    2        1.606535   1.000000
    3        3.247290   1.000000
    4        4.519658   1.000000
    5        8.244127   0.000000
    6        9.311230   0.000000
    7       10.259755   0.000000
    8       10.639875   0.000000
 
  0.4500000E+00  0.2500000E+00  0.1500000E+00  0.1200000E-01
    1       -4.454083   1.000000
    2        0.547987   1.000000
    3        2.437311   1.000000
    4        4.123380   1.000000
    5        8.838992   0.000000
    6        9.109355   0.000000
    7       10.326614   0.000000
    8       11.391155   0.000000
 
 -0.4500000E+00  0.2500000E+00  0.1500000E+00  0.1200000E-01
    1       -3.724569   1.000000
    2       -0.614545   1.000000
    3        2.192328   1.000000
    4        3.724539   1.000000
    5        8.639704   0.000000
    6        9.088181   0.000000
    7       11.428168   0.000000
    8       11.772639   0.000000
 
 -0.3500000E+00  0.2500000E+00  0.1500000E+00  0.1200000E-01
    1       -3.397975   1.000000
    2       -1.070805   1.000000
    3        2.235052   1.000000
    4        3.527534   1.000000
    5        8.333806   0.000000
    6        9.277699   0.000000
    7       11.576752   0.000000
    8       12.344768   0.000000
 
 -0.2500000E+00  0.2500000E+00  0.1500000E+00  0.1200000E-01
    1       -3.951608   1.000000
    2       -0.274261   1.000000
    3        2.450476   1.000000
    4        3.614187   1.000000
    5        8.179973   0.000000
    6        9.619255   0.000000
    7       10.556051   0.000000
    8       11.675110   0.000000
 
 -0.1500000E+00  0.2500000E+00  0.1500000E+00  0.1200000E-01
    1       -4.674566   1.000000
    2        0.981560   1.000000
    3        2.866869   1.000000
    4        3.943798   1.000000
    5        7.967531   0.000000
    6        9.471756   0.000000
    7       10.047389   0.000000
    8       11.557336   0.000000
 
  0.3500000E+00  0.3500000E+00  0.1500000E+00  0.6000000E-02
    1       -4.751132   1.000000
    2        1.061464   1.000000
    3        3.365456   1.000000
    4        3.732287   1.000000
    5        7.408757   0.000000
    6        9.314574   0.000000
    7       10.709777   0.000000
    8       11.214189   0.000000
 
  0.4500000E+00  0.3500000E+00  0.1500000E+00  0.1200000E-01
    1       -4.195250   1.000000
    2        0.340262   1.000000
    3        2.551735   1.000000
    4        3.410440   1.000000
    5        7.726911   0.000000
    6        8.942365   0.000000
    7       10.678259   0.000000
    8       12.507785   0.000000
 
 -0.4500000E+00  0.3500000E+00  0.1500000E+00  0.1200000E-01
    1       -3.477021   1.000000
    2       -0.535495   1.000000
    3        1.956056   1.000000
    4        2.974095   1.000000
    5        8.452410   0.000000
    6        9.421087   0.000000
    7       10.251463   0.000000
    8       13.437792   0.000000
 
 -0.3500000E+00  0.3500000E+00  0.1500000E+00  0.1200000E-01
    1       -2.908100   1.000000
    2       -1.195315   1.000000
    3        1.652001   1.000000
    4        2.830392   1.000000
    5        8.703271   0.000000
    6        9.787210   0.000000
    7       11.187440   0.000000
    8       12.430020   0.000000
 
 -0.2500000E+00  0.3500000E+00  0.1500000E+00  0.1200000E-01
    1       -3.266331   1.000000
    2       -0.786484   1.000000
    3        1.653958   1.000000
    4        3.056061   1.000000
    5        9.080924   0.000000
    6        9.497233   0.000000
    7       10.532956   0.000000
    8       13.333837   0.000000
 
 -0.1500000E+00  0.3500000E+00  0.1500000E+00  0.1200000E-01
    1       -3.994228   1.000000
    2        0.010281   1.000000
    3        2.152990   1.000000
    4        3.520850   1.000000
    5        8.630534   0.000000
    6        9.589026   0.000000
    7        9.836909   0.000000
    8       12.408632   0.000000
 
  0.4500000E+00  0.4500000E+00  0.1500000E+00  0.6000000E-02
    1       -3.714824   1.000000
    2       -0.281593   1.000000
    3        2.415769   1.000000
    4        3.219419   1.000000
    5        6.881191   0.000000
    6        8.381123   0.000000
    7       12.492151   0.000000
    8       12.673517   0.000000
 
 -0.4500000E+00  0.4500000E+00  0.1500000E+00  0.1200000E-01
    1       -3.046960   1.000000
    2       -1.010500   1.000000
    3        2.151474   1.000000
    4        2.690192   1.000000
    5        7.435777   0.000000
    6        8.208621   0.000000
    7       12.204205   0.000000
    8       14.372876   0.000000
 
 -0.3500000E+00  0.4500000E+00  0.1500000E+00  0.1200000E-01
    1       -2.342478   1.000000
    2       -1.675424   1.000000
    3        1.819449   1.000000
    4        2.304585   1.000000
    5        8.270080   0.000000
    6        9.032769   0.000000
    7       11.780590   0.000000
    8       12.666398   0.000000
 
 -0.2500000E+00  0.4500000E+00  0.1500000E+00  0.1200000E-01
    1       -2.635517   1.000000
    2       -1.378406   1.000000
    3        1.501458   1.000000
    4        2.630467   1.000000
    5        8.623715   0.000000
    6       10.449413   0.000000
    7       11.128055   0.000000
    8       11.566717   0.000000
 
 -0.1500000E+00  0.4500000E+00  0.1500000E+00  0.1200000E-01
    1       -3.303154   1.000000
    2       -0.930587   1.000000
    3        1.896917   1.000000
    4        3.216470   1.000000
    5        8.861276   0.000000
    6        9.153822   0.000000
    7       11.365098   0.000000
    8       12.557755   0.000000
 
 -0.4500000E+00 -0.4500000E+00  0.1500000E+00  0.6000000E-02
    1       -2.461129   1.000000
    2       -1.689412   1.000000
    3        2.004996   1.000000
    4        2.992567   1.000000
    5        6.628842   0.000003
    6        7.975258   0.000000
    7       14.181185   0.000000
    8       14.381211   0.000000
 
 -0.3500000E+00 -0.4500000E+00  0.1500000E+00  0.1200000E-01
    1       -2.404168   1.000000
    2       -1.697316   1.000000
    3        2.070339   1.000000
    4        2.542352   1.000000
    5        7.380056   0.000000
    6        8.054912   0.000000
    7       13.052416   0.000000
    8       13.943394   0.000000
 
 -0.2500000E+00 -0.4500000E+00  0.1500000E+00  0.1200000E-01
    1       -2.916746   1.000000
    2       -1.102037   1.000000
    3        1.849039   1.000000
    4        2.549739   1.000000
    5        8.330979   0.000000
    6        9.162062   0.000000
    7       10.975124   0.000000
    8       13.589147   0.000000
 
 -0.3500000E+00 -0.3500000E+00  0.1500000E+00  0.6000000E-02
    1       -3.104216   1.000000
    2       -0.991983   1.000000
    3        2.141259   1.000000
    4        3.068891   1.000000
    5        6.715713   0.000000
    6        8.110938   0.000000
    7       13.436792   0.000000
    8       13.453092   0.000000
 
 -0.2500000E+00 -0.3500000E+00  0.1500000E+00  0.1200000E-01
    1       -3.649642   1.000000
    2       -0.324594   1.000000
    3        2.313224   1.000000
    4        2.983605   1.000000
    5        7.549899   0.000000
    6        8.510232   0.000000
    7       11.411362   0.000000
    8       13.482406   0.000000
 
 -0.2500000E+00 -0.2500000E+00  0.1500000E+00  0.6000000E-02
    1       -4.266472   1.000000
    2        0.406494   1.000000
    3        2.829327   1.000000
    4        3.443278   1.000000
    5        7.118548   0.000000
    6        8.791735   0.000000
    7       11.580656   0.000000
    8       11.928495   0.000000
 
  0.2500000E+00  0.2500000E+00  0.2500000E+00  0.2000000E-02
    1       -5.417486   1.000000
    2        1.744720   1.000000
    3        4.902090   1.000000
    4        4.902090   1.000000
    5        7.631743   0.000000
    6        9.193256   0.000000
    7        9.193256   0.000000
    8       12.406161   0.000000
 
  0.3500000E+00  0.2500000E+00  0.2500000E+00  0.6000000E-02
    1       -5.092967   1.000000
    2        1.180942   1.000000
    3        3.738738   1.000000
    4        4.948940   1.000000
    5        8.171133   0.000000
    6        9.228193   0.000000
    7        9.473450   0.000000
    8       12.042039   0.000000
 
  0.4500000E+00  0.2500000E+00  0.2500000E+00  0.6000000E-02
    1       -4.541000   1.000000
    2        0.590366   1.000000
    3        2.390466   1.000000
    4        4.581418   1.000000
    5        8.352659   0.000000
    6        9.988833   0.000000
    7       10.251750   0.000000
    8       11.653993   0.000000
 
 -0.4500000E+00  0.2500000E+00  0.2500000E+00  0.6000000E-02
    1       -3.827387   1.000000
    2       -0.302849   1.000000
    3        1.744094   1.000000
    4        4.095612   1.000000
    5        7.883955   0.000000
    6       10.830129   0.000000
    7       11.071393   0.000000
    8       12.252907   0.000000
 
 -0.3500000E+00  0.2500000E+00  0.2500000E+00  0.6000000E-02
    1       -3.245990   1.000000
    2       -1.074842   1.000000
    3        1.764504   1.000000
    4        3.695221   1.000000
    5        7.456650   0.000000
    6       11.133053   0.000000
    7       11.267023   0.000000
    8       12.113320   0.000000
 
 -0.2500000E+00  0.2500000E+00  0.2500000E+00  0.6000000E-02
    1       -3.535159   1.000000
    2       -0.703508   1.000000
    3        2.166209   1.000000
    4        3.468308   1.000000
    5        7.234181   0.000000
    6       10.150322   0.000000
    7       11.342502   0.000000
    8       11.626173   0.000000
 
  0.3500000E+00  0.3500000E+00  0.2500000E+00  0.6000000E-02
    1       -4.859253   1.000000
    2        0.642860   1.000000
    3        4.171552   1.000000
    4        4.241602   1.000000
    5        7.960066   0.000000
    6        9.053651   0.000000
    7        9.938697   0.000000
    8       11.491485   0.000000
 
  0.4500000E+00  0.3500000E+00  0.2500000E+00  0.1200000E-01
    1       -4.394882   1.000000
    2        0.174562   1.000000
    3        2.871761   1.000000
    4        4.129981   1.000000
    5        8.415296   0.000000
    6        9.135846   0.000000
    7       10.702904   0.000000
    8       11.093803   0.000000
 
 -0.4500000E+00  0.3500000E+00  0.2500000E+00  0.1200000E-01
    1       -3.739177   1.000000
    2       -0.342768   1.000000
    3        1.801515   1.000000
    4        3.651837   1.000000
    5        8.609712   0.000000
    6        9.655043   0.000000
    7       10.857301   0.000000
    8       12.279611   0.000000
 