    2    2   15    1
  0.2001288E+02  0.3839590E-09  0.3839590E-09  0.3839590E-09  0.5000000E-15
  1.000000000000000E-004
  CAR 
 unknown system                          
      8    110      8
 
  0.5000000E-01  0.5000000E-01  0.5000000E-01  0.2000000E-02
    1       -6.102222   1.000000
    2        5.514053   0.999999
    3        5.820207   0.995054
    4        5.820208   0.995054
    5        8.513721   0.000000
    6        8.537118   0.000000
    7        8.537118   0.000000
    8        9.444809   0.000000
 
  0.1500000E+00  0.5000000E-01  0.5000000E-01  0.6000000E-02
    1       -5.927768   1.000000
    2        4.363912   1.000000
    3        5.237717   1.000000
    4        5.743005   0.999113
    5        8.593213   0.000000
    6        8.703610   0.000000
    7        8.954461   0.000000
    8       10.542678   0.000000
 
  0.2500000E+00  0.5000000E-01  0.5000000E-01  0.6000000E-02
    1       -5.500011   1.000000
    2        2.527177   1.000000
    3        4.795857   1.000000
    4        5.384415   1.000000
    5        8.254820   0.000000
    6        9.176069   0.000000
    7        9.516468   0.000000
    8       12.028452   0.000000
 
  0.3500000E+00  0.5000000E-01  0.5000000E-01  0.6000000E-02
    1       -4.851230   1.000000
    2        0.782208   1.000000
    3        4.502766   1.000000
    4        5.013427   1.000000
    5        7.926027   0.000000
    6        9.385598   0.000000
    7        9.582642   0.000000
    8       13.214963   0.000000
 
  0.4500000E+00  0.5000000E-01  0.5000000E-01  0.6000000E-02
    1       -4.105562   1.000000
    2       -0.614805   1.000000
    3        4.374008   1.000000
    4        4.732620   1.000000
    5        7.700607   0.000000
    6        9.367336   0.000000
    7        9.369070   0.000000
    8       13.758099   0.000000
 
 -0.4500000E+00  0.5000000E-01  0.5000000E-01  0.6000000E-02
    1       -3.785689   1.000000
    2       -1.099438   1.000000
    3        4.413603   1.000000
    4        4.587063   1.000000
    5        7.648879   0.000000
    6        9.229528   0.000000
    7        9.417716   0.000000
    8       13.730912   0.000000
 
 -0.3500000E+00  0.5000000E-01  0.5000000E-01  0.6000000E-02
    1       -4.346907   1.000000
    2       -0.210070   1.000000
    3        4.593975   1.000000
    4        4.604720   1.000000
    5        7.758681   0.000000
    6        9.231333   0.000000
    7        9.595465   0.000000
    8       13.465703   0.000000
 
 -0.2500000E+00  0.5000000E-01  0.5000000E-01  0.6000000E-02
    1       -5.087742   1.000000
    2        1.337753   1.000000
    3        4.766199   1.000000
    4        4.927738   1.000000
    5        8.029907   0.000000
    6        9.238661   0.000000
    7        9.758252   0.000000
    8       12.406045   0.000000
 
 -0.1500000E+00  0.5000000E-01  0.5000000E-01  0.6000000E-02
    1       -5.669365   1.000000
    2        3.148571   1.000000
    3        5.090269   1.000000
    4        5.326753   1.000000
    5        8.353227   0.000000
    6        8.933769   0.000000
    7        9.540477   0.000000
    8       11.472654   0.000000
 
 -0.5000000E-01  0.5000000E-01  0.5000000E-01  0.6000000E-02
    1       -6.014713   1.000000
    2        4.956789   1.000000
    3        5.509018   0.999999
    4        5.643818   0.999935
    5        8.341990   0.000000
    6        8.790347   0.000000
    7        8.952697   0.000000
    8        9.973297   0.000000
 
  0.1500000E+00  0.1500000E+00  0.5000000E-01  0.6000000E-02
    1       -5.840216   1.000000
    2        4.263094   1.000000
    3        5.063979   1.000000
    4        5.176071   1.000000
    5        8.025554   0.000000
    6        9.371007   0.000000
    7        9.608410   0.000000
    8       10.501533   0.000000
 
  0.2500000E+00  0.1500000E+00  0.5000000E-01  0.1200000E-01
    1       -5.495730   1.000000
    2        3.008403   1.000000
    3        4.304928   1.000000
    4        4.980882   1.000000
    5        8.093660   0.000000
    6        9.562493   0.000000
    7       10.245433   0.000000
    8       10.746028   0.000000
 
  0.3500000E+00  0.1500000E+00  0.5000000E-01  0.1200000E-01
    1       -4.915472   1.000000
    2        1.348480   1.000000
    3        3.872700   1.000000
    4        4.608318   1.000000
    5        8.324693   0.000000
    6        9.513451   0.000000
    7       10.513277   0.000000
    8       10.980338   0.000000
 
  0.4500000E+00  0.1500000E+00  0.5000000E-01  0.1200000E-01
    1       -4.174734   1.000000
    2       -0.144809   1.000000
    3        3.599157   1.000000
    4        4.320645   1.000000
    5        8.276954   0.000000
    6        9.351002   0.000000
    7       10.376955   0.000000
    8       12.150351   0.000000
 
 -0.4500000E+00  0.1500000E+00  0.5000000E-01  0.1200000E-01
    1       -3.611053   1.000000
    2       -1.019062   1.000000
    3        3.416893   1.000000
    4        4.273803   1.000000
    5        8.273091   0.000000
    6        9.205440   0.000000
    7       10.212585   0.000000
    8       13.751855   0.000000
 
 -0.3500000E+00  0.1500000E+00  0.5000000E-01  0.1200000E-01
    1       -3.935514   1.000000
    2       -0.536060   1.000000
    3        3.354018   1.000000
    4        4.468521   1.000000
    5        8.405969   0.000000
    6        9.220459   0.000000
    7       10.180193   0.000000
    8       13.229142   0.000000
 
 -0.2500000E+00  0.1500000E+00  0.5000000E-01  0.1200000E-01
    1       -4.682071   1.000000
    2        0.821878   1.000000
    3        3.472616   1.000000
    4        4.830882   1.000000
    5        8.642041   0.000000
    6        9.291807   0.000000
    7       10.230051   0.000000
    8       11.826591   0.000000
 
 -0.1500000E+00  0.1500000E+00  0.5000000E-01  0.1200000E-01
    1       -5.328575   1.000000
    2        2.427478   1.000000
    3        3.854116   1.000000
    4        5.247598   1.000000
    5        8.755318   0.000000
    6        9.152563   0.000000
    7       10.016588   0.000000
    8       11.207277   0.000000
 
 -0.5000000E-01  0.1500000E+00  0.5000000E-01  0.1200000E-01
    1       -5.754417   1.000000
    2        3.697556   1.000000
    3        4.782975   1.000000
    4        5.484231   1.000000
    5        8.427399   0.000000
    6        8.996595   0.000000
    7        9.485944   0.000000
    8       11.027932   0.000000
 
  0.2500000E+00  0.2500000E+00  0.5000000E-01  0.6000000E-02
    1       -5.234811   1.000000
    2        2.667330   1.000000
    3        4.141048   1.000000
    4        4.167678   1.000000
    5        7.310860   0.000000
    6        9.514578   0.000000
    7       11.086448   0.000000
    8       11.201525   0.000000
 
  0.3500000E+00  0.2500000E+00  0.5000000E-01  0.1200000E-01
    1       -4.730269   1.000000
    2        1.562629   1.000000
    3        3.441954   1.000000
    4        3.922534   1.000000
    5        7.450005   0.000000
    6        9.105007   0.000000
    7       11.244118   0.000000
    8       11.967265   0.000000
 
  0.4500000E+00  0.2500000E+00  0.5000000E-01  0.1200000E-01
    1       -4.028010   1.000000
    2        0.257720   1.000000
    3        2.826034   1.000000
    4        3.691863   1.000000
    5        7.701308   0.000000
    6        9.813080   0.000000
    7       10.937812   0.000000
    8       12.035030   0.000000
 
 -0.4500000E+00  0.2500000E+00  0.5000000E-01  0.1200000E-01
    1       -3.326372   1.000000
    2       -0.785531   1.000000
    3        2.343114   1.000000
    4        3.712288   1.000000
    5        7.820009   0.000000
    6       10.573184   0.000000
    7       11.490176   0.000000
    8       11.832297   0.000000
 
 -0.3500000E+00  0.2500000E+00  0.5000000E-01  0.1200000E-01
    1       -3.350506   1.000000
    2       -0.745832   1.000000
    3        2.089954   1.000000
    4        3.966402   1.000000
    5        8.106120   0.000000
    6       10.349118   0.000000
    7       11.640094   0.000000
    8       13.121751   0.000000
 
 -0.2500000E+00  0.2500000E+00  0.5000000E-01  0.1200000E-01
    1       -4.059293   1.000000
    2        0.284004   1.000000
    3        2.187907   1.000000
    4        4.395175   1.000000
    5        8.565897   0.000000
    6       10.108212   0.000000
    7       11.373857   0.000000
    8       11.659596   0.000000
 
 -0.1500000E+00  0.2500000E+00  0.5000000E-01  0.1200000E-01
    1       -4.752890   1.000000
    2        1.275463   1.000000
    3        2.951340   1.000000
    4        4.868603   1.000000
    5        8.964777   0.000000
    6        9.389431   0.000000
    7       10.638667   0.000000
    8       11.209201   0.000000
 
 -0.5000000E-01  0.2500000E+00  0.5000000E-01  0.1200000E-01
    1       -5.247857   1.000000
    2        1.922340   1.000000
    3        4.350880   1.000000
    4        5.111742   1.000000
    5        8.414560   0.000000
    6        9.156769   0.000000
    7        9.925817   0.000000
    8       11.668970   0.000000
 
  0.3500000E+00  0.3500000E+00  0.5000000E-01  0.6000000E-02
    1       -4.301617   1.000000
    2        0.942110   1.000000
    3        3.372352   1.000000
    4        3.485699   1.000000
    5        6.782162   0.000012
    6        8.094267   0.000000
    7       12.875634   0.000000
    8       12.945347   0.000000
 
  0.4500000E+00  0.3500000E+00  0.5000000E-01  0.1200000E-01
    1       -3.656049   1.000000
    2        0.003419   1.000000
    3        2.821409   1.000000
    4        3.216600   1.000000
    5        7.041135   0.000000
    6        7.976945   0.000000
    7       12.883974   0.000000
    8       13.827801   0.000000
 
 -0.4500000E+00  0.3500000E+00  0.5000000E-01  0.1200000E-01
    1       -2.904188   1.000000
    2       -0.891899   1.000000
    3        1.997579   1.000000
    4        3.225216   1.000000
    5        7.253461   0.000000
    6        9.217449   0.000000
    7       12.532431   0.000000
    8       13.788402   0.000000
 
 -0.3500000E+00  0.3500000E+00  0.5000000E-01  0.1200000E-01
    1       -2.671025   1.000000
    2       -1.125142   1.000000
    3        1.489736   1.000000
    4        3.469207   1.000000
    5        7.536672   0.000000
    6       11.098863   0.000000
    7       12.189095   0.000000
    8       13.177418   0.000000
 
 -0.2500000E+00  0.3500000E+00  0.5000000E-01  0.1200000E-01
    1       -3.317446   1.000000
    2       -0.525692   1.000000
    3        1.658132   1.000000
    4        3.903156   1.000000
    5        8.032770   0.000000
    6       11.015462   0.000000
    7       12.198363   0.000000
    8       12.471897   0.000000
 
 -0.1500000E+00  0.3500000E+00  0.5000000E-01  0.1200000E-01
    1       -4.014408   1.000000
    2       -0.092547   1.000000
    3        2.685005   1.000000
    4        4.421685   1.000000
    5        8.561359   0.000000
    6        9.599809   0.000000
    7       10.806314   0.000000
    8       12.352860   0.000000
 
 -0.5000000E-01  0.3500000E+00  0.5000000E-01  0.1200000E-01
    1       -4.543955   1.000000
    2        0.284570   1.000000
    3        4.103150   1.000000
    4        4.746276   1.000000
    5        8.159204   0.000000
    6        9.236440   0.000000
    7        9.863283   0.000000
    8       12.660081   0.000000
 
  0.4500000E+00  0.4500000E+00  0.5000000E-01  0.6000000E-02
    1       -3.068456   1.000000
    2       -0.769866   1.000000
    3        2.942203   1.000000
    4        3.093676   1.000000
    5        6.584525   0.002365
    6        7.138759   0.000000
    7       14.768047   0.000000
    8       14.774603   0.000000
 
 -0.4500000E+00  0.4500000E+00  0.5000000E-01  0.1200000E-01
    1       -2.319946   1.000000
    2       -1.567284   1.000000
    3        2.537357   1.000000
    4        2.927638   1.000000
    5        6.910283   0.000000
    6        7.432349   0.000000
    7       14.634150   0.000000
    8       15.369023   0.000000
 
 -0.3500000E+00  0.4500000E+00  0.5000000E-01  0.1200000E-01
    1       -2.333761   1.000000
    2       -1.465686   1.000000
    3        1.817335   1.000000
    4        3.135873   1.000000
    5        7.156728   0.000000
    6        9.099117   0.000000
    7       13.370159   0.000000
    8       14.276336   0.000000
 
 -0.2500000E+00  0.4500000E+00  0.5000000E-01  0.1200000E-01
    1       -2.930211   1.000000
    2       -0.998579   1.000000
    3        1.805290   1.000000
    4        3.549400   1.000000
    5        7.633568   0.000000
    6       11.100865   0.000000
    7       11.525396   0.000000
    8       12.672331   0.000000
 
 -0.1500000E+00  0.4500000E+00  0.5000000E-01  0.1200000E-01
    1       -3.440870   1.000000
    2       -0.958077   1.000000
    3        2.731367   1.000000
    4        4.090907   1.000000
    5        8.228435   0.000000
    6        9.684062   0.000000
    7       10.885478   0.000000
    8       13.630744   0.000000
 
 -0.5000000E-01  0.4500000E+00  0.5000000E-01  0.1200000E-01
    1       -3.846816   1.000000
    2       -0.896479   1.000000
    3        4.002086   1.000000
    4        4.521430   1.000000
    5        8.001795   0.000000
    6        9.166613   0.000000
    7        9.693949   0.000000
    8       13.798138   0.000000
 
 -0.4500000E+00 -0.4500000E+00  0.5000000E-01  0.6000000E-02
    1       -2.353813   1.000000
    2       -1.584004   1.000000
    3        2.855998   1.000000
    4        3.014222   1.000000
    5        6.614274   0.001202
    6        6.871134   0.000001
    7       15.619692   0.000000
    8       15.670881   0.000000
 
 -0.3500000E+00 -0.4500000E+00  0.5000000E-01  0.1200000E-01
    1       -3.016255   1.000000
    2       -0.790805   1.000000
    3        2.632664   1.000000
    4        3.022970   1.000000
    5        6.945476   0.000000
    6        7.623881   0.000000
    7       13.747555   0.000000
    8       14.767146   0.000000
 
 -0.2500000E+00 -0.4500000E+00  0.5000000E-01  0.1200000E-01
    1       -3.488190   1.000000
    2       -0.301569   1.000000
    3        2.345881   1.000000
    4        3.407218   1.000000
    5        7.439929   0.000000
    6        9.453362   0.000000
    7       11.714931   0.000000
    8       12.894766   0.000000
 
 -0.1500000E+00 -0.4500000E+00  0.5000000E-01  0.1200000E-01
    1       -3.759312   1.000000
    2       -0.501138   1.000000
    3        2.980810   1.000000
    4        3.965297   1.000000
    5        8.066765   0.000000
    6        9.898635   0.000000
    7       11.047622   0.000000
    8       11.759079   0.000000
 
 -0.3500000E+00 -0.3500000E+00  0.5000000E-01  0.6000000E-02
    1       -3.719953   1.000000
    2        0.077478   1.000000
    3        3.114936   1.000000
    4        3.251692   1.000000
    5        6.638578   0.000670
    6        7.551457   0.000000
    7       13.833236   0.000000
    8       13.853360   0.000000
 
 -0.2500000E+00 -0.3500000E+00  0.5000000E-01  0.1200000E-01
    1       -4.229437   1.000000
    2        0.794069   1.000000
    3        3.094971   1.000000
    4        3.514708   1.000000
    5        7.209815   0.000000
    6        8.476817   0.000000
    7       12.048891   0.000000
    8       12.886609   0.000000
 
 -0.1500000E+00 -0.3500000E+00  0.5000000E-01  0.1200000E-01
    1       -4.506968   1.000000
    2        0.799647   1.000000
    3        3.360109   1.000000
    4        4.096302   1.000000
    5        8.017464   0.000000
    6       10.153141   0.000000
    7       10.350670   0.000000
    8       11.247100   0.000000
 
 -0.2500000E+00 -0.2500000E+00  0.5000000E-01  0.6000000E-02
    1       -4.807611   1.000000
    2        1.811814   1.000000
    3        3.716827   1.000000
    4        3.793958   1.000000
    5        7.009787   0.000000
    6        8.781778   0.000000
    7       11.964101   0.000000
    8       12.063878   0.000000
 
 -0.1500000E+00 -0.2500000E+00  0.5000000E-01  0.1200000E-01
    1       -5.153473   1.000000
    2        2.299652   1.000000
    3        3.850862   1.000000
    4        4.426194   1.000000
    5        7.752932   0.000000
    6        9.745041   0.000000
    7       10.556080   0.000000
    8       11.084112   0.000000
 
 -0.1500000E+00 -0.1500000E+00  0.5000000E-01  0.6000000E-02
    1       -5.579716   1.000000
    2        3.490924   1.000000
    3        4.598874   1.000000
    4        4.639636   1.000000
    5        7.661980   0.000000
    6        9.973257   0.000000
    7       10.374460   0.000000
    8       10.484523   0.000000
 
  0.1500000E+00  0.1500000E+00  0.1500000E+00  0.2000000E-02
    1       -5.841425   1.000000
    2        3.790901   1.000000
    3        5.484540   1.000000
    4        5.484540   1.000000
    5        8.296917   0.000000
    6        9.023892   0.000000
    7        9.023892   0.000000
    8       11.015407   0.000000
 
  0.2500000E+00  0.1500000E+00  0.1500000E+00  0.6000000E-02
    1       -5.583401   1.000000
    2        3.063962   1.000000
    3        4.329787   1.000000
    4        5.554414   0.999996
    5        8.781788   0.000000
    6        9.038700   0.000000
    7        9.369705   0.000000
    8       11.513290   0.000000
 
  0.3500000E+00  0.1500000E+00  0.1500000E+00  0.6000000E-02
    1       -5.079963   1.000000
    2        1.842233   1.000000
    3        3.385096   1.000000
    4        5.224389   1.000000
    5        8.860762   0.000000
    6        9.552447   0.000000
    7        9.852567   0.000000
    8       11.691353   0.000000
 
  0.4500000E+00  0.1500000E+00  0.1500000E+00  0.6000000E-02
    1       -4.378707   1.000000
    2        0.336752   1.000000
    3        3.066652   1.000000
    4        4.773832   1.000000
    5        8.509147   0.000000
    6        9.903879   0.000000
    7        9.925674   0.000000
    8       12.750131   0.000000
 
 -0.4500000E+00  0.1500000E+00  0.1500000E+00  0.6000000E-02
    1       -3.677810   1.000000
    2       -0.818543   1.000000
    3        3.054361   1.000000
    4        4.394543   1.000000
    5        8.190211   0.000000
    6        9.762716   0.000000
    7       10.110312   0.000000
    8       14.156062   0.000000
 
 -0.3500000E+00  0.1500000E+00  0.1500000E+00  0.6000000E-02
    1       -3.671554   1.000000
    2       -0.830355   1.000000
    3        3.265561   1.000000
    4        4.160392   1.000000
    5        8.025336   0.000000
    6        9.759473   0.000000
    7       10.351119   0.000000
    8       12.768514   0.000000
 
 -0.2500000E+00  0.1500000E+00  0.1500000E+00  0.6000000E-02
    1       -4.370206   1.000000
    2        0.318570   1.000000
    3        3.662269   1.000000
    4        4.113206   1.000000
    5        8.019599   0.000000
    6        9.903296   0.000000
    7       10.664297   0.000000
    8       11.153813   0.000000
 
 -0.1500000E+00  0.1500000E+00  0.1500000E+00  0.6000000E-02
    1       -5.073618   1.000000
    2        1.881096   1.000000
    3        4.173183   1.000000
    4        4.264721   1.000000
    5        7.947936   0.000000
    6        9.881796   0.000000
    7       10.481281   0.000000
    8       10.796666   0.000000
 
  0.2500000E+00  0.2500000E+00  0.1500000E+00  0.6000000E-02
    1       -5.412762   1.000000
    2        2.510062   1.000000
    3        4.666926   1.000000
    4        4.813906   1.000000
    5        8.264391   0.000000
    6        9.271017   0.000000
    7       10.145623   0.000000
    8       11.080561   0.000000
 
  0.3500000E+00  0.2500000E+00  0.1500000E+00  0.1200000E-01
    1       -4.992064   1.000000
    2        1.799158   1.000000
    3        3.409200   1.000000
    4        4.714023   1.000000
    5        8.467238   0.000000
    6        9.605992   0.000000
    7       10.474202   0.000000
    8       10.903424   0.000000
 
  0.4500000E+00  0.2500000E+00  0.1500000E+00  0.1200000E-01
    1       -4.351396   1.000000
    2        0.727650   1.000000
    3        2.582052   1.000000
    4        4.306616   1.000000
    5        9.076536   0.000000
    6        9.357768   0.000000
    7       10.565374   0.000000
    8       11.665374   0.000000
 
 -0.4500000E+00  0.2500000E+00  0.1500000E+00  0.1200000E-01
    1       -3.604194   1.000000
    2       -0.463619   1.000000
    3        2.340253   1.000000
    4        3.897141   1.000000
    5        8.880204   0.000000
    6        9.311037   0.000000
    7       11.725543   0.000000
    8       12.015346   0.000000
 
 -0.3500000E+00  0.2500000E+00  0.1500000E+00  0.1200000E-01
    1       -3.267602   1.000000
    2       -0.933189   1.000000
    3        2.387322   1.000000
    4        3.694566   1.000000
    5        8.557036   0.000000
    6        9.513280   0.000000
    7       11.858767   0.000000
    8       12.616219   0.000000
 
 -0.2500000E+00  0.2500000E+00  0.1500000E+00  0.1200000E-01
    1       -3.837602   1.000000
    2       -0.114185   1.000000
    3        2.604003   1.000000
    4        3.783853   1.000000
    5        8.396715   0.000000
    6        9.866729   0.000000
    7       10.811018   0.000000
    8       11.949776   0.000000
 
 -0.1500000E+00  0.2500000E+00  0.1500000E+00  0.1200000E-01
    1       -4.576898   1.000000
    2        1.171057   1.000000
    3        3.020896   1.000000
    4        4.123335   1.000000
    5        8.182034   0.000000
    6        9.713805   0.000000
    7       10.298775   0.000000
    8       11.838773   0.000000
 
  0.3500000E+00  0.3500000E+00  0.1500000E+00  0.6000000E-02
    1       -4.655107   1.000000
    2        1.248463   1.000000
    3        3.537768   1.000000
    4        3.905791   1.000000
    5        7.611262   0.000000
    6        9.542672   0.000000
    7       10.993808   0.000000
    8       11.479202   0.000000
 
  0.4500000E+00  0.3500000E+00  0.1500000E+00  0.1200000E-01
    1       -4.088090   1.000000
    2        0.525543   1.000000
    3        2.698535   1.000000
    4        3.575299   1.000000
    5        7.934165   0.000000
    6        9.154407   0.000000
    7       10.954989   0.000000
    8       12.805901   0.000000
 
 -0.4500000E+00  0.3500000E+00  0.1500000E+00  0.1200000E-01
    1       -3.354042   1.000000
    2       -0.362677   1.000000
    3        2.087947   1.000000
    4        3.125860   1.000000
    5        8.668669   0.000000
    6        9.635402   0.000000
    7       10.525401   0.000000
    8       13.753117   0.000000
 
 -0.3500000E+00  0.3500000E+00  0.1500000E+00  0.1200000E-01
    1       -2.769284   1.000000
    2       -1.039796   1.000000
    3        1.778307   1.000000
    4        2.978389   1.000000
    5        8.919764   0.000000
    6       10.027833   0.000000
    7       11.452132   0.000000
    8       12.723988   0.000000
 
 -0.2500000E+00  0.3500000E+00  0.1500000E+00  0.1200000E-01
    1       -3.137259   1.000000
    2       -0.620314   1.000000
    3        1.778075   1.000000
    4        3.210265   1.000000
    5        9.302197   0.000000
    6        9.736943   0.000000
    7       10.791603   0.000000
    8       13.612718   0.000000
 
 -0.1500000E+00  0.3500000E+00  0.1500000E+00  0.1200000E-01
    1       -3.882040   1.000000
    2        0.186876   1.000000
    3        2.290839   1.000000
    4        3.687728   1.000000
    5        8.853853   0.000000
    6        9.817160   0.000000
    7       10.095310   0.000000
    8       12.701996   0.000000
 
  0.4500000E+00  0.4500000E+00  0.1500000E+00  0.6000000E-02
    1       -3.598383   1.000000
    2       -0.103966   1.000000
    3        2.557918   1.000000
    4        3.383864   1.000000
    5        7.065563   0.000000
    6        8.586024   0.000000
    7       12.814831   0.000000
    8       12.956507   0.000000
 
 -0.4500000E+00  0.4500000E+00  0.1500000E+00  0.1200000E-01
    1       -2.916774   1.000000
    2       -0.842097   1.000000
    3        2.286284   1.000000
    4        2.837564   1.000000
    5        7.631295   0.000000
    6        8.412426   0.000000
    7       12.498196   0.000000
    8       14.726833   0.000000
 
 -0.3500000E+00  0.4500000E+00  0.1500000E+00  0.1200000E-01
    1       -2.195711   1.000000
    2       -1.517728   1.000000
    3        1.943215   1.000000
    4        2.440718   1.000000
    5        8.478456   0.000000
    6        9.251308   0.000000
    7       12.065438   0.000000
    8       12.962762   0.000000
 
 -0.2500000E+00  0.4500000E+00  0.1500000E+00  0.1200000E-01
    1       -2.491564   1.000000
    2       -1.219227   1.000000
    3        1.618172   1.000000
    4        2.774186   1.000000
    5        8.838531   0.000000
    6       10.682282   0.000000
    7       11.399038   0.000000
    8       11.854862   0.000000
 
 -0.1500000E+00  0.4500000E+00  0.1500000E+00  0.1200000E-01
    1       -3.173032   1.000000
    2       -0.778557   1.000000
    3        2.035107   1.000000
    4        3.374564   1.000000
    5        9.081868   0.000000
    6        9.391912   0.000000
    7       11.633270   0.000000
    8       12.849678   0.000000
 
 -0.4500000E+00 -0.4500000E+00  0.1500000E+00  0.6000000E-02
    1       -2.318992   1.000000
    2       -1.535082   1.000000
    3        2.135040   1.000000
    4        3.153115   1.000000
    5        6.804319   0.000006
    6        8.177711   0.000000
    7       14.505989   0.000000
    8       14.737937   0.000000
 
 -0.3500000E+00 -0.4500000E+00  0.1500000E+00  0.1200000E-01
    1       -2.260883   1.000000
    2       -1.541271   1.000000
    3        2.201884   1.000000
    4        2.687308   1.000000
    5        7.572404   0.000000
    6        8.258642   0.000000
    7       13.357868   0.000000
    8       14.267876   0.000000
 
 -0.2500000E+00 -0.4500000E+00  0.1500000E+00  0.1200000E-01
    1       -2.782005   1.000000
    2       -0.935308   1.000000
    3        1.976097   1.000000
    4        2.690717   1.000000
    5        8.542104   0.000000
    6        9.379595   0.000000
    7       11.251809   0.000000
    8       13.905265   0.000000
 
 -0.3500000E+00 -0.3500000E+00  0.1500000E+00  0.6000000E-02
    1       -2.975567   1.000000
    2       -0.824669   1.000000
    3        2.275098   1.000000
    4        3.230743   1.000000
    5        6.894239   0.000000
    6        8.313960   0.000000
    7       13.750487   0.000000
    8       13.773835   0.000000
 
 -0.2500000E+00 -0.3500000E+00  0.1500000E+00  0.1200000E-01
    1       -3.531578   1.000000
    2       -0.146172   1.000000
    3        2.453482   1.000000
    4        3.137311   1.000000
    5        7.750632   0.000000
    6        8.715809   0.000000
    7       11.696527   0.000000
    8       13.799594   0.000000
 
 -0.2500000E+00 -0.2500000E+00  0.1500000E+00  0.6000000E-02
    1       -4.160986   1.000000
    2        0.590582   1.000000
    3        2.984753   1.000000
    4        3.611616   1.000000
    5        7.311084   0.000000
    6        9.002181   0.000000
    7       11.888549   0.000000
    8       12.201685   0.000000
 
  0.2500000E+00  0.2500000E+00  0.2500000E+00  0.2000000E-02
    1       -5.334089   1.000000
    2        1.919515   1.000000
    3        5.101601   1.000000
    4        5.101601   1.000000
    5        7.920101   0.000000
    6        9.424261   0.000000
    7        9.424261   0.000000
    8       12.791188   0.000000
 
  0.3500000E+00  0.2500000E+00  0.2500000E+00  0.6000000E-02
    1       -5.003099   1.000000
    2        1.351841   1.000000
    3        3.917453   1.000000
    4        5.151988   1.000000
    5        8.458691   0.000000
    6        9.456539   0.000000
    7        9.705003   0.000000
    8       12.348616   0.000000
 
  0.4500000E+00  0.2500000E+00  0.2500000E+00  0.6000000E-02
    1       -4.439791   1.000000
    2        0.766967   1.000000
    3        2.534313   1.000000
    4        4.776111   1.000000
    5        8.598412   0.000000
    6       10.235548   0.000000
    7       10.511653   0.000000
    8       11.963350   0.000000
 
 -0.4500000E+00  0.2500000E+00  0.2500000E+00  0.6000000E-02
    1       -3.710103   1.000000
    2       -0.136819   1.000000
    3        1.872439   1.000000
    4        4.279377   1.000000
    5        8.099777   0.000000
    6       11.089416   0.000000
    7       11.345014   0.000000
    8       12.577395   0.000000
 
 -0.3500000E+00  0.2500000E+00  0.2500000E+00  0.6000000E-02
    1       -3.112773   1.000000
    2       -0.930068   1.000000
    3        1.898670   1.000000
    4        3.870336   1.000000
    5        7.656088   0.000000
    6       11.409769   0.000000
    7       11.519378   0.000000
    8       12.403900   0.000000
 
 -0.2500000E+00  0.2500000E+00  0.2500000E+00  0.6000000E-02
    1       -3.411916   1.000000
    2       -0.546656   1.000000
    3        2.309625   1.000000
    4        3.638150   1.000000
    5        7.425966   0.000000
    6       10.380943   0.000000
    7       11.657314   0.000000
    8       11.883445   0.000000
 
  0.3500000E+00  0.3500000E+00  0.2500000E+00  0.6000000E-02
    1       -4.764461   1.000000
    2        0.803540   1.000000
    3        4.367051   1.000000
    4        4.426681   1.000000
    5        8.216951   0.000000
    6        9.300345   0.000000
    7       10.174111   0.000000
    8       11.736023   0.000000
 
  0.4500000E+00  0.3500000E+00  0.2500000E+00  0.1200000E-01
    1       -4.290399   1.000000
    2        0.335956   1.000000
    3        3.035174   1.000000
    4        4.314021   1.000000
    5        8.655368   0.000000
    6        9.376253   0.000000
    7       10.975492   0.000000
    8       11.329028   0.000000
 
 -0.4500000E+00  0.3500000E+00  0.2500000E+00  0.1200000E-01
    1       -3.620495   1.000000
    2       -0.174183   1.000000
    3        1.930903   1.000000
    4        3.822557   1.000000
    5        8.837214   0.000000
    6        9.895145   0.000000
    7       11.117935   0.000000
    8       12.563953   0.000000
 