<?xml version="1.0" encoding="ISO-8859-1"?>
<modeling>
 <generator>
  <i name="program" type="string">vasp </i>
  <i name="version" type="string">5.4.4.18Apr17-6-g9f103f2a35  </i>
  <i name="subversion" type="string">(build Dec 09 2018 21:25:21) complex            parallel </i>
  <i name="platform" type="string">IFC18.0.1.163_CrayMPICH7.7.0_MKL18.0.1.163 </i>
  <i name="date" type="string">2019 03 18 </i>
  <i name="time" type="string">04:47:02 </i>
 </generator>
 <incar>
  <i type="string" name="PREC">normal</i>
  <i type="int" name="IBRION">     2</i>
  <i name="EDIFF">      0.00040000</i>
  <i name="EDIFFG">     -0.01000000</i>
  <i type="int" name="NSW">    15</i>
  <i type="int" name="ISIF">     2</i>
  <i name="ENCUT">    150.00000000</i>
  <i type="int" name="NBANDS">     8</i>
  <i type="logical" name="LREAL"> F  </i>
  <i type="int" name="ISMEAR">     0</i>
  <i name="SIGMA">      0.20000000</i>
  <v type="int" name="KPOINT_BSE">    -1     0     0     0</v>
 </incar>
 <structure name="primitive_cell" >
  <crystal>
   <varray name="basis" >
    <v>       0.00000000       2.71500000       2.71500000 </v>
    <v>       2.71500000       0.00000000       2.71500000 </v>
    <v>       2.71500000       2.71500000       0.00000000 </v>
   </varray>
   <i name="volume">     40.02575175 </i>
   <varray name="rec_basis" >
    <v>      -0.18416206       0.18416206       0.18416206 </v>
    <v>       0.18416206      -0.18416206       0.18416206 </v>
    <v>       0.18416206       0.18416206      -0.18416206 </v>
   </varray>
  </crystal>
  <varray name="positions" >
   <v>      -0.50000000      -0.50000000      -0.50000000 </v>
   <v>      -0.25000000      -0.25000000      -0.25000000 </v>
  </varray>
 </structure>
 <varray name="primitive_index" >
  <v type="int" >        1 </v>
  <v type="int" >        2 </v>
 </varray>
 <kpoints>
  <generation param="Monkhorst-Pack">
   <v type="int" name="divisions">      10       10       10 </v>
   <v name="usershift">      0.00000000       0.00000000       0.00000000 </v>
   <v name="genvec1">      0.10000000       0.00000000      -0.00000000 </v>
   <v name="genvec2">      0.00000000       0.10000000       0.00000000 </v>
   <v name="genvec3">     -0.00000000      -0.00000000       0.10000000 </v>
   <v name="shift">      0.50000000       0.50000000       0.50000000 </v>
  </generation>
  <varray name="kpointlist" >
   <v>       0.05000000       0.05000000       0.05000000 </v>
   <v>       0.15000000       0.05000000       0.05000000 </v>
   <v>       0.25000000       0.05000000       0.05000000 </v>
   <v>       0.35000000       0.05000000       0.05000000 </v>
   <v>       0.45000000       0.05000000       0.05000000 </v>
   <v>      -0.45000000       0.05000000       0.05000000 </v>
   <v>      -0.35000000       0.05000000       0.05000000 </v>
   <v>      -0.25000000       0.05000000       0.05000000 </v>
   <v>      -0.15000000       0.05000000       0.05000000 </v>
   <v>      -0.05000000       0.05000000       0.05000000 </v>
   <v>       0.15000000       0.15000000       0.05000000 </v>
   <v>       0.25000000       0.15000000       0.05000000 </v>
   <v>       0.35000000       0.15000000       0.05000000 </v>
   <v>       0.45000000       0.15000000       0.05000000 </v>
   <v>      -0.45000000       0.15000000       0.05000000 </v>
   <v>      -0.35000000       0.15000000       0.05000000 </v>
   <v>      -0.25000000       0.15000000       0.05000000 </v>
   <v>      -0.15000000       0.15000000       0.05000000 </v>
   <v>      -0.05000000       0.15000000       0.05000000 </v>
   <v>       0.25000000       0.25000000       0.05000000 </v>
   <v>       0.35000000       0.25000000       0.05000000 </v>
   <v>       0.45000000       0.25000000       0.05000000 </v>
   <v>      -0.45000000       0.25000000       0.05000000 </v>
   <v>      -0.35000000       0.25000000       0.05000000 </v>
   <v>      -0.25000000       0.25000000       0.05000000 </v>
   <v>      -0.15000000       0.25000000       0.05000000 </v>
   <v>      -0.05000000       0.25000000       0.05000000 </v>
   <v>       0.35000000       0.35000000       0.05000000 </v>
   <v>       0.45000000       0.35000000       0.05000000 </v>
   <v>      -0.45000000       0.35000000       0.05000000 </v>
   <v>      -0.35000000       0.35000000       0.05000000 </v>
   <v>      -0.25000000       0.35000000       0.05000000 </v>
   <v>      -0.15000000       0.35000000       0.05000000 </v>
   <v>      -0.05000000       0.35000000       0.05000000 </v>
   <v>       0.45000000       0.45000000       0.05000000 </v>
   <v>      -0.45000000       0.45000000       0.05000000 </v>
   <v>      -0.35000000       0.45000000       0.05000000 </v>
   <v>      -0.25000000       0.45000000       0.05000000 </v>
   <v>      -0.15000000       0.45000000       0.05000000 </v>
   <v>      -0.05000000       0.45000000       0.05000000 </v>
   <v>      -0.45000000      -0.45000000       0.05000000 </v>
   <v>      -0.35000000      -0.45000000       0.05000000 </v>
   <v>      -0.25000000      -0.45000000       0.05000000 </v>
   <v>      -0.15000000      -0.45000000       0.05000000 </v>
   <v>      -0.35000000      -0.35000000       0.05000000 </v>
   <v>      -0.25000000      -0.35000000       0.05000000 </v>
   <v>      -0.15000000      -0.35000000       0.05000000 </v>
   <v>      -0.25000000      -0.25000000       0.05000000 </v>
   <v>      -0.15000000      -0.25000000       0.05000000 </v>
   <v>      -0.15000000      -0.15000000       0.05000000 </v>
   <v>       0.15000000       0.15000000       0.15000000 </v>
   <v>       0.25000000       0.15000000       0.15000000 </v>
   <v>       0.35000000       0.15000000       0.15000000 </v>
   <v>       0.45000000       0.15000000       0.15000000 </v>
   <v>      -0.45000000       0.15000000       0.15000000 </v>
   <v>      -0.35000000       0.15000000       0.15000000 </v>
   <v>      -0.25000000       0.15000000       0.15000000 </v>
   <v>      -0.15000000       0.15000000       0.15000000 </v>
   <v>       0.25000000       0.25000000       0.15000000 </v>
   <v>       0.35000000       0.25000000       0.15000000 </v>
   <v>       0.45000000       0.25000000       0.15000000 </v>
   <v>      -0.45000000       0.25000000       0.15000000 </v>
   <v>      -0.35000000       0.25000000       0.15000000 </v>
   <v>      -0.25000000       0.25000000       0.15000000 </v>
   <v>      -0.15000000       0.25000000       0.15000000 </v>
   <v>       0.35000000       0.35000000       0.15000000 </v>
   <v>       0.45000000       0.35000000       0.15000000 </v>
   <v>      -0.45000000       0.35000000       0.15000000 </v>
   <v>      -0.35000000       0.35000000       0.15000000 </v>
   <v>      -0.25000000       0.35000000       0.15000000 </v>
   <v>      -0.15000000       0.35000000       0.15000000 </v>
   <v>       0.45000000       0.45000000       0.15000000 </v>
   <v>      -0.45000000       0.45000000       0.15000000 </v>
   <v>      -0.35000000       0.45000000       0.15000000 </v>
   <v>      -0.25000000       0.45000000       0.15000000 </v>
   <v>      -0.15000000       0.45000000       0.15000000 </v>
   <v>      -0.45000000      -0.45000000       0.15000000 </v>
   <v>      -0.35000000      -0.45000000       0.15000000 </v>
   <v>      -0.25000000      -0.45000000       0.15000000 </v>
   <v>      -0.35000000      -0.35000000       0.15000000 </v>
   <v>      -0.25000000      -0.35000000       0.15000000 </v>
   <v>      -0.25000000      -0.25000000       0.15000000 </v>
   <v>       0.25000000       0.25000000       0.25000000 </v>
   <v>       0.35000000       0.25000000       0.25000000 </v>
   <v>       0.45000000       0.25000000       0.25000000 </v>
   <v>      -0.45000000       0.25000000       0.25000000 </v>
   <v>      -0.35000000       0.25000000       0.25000000 </v>
   <v>      -0.25000000       0.25000000       0.25000000 </v>
   <v>       0.35000000       0.35000000       0.25000000 </v>
   <v>       0.45000000       0.35000000       0.25000000 </v>
   <v>      -0.45000000       0.35000000       0.25000000 </v>
   <v>      -0.35000000       0.35000000       0.25000000 </v>
   <v>      -0.25000000       0.35000000       0.25000000 </v>
   <v>       0.45000000       0.45000000       0.25000000 </v>
   <v>      -0.45000000       0.45000000       0.25000000 </v>
   <v>      -0.35000000       0.45000000       0.25000000 </v>
   <v>      -0.25000000       0.45000000       0.25000000 </v>
   <v>      -0.45000000      -0.45000000       0.25000000 </v>
   <v>      -0.35000000      -0.45000000       0.25000000 </v>
   <v>      -0.35000000      -0.35000000       0.25000000 </v>
   <v>       0.35000000       0.35000000       0.35000000 </v>
   <v>       0.45000000       0.35000000       0.35000000 </v>
   <v>      -0.45000000       0.35000000       0.35000000 </v>
   <v>      -0.35000000       0.35000000       0.35000000 </v>
   <v>       0.45000000       0.45000000       0.35000000 </v>
   <v>      -0.45000000       0.45000000       0.35000000 </v>
   <v>      -0.35000000       0.45000000       0.35000000 </v>
   <v>      -0.45000000      -0.45000000       0.35000000 </v>
   <v>       0.45000000       0.45000000       0.45000000 </v>
   <v>      -0.45000000       0.45000000       0.45000000 </v>
  </varray>
  <varray name="weights" >
   <v>       0.00200000 </v>
   <v>       0.00600000 </v>
   <v>       0.00600000 </v>
   <v>       0.00600000 </v>
   <v>       0.00600000 </v>
   <v>       0.00600000 </v>
   <v>       0.00600000 </v>
   <v>       0.00600000 </v>
   <v>       0.00600000 </v>
   <v>       0.00600000 </v>
   <v>       0.00600000 </v>
   <v>       0.01200000 </v>
   <v>       0.01200000 </v>
   <v>       0.01200000 </v>
   <v>       0.01200000 </v>
   <v>       0.01200000 </v>
   <v>       0.01200000 </v>
   <v>       0.01200000 </v>
   <v>       0.01200000 </v>
   <v>       0.00600000 </v>
   <v>       0.01200000 </v>
   <v>       0.01200000 </v>
   <v>       0.01200000 </v>
   <v>       0.01200000 </v>
   <v>       0.01200000 </v>
   <v>       0.01200000 </v>
   <v>       0.01200000 </v>
   <v>       0.00600000 </v>
   <v>       0.01200000 </v>
   <v>       0.01200000 </v>
   <v>       0.01200000 </v>
   <v>       0.01200000 </v>
   <v>       0.01200000 </v>
   <v>       0.01200000 </v>
   <v>       0.00600000 </v>
   <v>       0.01200000 </v>
   <v>       0.01200000 </v>
   <v>       0.01200000 </v>
   <v>       0.01200000 </v>
   <v>       0.01200000 </v>
   <v>       0.00600000 </v>
   <v>       0.01200000 </v>
   <v>       0.01200000 </v>
   <v>       0.01200000 </v>
   <v>       0.00600000 </v>
   <v>       0.01200000 </v>
   <v>       0.01200000 </v>
   <v>       0.00600000 </v>
   <v>       0.01200000 </v>
   <v>       0.00600000 </v>
   <v>       0.00200000 </v>
   <v>       0.00600000 </v>
   <v>       0.00600000 </v>
   <v>       0.00600000 </v>
   <v>       0.00600000 </v>
   <v>       0.00600000 </v>
   <v>       0.00600000 </v>
   <v>       0.00600000 </v>
   <v>       0.00600000 </v>
   <v>       0.01200000 </v>
   <v>       0.01200000 </v>
   <v>       0.01200000 </v>
   <v>       0.01200000 </v>
   <v>       0.01200000 </v>
   <v>       0.01200000 </v>
   <v>       0.00600000 </v>
   <v>       0.01200000 </v>
   <v>       0.01200000 </v>
   <v>       0.01200000 </v>
   <v>       0.01200000 </v>
   <v>       0.01200000 </v>
   <v>       0.00600000 </v>
   <v>       0.01200000 </v>
   <v>       0.01200000 </v>
   <v>       0.01200000 </v>
   <v>       0.01200000 </v>
   <v>       0.00600000 </v>
   <v>       0.01200000 </v>
   <v>       0.01200000 </v>
   <v>       0.00600000 </v>
   <v>       0.01200000 </v>
   <v>       0.00600000 </v>
   <v>       0.00200000 </v>
   <v>       0.00600000 </v>
   <v>       0.00600000 </v>
   <v>       0.00600000 </v>
   <v>       0.00600000 </v>
   <v>       0.00600000 </v>
   <v>       0.00600000 </v>
   <v>       0.01200000 </v>
   <v>       0.01200000 </v>
   <v>       0.01200000 </v>
   <v>       0.01200000 </v>
   <v>       0.00600000 </v>
   <v>       0.01200000 </v>
   <v>       0.01200000 </v>
   <v>       0.01200000 </v>
   <v>       0.00600000 </v>
   <v>       0.01200000 </v>
   <v>       0.00600000 </v>
   <v>       0.00200000 </v>
   <v>       0.00600000 </v>
   <v>       0.00600000 </v>
   <v>       0.00600000 </v>
   <v>       0.00600000 </v>
   <v>       0.01200000 </v>
   <v>       0.01200000 </v>
   <v>       0.00600000 </v>
   <v>       0.00200000 </v>
   <v>       0.00600000 </v>
  </varray>
 </kpoints>
 <parameters>
  <separator name="general" >
   <i type="string" name="SYSTEM">unknown system</i>
   <i type="logical" name="LCOMPAT"> F  </i>
  </separator>
  <separator name="electronic" >
   <i type="string" name="PREC">normal</i>
   <i name="ENMAX">    150.00000000</i>
   <i name="ENAUG">    322.06900000</i>
   <i name="EDIFF">      0.00040000</i>
   <i type="int" name="IALGO">    38</i>
   <i type="int" name="IWAVPR">    11</i>
   <i type="int" name="NBANDS">     8</i>
   <i name="NELECT">      8.00000000</i>
   <i type="int" name="TURBO">     0</i>
   <i type="int" name="IRESTART">     0</i>
   <i type="int" name="NREBOOT">     0</i>
   <i type="int" name="NMIN">     0</i>
   <i name="EREF">      0.00000000</i>
   <separator name="electronic smearing" >
    <i type="int" name="ISMEAR">     0</i>
    <i name="SIGMA">      0.20000000</i>
    <i name="KSPACING">      0.50000000</i>
    <i type="logical" name="KGAMMA"> T  </i>
   </separator>
   <separator name="electronic projectors" >
    <i type="logical" name="LREAL"> F  </i>
    <v name="ROPT">      0.00000000</v>
    <i type="int" name="LMAXPAW">  -100</i>
    <i type="int" name="LMAXMIX">     2</i>
    <i type="logical" name="NLSPLINE"> F  </i>
   </separator>
   <separator name="electronic startup" >
    <i type="int" name="ISTART">     0</i>
    <i type="int" name="ICHARG">     2</i>
    <i type="int" name="INIWAV">     1</i>
   </separator>
   <separator name="electronic spin" >
    <i type="int" name="ISPIN">     1</i>
    <i type="logical" name="LNONCOLLINEAR"> F  </i>
    <v name="MAGMOM">      1.00000000      1.00000000</v>
    <i name="NUPDOWN">     -1.00000000</i>
    <i type="logical" name="LSORBIT"> F  </i>
    <v name="SAXIS">      0.00000000      0.00000000      1.00000000</v>
    <i type="logical" name="LSPIRAL"> F  </i>
    <v name="QSPIRAL">      0.00000000      0.00000000      0.00000000</v>
    <i type="logical" name="LZEROZ"> F  </i>
   </separator>
   <separator name="electronic exchange-correlation" >
    <i type="logical" name="LASPH"> F  </i>
    <i type="logical" name="LMETAGGA"> F  </i>
   </separator>
   <separator name="electronic convergence" >
    <i type="int" name="NELM">    60</i>
    <i type="int" name="NELMDL">    -5</i>
    <i type="int" name="NELMIN">     2</i>
    <i name="ENINI">    150.00000000</i>
    <separator name="electronic convergence detail" >
     <i type="logical" name="LDIAG"> T  </i>
     <i type="logical" name="LSUBROT"> F  </i>
     <i name="WEIMIN">      0.00100000</i>
     <i name="EBREAK">      0.00001250</i>
     <i name="DEPER">      0.30000000</i>
     <i type="int" name="NRMM">     4</i>
     <i name="TIME">      0.40000000</i>
    </separator>
   </separator>
   <separator name="electronic mixer" >
    <i name="AMIX">      0.40000000</i>
    <i name="BMIX">      1.00000000</i>
    <i name="AMIN">      0.10000000</i>
    <i name="AMIX_MAG">      1.60000000</i>
    <i name="BMIX_MAG">      1.00000000</i>
    <separator name="electronic mixer details" >
     <i type="int" name="IMIX">     4</i>
     <i type="logical" name="MIXFIRST"> F  </i>
     <i type="int" name="MAXMIX">   -45</i>
     <i name="WC">    100.00000000</i>
     <i type="int" name="INIMIX">     1</i>
     <i type="int" name="MIXPRE">     1</i>
     <i type="int" name="MREMOVE">     5</i>
    </separator>
   </separator>
   <separator name="electronic dipolcorrection" >
    <i type="logical" name="LDIPOL"> F  </i>
    <i type="logical" name="LMONO"> F  </i>
    <i type="int" name="IDIPOL">     0</i>
    <i name="EPSILON">      1.00000000</i>
    <v name="DIPOL">   -100.00000000   -100.00000000   -100.00000000</v>
    <i name="EFIELD">      0.00000000</i>
   </separator>
  </separator>
  <separator name="grids" >
   <i type="int" name="NGX">    12</i>
   <i type="int" name="NGY">    12</i>
   <i type="int" name="NGZ">    12</i>
   <i type="int" name="NGXF">    24</i>
   <i type="int" name="NGYF">    24</i>
   <i type="int" name="NGZF">    24</i>
   <i type="logical" name="ADDGRID"> F  </i>
  </separator>
  <separator name="ionic" >
   <i type="int" name="NSW">    15</i>
   <i type="int" name="IBRION">     2</i>
   <i type="int" name="MDALGO">     0</i>
   <i type="int" name="ISIF">     2</i>
   <i name="PSTRESS">      0.00000000</i>
   <i name="EDIFFG">     -0.01000000</i>
   <i type="int" name="NFREE">     1</i>
   <i name="POTIM">      0.50000000</i>
   <i name="SMASS">     -3.00000000</i>
   <i name="SCALEE">      1.00000000</i>
  </separator>
  <separator name="ionic md" >
   <i name="TEBEG">      0.00010000</i>
   <i name="TEEND">      0.00010000</i>
   <i type="int" name="NBLOCK">     1</i>
   <i type="int" name="KBLOCK">    15</i>
   <i type="int" name="NPACO">   256</i>
   <i name="APACO">     16.00000000</i>
  </separator>
  <separator name="symmetry" >
   <i type="int" name="ISYM">     2</i>
   <i name="SYMPREC">      0.00001000</i>
  </separator>
  <separator name="dos" >
   <i type="int" name="LORBIT">     0</i>
   <v name="RWIGS">     -1.00000000</v>
   <i type="int" name="NEDOS">   301</i>
   <i name="EMIN">     10.00000000</i>
   <i name="EMAX">    -10.00000000</i>
   <i name="EFERMI">      0.00000000</i>
  </separator>
  <separator name="writing" >
   <i type="int" name="NWRITE">     2</i>
   <i type="logical" name="LWAVE"> T  </i>
   <i type="logical" name="LDOWNSAMPLE"> F  </i>
   <i type="logical" name="LCHARG"> T  </i>
   <i type="logical" name="LPARD"> F  </i>
   <i type="logical" name="LVTOT"> F  </i>
   <i type="logical" name="LVHAR"> F  </i>
   <i type="logical" name="LELF"> F  </i>
   <i type="logical" name="LOPTICS"> F  </i>
   <v name="STM">      0.00000000      0.00000000      0.00000000      0.00000000      0.00000000      0.00000000      0.00000000</v>
  </separator>
  <separator name="performance" >
   <i type="int" name="NPAR">     8</i>
   <i type="int" name="NSIM">     4</i>
   <i type="int" name="NBLK">    -1</i>
   <i type="logical" name="LPLANE"> T  </i>
   <i type="logical" name="LSCALAPACK"> T  </i>
   <i type="logical" name="LSCAAWARE"> F  </i>
   <i type="logical" name="LSCALU"> F  </i>
   <i type="logical" name="LASYNC"> F  </i>
   <i type="logical" name="LORBITALREAL"> F  </i>
  </separator>
  <separator name="miscellaneous" >
   <i type="int" name="IDIOT">     3</i>
   <i type="int" name="ISPECIAL">     0</i>
   <i type="logical" name="LMUSIC"> F  </i>
   <v name="POMASS">     28.08500000</v>
   <v name="DARWINR">      0.00000000</v>
   <v name="DARWINV">      1.00000000</v>
   <i type="logical" name="LCORR"> T  </i>
  </separator>
  <i type="logical" name="GGA_COMPAT"> T  </i>
  <i type="logical" name="LBERRY"> F  </i>
  <i type="int" name="ICORELEVEL">     0</i>
  <i type="logical" name="LDAU"> F  </i>
  <i type="int" name="I_CONSTRAINED_M">     0</i>
  <separator name="electronic exchange-correlation" >
   <i type="string" name="GGA">--</i>
   <i type="int" name="VOSKOWN">     0</i>
   <i type="logical" name="LHFCALC"> F  </i>
   <i type="string" name="PRECFOCK"></i>
   <i type="logical" name="LSYMGRAD"> F  </i>
   <i type="logical" name="LHFONE"> F  </i>
   <i type="logical" name="LRHFCALC"> F  </i>
   <i type="logical" name="LTHOMAS"> F  </i>
   <i type="logical" name="LMODELHF"> F  </i>
   <i name="ENCUT4O">     -1.00000000</i>
   <i type="int" name="EXXOEP">     0</i>
   <i type="int" name="FOURORBIT">     0</i>
   <i name="AEXX">      0.00000000</i>
   <i name="HFALPHA">      0.00000000</i>
   <i name="MCALPHA">      0.00000000</i>
   <i name="ALDAX">      1.00000000</i>
   <i name="AGGAX">      1.00000000</i>
   <i name="ALDAC">      1.00000000</i>
   <i name="AGGAC">      1.00000000</i>
   <i type="int" name="NKREDX">     1</i>
   <i type="int" name="NKREDY">     1</i>
   <i type="int" name="NKREDZ">     1</i>
   <i type="logical" name="SHIFTRED"> F  </i>
   <i type="logical" name="ODDONLY"> F  </i>
   <i type="logical" name="EVENONLY"> F  </i>
   <i type="int" name="LMAXFOCK">     0</i>
   <i type="int" name="NMAXFOCKAE">     0</i>
   <i type="logical" name="LFOCKAEDFT"> F  </i>
   <i name="HFSCREEN">      0.00000000</i>
   <i name="HFSCREENC">      0.00000000</i>
   <i type="int" name="NBANDSGWLOW">     0</i>
  </separator>
  <separator name="vdW DFT" >
   <i type="logical" name="LUSE_VDW"> F  </i>
   <i name="Zab_VDW">     -0.84910000</i>
   <i name="PARAM1">      0.12340000</i>
   <i name="PARAM2">      1.00000000</i>
   <i name="PARAM3">      0.00000000</i>
  </separator>
  <separator name="model GW" >
   <i type="int" name="MODEL_GW">     0</i>
   <i name="MODEL_EPS0">     12.00772552</i>
   <i name="MODEL_ALPHA">      1.00000000</i>
  </separator>
  <separator name="linear response parameters" >
   <i type="logical" name="LEPSILON"> F  </i>
   <i type="logical" name="LRPA"> F  </i>
   <i type="logical" name="LNABLA"> F  </i>
   <i type="logical" name="LVEL"> F  </i>
   <i type="int" name="KINTER">     0</i>
   <i name="CSHIFT">      0.10000000</i>
   <i name="OMEGAMAX">     -1.00000000</i>
   <i name="DEG_THRESHOLD">      0.00200000</i>
   <i name="RTIME">     -0.10000000</i>
   <i name="WPLASMAI">      0.00000000</i>
   <v name="DFIELD">      0.00000000      0.00000000      0.00000000</v>
   <v name="WPLASMA">      0.00000000      0.00000000      0.00000000      0.00000000      0.00000000      0.00000000      0.00000000      0.00000000      0.00000000</v>
  </separator>
  <separator name="orbital magnetization" >
   <i type="logical" name="NUCIND"> F  </i>
   <v name="MAGPOS">      0.00000000      0.00000000      0.00000000</v>
   <i type="logical" name="LNICSALL"> T  </i>
   <i type="logical" name="ORBITALMAG"> F  </i>
   <i type="logical" name="LMAGBLOCH"> F  </i>
   <i type="logical" name="LCHIMAG"> F  </i>
   <i type="logical" name="LGAUGE"> T  </i>
   <i type="int" name="MAGATOM">     0</i>
   <v name="MAGDIPOL">      0.00000000      0.00000000      0.00000000</v>
   <v name="AVECCONST">      0.00000000      0.00000000      0.00000000</v>
  </separator>
  <separator name="response functions" >
   <i type="logical" name="LADDER"> F  </i>
   <i type="logical" name="LRPAFORCE"> F  </i>
   <i type="logical" name="LFXC"> F  </i>
   <i type="logical" name="LHARTREE"> T  </i>
   <i type="int" name="IBSE">     0</i>
   <v type="int" name="KPOINT">    -1     0     0     0</v>
   <i type="logical" name="LTCTE"> F  </i>
   <i type="logical" name="LTETE"> F  </i>
   <i type="logical" name="LTRIPLET"> F  </i>
   <i type="logical" name="LFXCEPS"> F  </i>
   <i type="logical" name="LFXHEG"> F  </i>
   <i type="int" name="NATURALO">     2</i>
   <i type="logical" name="L2ORDER"> F  </i>
   <i type="logical" name="LMP2LT"> F  </i>
   <i type="logical" name="LUSEW"> F  </i>
   <i name="ENCUTGW">     -2.00000000</i>
   <i name="ENCUTGWSOFT">     -2.00000000</i>
   <i name="ENCUTLF">     -1.00000000</i>
   <i type="int" name="LMAXMP2">    -1</i>
   <i name="SCISSOR">      0.00000000</i>
   <i type="int" name="NOMEGA">     0</i>
   <i type="int" name="NOMEGAR">     0</i>
   <i type="int" name="NBANDSGW">    -1</i>
   <i type="int" name="NBANDSO">    -1</i>
   <i type="int" name="NBANDSV">    -1</i>
   <i type="int" name="NELM">     1</i>
   <i type="int" name="NELMHF">     1</i>
   <i type="int" name="DIM">     3</i>
   <i type="int" name="ANTIRES">     0</i>
   <i name="OMEGAMAX">    -30.00000000</i>
   <i name="OMEGAMIN">    -30.00000000</i>
   <i name="OMEGATL">   -200.00000000</i>
   <i type="int" name="OMEGAGRID">   140</i>
   <i name="CSHIFT">     -0.10000000</i>
   <i type="logical" name="SELFENERGY"> F  </i>
   <i type="logical" name="LSPECTRAL"> F  </i>
   <i type="logical" name="LSPECTRALGW"> F  </i>
   <i type="logical" name="LSINGLES"> F  </i>
   <i type="logical" name="LFERMIGW"> F  </i>
   <i type="logical" name="ODDONLYGW"> F  </i>
   <i type="logical" name="EVENONLYGW"> F  </i>
   <i type="int" name="NKREDLFX">     1</i>
   <i type="int" name="NKREDLFY">     1</i>
   <i type="int" name="NKREDLFZ">     1</i>
   <i type="int" name="MAXMEM">  2800</i>
   <i type="int" name="TELESCOPE">     0</i>
   <i type="int" name="TAUPAR">     1</i>
   <i type="int" name="OMEGAPAR">    -1</i>
   <i name="LAMBDA">      1.00000000</i>
  </separator>
  <separator name="External order field" >
   <i name="OFIELD_KAPPA">      0.00000000</i>
   <v name="OFIELD_K">      0.00000000      0.00000000      0.00000000</v>
   <i name="OFIELD_Q6_NEAR">      0.00000000</i>
   <i name="OFIELD_Q6_FAR">      0.00000000</i>
   <i name="OFIELD_A">      0.00000000</i>
  </separator>
 </parameters>
 <atominfo>
  <atoms>       2 </atoms>
  <types>       1 </types>
  <array name="atoms" >
   <dimension dim="1">ion</dimension>
   <field type="string">element</field>
   <field type="int">atomtype</field>
   <set>
    <rc><c>Si</c><c>   1</c></rc>
    <rc><c>Si</c><c>   1</c></rc>
   </set>
  </array>
  <array name="atomtypes" >
   <dimension dim="1">type</dimension>
   <field type="int">atomspertype</field>
   <field type="string">element</field>
   <field>mass</field>
   <field>valence</field>
   <field type="string">pseudopotential</field>
   <set>
    <rc><c>   2</c><c>Si</c><c>     28.08500000</c><c>      4.00000000</c><c> PAW_PBE Si 05Jan2001                   </c></rc>
   </set>
  </array>
 </atominfo>
 <structure name="initialpos" >
  <crystal>
   <varray name="basis" >
    <v>       0.00000000       2.71500000       2.71500000 </v>
    <v>       2.71500000       0.00000000       2.71500000 </v>
    <v>       2.71500000       2.71500000       0.00000000 </v>
   </varray>
   <i name="volume">     40.02575175 </i>
   <varray name="rec_basis" >
    <v>      -0.18416206       0.18416206       0.18416206 </v>
    <v>       0.18416206      -0.18416206       0.18416206 </v>
    <v>       0.18416206       0.18416206      -0.18416206 </v>
   </varray>
  </crystal>
  <varray name="positions" >
   <v>       0.50000000       0.50000000       0.50000000 </v>
   <v>       0.75000000       0.75000000       0.75000000 </v>
  </varray>
 </structure>
 <calculation>
  <scstep>
   <time name="dav">    0.87    0.89</time>
   <time name="total">    0.91    0.94</time>
   <energy>
    <i name="alphaZ">      3.36414203 </i>
    <i name="ewald">   -228.56352493 </i>
    <i name="hartreedc">    -11.00108243 </i>
    <i name="XCdc">    -18.60155909 </i>
    <i name="pawpsdc">     65.95520812 </i>
    <i name="pawaedc">    -30.76852678 </i>
    <i name="eentropy">     -0.00999909 </i>
    <i name="bandstr">      8.81986854 </i>
    <i name="atom">    206.09183643 </i>
    <i name="e_fr_energy">     -4.71363720 </i>
    <i name="e_wo_entrp">     -4.70363811 </i>
    <i name="e_0_energy">     -4.70863766 </i>
   </energy>
  </scstep>
  <scstep>
   <time name="dav">    1.23    1.24</time>
   <time name="total">    1.23    1.24</time>
   <energy>
    <i name="e_fr_energy">    -10.87792318 </i>
    <i name="e_wo_entrp">    -10.87792132 </i>
    <i name="e_0_energy">    -10.87792225 </i>
   </energy>
  </scstep>
  <scstep>
   <time name="dav">    1.05    1.06</time>
   <time name="total">    1.05    1.06</time>
   <energy>
    <i name="e_fr_energy">    -10.92536184 </i>
    <i name="e_wo_entrp">    -10.92536049 </i>
    <i name="e_0_energy">    -10.92536116 </i>
   </energy>
  </scstep>
  <scstep>
   <time name="dav">    1.30    1.30</time>
   <time name="total">    1.30    1.31</time>
   <energy>
    <i name="e_fr_energy">    -10.92543383 </i>
    <i name="e_wo_entrp">    -10.92543249 </i>
    <i name="e_0_energy">    -10.92543316 </i>
   </energy>
  </scstep>
  <scstep>
   <time name="dav">    0.95    0.96</time>
   <time name="total">    0.98    0.98</time>
   <energy>
    <i name="e_fr_energy">    -10.92543385 </i>
    <i name="e_wo_entrp">    -10.92543250 </i>
    <i name="e_0_energy">    -10.92543318 </i>
   </energy>
  </scstep>
  <scstep>
   <time name="dav">    0.90    0.90</time>
   <time name="total">    0.94    0.95</time>
   <energy>
    <i name="e_fr_energy">    -10.80150520 </i>
    <i name="e_wo_entrp">    -10.80149710 </i>
    <i name="e_0_energy">    -10.80150115 </i>
   </energy>
  </scstep>
  <scstep>
   <time name="dav">    1.02    1.01</time>
   <time name="total">    1.06    1.06</time>
   <energy>
    <i name="e_fr_energy">    -10.74352674 </i>
    <i name="e_wo_entrp">    -10.74346859 </i>
    <i name="e_0_energy">    -10.74349766 </i>
   </energy>
  </scstep>
  <scstep>
   <time name="dav">    0.86    0.86</time>
   <time name="total">    0.90    0.91</time>
   <energy>
    <i name="e_fr_energy">    -10.74474934 </i>
    <i name="e_wo_entrp">    -10.74470337 </i>
    <i name="e_0_energy">    -10.74472635 </i>
   </energy>
  </scstep>
  <scstep>
   <time name="dav">    0.66    0.66</time>
   <time name="total">    0.69    0.70</time>
   <energy>
    <i name="alphaZ">      3.36414203 </i>
    <i name="ewald">   -228.56352493 </i>
    <i name="hartreedc">    -14.87416579 </i>
    <i name="XCdc">    -17.92395930 </i>
    <i name="pawpsdc">     76.69227517 </i>
    <i name="pawaedc">    -41.74350670 </i>
    <i name="eentropy">     -0.00004573 </i>
    <i name="bandstr">      6.21210691 </i>
    <i name="atom">    206.09183643 </i>
    <i name="e_fr_energy">    -10.74484192 </i>
    <i name="e_wo_entrp">    -10.74479619 </i>
    <i name="e_0_energy">    -10.74481906 </i>
   </energy>
  </scstep>
  <structure>
   <crystal>
    <varray name="basis" >
     <v>       0.00000000       2.71500000       2.71500000 </v>
     <v>       2.71500000       0.00000000       2.71500000 </v>
     <v>       2.71500000       2.71500000       0.00000000 </v>
    </varray>
    <i name="volume">     40.02575175 </i>
    <varray name="rec_basis" >
     <v>      -0.18416206       0.18416206       0.18416206 </v>
     <v>       0.18416206      -0.18416206       0.18416206 </v>
     <v>       0.18416206       0.18416206      -0.18416206 </v>
    </varray>
   </crystal>
   <varray name="positions" >
    <v>       0.50000000       0.50000000       0.50000000 </v>
    <v>       0.75000000       0.75000000       0.75000000 </v>
   </varray>
  </structure>
  <varray name="forces" >
   <v>      -0.00000000      -0.00000000      -0.00000000 </v>
   <v>       0.00000000       0.00000000       0.00000000 </v>
  </varray>
  <varray name="stress" >
   <v>      19.59060385       0.00000000      -0.00000000 </v>
   <v>       0.00000000      19.59060385       0.00000000 </v>
   <v>      -0.00000000       0.00000000      19.59060385 </v>
  </varray>
  <energy>
   <i name="e_fr_energy">    -10.74484192 </i>
   <i name="e_wo_entrp">    -10.74481906 </i>
   <i name="e_0_energy">     -0.00004573 </i>
  </energy>
  <time name="totalsc">    9.94   11.13</time>
  <eigenvalues>
   <array>
    <dimension dim="1">band</dimension>
    <dimension dim="2">kpoint</dimension>
    <dimension dim="3">spin</dimension>
    <field>eigene</field>
    <field>occ</field>
    <set>
     <set comment="spin 1">
      <set comment="kpoint 1">
       <r>   -6.1034    1.0000 </r>
       <r>    5.5129    1.0000 </r>
       <r>    5.8190    0.9950 </r>
       <r>    5.8190    0.9950 </r>
       <r>    8.5132    0.0000 </r>
       <r>    8.5368    0.0000 </r>
       <r>    8.5368    0.0000 </r>
       <r>    9.4429    0.0000 </r>
      </set>
      <set comment="kpoint 2">
       <r>   -5.9289    1.0000 </r>
       <r>    4.3628    1.0000 </r>
       <r>    5.2367    1.0000 </r>
       <r>    5.7418    0.9991 </r>
       <r>    8.5921    0.0000 </r>
       <r>    8.7033    0.0000 </r>
       <r>    8.9538    0.0000 </r>
       <r>   10.5409    0.0000 </r>
      </set>
      <set comment="kpoint 3">
       <r>   -5.5012    1.0000 </r>
       <r>    2.5260    1.0000 </r>
       <r>    4.7949    1.0000 </r>
       <r>    5.3834    1.0000 </r>
       <r>    8.2532    0.0000 </r>
       <r>    9.1757    0.0000 </r>
       <r>    9.5158    0.0000 </r>
       <r>   12.0262    0.0000 </r>
      </set>
      <set comment="kpoint 4">
       <r>   -4.8524    1.0000 </r>
       <r>    0.7810    1.0000 </r>
       <r>    4.5018    1.0000 </r>
       <r>    5.0124    1.0000 </r>
       <r>    7.9242    0.0000 </r>
       <r>    9.3852    0.0000 </r>
       <r>    9.5820    0.0000 </r>
       <r>   13.2122    0.0000 </r>
      </set>
      <set comment="kpoint 5">
       <r>   -4.1066    1.0000 </r>
       <r>   -0.6161    1.0000 </r>
       <r>    4.3730    1.0000 </r>
       <r>    4.7317    1.0000 </r>
       <r>    7.6987    0.0000 </r>
       <r>    9.3669    0.0000 </r>
       <r>    9.3684    0.0000 </r>
       <r>   13.7531    0.0000 </r>
      </set>
      <set comment="kpoint 6">
       <r>   -3.7867    1.0000 </r>
       <r>   -1.1008    1.0000 </r>
       <r>    4.4126    1.0000 </r>
       <r>    4.5861    1.0000 </r>
       <r>    7.6469    0.0000 </r>
       <r>    9.2289    0.0000 </r>
       <r>    9.4173    0.0000 </r>
       <r>   13.7256    0.0000 </r>
      </set>
      <set comment="kpoint 7">
       <r>   -4.3480    1.0000 </r>
       <r>   -0.2113    1.0000 </r>
       <r>    4.5931    1.0000 </r>
       <r>    4.6037    1.0000 </r>
       <r>    7.7568    0.0000 </r>
       <r>    9.2308    0.0000 </r>
       <r>    9.5950    0.0000 </r>
       <r>   13.4625    0.0000 </r>
      </set>
      <set comment="kpoint 8">
       <r>   -5.0889    1.0000 </r>
       <r>    1.3366    1.0000 </r>
       <r>    4.7653    1.0000 </r>
       <r>    4.9267    1.0000 </r>
       <r>    8.0281    0.0000 </r>
       <r>    9.2382    0.0000 </r>
       <r>    9.7578    0.0000 </r>
       <r>   12.4043    0.0000 </r>
      </set>
      <set comment="kpoint 9">
       <r>   -5.6705    1.0000 </r>
       <r>    3.1474    1.0000 </r>
       <r>    5.0893    1.0000 </r>
       <r>    5.3257    1.0000 </r>
       <r>    8.3517    0.0000 </r>
       <r>    8.9334    0.0000 </r>
       <r>    9.5400    0.0000 </r>
       <r>   11.4707    0.0000 </r>
      </set>
      <set comment="kpoint 10">
       <r>   -6.0159    1.0000 </r>
       <r>    4.9556    1.0000 </r>
       <r>    5.5079    1.0000 </r>
       <r>    5.6427    0.9999 </r>
       <r>    8.3413    0.0000 </r>
       <r>    8.7897    0.0000 </r>
       <r>    8.9523    0.0000 </r>
       <r>    9.9715    0.0000 </r>
      </set>
      <set comment="kpoint 11">
       <r>   -5.8414    1.0000 </r>
       <r>    4.2619    1.0000 </r>
       <r>    5.0630    1.0000 </r>
       <r>    5.1750    1.0000 </r>
       <r>    8.0245    0.0000 </r>
       <r>    9.3703    0.0000 </r>
       <r>    9.6079    0.0000 </r>
       <r>   10.4998    0.0000 </r>
      </set>
      <set comment="kpoint 12">
       <r>   -5.4969    1.0000 </r>
       <r>    3.0073    1.0000 </r>
       <r>    4.3039    1.0000 </r>
       <r>    4.9799    1.0000 </r>
       <r>    8.0923    0.0000 </r>
       <r>    9.5616    0.0000 </r>
       <r>   10.2447    0.0000 </r>
       <r>   10.7444    0.0000 </r>
      </set>
      <set comment="kpoint 13">
       <r>   -4.9166    1.0000 </r>
       <r>    1.3473    1.0000 </r>
       <r>    3.8716    1.0000 </r>
       <r>    4.6073    1.0000 </r>
       <r>    8.3231    0.0000 </r>
       <r>    9.5127    0.0000 </r>
       <r>   10.5125    0.0000 </r>
       <r>   10.9784    0.0000 </r>
      </set>
      <set comment="kpoint 14">
       <r>   -4.1758    1.0000 </r>
       <r>   -0.1460    1.0000 </r>
       <r>    3.5981    1.0000 </r>
       <r>    4.3197    1.0000 </r>
       <r>    8.2753    0.0000 </r>
       <r>    9.3498    0.0000 </r>
       <r>   10.3763    0.0000 </r>
       <r>   12.1485    0.0000 </r>
      </set>
      <set comment="kpoint 15">
       <r>   -3.6121    1.0000 </r>
       <r>   -1.0204    1.0000 </r>
       <r>    3.4158    1.0000 </r>
       <r>    4.2729    1.0000 </r>
       <r>    8.2715    0.0000 </r>
       <r>    9.2041    0.0000 </r>
       <r>   10.2119    0.0000 </r>
       <r>   13.7493    0.0000 </r>
      </set>
      <set comment="kpoint 16">
       <r>   -3.9366    1.0000 </r>
       <r>   -0.5373    1.0000 </r>
       <r>    3.3529    1.0000 </r>
       <r>    4.4676    1.0000 </r>
       <r>    8.4044    0.0000 </r>
       <r>    9.2191    0.0000 </r>
       <r>   10.1795    0.0000 </r>
       <r>   13.2271    0.0000 </r>
      </set>
      <set comment="kpoint 17">
       <r>   -4.6832    1.0000 </r>
       <r>    0.8207    1.0000 </r>
       <r>    3.4715    1.0000 </r>
       <r>    4.8299    1.0000 </r>
       <r>    8.6406    0.0000 </r>
       <r>    9.2909    0.0000 </r>
       <r>   10.2291    0.0000 </r>
       <r>   11.8248    0.0000 </r>
      </set>
      <set comment="kpoint 18">
       <r>   -5.3297    1.0000 </r>
       <r>    2.4264    1.0000 </r>
       <r>    3.8530    1.0000 </r>
       <r>    5.2466    1.0000 </r>
       <r>    8.7541    0.0000 </r>
       <r>    9.1519    0.0000 </r>
       <r>   10.0155    0.0000 </r>
       <r>   11.2055    0.0000 </r>
      </set>
      <set comment="kpoint 19">
       <r>   -5.7556    1.0000 </r>
       <r>    3.6964    1.0000 </r>
       <r>    4.7820    1.0000 </r>
       <r>    5.4831    1.0000 </r>
       <r>    8.4263    0.0000 </r>
       <r>    8.9959    0.0000 </r>
       <r>    9.4852    0.0000 </r>
       <r>   11.0262    0.0000 </r>
      </set>
      <set comment="kpoint 20">
       <r>   -5.2360    1.0000 </r>
       <r>    2.6662    1.0000 </r>
       <r>    4.1401    1.0000 </r>
       <r>    4.1668    1.0000 </r>
       <r>    7.3091    0.0000 </r>
       <r>    9.5128    0.0000 </r>
       <r>   11.0856    0.0000 </r>
       <r>   11.2008    0.0000 </r>
      </set>
      <set comment="kpoint 21">
       <r>   -4.7314    1.0000 </r>
       <r>    1.5615    1.0000 </r>
       <r>    3.4409    1.0000 </r>
       <r>    3.9216    1.0000 </r>
       <r>    7.4482    0.0000 </r>
       <r>    9.1031    0.0000 </r>
       <r>   11.2431    0.0000 </r>
       <r>   11.9664    0.0000 </r>
      </set>
      <set comment="kpoint 22">
       <r>   -4.0291    1.0000 </r>
       <r>    0.2566    1.0000 </r>
       <r>    2.8249    1.0000 </r>
       <r>    3.6910    1.0000 </r>
       <r>    7.6994    0.0000 </r>
       <r>    9.8112    0.0000 </r>
       <r>   10.9366    0.0000 </r>
       <r>   12.0342    0.0000 </r>
      </set>
      <set comment="kpoint 23">
       <r>   -3.3274    1.0000 </r>
       <r>   -0.7867    1.0000 </r>
       <r>    2.3419    1.0000 </r>
       <r>    3.7114    1.0000 </r>
       <r>    7.8181    0.0000 </r>
       <r>   10.5715    0.0000 </r>
       <r>   11.4885    0.0000 </r>
       <r>   11.8315    0.0000 </r>
      </set>
      <set comment="kpoint 24">
       <r>   -3.3515    1.0000 </r>
       <r>   -0.7470    1.0000 </r>
       <r>    2.0887    1.0000 </r>
       <r>    3.9655    1.0000 </r>
       <r>    8.1044    0.0000 </r>
       <r>   10.3476    0.0000 </r>
       <r>   11.6390    0.0000 </r>
       <r>   13.1197    0.0000 </r>
      </set>
      <set comment="kpoint 25">
       <r>   -4.0604    1.0000 </r>
       <r>    0.2829    1.0000 </r>
       <r>    2.1866    1.0000 </r>
       <r>    4.3943    1.0000 </r>
       <r>    8.5645    0.0000 </r>
       <r>   10.1069    0.0000 </r>
       <r>   11.3725    0.0000 </r>
       <r>   11.6577    0.0000 </r>
      </set>
      <set comment="kpoint 26">
       <r>   -4.7540    1.0000 </r>
       <r>    1.2744    1.0000 </r>
       <r>    2.9502    1.0000 </r>
       <r>    4.8676    1.0000 </r>
       <r>    8.9637    0.0000 </r>
       <r>    9.3883    0.0000 </r>
       <r>   10.6373    0.0000 </r>
       <r>   11.2073    0.0000 </r>
      </set>
      <set comment="kpoint 27">
       <r>   -5.2490    1.0000 </r>
       <r>    1.9212    1.0000 </r>
       <r>    4.3499    1.0000 </r>
       <r>    5.1107    1.0000 </r>
       <r>    8.4129    0.0000 </r>
       <r>    9.1563    0.0000 </r>
       <r>    9.9251    0.0000 </r>
       <r>   11.6672    0.0000 </r>
      </set>
      <set comment="kpoint 28">
       <r>   -4.3027    1.0000 </r>
       <r>    0.9410    1.0000 </r>
       <r>    3.3715    1.0000 </r>
       <r>    3.4849    1.0000 </r>
       <r>    6.7800    0.0000 </r>
       <r>    8.0921    0.0000 </r>
       <r>   12.8747    0.0000 </r>
       <r>   12.9445    0.0000 </r>
      </set>
      <set comment="kpoint 29">
       <r>   -3.6571    1.0000 </r>
       <r>    0.0024    1.0000 </r>
       <r>    2.8204    1.0000 </r>
       <r>    3.2157    1.0000 </r>
       <r>    7.0390    0.0000 </r>
       <r>    7.9748    0.0000 </r>
       <r>   12.8829    0.0000 </r>
       <r>   13.8268    0.0000 </r>
      </set>
      <set comment="kpoint 30">
       <r>   -2.9052    1.0000 </r>
       <r>   -0.8929    1.0000 </r>
       <r>    1.9963    1.0000 </r>
       <r>    3.2243    1.0000 </r>
       <r>    7.2513    0.0000 </r>
       <r>    9.2154    0.0000 </r>
       <r>   12.5313    0.0000 </r>
       <r>   13.7874    0.0000 </r>
      </set>
      <set comment="kpoint 31">
       <r>   -2.6720    1.0000 </r>
       <r>   -1.1262    1.0000 </r>
       <r>    1.4884    1.0000 </r>
       <r>    3.4683    1.0000 </r>
       <r>    7.5346    0.0000 </r>
       <r>   11.0966    0.0000 </r>
       <r>   12.1882    0.0000 </r>
       <r>   13.1762    0.0000 </r>
      </set>
      <set comment="kpoint 32">
       <r>   -3.3185    1.0000 </r>
       <r>   -0.5268    1.0000 </r>
       <r>    1.6568    1.0000 </r>
       <r>    3.9023    1.0000 </r>
       <r>    8.0310    0.0000 </r>
       <r>   11.0140    0.0000 </r>
       <r>   12.1971    0.0000 </r>
       <r>   12.4698    0.0000 </r>
      </set>
      <set comment="kpoint 33">
       <r>   -4.0155    1.0000 </r>
       <r>   -0.0937    1.0000 </r>
       <r>    2.6838    1.0000 </r>
       <r>    4.4208    1.0000 </r>
       <r>    8.5600    0.0000 </r>
       <r>    9.5983    0.0000 </r>
       <r>   10.8053    0.0000 </r>
       <r>   12.3511    0.0000 </r>
      </set>
      <set comment="kpoint 34">
       <r>   -4.5451    1.0000 </r>
       <r>    0.2834    1.0000 </r>
       <r>    4.1021    1.0000 </r>
       <r>    4.7453    1.0000 </r>
       <r>    8.1574    0.0000 </r>
       <r>    9.2357    0.0000 </r>
       <r>    9.8627    0.0000 </r>
       <r>   12.6581    0.0000 </r>
      </set>
      <set comment="kpoint 35">
       <r>   -3.0695    1.0000 </r>
       <r>   -0.7709    1.0000 </r>
       <r>    2.9413    1.0000 </r>
       <r>    3.0929    1.0000 </r>
       <r>    6.5822    0.0024 </r>
       <r>    7.1365    0.0000 </r>
       <r>   14.7672    0.0000 </r>
       <r>   14.7735    0.0000 </r>
      </set>
      <set comment="kpoint 36">
       <r>   -2.3210    1.0000 </r>
       <r>   -1.5683    1.0000 </r>
       <r>    2.5363    1.0000 </r>
       <r>    2.9268    1.0000 </r>
       <r>    6.9080    0.0000 </r>
       <r>    7.4302    0.0000 </r>
       <r>   14.6331    0.0000 </r>
       <r>   15.3681    0.0000 </r>
      </set>
      <set comment="kpoint 37">
       <r>   -2.3348    1.0000 </r>
       <r>   -1.4667    1.0000 </r>
       <r>    1.8161    1.0000 </r>
       <r>    3.1350    1.0000 </r>
       <r>    7.1545    0.0000 </r>
       <r>    9.0971    0.0000 </r>
       <r>   13.3690    0.0000 </r>
       <r>   14.2752    0.0000 </r>
      </set>
      <set comment="kpoint 38">
       <r>   -2.9312    1.0000 </r>
       <r>   -0.9997    1.0000 </r>
       <r>    1.8040    1.0000 </r>
       <r>    3.5485    1.0000 </r>
       <r>    7.6316    0.0000 </r>
       <r>   11.0984    0.0000 </r>
       <r>   11.5246    0.0000 </r>
       <r>   12.6713    0.0000 </r>
      </set>
      <set comment="kpoint 39">
       <r>   -3.4419    1.0000 </r>
       <r>   -0.9593    1.0000 </r>
       <r>    2.7302    1.0000 </r>
       <r>    4.0900    1.0000 </r>
       <r>    8.2268    0.0000 </r>
       <r>    9.6825    0.0000 </r>
       <r>   10.8846    0.0000 </r>
       <r>   13.6288    0.0000 </r>
      </set>
      <set comment="kpoint 40">
       <r>   -3.8478    1.0000 </r>
       <r>   -0.8978    1.0000 </r>
       <r>    4.0010    1.0000 </r>
       <r>    4.5205    1.0000 </r>
       <r>    8.0000    0.0000 </r>
       <r>    9.1657    0.0000 </r>
       <r>    9.6934    0.0000 </r>
       <r>   13.7942    0.0000 </r>
      </set>
      <set comment="kpoint 41">
       <r>   -2.3549    1.0000 </r>
       <r>   -1.5851    1.0000 </r>
       <r>    2.8551    1.0000 </r>
       <r>    3.0134    1.0000 </r>
       <r>    6.6119    0.0012 </r>
       <r>    6.8688    0.0000 </r>
       <r>   15.6189    0.0000 </r>
       <r>   15.6699    0.0000 </r>
      </set>
      <set comment="kpoint 42">
       <r>   -3.0173    1.0000 </r>
       <r>   -0.7918    1.0000 </r>
       <r>    2.6316    1.0000 </r>
       <r>    3.0221    1.0000 </r>
       <r>    6.9433    0.0000 </r>
       <r>    7.6217    0.0000 </r>
       <r>   13.7465    0.0000 </r>
       <r>   14.7662    0.0000 </r>
      </set>
      <set comment="kpoint 43">
       <r>   -3.4893    1.0000 </r>
       <r>   -0.3026    1.0000 </r>
       <r>    2.3447    1.0000 </r>
       <r>    3.4064    1.0000 </r>
       <r>    7.4379    0.0000 </r>
       <r>    9.4514    0.0000 </r>
       <r>   11.7138    0.0000 </r>
       <r>   12.8938    0.0000 </r>
      </set>
      <set comment="kpoint 44">
       <r>   -3.7604    1.0000 </r>
       <r>   -0.5023    1.0000 </r>
       <r>    2.9796    1.0000 </r>
       <r>    3.9644    1.0000 </r>
       <r>    8.0650    0.0000 </r>
       <r>    9.8972    0.0000 </r>
       <r>   11.0469    0.0000 </r>
       <r>   11.7573    0.0000 </r>
      </set>
      <set comment="kpoint 45">
       <r>   -3.7211    1.0000 </r>
       <r>    0.0764    1.0000 </r>
       <r>    3.1141    1.0000 </r>
       <r>    3.2509    1.0000 </r>
       <r>    6.6363    0.0007 </r>
       <r>    7.5492    0.0000 </r>
       <r>   13.8322    0.0000 </r>
       <r>   13.8525    0.0000 </r>
      </set>
      <set comment="kpoint 46">
       <r>   -4.2305    1.0000 </r>
       <r>    0.7930    1.0000 </r>
       <r>    3.0940    1.0000 </r>
       <r>    3.5138    1.0000 </r>
       <r>    7.2078    0.0000 </r>
       <r>    8.4748    0.0000 </r>
       <r>   12.0479    0.0000 </r>
       <r>   12.8857    0.0000 </r>
      </set>
      <set comment="kpoint 47">
       <r>   -4.5081    1.0000 </r>
       <r>    0.7985    1.0000 </r>
       <r>    3.3590    1.0000 </r>
       <r>    4.0954    1.0000 </r>
       <r>    8.0157    0.0000 </r>
       <r>   10.1524    0.0000 </r>
       <r>   10.3485    0.0000 </r>
       <r>   11.2463    0.0000 </r>
      </set>
      <set comment="kpoint 48">
       <r>   -4.8087    1.0000 </r>
       <r>    1.8107    1.0000 </r>
       <r>    3.7159    1.0000 </r>
       <r>    3.7931    1.0000 </r>
       <r>    7.0078    0.0000 </r>
       <r>    8.7798    0.0000 </r>
       <r>   11.9632    0.0000 </r>
       <r>   12.0631    0.0000 </r>
      </set>
      <set comment="kpoint 49">
       <r>   -5.1546    1.0000 </r>
       <r>    2.2985    1.0000 </r>
       <r>    3.8499    1.0000 </r>
       <r>    4.4253    1.0000 </r>
       <r>    7.7513    0.0000 </r>
       <r>    9.7435    0.0000 </r>
       <r>   10.5549    0.0000 </r>
       <r>   11.0833    0.0000 </r>
      </set>
      <set comment="kpoint 50">
       <r>   -5.5809    1.0000 </r>
       <r>    3.4898    1.0000 </r>
       <r>    4.5980    1.0000 </r>
       <r>    4.6387    1.0000 </r>
       <r>    7.6605    0.0000 </r>
       <r>    9.9720    0.0000 </r>
       <r>   10.3738    0.0000 </r>
       <r>   10.4833    0.0000 </r>
      </set>
      <set comment="kpoint 51">
       <r>   -5.8426    1.0000 </r>
       <r>    3.7898    1.0000 </r>
       <r>    5.4835    1.0000 </r>
       <r>    5.4835    1.0000 </r>
       <r>    8.2956    0.0000 </r>
       <r>    9.0235    0.0000 </r>
       <r>    9.0235    0.0000 </r>
       <r>   11.0134    0.0000 </r>
      </set>
      <set comment="kpoint 52">
       <r>   -5.5846    1.0000 </r>
       <r>    3.0628    1.0000 </r>
       <r>    4.3287    1.0000 </r>
       <r>    5.5533    1.0000 </r>
       <r>    8.7807    0.0000 </r>
       <r>    9.0384    0.0000 </r>
       <r>    9.3684    0.0000 </r>
       <r>   11.5114    0.0000 </r>
      </set>
      <set comment="kpoint 53">
       <r>   -5.0811    1.0000 </r>
       <r>    1.8411    1.0000 </r>
       <r>    3.3840    1.0000 </r>
       <r>    5.2234    1.0000 </r>
       <r>    8.8598    0.0000 </r>
       <r>    9.5521    0.0000 </r>
       <r>    9.8505    0.0000 </r>
       <r>   11.6892    0.0000 </r>
      </set>
      <set comment="kpoint 54">
       <r>   -4.3798    1.0000 </r>
       <r>    0.3356    1.0000 </r>
       <r>    3.0655    1.0000 </r>
       <r>    4.7729    1.0000 </r>
       <r>    8.5078    0.0000 </r>
       <r>    9.9019    0.0000 </r>
       <r>    9.9253    0.0000 </r>
       <r>   12.7477    0.0000 </r>
      </set>
      <set comment="kpoint 55">
       <r>   -3.6788    1.0000 </r>
       <r>   -0.8198    1.0000 </r>
       <r>    3.0532    1.0000 </r>
       <r>    4.3936    1.0000 </r>
       <r>    8.1887    0.0000 </r>
       <r>    9.7609    0.0000 </r>
       <r>   10.1098    0.0000 </r>
       <r>   14.1530    0.0000 </r>
      </set>
      <set comment="kpoint 56">
       <r>   -3.6726    1.0000 </r>
       <r>   -0.8316    1.0000 </r>
       <r>    3.2644    1.0000 </r>
       <r>    4.1595    1.0000 </r>
       <r>    8.0236    0.0000 </r>
       <r>    9.7579    0.0000 </r>
       <r>   10.3506    0.0000 </r>
       <r>   12.7666    0.0000 </r>
      </set>
      <set comment="kpoint 57">
       <r>   -4.3713    1.0000 </r>
       <r>    0.3174    1.0000 </r>
       <r>    3.6611    1.0000 </r>
       <r>    4.1123    1.0000 </r>
       <r>    8.0179    0.0000 </r>
       <r>    9.9022    0.0000 </r>
       <r>   10.6637    0.0000 </r>
       <r>   11.1519    0.0000 </r>
      </set>
      <set comment="kpoint 58">
       <r>   -5.0748    1.0000 </r>
       <r>    1.8800    1.0000 </r>
       <r>    4.1721    1.0000 </r>
       <r>    4.2638    1.0000 </r>
       <r>    7.9463    0.0000 </r>
       <r>    9.8808    0.0000 </r>
       <r>   10.4794    0.0000 </r>
       <r>   10.7960    0.0000 </r>
      </set>
      <set comment="kpoint 59">
       <r>   -5.4139    1.0000 </r>
       <r>    2.5089    1.0000 </r>
       <r>    4.6660    1.0000 </r>
       <r>    4.8128    1.0000 </r>
       <r>    8.2629    0.0000 </r>
       <r>    9.2703    0.0000 </r>
       <r>   10.1450    0.0000 </r>
       <r>   11.0788    0.0000 </r>
      </set>
      <set comment="kpoint 60">
       <r>   -4.9932    1.0000 </r>
       <r>    1.7981    1.0000 </r>
       <r>    3.4081    1.0000 </r>
       <r>    4.7130    1.0000 </r>
       <r>    8.4658    0.0000 </r>
       <r>    9.6052    0.0000 </r>
       <r>   10.4723    0.0000 </r>
       <r>   10.9023    0.0000 </r>
      </set>
      <set comment="kpoint 61">
       <r>   -4.3525    1.0000 </r>
       <r>    0.7266    1.0000 </r>
       <r>    2.5809    1.0000 </r>
       <r>    4.3057    1.0000 </r>
       <r>    9.0750    0.0000 </r>
       <r>    9.3566    0.0000 </r>
       <r>   10.5636    0.0000 </r>
       <r>   11.6641    0.0000 </r>
      </set>
      <set comment="kpoint 62">
       <r>   -3.6052    1.0000 </r>
       <r>   -0.4648    1.0000 </r>
       <r>    2.3390    1.0000 </r>
       <r>    3.8962    1.0000 </r>
       <r>    8.8787    0.0000 </r>
       <r>    9.3094    0.0000 </r>
       <r>   11.7247    0.0000 </r>
       <r>   12.0134    0.0000 </r>
      </set>
      <set comment="kpoint 63">
       <r>   -3.2686    1.0000 </r>
       <r>   -0.9344    1.0000 </r>
       <r>    2.3861    1.0000 </r>
       <r>    3.6936    1.0000 </r>
       <r>    8.5553    0.0000 </r>
       <r>    9.5117    0.0000 </r>
       <r>   11.8579    0.0000 </r>
       <r>   12.6144    0.0000 </r>
      </set>
      <set comment="kpoint 64">
       <r>   -3.8387    1.0000 </r>
       <r>   -0.1153    1.0000 </r>
       <r>    2.6028    1.0000 </r>
       <r>    3.7829    1.0000 </r>
       <r>    8.3950    0.0000 </r>
       <r>    9.8653    0.0000 </r>
       <r>   10.8094    0.0000 </r>
       <r>   11.9487    0.0000 </r>
      </set>
      <set comment="kpoint 65">
       <r>   -4.5780    1.0000 </r>
       <r>    1.1700    1.0000 </r>
       <r>    3.0198    1.0000 </r>
       <r>    4.1224    1.0000 </r>
       <r>    8.1804    0.0000 </r>
       <r>    9.7121    0.0000 </r>
       <r>   10.2975    0.0000 </r>
       <r>   11.8377    0.0000 </r>
      </set>
      <set comment="kpoint 66">
       <r>   -4.6562    1.0000 </r>
       <r>    1.2474    1.0000 </r>
       <r>    3.5367    1.0000 </r>
       <r>    3.9049    1.0000 </r>
       <r>    7.6094    0.0000 </r>
       <r>    9.5409    0.0000 </r>
       <r>   10.9925    0.0000 </r>
       <r>   11.4785    0.0000 </r>
      </set>
      <set comment="kpoint 67">
       <r>   -4.0892    1.0000 </r>
       <r>    0.5245    1.0000 </r>
       <r>    2.6974    1.0000 </r>
       <r>    3.5743    1.0000 </r>
       <r>    7.9323    0.0000 </r>
       <r>    9.1524    0.0000 </r>
       <r>   10.9539    0.0000 </r>
       <r>   12.8049    0.0000 </r>
      </set>
      <set comment="kpoint 68">
       <r>   -3.3551    1.0000 </r>
       <r>   -0.3637    1.0000 </r>
       <r>    2.0867    1.0000 </r>
       <r>    3.1248    1.0000 </r>
       <r>    8.6668    0.0000 </r>
       <r>    9.6333    0.0000 </r>
       <r>   10.5243    0.0000 </r>
       <r>   13.7520    0.0000 </r>
      </set>
      <set comment="kpoint 69">
       <r>   -2.7703    1.0000 </r>
       <r>   -1.0409    1.0000 </r>
       <r>    1.7770    1.0000 </r>
       <r>    2.9773    1.0000 </r>
       <r>    8.9179    0.0000 </r>
       <r>   10.0261    0.0000 </r>
       <r>   11.4505    0.0000 </r>
       <r>   12.7226    0.0000 </r>
      </set>
      <set comment="kpoint 70">
       <r>   -3.1383    1.0000 </r>
       <r>   -0.6214    1.0000 </r>
       <r>    1.7768    1.0000 </r>
       <r>    3.2092    1.0000 </r>
       <r>    9.3003    0.0000 </r>
       <r>    9.7353    0.0000 </r>
       <r>   10.7901    0.0000 </r>
       <r>   13.6111    0.0000 </r>
      </set>
      <set comment="kpoint 71">
       <r>   -3.8831    1.0000 </r>
       <r>    0.1858    1.0000 </r>
       <r>    2.2896    1.0000 </r>
       <r>    3.6867    1.0000 </r>
       <r>    8.8521    0.0000 </r>
       <r>    9.8153    0.0000 </r>
       <r>   10.0940    0.0000 </r>
       <r>   12.7008    0.0000 </r>
      </set>
      <set comment="kpoint 72">
       <r>   -3.5995    1.0000 </r>
       <r>   -0.1050    1.0000 </r>
       <r>    2.5568    1.0000 </r>
       <r>    3.3831    1.0000 </r>
       <r>    7.0634    0.0000 </r>
       <r>    8.5840    0.0000 </r>
       <r>   12.8134    0.0000 </r>
       <r>   12.9558    0.0000 </r>
      </set>
      <set comment="kpoint 73">
       <r>   -2.9178    1.0000 </r>
       <r>   -0.8431    1.0000 </r>
       <r>    2.2851    1.0000 </r>
       <r>    2.8366    1.0000 </r>
       <r>    7.6292    0.0000 </r>
       <r>    8.4104    0.0000 </r>
       <r>   12.4970    0.0000 </r>
       <r>   14.7260    0.0000 </r>
      </set>
      <set comment="kpoint 74">
       <r>   -2.1967    1.0000 </r>
       <r>   -1.5187    1.0000 </r>
       <r>    1.9420    1.0000 </r>
       <r>    2.4396    1.0000 </r>
       <r>    8.4764    0.0000 </r>
       <r>    9.2493    0.0000 </r>
       <r>   12.0642    0.0000 </r>
       <r>   12.9614    0.0000 </r>
      </set>
      <set comment="kpoint 75">
       <r>   -2.4926    1.0000 </r>
       <r>   -1.2203    1.0000 </r>
       <r>    1.6168    1.0000 </r>
       <r>    2.7731    1.0000 </r>
       <r>    8.8366    0.0000 </r>
       <r>   10.6801    0.0000 </r>
       <r>   11.3976    0.0000 </r>
       <r>   11.8538    0.0000 </r>
      </set>
      <set comment="kpoint 76">
       <r>   -3.1740    1.0000 </r>
       <r>   -0.7797    1.0000 </r>
       <r>    2.0338    1.0000 </r>
       <r>    3.3736    1.0000 </r>
       <r>    9.0800    0.0000 </r>
       <r>    9.3903    0.0000 </r>
       <r>   11.6317    0.0000 </r>
       <r>   12.8485    0.0000 </r>
      </set>
      <set comment="kpoint 77">
       <r>   -2.3200    1.0000 </r>
       <r>   -1.5361    1.0000 </r>
       <r>    2.1339    1.0000 </r>
       <r>    3.1523    1.0000 </r>
       <r>    6.8020    0.0000 </r>
       <r>    8.1756    0.0000 </r>
       <r>   14.5054    0.0000 </r>
       <r>   14.7364    0.0000 </r>
      </set>
      <set comment="kpoint 78">
       <r>   -2.2619    1.0000 </r>
       <r>   -1.5423    1.0000 </r>
       <r>    2.2007    1.0000 </r>
       <r>    2.6863    1.0000 </r>
       <r>    7.5703    0.0000 </r>
       <r>    8.2566    0.0000 </r>
       <r>   13.3566    0.0000 </r>
       <r>   14.2666    0.0000 </r>
      </set>
      <set comment="kpoint 79">
       <r>   -2.7830    1.0000 </r>
       <r>   -0.9363    1.0000 </r>
       <r>    1.9748    1.0000 </r>
       <r>    2.6896    1.0000 </r>
       <r>    8.5402    0.0000 </r>
       <r>    9.3775    0.0000 </r>
       <r>   11.2506    0.0000 </r>
       <r>   13.9039    0.0000 </r>
      </set>
      <set comment="kpoint 80">
       <r>   -2.9766    1.0000 </r>
       <r>   -0.8257    1.0000 </r>
       <r>    2.2739    1.0000 </r>
       <r>    3.2299    1.0000 </r>
       <r>    6.8920    0.0000 </r>
       <r>    8.3119    0.0000 </r>
       <r>   13.7498    0.0000 </r>
       <r>   13.7724    0.0000 </r>
      </set>
      <set comment="kpoint 81">
       <r>   -3.5327    1.0000 </r>
       <r>   -0.1472    1.0000 </r>
       <r>    2.4523    1.0000 </r>
       <r>    3.1363    1.0000 </r>
       <r>    7.7487    0.0000 </r>
       <r>    8.7138    0.0000 </r>
       <r>   11.6954    0.0000 </r>
       <r>   13.7986    0.0000 </r>
      </set>
      <set comment="kpoint 82">
       <r>   -4.1621    1.0000 </r>
       <r>    0.5895    1.0000 </r>
       <r>    2.9836    1.0000 </r>
       <r>    3.6108    1.0000 </r>
       <r>    7.3091    0.0000 </r>
       <r>    9.0002    0.0000 </r>
       <r>   11.8873    0.0000 </r>
       <r>   12.2010    0.0000 </r>
      </set>
      <set comment="kpoint 83">
       <r>   -5.3352    1.0000 </r>
       <r>    1.9184    1.0000 </r>
       <r>    5.1006    1.0000 </r>
       <r>    5.1006    1.0000 </r>
       <r>    7.9183    0.0000 </r>
       <r>    9.4238    0.0000 </r>
       <r>    9.4238    0.0000 </r>
       <r>   12.7885    0.0000 </r>
      </set>
      <set comment="kpoint 84">
       <r>   -5.0042    1.0000 </r>
       <r>    1.3507    1.0000 </r>
       <r>    3.9164    1.0000 </r>
       <r>    5.1510    1.0000 </r>
       <r>    8.4572    0.0000 </r>
       <r>    9.4562    0.0000 </r>
       <r>    9.7038    0.0000 </r>
       <r>   12.3462    0.0000 </r>
      </set>
      <set comment="kpoint 85">
       <r>   -4.4409    1.0000 </r>
       <r>    0.7659    1.0000 </r>
       <r>    2.5331    1.0000 </r>
       <r>    4.7752    1.0000 </r>
       <r>    8.5972    0.0000 </r>
       <r>   10.2352    0.0000 </r>
       <r>   10.5092    0.0000 </r>
       <r>   11.9611    0.0000 </r>
      </set>
      <set comment="kpoint 86">
       <r>   -3.7112    1.0000 </r>
       <r>   -0.1379    1.0000 </r>
       <r>    1.8711    1.0000 </r>
       <r>    4.2785    1.0000 </r>
       <r>    8.0981    0.0000 </r>
       <r>   11.0891    0.0000 </r>
       <r>   11.3425    0.0000 </r>
       <r>   12.5752    0.0000 </r>
      </set>
      <set comment="kpoint 87">
       <r>   -3.1138    1.0000 </r>
       <r>   -0.9312    1.0000 </r>
       <r>    1.8974    1.0000 </r>
       <r>    3.8695    1.0000 </r>
       <r>    7.6542    0.0000 </r>
       <r>   11.4073    0.0000 </r>
       <r>   11.5189    0.0000 </r>
       <r>   12.4025    0.0000 </r>
      </set>
      <set comment="kpoint 88">
       <r>   -3.4130    1.0000 </r>
       <r>   -0.5478    1.0000 </r>
       <r>    2.3084    1.0000 </r>
       <r>    3.6373    1.0000 </r>
       <r>    7.4239    0.0000 </r>
       <r>   10.3789    0.0000 </r>
       <r>   11.6559    0.0000 </r>
       <r>   11.8829    0.0000 </r>
      </set>
      <set comment="kpoint 89">
       <r>   -4.7656    1.0000 </r>
       <r>    0.8024    1.0000 </r>
       <r>    4.3659    1.0000 </r>
       <r>    4.4258    1.0000 </r>
       <r>    8.2152    0.0000 </r>
       <r>    9.2996    0.0000 </r>
       <r>   10.1736    0.0000 </r>
       <r>   11.7342    0.0000 </r>
      </set>
      <set comment="kpoint 90">
       <r>   -4.2915    1.0000 </r>
       <r>    0.3348    1.0000 </r>
       <r>    3.0340    1.0000 </r>
       <r>    4.3131    1.0000 </r>
       <r>    8.6538    0.0000 </r>
       <r>    9.3750    0.0000 </r>
       <r>   10.9746    0.0000 </r>
       <r>   11.3272    0.0000 </r>
      </set>
      <set comment="kpoint 91">
       <r>   -3.6216    1.0000 </r>
       <r>   -0.1753    1.0000 </r>
       <r>    1.9296    1.0000 </r>
       <r>    3.8216    1.0000 </r>
       <r>    8.8356    0.0000 </r>
       <r>    9.8936    0.0000 </r>
       <r>   11.1163    0.0000 </r>
       <r>   12.5625    0.0000 </r>
      </set>
      <set comment="kpoint 92">
       <r>   -2.9023    1.0000 </r>
       <r>   -0.8859    1.0000 </r>
       <r>    1.5656    1.0000 </r>
       <r>    3.3526    1.0000 </r>
       <r>    8.3151    0.0000 </r>
       <r>   10.8526    0.0000 </r>
       <r>   11.9352    0.0000 </r>
       <r>   12.4316    0.0000 </r>
      </set>
      <set comment="kpoint 93">
       <r>   -2.8252    1.0000 </r>
       <r>   -0.9785    1.0000 </r>
       <r>    1.8377    1.0000 </r>
       <r>    3.0907    1.0000 </r>
       <r>    7.9702    0.0000 </r>
       <r>   10.2238    0.0000 </r>
       <r>   11.3175    0.0000 </r>
       <r>   13.7453    0.0000 </r>
      </set>
      <set comment="kpoint 94">
       <r>   -3.9149    1.0000 </r>
       <r>   -0.1261    1.0000 </r>
       <r>    2.9461    1.0000 </r>
       <r>    3.8455    1.0000 </r>
       <r>    7.7034    0.0000 </r>
       <r>   10.6765    0.0000 </r>
       <r>   10.7702    0.0000 </r>
       <r>   11.2381    0.0000 </r>
      </set>
      <set comment="kpoint 95">
       <r>   -3.3394    1.0000 </r>
       <r>   -0.5477    1.0000 </r>
       <r>    2.1865    1.0000 </r>
       <r>    3.3626    1.0000 </r>
       <r>    8.1511    0.0000 </r>
       <r>   10.3308    0.0000 </r>
       <r>   10.6830    0.0000 </r>
       <r>   12.8852    0.0000 </r>
      </set>
      <set comment="kpoint 96">
       <r>   -2.6319    1.0000 </r>
       <r>   -1.0684    1.0000 </r>
       <r>    1.7407    1.0000 </r>
       <r>    2.6663    1.0000 </r>
       <r>    9.5567    0.0000 </r>
       <r>    9.9357    0.0000 </r>
       <r>   10.6268    0.0000 </r>
       <r>   12.6365    0.0000 </r>
      </set>
      <set comment="kpoint 97">
       <r>   -2.1528    1.0000 </r>
       <r>   -1.5069    1.0000 </r>
       <r>    1.8049    1.0000 </r>
       <r>    2.2890    1.0000 </r>
       <r>    9.5099    0.0000 </r>
       <r>   10.2361    0.0000 </r>
       <r>   10.9315    0.0000 </r>
       <r>   11.7146    0.0000 </r>
      </set>
      <set comment="kpoint 98">
       <r>   -2.8989    1.0000 </r>
       <r>   -0.9648    1.0000 </r>
       <r>    1.8286    1.0000 </r>
       <r>    3.4955    1.0000 </r>
       <r>    7.2225    0.0000 </r>
       <r>   10.1662    0.0000 </r>
       <r>   12.5889    0.0000 </r>
       <r>   12.6003    0.0000 </r>
      </set>
      <set comment="kpoint 99">
       <r>   -2.3891    1.0000 </r>
       <r>   -1.3597    1.0000 </r>
       <r>    1.6374    1.0000 </r>
       <r>    2.9610    1.0000 </r>
       <r>    7.8779    0.0000 </r>
       <r>   10.1260    0.0000 </r>
       <r>   12.1029    0.0000 </r>
       <r>   13.0520    0.0000 </r>
      </set>
      <set comment="kpoint 100">
       <r>   -2.4755    1.0000 </r>
       <r>   -1.3244    1.0000 </r>
       <r>    1.5698    1.0000 </r>
       <r>    3.4238    1.0000 </r>
       <r>    7.1189    0.0000 </r>
       <r>   10.0620    0.0000 </r>
       <r>   13.2627    0.0000 </r>
       <r>   13.5638    0.0000 </r>
      </set>
      <set comment="kpoint 101">
       <r>   -4.6310    1.0000 </r>
       <r>    0.2480    1.0000 </r>
       <r>    4.8182    1.0000 </r>
       <r>    4.8182    1.0000 </r>
       <r>    7.5956    0.0000 </r>
       <r>    9.4248    0.0000 </r>
       <r>    9.4248    0.0000 </r>
       <r>   13.7675    0.0000 </r>
      </set>
      <set comment="kpoint 102">
       <r>   -4.2638    1.0000 </r>
       <r>   -0.1707    1.0000 </r>
       <r>    3.7491    1.0000 </r>
       <r>    4.7624    1.0000 </r>
       <r>    8.1815    0.0000 </r>
       <r>    9.4998    0.0000 </r>
       <r>    9.5897    0.0000 </r>
       <r>   13.5476    0.0000 </r>
      </set>
      <set comment="kpoint 103">
       <r>   -3.6939    1.0000 </r>
       <r>   -0.4597    1.0000 </r>
       <r>    2.3595    1.0000 </r>
       <r>    4.3208    1.0000 </r>
       <r>    8.1449    0.0000 </r>
       <r>   10.5245    0.0000 </r>
       <r>   10.6216    0.0000 </r>
       <r>   13.4455    0.0000 </r>
      </set>
      <set comment="kpoint 104">
       <r>   -2.9926    1.0000 </r>
       <r>   -0.8468    1.0000 </r>
       <r>    1.5013    1.0000 </r>
       <r>    3.8090    1.0000 </r>
       <r>    7.5659    0.0000 </r>
       <r>   12.0104    0.0000 </r>
       <r>   12.1063    0.0000 </r>
       <r>   12.6291    0.0000 </r>
      </set>
      <set comment="kpoint 105">
       <r>   -4.0194    1.0000 </r>
       <r>   -0.5778    1.0000 </r>
       <r>    4.0024    1.0000 </r>
       <r>    4.3654    1.0000 </r>
       <r>    8.0630    0.0000 </r>
       <r>    9.2376    0.0000 </r>
       <r>    9.9106    0.0000 </r>
       <r>   13.0810    0.0000 </r>
      </set>
      <set comment="kpoint 106">
       <r>   -3.5903    1.0000 </r>
       <r>   -0.7984    1.0000 </r>
       <r>    2.8987    1.0000 </r>
       <r>    4.0506    1.0000 </r>
       <r>    8.6704    0.0000 </r>
       <r>    9.0751    0.0000 </r>
       <r>   10.9761    0.0000 </r>
       <r>   12.8767    0.0000 </r>
      </set>
      <set comment="kpoint 107">
       <r>   -3.0259    1.0000 </r>
       <r>   -0.9419    1.0000 </r>
       <r>    1.8908    1.0000 </r>
       <r>    3.4633    1.0000 </r>
       <r>    8.3996    0.0000 </r>
       <r>   10.1619    0.0000 </r>
       <r>   12.4094    0.0000 </r>
       <r>   12.6847    0.0000 </r>
      </set>
      <set comment="kpoint 108">
       <r>   -3.3517    1.0000 </r>
       <r>   -0.9508    1.0000 </r>
       <r>    2.5305    1.0000 </r>
       <r>    3.9910    1.0000 </r>
       <r>    7.8264    0.0000 </r>
       <r>   10.5534    0.0000 </r>
       <r>   10.8986    0.0000 </r>
       <r>   12.5357    0.0000 </r>
      </set>
      <set comment="kpoint 109">
       <r>   -3.9347    1.0000 </r>
       <r>   -0.9422    1.0000 </r>
       <r>    4.6714    1.0000 </r>
       <r>    4.6714    1.0000 </r>
       <r>    7.4312    0.0000 </r>
       <r>    9.3046    0.0000 </r>
       <r>    9.3046    0.0000 </r>
       <r>   13.6324    0.0000 </r>
      </set>
      <set comment="kpoint 110">
       <r>   -3.6997    1.0000 </r>
       <r>   -1.0569    1.0000 </r>
       <r>    3.7856    1.0000 </r>
       <r>    4.4880    1.0000 </r>
       <r>    8.0460    0.0000 </r>
       <r>    9.2867    0.0000 </r>
       <r>    9.6948    0.0000 </r>
       <r>   14.0135    0.0000 </r>
      </set>
     </set>
    </set>
   </array>
  </eigenvalues>
  <separator name="orbital magnetization" >
   <v name="MAGDIPOLOUT">      0.00000000      0.00000000      0.00000000</v>
  </separator>
  <dos>
   <i name="efermi">      6.18325011 </i>
   <total>
    <array>
     <dimension dim="1">gridpoints</dimension>
     <dimension dim="2">spin</dimension>
     <field>energy</field>
     <field>total</field>
     <field>integrated</field>
     <set>
      <set comment="spin 1">
       <r>    -8.1034     0.0000     0.0000 </r>
       <r>    -8.0175     0.0000     0.0000 </r>
       <r>    -7.9316     0.0000     0.0000 </r>
       <r>    -7.8457     0.0000     0.0000 </r>
       <r>    -7.7598     0.0000     0.0000 </r>
       <r>    -7.6738     0.0000     0.0000 </r>
       <r>    -7.5879     0.0000     0.0000 </r>
       <r>    -7.5020     0.0000     0.0000 </r>
       <r>    -7.4161     0.0000     0.0000 </r>
       <r>    -7.3302     0.0000     0.0000 </r>
       <r>    -7.2443     0.0000     0.0000 </r>
       <r>    -7.1584     0.0000     0.0000 </r>
       <r>    -7.0725     0.0000     0.0000 </r>
       <r>    -6.9866     0.0000     0.0000 </r>
       <r>    -6.9007     0.0000     0.0000 </r>
       <r>    -6.8147     0.0000     0.0000 </r>
       <r>    -6.7288     0.0000     0.0000 </r>
       <r>    -6.6429     0.0000     0.0000 </r>
       <r>    -6.5570     0.0000     0.0000 </r>
       <r>    -6.4711     0.0003     0.0000 </r>
       <r>    -6.3852     0.0015     0.0002 </r>
       <r>    -6.2993     0.0060     0.0007 </r>
       <r>    -6.2134     0.0178     0.0022 </r>
       <r>    -6.1275     0.0411     0.0057 </r>
       <r>    -6.0415     0.0755     0.0122 </r>
       <r>    -5.9556     0.1153     0.0221 </r>
       <r>    -5.8697     0.1539     0.0353 </r>
       <r>    -5.7838     0.1871     0.0514 </r>
       <r>    -5.6979     0.2150     0.0699 </r>
       <r>    -5.6120     0.2413     0.0906 </r>
       <r>    -5.5261     0.2660     0.1135 </r>
       <r>    -5.4402     0.2858     0.1380 </r>
       <r>    -5.3543     0.3030     0.1641 </r>
       <r>    -5.2683     0.3244     0.1919 </r>
       <r>    -5.1824     0.3493     0.2219 </r>
       <r>    -5.0965     0.3701     0.2537 </r>
       <r>    -5.0106     0.3820     0.2865 </r>
       <r>    -4.9247     0.3914     0.3202 </r>
       <r>    -4.8388     0.4124     0.3556 </r>
       <r>    -4.7529     0.4466     0.3940 </r>
       <r>    -4.6670     0.4746     0.4347 </r>
       <r>    -4.5811     0.4826     0.4762 </r>
       <r>    -4.4951     0.4840     0.5178 </r>
       <r>    -4.4092     0.5015     0.5609 </r>
       <r>    -4.3233     0.5384     0.6071 </r>
       <r>    -4.2374     0.5788     0.6569 </r>
       <r>    -4.1515     0.6141     0.7096 </r>
       <r>    -4.0656     0.6465     0.7652 </r>
       <r>    -3.9797     0.6740     0.8231 </r>
       <r>    -3.8938     0.6991     0.8831 </r>
       <r>    -3.8079     0.7397     0.9467 </r>
       <r>    -3.7219     0.8024     1.0156 </r>
       <r>    -3.6360     0.8548     1.0891 </r>
       <r>    -3.5501     0.8578     1.1627 </r>
       <r>    -3.4642     0.8211     1.2333 </r>
       <r>    -3.3783     0.7796     1.3003 </r>
       <r>    -3.2924     0.7317     1.3631 </r>
       <r>    -3.2065     0.6690     1.4206 </r>
       <r>    -3.1206     0.6290     1.4746 </r>
       <r>    -3.0347     0.6478     1.5303 </r>
       <r>    -2.9488     0.6931     1.5898 </r>
       <r>    -2.8628     0.6940     1.6495 </r>
       <r>    -2.7769     0.6188     1.7026 </r>
       <r>    -2.6910     0.5020     1.7457 </r>
       <r>    -2.6051     0.4043     1.7805 </r>
       <r>    -2.5192     0.3683     1.8121 </r>
       <r>    -2.4333     0.3974     1.8463 </r>
       <r>    -2.3474     0.4487     1.8848 </r>
       <r>    -2.2615     0.4572     1.9241 </r>
       <r>    -2.1756     0.3886     1.9575 </r>
       <r>    -2.0896     0.2667     1.9804 </r>
       <r>    -2.0037     0.1451     1.9928 </r>
       <r>    -1.9178     0.0655     1.9985 </r>
       <r>    -1.8319     0.0435     2.0022 </r>
       <r>    -1.7460     0.0867     2.0097 </r>
       <r>    -1.6601     0.1979     2.0267 </r>
       <r>    -1.5742     0.3425     2.0561 </r>
       <r>    -1.4883     0.4413     2.0940 </r>
       <r>    -1.4024     0.4459     2.1323 </r>
       <r>    -1.3164     0.4032     2.1669 </r>
       <r>    -1.2305     0.4165     2.2027 </r>
       <r>    -1.1446     0.5611     2.2509 </r>
       <r>    -1.0587     0.8323     2.3224 </r>
       <r>    -0.9728     1.1294     2.4195 </r>
       <r>    -0.8869     1.3033     2.5314 </r>
       <r>    -0.8010     1.2676     2.6403 </r>
       <r>    -0.7151     1.0777     2.7329 </r>
       <r>    -0.6292     0.8765     2.8082 </r>
       <r>    -0.5432     0.7467     2.8724 </r>
       <r>    -0.4573     0.6591     2.9290 </r>
       <r>    -0.3714     0.5819     2.9790 </r>
       <r>    -0.2855     0.5513     3.0263 </r>
       <r>    -0.1996     0.5879     3.0769 </r>
       <r>    -0.1137     0.6218     3.1303 </r>
       <r>    -0.0278     0.5742     3.1796 </r>
       <r>     0.0581     0.4724     3.2202 </r>
       <r>     0.1440     0.4119     3.2556 </r>
       <r>     0.2300     0.4237     3.2920 </r>
       <r>     0.3159     0.4405     3.3298 </r>
       <r>     0.4018     0.3973     3.3639 </r>
       <r>     0.4877     0.3180     3.3913 </r>
       <r>     0.5736     0.2759     3.4150 </r>
       <r>     0.6595     0.3076     3.4414 </r>
       <r>     0.7454     0.3778     3.4739 </r>
       <r>     0.8313     0.4060     3.5087 </r>
       <r>     0.9172     0.3471     3.5386 </r>
       <r>     1.0031     0.2477     3.5598 </r>
       <r>     1.0891     0.1926     3.5764 </r>
       <r>     1.1750     0.2154     3.5949 </r>
       <r>     1.2609     0.2853     3.6194 </r>
       <r>     1.3468     0.3593     3.6503 </r>
       <r>     1.4327     0.4324     3.6874 </r>
       <r>     1.5186     0.5314     3.7331 </r>
       <r>     1.6045     0.6748     3.7910 </r>
       <r>     1.6904     0.8595     3.8649 </r>
       <r>     1.7763     1.0542     3.9554 </r>
       <r>     1.8623     1.1798     4.0568 </r>
       <r>     1.9482     1.1659     4.1570 </r>
       <r>     2.0341     1.0483     4.2470 </r>
       <r>     2.1200     0.9499     4.3286 </r>
       <r>     2.2059     0.9555     4.4107 </r>
       <r>     2.2918     1.0358     4.4997 </r>
       <r>     2.3777     1.0988     4.5941 </r>
       <r>     2.4636     1.1043     4.6890 </r>
       <r>     2.5495     1.0930     4.7829 </r>
       <r>     2.6355     1.1022     4.8776 </r>
       <r>     2.7214     1.1240     4.9741 </r>
       <r>     2.8073     1.1637     5.0741 </r>
       <r>     2.8932     1.2595     5.1823 </r>
       <r>     2.9791     1.4001     5.3026 </r>
       <r>     3.0650     1.4920     5.4308 </r>
       <r>     3.1509     1.4716     5.5572 </r>
       <r>     3.2368     1.4014     5.6776 </r>
       <r>     3.3227     1.3911     5.7971 </r>
       <r>     3.4087     1.4432     5.9211 </r>
       <r>     3.4946     1.4572     6.0463 </r>
       <r>     3.5805     1.3929     6.1660 </r>
       <r>     3.6664     1.3239     6.2797 </r>
       <r>     3.7523     1.3157     6.3927 </r>
       <r>     3.8382     1.3419     6.5080 </r>
       <r>     3.9241     1.3338     6.6226 </r>
       <r>     4.0100     1.2649     6.7313 </r>
       <r>     4.0959     1.1787     6.8325 </r>
       <r>     4.1819     1.1470     6.9311 </r>
       <r>     4.2678     1.1970     7.0339 </r>
       <r>     4.3537     1.2616     7.1423 </r>
       <r>     4.4396     1.2361     7.2485 </r>
       <r>     4.5255     1.1101     7.3439 </r>
       <r>     4.6114     0.9798     7.4280 </r>
       <r>     4.6973     0.9136     7.5065 </r>
       <r>     4.7832     0.8750     7.5817 </r>
       <r>     4.8691     0.7957     7.6501 </r>
       <r>     4.9551     0.6757     7.7081 </r>
       <r>     5.0410     0.5689     7.7570 </r>
       <r>     5.1269     0.5006     7.8000 </r>
       <r>     5.2128     0.4479     7.8385 </r>
       <r>     5.2987     0.3896     7.8719 </r>
       <r>     5.3846     0.3348     7.9007 </r>
       <r>     5.4705     0.2957     7.9261 </r>
       <r>     5.5564     0.2610     7.9485 </r>
       <r>     5.6423     0.2143     7.9669 </r>
       <r>     5.7282     0.1593     7.9806 </r>
       <r>     5.8142     0.1082     7.9899 </r>
       <r>     5.9001     0.0656     7.9956 </r>
       <r>     5.9860     0.0334     7.9984 </r>
       <r>     6.0719     0.0133     7.9996 </r>
       <r>     6.1578     0.0043     7.9999 </r>
       <r>     6.2437     0.0027     8.0002 </r>
       <r>     6.3296     0.0086     8.0009 </r>
       <r>     6.4155     0.0272     8.0033 </r>
       <r>     6.5014     0.0636     8.0087 </r>
       <r>     6.5874     0.1135     8.0185 </r>
       <r>     6.6733     0.1676     8.0329 </r>
       <r>     6.7592     0.2284     8.0525 </r>
       <r>     6.8451     0.3031     8.0785 </r>
       <r>     6.9310     0.3810     8.1113 </r>
       <r>     7.0169     0.4422     8.1493 </r>
       <r>     7.1028     0.4805     8.1905 </r>
       <r>     7.1887     0.5016     8.2336 </r>
       <r>     7.2746     0.5170     8.2780 </r>
       <r>     7.3606     0.5537     8.3256 </r>
       <r>     7.4465     0.6422     8.3808 </r>
       <r>     7.5324     0.7768     8.4475 </r>
       <r>     7.6183     0.9031     8.5251 </r>
       <r>     7.7042     0.9627     8.6078 </r>
       <r>     7.7901     0.9669     8.6909 </r>
       <r>     7.8760     1.0048     8.7772 </r>
       <r>     7.9619     1.1382     8.8750 </r>
       <r>     8.0478     1.3170     8.9881 </r>
       <r>     8.1338     1.4443     9.1122 </r>
       <r>     8.2197     1.4911     9.2403 </r>
       <r>     8.3056     1.4967     9.3689 </r>
       <r>     8.3915     1.4911     9.4970 </r>
       <r>     8.4774     1.4609     9.6225 </r>
       <r>     8.5633     1.3842     9.7414 </r>
       <r>     8.6492     1.2697     9.8505 </r>
       <r>     8.7351     1.1580     9.9500 </r>
       <r>     8.8210     1.0917    10.0438 </r>
       <r>     8.9070     1.0937    10.1377 </r>
       <r>     8.9929     1.1752    10.2387 </r>
       <r>     9.0788     1.3415    10.3539 </r>
       <r>     9.1647     1.5644    10.4883 </r>
       <r>     9.2506     1.7723    10.6406 </r>
       <r>     9.3365     1.8952    10.8034 </r>
       <r>     9.4224     1.9111    10.9676 </r>
       <r>     9.5083     1.8416    11.1258 </r>
       <r>     9.5942     1.7196    11.2736 </r>
       <r>     9.6801     1.5813    11.4094 </r>
       <r>     9.7661     1.4675    11.5355 </r>
       <r>     9.8520     1.3933    11.6552 </r>
       <r>     9.9379     1.3378    11.7701 </r>
       <r>    10.0238     1.2978    11.8816 </r>
       <r>    10.1097     1.2993    11.9932 </r>
       <r>    10.1956     1.3254    12.1071 </r>
       <r>    10.2815     1.3144    12.2200 </r>
       <r>    10.3674     1.2568    12.3280 </r>
       <r>    10.4533     1.2109    12.4320 </r>
       <r>    10.5393     1.2038    12.5354 </r>
       <r>    10.6252     1.1976    12.6383 </r>
       <r>    10.7111     1.1729    12.7391 </r>
       <r>    10.7970     1.1745    12.8400 </r>
       <r>    10.8829     1.2403    12.9465 </r>
       <r>    10.9688     1.3326    13.0610 </r>
       <r>    11.0547     1.3702    13.1787 </r>
       <r>    11.1406     1.3143    13.2917 </r>
       <r>    11.2265     1.1973    13.3945 </r>
       <r>    11.3125     1.0740    13.4868 </r>
       <r>    11.3984     0.9817    13.5711 </r>
       <r>    11.4843     0.9476    13.6525 </r>
       <r>    11.5702     0.9924    13.7378 </r>
       <r>    11.6561     1.0986    13.8322 </r>
       <r>    11.7420     1.1972    13.9350 </r>
       <r>    11.8279     1.2328    14.0409 </r>
       <r>    11.9138     1.2123    14.1451 </r>
       <r>    11.9997     1.1539    14.2442 </r>
       <r>    12.0857     1.0431    14.3338 </r>
       <r>    12.1716     0.8792    14.4094 </r>
       <r>    12.2575     0.7252    14.4717 </r>
       <r>    12.3434     0.6681    14.5291 </r>
       <r>    12.4293     0.7348    14.5922 </r>
       <r>    12.5152     0.8729    14.6672 </r>
       <r>    12.6011     1.0054    14.7536 </r>
       <r>    12.6870     1.0823    14.8466 </r>
       <r>    12.7729     1.0943    14.9406 </r>
       <r>    12.8589     1.0465    15.0305 </r>
       <r>    12.9448     0.9326    15.1106 </r>
       <r>    13.0307     0.7681    15.1766 </r>
       <r>    13.1166     0.6119    15.2292 </r>
       <r>    13.2025     0.5078    15.2728 </r>
       <r>    13.2884     0.4477    15.3113 </r>
       <r>    13.3743     0.4119    15.3466 </r>
       <r>    13.4602     0.4091    15.3818 </r>
       <r>    13.5461     0.4736    15.4225 </r>
       <r>    13.6321     0.6257    15.4762 </r>
       <r>    13.7180     0.8102    15.5458 </r>
       <r>    13.8039     0.8929    15.6225 </r>
       <r>    13.8898     0.7818    15.6897 </r>
       <r>    13.9757     0.5413    15.7362 </r>
       <r>    14.0616     0.3241    15.7641 </r>
       <r>    14.1475     0.2150    15.7825 </r>
       <r>    14.2334     0.1890    15.7988 </r>
       <r>    14.3193     0.1807    15.8143 </r>
       <r>    14.4052     0.1607    15.8281 </r>
       <r>    14.4912     0.1525    15.8412 </r>
       <r>    14.5771     0.1862    15.8572 </r>
       <r>    14.6630     0.2508    15.8787 </r>
       <r>    14.7489     0.2925    15.9039 </r>
       <r>    14.8348     0.2634    15.9265 </r>
       <r>    14.9207     0.1754    15.9416 </r>
       <r>    15.0066     0.0855    15.9489 </r>
       <r>    15.0925     0.0347    15.9519 </r>
       <r>    15.1784     0.0252    15.9541 </r>
       <r>    15.2644     0.0418    15.9576 </r>
       <r>    15.3503     0.0656    15.9633 </r>
       <r>    15.4362     0.0806    15.9702 </r>
       <r>    15.5221     0.0840    15.9774 </r>
       <r>    15.6080     0.0827    15.9845 </r>
       <r>    15.6939     0.0751    15.9910 </r>
       <r>    15.7798     0.0562    15.9958 </r>
       <r>    15.8657     0.0315    15.9985 </r>
       <r>    15.9516     0.0128    15.9996 </r>
       <r>    16.0376     0.0037    15.9999 </r>
       <r>    16.1235     0.0007    16.0000 </r>
       <r>    16.2094     0.0001    16.0000 </r>
       <r>    16.2953     0.0000    16.0000 </r>
       <r>    16.3812     0.0000    16.0000 </r>
       <r>    16.4671     0.0000    16.0000 </r>
       <r>    16.5530     0.0000    16.0000 </r>
       <r>    16.6389     0.0000    16.0000 </r>
       <r>    16.7248     0.0000    16.0000 </r>
       <r>    16.8108     0.0000    16.0000 </r>
       <r>    16.8967     0.0000    16.0000 </r>
       <r>    16.9826     0.0000    16.0000 </r>
       <r>    17.0685     0.0000    16.0000 </r>
       <r>    17.1544     0.0000    16.0000 </r>
       <r>    17.2403     0.0000    16.0000 </r>
       <r>    17.3262     0.0000    16.0000 </r>
       <r>    17.4121     0.0000    16.0000 </r>
       <r>    17.4980     0.0000    16.0000 </r>
       <r>    17.5840     0.0000    16.0000 </r>
       <r>    17.6699     0.0000    16.0000 </r>
      </set>
     </set>
    </array>
   </total>
  </dos>
 </calculation>
 <structure name="finalpos" >
  <crystal>
   <varray name="basis" >
    <v>       0.00000000       2.71500000       2.71500000 </v>
    <v>       2.71500000       0.00000000       2.71500000 </v>
    <v>       2.71500000       2.71500000       0.00000000 </v>
   </varray>
   <i name="volume">     40.02575175 </i>
   <varray name="rec_basis" >
    <v>      -0.18416206       0.18416206       0.18416206 </v>
    <v>       0.18416206      -0.18416206       0.18416206 </v>
    <v>       0.18416206       0.18416206      -0.18416206 </v>
   </varray>
  </crystal>
  <varray name="positions" >
   <v>       0.50000000       0.50000000       0.50000000 </v>
   <v>       0.75000000       0.75000000       0.75000000 </v>
  </varray>
 </structure>
</modeling>
