<?xml version="1.0" encoding="ISO-8859-1"?>
<modeling>
 <generator>
  <i name="program" type="string">vasp </i>
  <i name="version" type="string">5.4.4.18Apr17-6-g9f103f2a35  </i>
  <i name="subversion" type="string">(build Dec 09 2018 21:25:21) complex            parallel </i>
  <i name="platform" type="string">IFC18.0.1.163_CrayMPICH7.7.0_MKL18.0.1.163 </i>
  <i name="date" type="string">2019 03 19 </i>
  <i name="time" type="string">13:24:03 </i>
 </generator>
 <incar>
  <i type="string" name="PREC">normal</i>
  <i type="int" name="IBRION">     2</i>
  <i name="EDIFF">      0.00040000</i>
  <i name="EDIFFG">     -0.01000000</i>
  <i type="int" name="NSW">    15</i>
  <i type="int" name="ISIF">     2</i>
  <i name="ENCUT">    150.00000000</i>
  <i type="int" name="NBANDS">     8</i>
  <i type="logical" name="LREAL"> F  </i>
  <i type="int" name="ISMEAR">     0</i>
  <i name="SIGMA">      0.20000000</i>
  <v type="int" name="KPOINT_BSE">    -1     0     0     0</v>
 </incar>
 <structure name="primitive_cell" >
  <crystal>
   <varray name="basis" >
    <v>       0.00000000       2.71500000       2.71500000 </v>
    <v>       2.71500000       0.00000000       2.71500000 </v>
    <v>       2.71500000       2.71500000       0.00000000 </v>
   </varray>
   <i name="volume">     40.02575175 </i>
   <varray name="rec_basis" >
    <v>      -0.18416206       0.18416206       0.18416206 </v>
    <v>       0.18416206      -0.18416206       0.18416206 </v>
    <v>       0.18416206       0.18416206      -0.18416206 </v>
   </varray>
  </crystal>
  <varray name="positions" >
   <v>      -0.50000000      -0.50000000      -0.50000000 </v>
   <v>      -0.25000000      -0.25000000      -0.25000000 </v>
  </varray>
 </structure>
 <varray name="primitive_index" >
  <v type="int" >        1 </v>
  <v type="int" >        2 </v>
 </varray>
 <kpoints>
  <generation param="Monkhorst-Pack">
   <v type="int" name="divisions">      10       10       10 </v>
   <v name="usershift">      0.00000000       0.00000000       0.00000000 </v>
   <v name="genvec1">      0.10000000       0.00000000      -0.00000000 </v>
   <v name="genvec2">      0.00000000       0.10000000       0.00000000 </v>
   <v name="genvec3">     -0.00000000      -0.00000000       0.10000000 </v>
   <v name="shift">      0.50000000       0.50000000       0.50000000 </v>
  </generation>
  <varray name="kpointlist" >
   <v>       0.05000000       0.05000000       0.05000000 </v>
   <v>       0.15000000       0.05000000       0.05000000 </v>
   <v>       0.25000000       0.05000000       0.05000000 </v>
   <v>       0.35000000       0.05000000       0.05000000 </v>
   <v>       0.45000000       0.05000000       0.05000000 </v>
   <v>      -0.45000000       0.05000000       0.05000000 </v>
   <v>      -0.35000000       0.05000000       0.05000000 </v>
   <v>      -0.25000000       0.05000000       0.05000000 </v>
   <v>      -0.15000000       0.05000000       0.05000000 </v>
   <v>      -0.05000000       0.05000000       0.05000000 </v>
   <v>       0.15000000       0.15000000       0.05000000 </v>
   <v>       0.25000000       0.15000000       0.05000000 </v>
   <v>       0.35000000       0.15000000       0.05000000 </v>
   <v>       0.45000000       0.15000000       0.05000000 </v>
   <v>      -0.45000000       0.15000000       0.05000000 </v>
   <v>      -0.35000000       0.15000000       0.05000000 </v>
   <v>      -0.25000000       0.15000000       0.05000000 </v>
   <v>      -0.15000000       0.15000000       0.05000000 </v>
   <v>      -0.05000000       0.15000000       0.05000000 </v>
   <v>       0.25000000       0.25000000       0.05000000 </v>
   <v>       0.35000000       0.25000000       0.05000000 </v>
   <v>       0.45000000       0.25000000       0.05000000 </v>
   <v>      -0.45000000       0.25000000       0.05000000 </v>
   <v>      -0.35000000       0.25000000       0.05000000 </v>
   <v>      -0.25000000       0.25000000       0.05000000 </v>
   <v>      -0.15000000       0.25000000       0.05000000 </v>
   <v>      -0.05000000       0.25000000       0.05000000 </v>
   <v>       0.35000000       0.35000000       0.05000000 </v>
   <v>       0.45000000       0.35000000       0.05000000 </v>
   <v>      -0.45000000       0.35000000       0.05000000 </v>
   <v>      -0.35000000       0.35000000       0.05000000 </v>
   <v>      -0.25000000       0.35000000       0.05000000 </v>
   <v>      -0.15000000       0.35000000       0.05000000 </v>
   <v>      -0.05000000       0.35000000       0.05000000 </v>
   <v>       0.45000000       0.45000000       0.05000000 </v>
   <v>      -0.45000000       0.45000000       0.05000000 </v>
   <v>      -0.35000000       0.45000000       0.05000000 </v>
   <v>      -0.25000000       0.45000000       0.05000000 </v>
   <v>      -0.15000000       0.45000000       0.05000000 </v>
   <v>      -0.05000000       0.45000000       0.05000000 </v>
   <v>      -0.45000000      -0.45000000       0.05000000 </v>
   <v>      -0.35000000      -0.45000000       0.05000000 </v>
   <v>      -0.25000000      -0.45000000       0.05000000 </v>
   <v>      -0.15000000      -0.45000000       0.05000000 </v>
   <v>      -0.35000000      -0.35000000       0.05000000 </v>
   <v>      -0.25000000      -0.35000000       0.05000000 </v>
   <v>      -0.15000000      -0.35000000       0.05000000 </v>
   <v>      -0.25000000      -0.25000000       0.05000000 </v>
   <v>      -0.15000000      -0.25000000       0.05000000 </v>
   <v>      -0.15000000      -0.15000000       0.05000000 </v>
   <v>       0.15000000       0.15000000       0.15000000 </v>
   <v>       0.25000000       0.15000000       0.15000000 </v>
   <v>       0.35000000       0.15000000       0.15000000 </v>
   <v>       0.45000000       0.15000000       0.15000000 </v>
   <v>      -0.45000000       0.15000000       0.15000000 </v>
   <v>      -0.35000000       0.15000000       0.15000000 </v>
   <v>      -0.25000000       0.15000000       0.15000000 </v>
   <v>      -0.15000000       0.15000000       0.15000000 </v>
   <v>       0.25000000       0.25000000       0.15000000 </v>
   <v>       0.35000000       0.25000000       0.15000000 </v>
   <v>       0.45000000       0.25000000       0.15000000 </v>
   <v>      -0.45000000       0.25000000       0.15000000 </v>
   <v>      -0.35000000       0.25000000       0.15000000 </v>
   <v>      -0.25000000       0.25000000       0.15000000 </v>
   <v>      -0.15000000       0.25000000       0.15000000 </v>
   <v>       0.35000000       0.35000000       0.15000000 </v>
   <v>       0.45000000       0.35000000       0.15000000 </v>
   <v>      -0.45000000       0.35000000       0.15000000 </v>
   <v>      -0.35000000       0.35000000       0.15000000 </v>
   <v>      -0.25000000       0.35000000       0.15000000 </v>
   <v>      -0.15000000       0.35000000       0.15000000 </v>
   <v>       0.45000000       0.45000000       0.15000000 </v>
   <v>      -0.45000000       0.45000000       0.15000000 </v>
   <v>      -0.35000000       0.45000000       0.15000000 </v>
   <v>      -0.25000000       0.45000000       0.15000000 </v>
   <v>      -0.15000000       0.45000000       0.15000000 </v>
   <v>      -0.45000000      -0.45000000       0.15000000 </v>
   <v>      -0.35000000      -0.45000000       0.15000000 </v>
   <v>      -0.25000000      -0.45000000       0.15000000 </v>
   <v>      -0.35000000      -0.35000000       0.15000000 </v>
   <v>      -0.25000000      -0.35000000       0.15000000 </v>
   <v>      -0.25000000      -0.25000000       0.15000000 </v>
   <v>       0.25000000       0.25000000       0.25000000 </v>
   <v>       0.35000000       0.25000000       0.25000000 </v>
   <v>       0.45000000       0.25000000       0.25000000 </v>
   <v>      -0.45000000       0.25000000       0.25000000 </v>
   <v>      -0.35000000       0.25000000       0.25000000 </v>
   <v>      -0.25000000       0.25000000       0.25000000 </v>
   <v>       0.35000000       0.35000000       0.25000000 </v>
   <v>       0.45000000       0.35000000       0.25000000 </v>
   <v>      -0.45000000       0.35000000       0.25000000 </v>
   <v>      -0.35000000       0.35000000       0.25000000 </v>
   <v>      -0.25000000       0.35000000       0.25000000 </v>
   <v>       0.45000000       0.45000000       0.25000000 </v>
   <v>      -0.45000000       0.45000000       0.25000000 </v>
   <v>      -0.35000000       0.45000000       0.25000000 </v>
   <v>      -0.25000000       0.45000000       0.25000000 </v>
   <v>      -0.45000000      -0.45000000       0.25000000 </v>
   <v>      -0.35000000      -0.45000000       0.25000000 </v>
   <v>      -0.35000000      -0.35000000       0.25000000 </v>
   <v>       0.35000000       0.35000000       0.35000000 </v>
   <v>       0.45000000       0.35000000       0.35000000 </v>
   <v>      -0.45000000       0.35000000       0.35000000 </v>
   <v>      -0.35000000       0.35000000       0.35000000 </v>
   <v>       0.45000000       0.45000000       0.35000000 </v>
   <v>      -0.45000000       0.45000000       0.35000000 </v>
   <v>      -0.35000000       0.45000000       0.35000000 </v>
   <v>      -0.45000000      -0.45000000       0.35000000 </v>
   <v>       0.45000000       0.45000000       0.45000000 </v>
   <v>      -0.45000000       0.45000000       0.45000000 </v>
  </varray>
  <varray name="weights" >
   <v>       0.00200000 </v>
   <v>       0.00600000 </v>
   <v>       0.00600000 </v>
   <v>       0.00600000 </v>
   <v>       0.00600000 </v>
   <v>       0.00600000 </v>
   <v>       0.00600000 </v>
   <v>       0.00600000 </v>
   <v>       0.00600000 </v>
   <v>       0.00600000 </v>
   <v>       0.00600000 </v>
   <v>       0.01200000 </v>
   <v>       0.01200000 </v>
   <v>       0.01200000 </v>
   <v>       0.01200000 </v>
   <v>       0.01200000 </v>
   <v>       0.01200000 </v>
   <v>       0.01200000 </v>
   <v>       0.01200000 </v>
   <v>       0.00600000 </v>
   <v>       0.01200000 </v>
   <v>       0.01200000 </v>
   <v>       0.01200000 </v>
   <v>       0.01200000 </v>
   <v>       0.01200000 </v>
   <v>       0.01200000 </v>
   <v>       0.01200000 </v>
   <v>       0.00600000 </v>
   <v>       0.01200000 </v>
   <v>       0.01200000 </v>
   <v>       0.01200000 </v>
   <v>       0.01200000 </v>
   <v>       0.01200000 </v>
   <v>       0.01200000 </v>
   <v>       0.00600000 </v>
   <v>       0.01200000 </v>
   <v>       0.01200000 </v>
   <v>       0.01200000 </v>
   <v>       0.01200000 </v>
   <v>       0.01200000 </v>
   <v>       0.00600000 </v>
   <v>       0.01200000 </v>
   <v>       0.01200000 </v>
   <v>       0.01200000 </v>
   <v>       0.00600000 </v>
   <v>       0.01200000 </v>
   <v>       0.01200000 </v>
   <v>       0.00600000 </v>
   <v>       0.01200000 </v>
   <v>       0.00600000 </v>
   <v>       0.00200000 </v>
   <v>       0.00600000 </v>
   <v>       0.00600000 </v>
   <v>       0.00600000 </v>
   <v>       0.00600000 </v>
   <v>       0.00600000 </v>
   <v>       0.00600000 </v>
   <v>       0.00600000 </v>
   <v>       0.00600000 </v>
   <v>       0.01200000 </v>
   <v>       0.01200000 </v>
   <v>       0.01200000 </v>
   <v>       0.01200000 </v>
   <v>       0.01200000 </v>
   <v>       0.01200000 </v>
   <v>       0.00600000 </v>
   <v>       0.01200000 </v>
   <v>       0.01200000 </v>
   <v>       0.01200000 </v>
   <v>       0.01200000 </v>
   <v>       0.01200000 </v>
   <v>       0.00600000 </v>
   <v>       0.01200000 </v>
   <v>       0.01200000 </v>
   <v>       0.01200000 </v>
   <v>       0.01200000 </v>
   <v>       0.00600000 </v>
   <v>       0.01200000 </v>
   <v>       0.01200000 </v>
   <v>       0.00600000 </v>
   <v>       0.01200000 </v>
   <v>       0.00600000 </v>
   <v>       0.00200000 </v>
   <v>       0.00600000 </v>
   <v>       0.00600000 </v>
   <v>       0.00600000 </v>
   <v>       0.00600000 </v>
   <v>       0.00600000 </v>
   <v>       0.00600000 </v>
   <v>       0.01200000 </v>
   <v>       0.01200000 </v>
   <v>       0.01200000 </v>
   <v>       0.01200000 </v>
   <v>       0.00600000 </v>
   <v>       0.01200000 </v>
   <v>       0.01200000 </v>
   <v>       0.01200000 </v>
   <v>       0.00600000 </v>
   <v>       0.01200000 </v>
   <v>       0.00600000 </v>
   <v>       0.00200000 </v>
   <v>       0.00600000 </v>
   <v>       0.00600000 </v>
   <v>       0.00600000 </v>
   <v>       0.00600000 </v>
   <v>       0.01200000 </v>
   <v>       0.01200000 </v>
   <v>       0.00600000 </v>
   <v>       0.00200000 </v>
   <v>       0.00600000 </v>
  </varray>
 </kpoints>
 <parameters>
  <separator name="general" >
   <i type="string" name="SYSTEM">unknown system</i>
   <i type="logical" name="LCOMPAT"> F  </i>
  </separator>
  <separator name="electronic" >
   <i type="string" name="PREC">normal</i>
   <i name="ENMAX">    150.00000000</i>
   <i name="ENAUG">    322.06900000</i>
   <i name="EDIFF">      0.00040000</i>
   <i type="int" name="IALGO">    38</i>
   <i type="int" name="IWAVPR">    11</i>
   <i type="int" name="NBANDS">     8</i>
   <i name="NELECT">      8.00000000</i>
   <i type="int" name="TURBO">     0</i>
   <i type="int" name="IRESTART">     0</i>
   <i type="int" name="NREBOOT">     0</i>
   <i type="int" name="NMIN">     0</i>
   <i name="EREF">      0.00000000</i>
   <separator name="electronic smearing" >
    <i type="int" name="ISMEAR">     0</i>
    <i name="SIGMA">      0.20000000</i>
    <i name="KSPACING">      0.50000000</i>
    <i type="logical" name="KGAMMA"> T  </i>
   </separator>
   <separator name="electronic projectors" >
    <i type="logical" name="LREAL"> F  </i>
    <v name="ROPT">      0.00000000</v>
    <i type="int" name="LMAXPAW">  -100</i>
    <i type="int" name="LMAXMIX">     2</i>
    <i type="logical" name="NLSPLINE"> F  </i>
   </separator>
   <separator name="electronic startup" >
    <i type="int" name="ISTART">     1</i>
    <i type="int" name="ICHARG">     0</i>
    <i type="int" name="INIWAV">     1</i>
   </separator>
   <separator name="electronic spin" >
    <i type="int" name="ISPIN">     1</i>
    <i type="logical" name="LNONCOLLINEAR"> F  </i>
    <v name="MAGMOM">      1.00000000      1.00000000</v>
    <i name="NUPDOWN">     -1.00000000</i>
    <i type="logical" name="LSORBIT"> F  </i>
    <v name="SAXIS">      0.00000000      0.00000000      1.00000000</v>
    <i type="logical" name="LSPIRAL"> F  </i>
    <v name="QSPIRAL">      0.00000000      0.00000000      0.00000000</v>
    <i type="logical" name="LZEROZ"> F  </i>
   </separator>
   <separator name="electronic exchange-correlation" >
    <i type="logical" name="LASPH"> F  </i>
    <i type="logical" name="LMETAGGA"> F  </i>
   </separator>
   <separator name="electronic convergence" >
    <i type="int" name="NELM">    60</i>
    <i type="int" name="NELMDL">     0</i>
    <i type="int" name="NELMIN">     2</i>
    <i name="ENINI">    150.00000000</i>
    <separator name="electronic convergence detail" >
     <i type="logical" name="LDIAG"> T  </i>
     <i type="logical" name="LSUBROT"> F  </i>
     <i name="WEIMIN">      0.00100000</i>
     <i name="EBREAK">      0.00001250</i>
     <i name="DEPER">      0.30000000</i>
     <i type="int" name="NRMM">     4</i>
     <i name="TIME">      0.40000000</i>
    </separator>
   </separator>
   <separator name="electronic mixer" >
    <i name="AMIX">      0.40000000</i>
    <i name="BMIX">      1.00000000</i>
    <i name="AMIN">      0.10000000</i>
    <i name="AMIX_MAG">      1.60000000</i>
    <i name="BMIX_MAG">      1.00000000</i>
    <separator name="electronic mixer details" >
     <i type="int" name="IMIX">     4</i>
     <i type="logical" name="MIXFIRST"> F  </i>
     <i type="int" name="MAXMIX">   -45</i>
     <i name="WC">    100.00000000</i>
     <i type="int" name="INIMIX">     1</i>
     <i type="int" name="MIXPRE">     1</i>
     <i type="int" name="MREMOVE">     5</i>
    </separator>
   </separator>
   <separator name="electronic dipolcorrection" >
    <i type="logical" name="LDIPOL"> F  </i>
    <i type="logical" name="LMONO"> F  </i>
    <i type="int" name="IDIPOL">     0</i>
    <i name="EPSILON">      1.00000000</i>
    <v name="DIPOL">   -100.00000000   -100.00000000   -100.00000000</v>
    <i name="EFIELD">      0.00000000</i>
   </separator>
  </separator>
  <separator name="grids" >
   <i type="int" name="NGX">    12</i>
   <i type="int" name="NGY">    12</i>
   <i type="int" name="NGZ">    12</i>
   <i type="int" name="NGXF">    24</i>
   <i type="int" name="NGYF">    24</i>
   <i type="int" name="NGZF">    24</i>
   <i type="logical" name="ADDGRID"> F  </i>
  </separator>
  <separator name="ionic" >
   <i type="int" name="NSW">    15</i>
   <i type="int" name="IBRION">     2</i>
   <i type="int" name="MDALGO">     0</i>
   <i type="int" name="ISIF">     2</i>
   <i name="PSTRESS">      0.00000000</i>
   <i name="EDIFFG">     -0.01000000</i>
   <i type="int" name="NFREE">     1</i>
   <i name="POTIM">      0.50000000</i>
   <i name="SMASS">     -3.00000000</i>
   <i name="SCALEE">      1.00000000</i>
  </separator>
  <separator name="ionic md" >
   <i name="TEBEG">      0.00010000</i>
   <i name="TEEND">      0.00010000</i>
   <i type="int" name="NBLOCK">     1</i>
   <i type="int" name="KBLOCK">    15</i>
   <i type="int" name="NPACO">   256</i>
   <i name="APACO">     16.00000000</i>
  </separator>
  <separator name="symmetry" >
   <i type="int" name="ISYM">     2</i>
   <i name="SYMPREC">      0.00001000</i>
  </separator>
  <separator name="dos" >
   <i type="int" name="LORBIT">     0</i>
   <v name="RWIGS">     -1.00000000</v>
   <i type="int" name="NEDOS">   301</i>
   <i name="EMIN">     10.00000000</i>
   <i name="EMAX">    -10.00000000</i>
   <i name="EFERMI">      0.00000000</i>
  </separator>
  <separator name="writing" >
   <i type="int" name="NWRITE">     2</i>
   <i type="logical" name="LWAVE"> T  </i>
   <i type="logical" name="LDOWNSAMPLE"> F  </i>
   <i type="logical" name="LCHARG"> T  </i>
   <i type="logical" name="LPARD"> F  </i>
   <i type="logical" name="LVTOT"> F  </i>
   <i type="logical" name="LVHAR"> F  </i>
   <i type="logical" name="LELF"> F  </i>
   <i type="logical" name="LOPTICS"> F  </i>
   <v name="STM">      0.00000000      0.00000000      0.00000000      0.00000000      0.00000000      0.00000000      0.00000000</v>
  </separator>
  <separator name="performance" >
   <i type="int" name="NPAR">     8</i>
   <i type="int" name="NSIM">     4</i>
   <i type="int" name="NBLK">    -1</i>
   <i type="logical" name="LPLANE"> T  </i>
   <i type="logical" name="LSCALAPACK"> T  </i>
   <i type="logical" name="LSCAAWARE"> F  </i>
   <i type="logical" name="LSCALU"> F  </i>
   <i type="logical" name="LASYNC"> F  </i>
   <i type="logical" name="LORBITALREAL"> F  </i>
  </separator>
  <separator name="miscellaneous" >
   <i type="int" name="IDIOT">     3</i>
   <i type="int" name="ISPECIAL">     0</i>
   <i type="logical" name="LMUSIC"> F  </i>
   <v name="POMASS">     28.08500000</v>
   <v name="DARWINR">      0.00000000</v>
   <v name="DARWINV">      1.00000000</v>
   <i type="logical" name="LCORR"> T  </i>
  </separator>
  <i type="logical" name="GGA_COMPAT"> T  </i>
  <i type="logical" name="LBERRY"> F  </i>
  <i type="int" name="ICORELEVEL">     0</i>
  <i type="logical" name="LDAU"> F  </i>
  <i type="int" name="I_CONSTRAINED_M">     0</i>
  <separator name="electronic exchange-correlation" >
   <i type="string" name="GGA">--</i>
   <i type="int" name="VOSKOWN">     0</i>
   <i type="logical" name="LHFCALC"> F  </i>
   <i type="string" name="PRECFOCK"></i>
   <i type="logical" name="LSYMGRAD"> F  </i>
   <i type="logical" name="LHFONE"> F  </i>
   <i type="logical" name="LRHFCALC"> F  </i>
   <i type="logical" name="LTHOMAS"> F  </i>
   <i type="logical" name="LMODELHF"> F  </i>
   <i name="ENCUT4O">     -1.00000000</i>
   <i type="int" name="EXXOEP">     0</i>
   <i type="int" name="FOURORBIT">     0</i>
   <i name="AEXX">      0.00000000</i>
   <i name="HFALPHA">      0.00000000</i>
   <i name="MCALPHA">      0.00000000</i>
   <i name="ALDAX">      1.00000000</i>
   <i name="AGGAX">      1.00000000</i>
   <i name="ALDAC">      1.00000000</i>
   <i name="AGGAC">      1.00000000</i>
   <i type="int" name="NKREDX">     1</i>
   <i type="int" name="NKREDY">     1</i>
   <i type="int" name="NKREDZ">     1</i>
   <i type="logical" name="SHIFTRED"> F  </i>
   <i type="logical" name="ODDONLY"> F  </i>
   <i type="logical" name="EVENONLY"> F  </i>
   <i type="int" name="LMAXFOCK">     0</i>
   <i type="int" name="NMAXFOCKAE">     0</i>
   <i type="logical" name="LFOCKAEDFT"> F  </i>
   <i name="HFSCREEN">      0.00000000</i>
   <i name="HFSCREENC">      0.00000000</i>
   <i type="int" name="NBANDSGWLOW">     0</i>
  </separator>
  <separator name="vdW DFT" >
   <i type="logical" name="LUSE_VDW"> F  </i>
   <i name="Zab_VDW">     -0.84910000</i>
   <i name="PARAM1">      0.12340000</i>
   <i name="PARAM2">      1.00000000</i>
   <i name="PARAM3">      0.00000000</i>
  </separator>
  <separator name="model GW" >
   <i type="int" name="MODEL_GW">     0</i>
   <i name="MODEL_EPS0">     12.00772552</i>
   <i name="MODEL_ALPHA">      1.00000000</i>
  </separator>
  <separator name="linear response parameters" >
   <i type="logical" name="LEPSILON"> F  </i>
   <i type="logical" name="LRPA"> F  </i>
   <i type="logical" name="LNABLA"> F  </i>
   <i type="logical" name="LVEL"> F  </i>
   <i type="int" name="KINTER">     0</i>
   <i name="CSHIFT">      0.10000000</i>
   <i name="OMEGAMAX">     -1.00000000</i>
   <i name="DEG_THRESHOLD">      0.00200000</i>
   <i name="RTIME">     -0.10000000</i>
   <i name="WPLASMAI">      0.00000000</i>
   <v name="DFIELD">      0.00000000      0.00000000      0.00000000</v>
   <v name="WPLASMA">      0.00000000      0.00000000      0.00000000      0.00000000      0.00000000      0.00000000      0.00000000      0.00000000      0.00000000</v>
  </separator>
  <separator name="orbital magnetization" >
   <i type="logical" name="NUCIND"> F  </i>
   <v name="MAGPOS">      0.00000000      0.00000000      0.00000000</v>
   <i type="logical" name="LNICSALL"> T  </i>
   <i type="logical" name="ORBITALMAG"> F  </i>
   <i type="logical" name="LMAGBLOCH"> F  </i>
   <i type="logical" name="LCHIMAG"> F  </i>
   <i type="logical" name="LGAUGE"> T  </i>
   <i type="int" name="MAGATOM">     0</i>
   <v name="MAGDIPOL">      0.00000000      0.00000000      0.00000000</v>
   <v name="AVECCONST">      0.00000000      0.00000000      0.00000000</v>
  </separator>
  <separator name="response functions" >
   <i type="logical" name="LADDER"> F  </i>
   <i type="logical" name="LRPAFORCE"> F  </i>
   <i type="logical" name="LFXC"> F  </i>
   <i type="logical" name="LHARTREE"> T  </i>
   <i type="int" name="IBSE">     0</i>
   <v type="int" name="KPOINT">    -1     0     0     0</v>
   <i type="logical" name="LTCTE"> F  </i>
   <i type="logical" name="LTETE"> F  </i>
   <i type="logical" name="LTRIPLET"> F  </i>
   <i type="logical" name="LFXCEPS"> F  </i>
   <i type="logical" name="LFXHEG"> F  </i>
   <i type="int" name="NATURALO">     2</i>
   <i type="logical" name="L2ORDER"> F  </i>
   <i type="logical" name="LMP2LT"> F  </i>
   <i type="logical" name="LUSEW"> F  </i>
   <i name="ENCUTGW">     -2.00000000</i>
   <i name="ENCUTGWSOFT">     -2.00000000</i>
   <i name="ENCUTLF">     -1.00000000</i>
   <i type="int" name="LMAXMP2">    -1</i>
   <i name="SCISSOR">      0.00000000</i>
   <i type="int" name="NOMEGA">     0</i>
   <i type="int" name="NOMEGAR">     0</i>
   <i type="int" name="NBANDSGW">    -1</i>
   <i type="int" name="NBANDSO">    -1</i>
   <i type="int" name="NBANDSV">    -1</i>
   <i type="int" name="NELM">     1</i>
   <i type="int" name="NELMHF">     1</i>
   <i type="int" name="DIM">     3</i>
   <i type="int" name="ANTIRES">     0</i>
   <i name="OMEGAMAX">    -30.00000000</i>
   <i name="OMEGAMIN">    -30.00000000</i>
   <i name="OMEGATL">   -200.00000000</i>
   <i type="int" name="OMEGAGRID">   140</i>
   <i name="CSHIFT">     -0.10000000</i>
   <i type="logical" name="SELFENERGY"> F  </i>
   <i type="logical" name="LSPECTRAL"> F  </i>
   <i type="logical" name="LSPECTRALGW"> F  </i>
   <i type="logical" name="LSINGLES"> F  </i>
   <i type="logical" name="LFERMIGW"> F  </i>
   <i type="logical" name="ODDONLYGW"> F  </i>
   <i type="logical" name="EVENONLYGW"> F  </i>
   <i type="int" name="NKREDLFX">     1</i>
   <i type="int" name="NKREDLFY">     1</i>
   <i type="int" name="NKREDLFZ">     1</i>
   <i type="int" name="MAXMEM">  2800</i>
   <i type="int" name="TELESCOPE">     0</i>
   <i type="int" name="TAUPAR">     1</i>
   <i type="int" name="OMEGAPAR">    -1</i>
   <i name="LAMBDA">      1.00000000</i>
  </separator>
  <separator name="External order field" >
   <i name="OFIELD_KAPPA">      0.00000000</i>
   <v name="OFIELD_K">      0.00000000      0.00000000      0.00000000</v>
   <i name="OFIELD_Q6_NEAR">      0.00000000</i>
   <i name="OFIELD_Q6_FAR">      0.00000000</i>
   <i name="OFIELD_A">      0.00000000</i>
  </separator>
 </parameters>
 <atominfo>
  <atoms>       2 </atoms>
  <types>       1 </types>
  <array name="atoms" >
   <dimension dim="1">ion</dimension>
   <field type="string">element</field>
   <field type="int">atomtype</field>
   <set>
    <rc><c>Si</c><c>   1</c></rc>
    <rc><c>Si</c><c>   1</c></rc>
   </set>
  </array>
  <array name="atomtypes" >
   <dimension dim="1">type</dimension>
   <field type="int">atomspertype</field>
   <field type="string">element</field>
   <field>mass</field>
   <field>valence</field>
   <field type="string">pseudopotential</field>
   <set>
    <rc><c>   2</c><c>Si</c><c>     28.08500000</c><c>      4.00000000</c><c> PAW_PBE Si 05Jan2001                   </c></rc>
   </set>
  </array>
 </atominfo>
 <structure name="initialpos" >
  <crystal>
   <varray name="basis" >
    <v>       0.00000000       2.71500000       2.71500000 </v>
    <v>       2.71500000       0.00000000       2.71500000 </v>
    <v>       2.71500000       2.71500000       0.00000000 </v>
   </varray>
   <i name="volume">     40.02575175 </i>
   <varray name="rec_basis" >
    <v>      -0.18416206       0.18416206       0.18416206 </v>
    <v>       0.18416206      -0.18416206       0.18416206 </v>
    <v>       0.18416206       0.18416206      -0.18416206 </v>
   </varray>
  </crystal>
  <varray name="positions" >
   <v>       0.50000000       0.50000000       0.50000000 </v>
   <v>       0.75000000       0.75000000       0.75000000 </v>
  </varray>
 </structure>
 <calculation>
  <scstep>
   <time name="dav">    0.47    0.48</time>
   <time name="total">    0.52    0.54</time>
   <energy>
    <i name="alphaZ">      3.36414203 </i>
    <i name="ewald">   -228.56352493 </i>
    <i name="hartreedc">    -14.88208613 </i>
    <i name="XCdc">    -17.92436983 </i>
    <i name="pawpsdc">     76.67688002 </i>
    <i name="pawaedc">    -41.72855914 </i>
    <i name="eentropy">     -0.00004526 </i>
    <i name="bandstr">      6.22086621 </i>
    <i name="atom">    206.09183643 </i>
    <i name="e_fr_energy">    -10.74486061 </i>
    <i name="e_wo_entrp">    -10.74481535 </i>
    <i name="e_0_energy">    -10.74483798 </i>
   </energy>
  </scstep>
  <scstep>
   <time name="dav">    0.47    0.47</time>
   <time name="total">    0.50    0.51</time>
   <energy>
    <i name="alphaZ">      3.36414203 </i>
    <i name="ewald">   -228.56352493 </i>
    <i name="hartreedc">    -14.88198829 </i>
    <i name="XCdc">    -17.92435125 </i>
    <i name="pawpsdc">     76.67563105 </i>
    <i name="pawaedc">    -41.72725942 </i>
    <i name="eentropy">     -0.00004521 </i>
    <i name="bandstr">      6.22069880 </i>
    <i name="atom">    206.09183643 </i>
    <i name="e_fr_energy">    -10.74486079 </i>
    <i name="e_wo_entrp">    -10.74481558 </i>
    <i name="e_0_energy">    -10.74483818 </i>
   </energy>
  </scstep>
  <structure>
   <crystal>
    <varray name="basis" >
     <v>       0.00000000       2.71500000       2.71500000 </v>
     <v>       2.71500000       0.00000000       2.71500000 </v>
     <v>       2.71500000       2.71500000       0.00000000 </v>
    </varray>
    <i name="volume">     40.02575175 </i>
    <varray name="rec_basis" >
     <v>      -0.18416206       0.18416206       0.18416206 </v>
     <v>       0.18416206      -0.18416206       0.18416206 </v>
     <v>       0.18416206       0.18416206      -0.18416206 </v>
    </varray>
   </crystal>
   <varray name="positions" >
    <v>       0.50000000       0.50000000       0.50000000 </v>
    <v>       0.75000000       0.75000000       0.75000000 </v>
   </varray>
  </structure>
  <varray name="forces" >
   <v>       0.00000000       0.00000000      -0.00000000 </v>
   <v>      -0.00000000      -0.00000000       0.00000000 </v>
  </varray>
  <varray name="stress" >
   <v>      19.35397996       0.00000000      -0.00000000 </v>
   <v>      -0.00000000      19.35397996       0.00000000 </v>
   <v>      -0.00000000       0.00000000      19.35397996 </v>
  </varray>
  <energy>
   <i name="e_fr_energy">    -10.74486079 </i>
   <i name="e_wo_entrp">    -10.74483818 </i>
   <i name="e_0_energy">     -0.00004521 </i>
  </energy>
  <time name="totalsc">    1.90    2.65</time>
  <eigenvalues>
   <array>
    <dimension dim="1">band</dimension>
    <dimension dim="2">kpoint</dimension>
    <dimension dim="3">spin</dimension>
    <field>eigene</field>
    <field>occ</field>
    <set>
     <set comment="spin 1">
      <set comment="kpoint 1">
       <r>   -6.1022    1.0000 </r>
       <r>    5.5141    1.0000 </r>
       <r>    5.8202    0.9951 </r>
       <r>    5.8202    0.9951 </r>
       <r>    8.5137    0.0000 </r>
       <r>    8.5371    0.0000 </r>
       <r>    8.5371    0.0000 </r>
       <r>    9.4448    0.0000 </r>
      </set>
      <set comment="kpoint 2">
       <r>   -5.9278    1.0000 </r>
       <r>    4.3639    1.0000 </r>
       <r>    5.2377    1.0000 </r>
       <r>    5.7430    0.9991 </r>
       <r>    8.5932    0.0000 </r>
       <r>    8.7036    0.0000 </r>
       <r>    8.9545    0.0000 </r>
       <r>   10.5427    0.0000 </r>
      </set>
      <set comment="kpoint 3">
       <r>   -5.5000    1.0000 </r>
       <r>    2.5272    1.0000 </r>
       <r>    4.7959    1.0000 </r>
       <r>    5.3844    1.0000 </r>
       <r>    8.2548    0.0000 </r>
       <r>    9.1761    0.0000 </r>
       <r>    9.5165    0.0000 </r>
       <r>   12.0285    0.0000 </r>
      </set>
      <set comment="kpoint 4">
       <r>   -4.8512    1.0000 </r>
       <r>    0.7822    1.0000 </r>
       <r>    4.5028    1.0000 </r>
       <r>    5.0134    1.0000 </r>
       <r>    7.9260    0.0000 </r>
       <r>    9.3856    0.0000 </r>
       <r>    9.5826    0.0000 </r>
       <r>   13.2150    0.0000 </r>
      </set>
      <set comment="kpoint 5">
       <r>   -4.1056    1.0000 </r>
       <r>   -0.6148    1.0000 </r>
       <r>    4.3740    1.0000 </r>
       <r>    4.7326    1.0000 </r>
       <r>    7.7006    0.0000 </r>
       <r>    9.3673    0.0000 </r>
       <r>    9.3691    0.0000 </r>
       <r>   13.7581    0.0000 </r>
      </set>
      <set comment="kpoint 6">
       <r>   -3.7857    1.0000 </r>
       <r>   -1.0994    1.0000 </r>
       <r>    4.4136    1.0000 </r>
       <r>    4.5871    1.0000 </r>
       <r>    7.6489    0.0000 </r>
       <r>    9.2295    0.0000 </r>
       <r>    9.4177    0.0000 </r>
       <r>   13.7309    0.0000 </r>
      </set>
      <set comment="kpoint 7">
       <r>   -4.3469    1.0000 </r>
       <r>   -0.2101    1.0000 </r>
       <r>    4.5940    1.0000 </r>
       <r>    4.6047    1.0000 </r>
       <r>    7.7587    0.0000 </r>
       <r>    9.2313    0.0000 </r>
       <r>    9.5955    0.0000 </r>
       <r>   13.4657    0.0000 </r>
      </set>
      <set comment="kpoint 8">
       <r>   -5.0877    1.0000 </r>
       <r>    1.3378    1.0000 </r>
       <r>    4.7662    1.0000 </r>
       <r>    4.9277    1.0000 </r>
       <r>    8.0299    0.0000 </r>
       <r>    9.2387    0.0000 </r>
       <r>    9.7583    0.0000 </r>
       <r>   12.4060    0.0000 </r>
      </set>
      <set comment="kpoint 9">
       <r>   -5.6694    1.0000 </r>
       <r>    3.1486    1.0000 </r>
       <r>    5.0903    1.0000 </r>
       <r>    5.3268    1.0000 </r>
       <r>    8.3532    0.0000 </r>
       <r>    8.9338    0.0000 </r>
       <r>    9.5405    0.0000 </r>
       <r>   11.4727    0.0000 </r>
      </set>
      <set comment="kpoint 10">
       <r>   -6.0147    1.0000 </r>
       <r>    4.9568    1.0000 </r>
       <r>    5.5090    1.0000 </r>
       <r>    5.6438    0.9999 </r>
       <r>    8.3420    0.0000 </r>
       <r>    8.7903    0.0000 </r>
       <r>    8.9527    0.0000 </r>
       <r>    9.9733    0.0000 </r>
      </set>
      <set comment="kpoint 11">
       <r>   -5.8402    1.0000 </r>
       <r>    4.2631    1.0000 </r>
       <r>    5.0640    1.0000 </r>
       <r>    5.1761    1.0000 </r>
       <r>    8.0256    0.0000 </r>
       <r>    9.3710    0.0000 </r>
       <r>    9.6084    0.0000 </r>
       <r>   10.5015    0.0000 </r>
      </set>
      <set comment="kpoint 12">
       <r>   -5.4957    1.0000 </r>
       <r>    3.0084    1.0000 </r>
       <r>    4.3049    1.0000 </r>
       <r>    4.9809    1.0000 </r>
       <r>    8.0937    0.0000 </r>
       <r>    9.5625    0.0000 </r>
       <r>   10.2454    0.0000 </r>
       <r>   10.7460    0.0000 </r>
      </set>
      <set comment="kpoint 13">
       <r>   -4.9155    1.0000 </r>
       <r>    1.3485    1.0000 </r>
       <r>    3.8727    1.0000 </r>
       <r>    4.6083    1.0000 </r>
       <r>    8.3247    0.0000 </r>
       <r>    9.5135    0.0000 </r>
       <r>   10.5133    0.0000 </r>
       <r>   10.9803    0.0000 </r>
      </set>
      <set comment="kpoint 14">
       <r>   -4.1747    1.0000 </r>
       <r>   -0.1448    1.0000 </r>
       <r>    3.5992    1.0000 </r>
       <r>    4.3206    1.0000 </r>
       <r>    8.2770    0.0000 </r>
       <r>    9.3510    0.0000 </r>
       <r>   10.3770    0.0000 </r>
       <r>   12.1504    0.0000 </r>
      </set>
      <set comment="kpoint 15">
       <r>   -3.6111    1.0000 </r>
       <r>   -1.0191    1.0000 </r>
       <r>    3.4169    1.0000 </r>
       <r>    4.2738    1.0000 </r>
       <r>    8.2731    0.0000 </r>
       <r>    9.2054    0.0000 </r>
       <r>   10.2126    0.0000 </r>
       <r>   13.7519    0.0000 </r>
      </set>
      <set comment="kpoint 16">
       <r>   -3.9355    1.0000 </r>
       <r>   -0.5361    1.0000 </r>
       <r>    3.3540    1.0000 </r>
       <r>    4.4685    1.0000 </r>
       <r>    8.4060    0.0000 </r>
       <r>    9.2205    0.0000 </r>
       <r>   10.1802    0.0000 </r>
       <r>   13.2291    0.0000 </r>
      </set>
      <set comment="kpoint 17">
       <r>   -4.6821    1.0000 </r>
       <r>    0.8219    1.0000 </r>
       <r>    3.4726    1.0000 </r>
       <r>    4.8309    1.0000 </r>
       <r>    8.6420    0.0000 </r>
       <r>    9.2918    0.0000 </r>
       <r>   10.2301    0.0000 </r>
       <r>   11.8266    0.0000 </r>
      </set>
      <set comment="kpoint 18">
       <r>   -5.3286    1.0000 </r>
       <r>    2.4275    1.0000 </r>
       <r>    3.8541    1.0000 </r>
       <r>    5.2476    1.0000 </r>
       <r>    8.7553    0.0000 </r>
       <r>    9.1526    0.0000 </r>
       <r>   10.0166    0.0000 </r>
       <r>   11.2073    0.0000 </r>
      </set>
      <set comment="kpoint 19">
       <r>   -5.7544    1.0000 </r>
       <r>    3.6976    1.0000 </r>
       <r>    4.7830    1.0000 </r>
       <r>    5.4842    1.0000 </r>
       <r>    8.4274    0.0000 </r>
       <r>    8.9966    0.0000 </r>
       <r>    9.4859    0.0000 </r>
       <r>   11.0279    0.0000 </r>
      </set>
      <set comment="kpoint 20">
       <r>   -5.2348    1.0000 </r>
       <r>    2.6673    1.0000 </r>
       <r>    4.1410    1.0000 </r>
       <r>    4.1677    1.0000 </r>
       <r>    7.3109    0.0000 </r>
       <r>    9.5146    0.0000 </r>
       <r>   11.0864    0.0000 </r>
       <r>   11.2015    0.0000 </r>
      </set>
      <set comment="kpoint 21">
       <r>   -4.7303    1.0000 </r>
       <r>    1.5626    1.0000 </r>
       <r>    3.4420    1.0000 </r>
       <r>    3.9225    1.0000 </r>
       <r>    7.4500    0.0000 </r>
       <r>    9.1050    0.0000 </r>
       <r>   11.2441    0.0000 </r>
       <r>   11.9673    0.0000 </r>
      </set>
      <set comment="kpoint 22">
       <r>   -4.0280    1.0000 </r>
       <r>    0.2577    1.0000 </r>
       <r>    2.8260    1.0000 </r>
       <r>    3.6919    1.0000 </r>
       <r>    7.7013    0.0000 </r>
       <r>    9.8131    0.0000 </r>
       <r>   10.9378    0.0000 </r>
       <r>   12.0350    0.0000 </r>
      </set>
      <set comment="kpoint 23">
       <r>   -3.3264    1.0000 </r>
       <r>   -0.7855    1.0000 </r>
       <r>    2.3431    1.0000 </r>
       <r>    3.7123    1.0000 </r>
       <r>    7.8200    0.0000 </r>
       <r>   10.5732    0.0000 </r>
       <r>   11.4902    0.0000 </r>
       <r>   11.8323    0.0000 </r>
      </set>
      <set comment="kpoint 24">
       <r>   -3.3505    1.0000 </r>
       <r>   -0.7458    1.0000 </r>
       <r>    2.0900    1.0000 </r>
       <r>    3.9664    1.0000 </r>
       <r>    8.1061    0.0000 </r>
       <r>   10.3491    0.0000 </r>
       <r>   11.6401    0.0000 </r>
       <r>   13.1218    0.0000 </r>
      </set>
      <set comment="kpoint 25">
       <r>   -4.0593    1.0000 </r>
       <r>    0.2840    1.0000 </r>
       <r>    2.1879    1.0000 </r>
       <r>    4.3952    1.0000 </r>
       <r>    8.5659    0.0000 </r>
       <r>   10.1082    0.0000 </r>
       <r>   11.3739    0.0000 </r>
       <r>   11.6596    0.0000 </r>
      </set>
      <set comment="kpoint 26">
       <r>   -4.7529    1.0000 </r>
       <r>    1.2755    1.0000 </r>
       <r>    2.9513    1.0000 </r>
       <r>    4.8686    1.0000 </r>
       <r>    8.9648    0.0000 </r>
       <r>    9.3894    0.0000 </r>
       <r>   10.6387    0.0000 </r>
       <r>   11.2092    0.0000 </r>
      </set>
      <set comment="kpoint 27">
       <r>   -5.2479    1.0000 </r>
       <r>    1.9223    1.0000 </r>
       <r>    4.3509    1.0000 </r>
       <r>    5.1117    1.0000 </r>
       <r>    8.4146    0.0000 </r>
       <r>    9.1568    0.0000 </r>
       <r>    9.9258    0.0000 </r>
       <r>   11.6690    0.0000 </r>
      </set>
      <set comment="kpoint 28">
       <r>   -4.3016    1.0000 </r>
       <r>    0.9421    1.0000 </r>
       <r>    3.3724    1.0000 </r>
       <r>    3.4857    1.0000 </r>
       <r>    6.7822    0.0000 </r>
       <r>    8.0943    0.0000 </r>
       <r>   12.8756    0.0000 </r>
       <r>   12.9453    0.0000 </r>
      </set>
      <set comment="kpoint 29">
       <r>   -3.6560    1.0000 </r>
       <r>    0.0034    1.0000 </r>
       <r>    2.8214    1.0000 </r>
       <r>    3.2166    1.0000 </r>
       <r>    7.0411    0.0000 </r>
       <r>    7.9769    0.0000 </r>
       <r>   12.8840    0.0000 </r>
       <r>   13.8278    0.0000 </r>
      </set>
      <set comment="kpoint 30">
       <r>   -2.9042    1.0000 </r>
       <r>   -0.8919    1.0000 </r>
       <r>    1.9976    1.0000 </r>
       <r>    3.2252    1.0000 </r>
       <r>    7.2535    0.0000 </r>
       <r>    9.2174    0.0000 </r>
       <r>   12.5324    0.0000 </r>
       <r>   13.7884    0.0000 </r>
      </set>
      <set comment="kpoint 31">
       <r>   -2.6710    1.0000 </r>
       <r>   -1.1251    1.0000 </r>
       <r>    1.4897    1.0000 </r>
       <r>    3.4692    1.0000 </r>
       <r>    7.5367    0.0000 </r>
       <r>   11.0989    0.0000 </r>
       <r>   12.1891    0.0000 </r>
       <r>   13.1774    0.0000 </r>
      </set>
      <set comment="kpoint 32">
       <r>   -3.3174    1.0000 </r>
       <r>   -0.5257    1.0000 </r>
       <r>    1.6581    1.0000 </r>
       <r>    3.9032    1.0000 </r>
       <r>    8.0328    0.0000 </r>
       <r>   11.0155    0.0000 </r>
       <r>   12.1984    0.0000 </r>
       <r>   12.4719    0.0000 </r>
      </set>
      <set comment="kpoint 33">
       <r>   -4.0144    1.0000 </r>
       <r>   -0.0925    1.0000 </r>
       <r>    2.6850    1.0000 </r>
       <r>    4.4217    1.0000 </r>
       <r>    8.5614    0.0000 </r>
       <r>    9.5998    0.0000 </r>
       <r>   10.8063    0.0000 </r>
       <r>   12.3529    0.0000 </r>
      </set>
      <set comment="kpoint 34">
       <r>   -4.5440    1.0000 </r>
       <r>    0.2846    1.0000 </r>
       <r>    4.1031    1.0000 </r>
       <r>    4.7463    1.0000 </r>
       <r>    8.1592    0.0000 </r>
       <r>    9.2364    0.0000 </r>
       <r>    9.8633    0.0000 </r>
       <r>   12.6601    0.0000 </r>
      </set>
      <set comment="kpoint 35">
       <r>   -3.0685    1.0000 </r>
       <r>   -0.7699    1.0000 </r>
       <r>    2.9422    1.0000 </r>
       <r>    3.0937    1.0000 </r>
       <r>    6.5845    0.0024 </r>
       <r>    7.1388    0.0000 </r>
       <r>   14.7680    0.0000 </r>
       <r>   14.7746    0.0000 </r>
      </set>
      <set comment="kpoint 36">
       <r>   -2.3199    1.0000 </r>
       <r>   -1.5673    1.0000 </r>
       <r>    2.5374    1.0000 </r>
       <r>    2.9276    1.0000 </r>
       <r>    6.9103    0.0000 </r>
       <r>    7.4323    0.0000 </r>
       <r>   14.6341    0.0000 </r>
       <r>   15.3690    0.0000 </r>
      </set>
      <set comment="kpoint 37">
       <r>   -2.3338    1.0000 </r>
       <r>   -1.4657    1.0000 </r>
       <r>    1.8173    1.0000 </r>
       <r>    3.1359    1.0000 </r>
       <r>    7.1567    0.0000 </r>
       <r>    9.0991    0.0000 </r>
       <r>   13.3702    0.0000 </r>
       <r>   14.2763    0.0000 </r>
      </set>
      <set comment="kpoint 38">
       <r>   -2.9302    1.0000 </r>
       <r>   -0.9986    1.0000 </r>
       <r>    1.8053    1.0000 </r>
       <r>    3.5494    1.0000 </r>
       <r>    7.6336    0.0000 </r>
       <r>   11.1009    0.0000 </r>
       <r>   11.5254    0.0000 </r>
       <r>   12.6723    0.0000 </r>
      </set>
      <set comment="kpoint 39">
       <r>   -3.4409    1.0000 </r>
       <r>   -0.9581    1.0000 </r>
       <r>    2.7314    1.0000 </r>
       <r>    4.0909    1.0000 </r>
       <r>    8.2284    0.0000 </r>
       <r>    9.6841    0.0000 </r>
       <r>   10.8855    0.0000 </r>
       <r>   13.6307    0.0000 </r>
      </set>
      <set comment="kpoint 40">
       <r>   -3.8468    1.0000 </r>
       <r>   -0.8965    1.0000 </r>
       <r>    4.0021    1.0000 </r>
       <r>    4.5214    1.0000 </r>
       <r>    8.0018    0.0000 </r>
       <r>    9.1666    0.0000 </r>
       <r>    9.6939    0.0000 </r>
       <r>   13.7981    0.0000 </r>
      </set>
      <set comment="kpoint 41">
       <r>   -2.3538    1.0000 </r>
       <r>   -1.5840    1.0000 </r>
       <r>    2.8560    1.0000 </r>
       <r>    3.0142    1.0000 </r>
       <r>    6.6143    0.0012 </r>
       <r>    6.8711    0.0000 </r>
       <r>   15.6197    0.0000 </r>
       <r>   15.6709    0.0000 </r>
      </set>
      <set comment="kpoint 42">
       <r>   -3.0163    1.0000 </r>
       <r>   -0.7908    1.0000 </r>
       <r>    2.6327    1.0000 </r>
       <r>    3.0230    1.0000 </r>
       <r>    6.9455    0.0000 </r>
       <r>    7.6239    0.0000 </r>
       <r>   13.7476    0.0000 </r>
       <r>   14.7671    0.0000 </r>
      </set>
      <set comment="kpoint 43">
       <r>   -3.4882    1.0000 </r>
       <r>   -0.3016    1.0000 </r>
       <r>    2.3459    1.0000 </r>
       <r>    3.4072    1.0000 </r>
       <r>    7.4399    0.0000 </r>
       <r>    9.4534    0.0000 </r>
       <r>   11.7149    0.0000 </r>
       <r>   12.8948    0.0000 </r>
      </set>
      <set comment="kpoint 44">
       <r>   -3.7593    1.0000 </r>
       <r>   -0.5011    1.0000 </r>
       <r>    2.9808    1.0000 </r>
       <r>    3.9653    1.0000 </r>
       <r>    8.0668    0.0000 </r>
       <r>    9.8986    0.0000 </r>
       <r>   11.0476    0.0000 </r>
       <r>   11.7591    0.0000 </r>
      </set>
      <set comment="kpoint 45">
       <r>   -3.7200    1.0000 </r>
       <r>    0.0775    1.0000 </r>
       <r>    3.1149    1.0000 </r>
       <r>    3.2517    1.0000 </r>
       <r>    6.6386    0.0007 </r>
       <r>    7.5515    0.0000 </r>
       <r>   13.8332    0.0000 </r>
       <r>   13.8534    0.0000 </r>
      </set>
      <set comment="kpoint 46">
       <r>   -4.2294    1.0000 </r>
       <r>    0.7941    1.0000 </r>
       <r>    3.0950    1.0000 </r>
       <r>    3.5147    1.0000 </r>
       <r>    7.2098    0.0000 </r>
       <r>    8.4768    0.0000 </r>
       <r>   12.0489    0.0000 </r>
       <r>   12.8866    0.0000 </r>
      </set>
      <set comment="kpoint 47">
       <r>   -4.5070    1.0000 </r>
       <r>    0.7996    1.0000 </r>
       <r>    3.3601    1.0000 </r>
       <r>    4.0963    1.0000 </r>
       <r>    8.0175    0.0000 </r>
       <r>   10.1531    0.0000 </r>
       <r>   10.3507    0.0000 </r>
       <r>   11.2471    0.0000 </r>
      </set>
      <set comment="kpoint 48">
       <r>   -4.8076    1.0000 </r>
       <r>    1.8118    1.0000 </r>
       <r>    3.7168    1.0000 </r>
       <r>    3.7940    1.0000 </r>
       <r>    7.0098    0.0000 </r>
       <r>    8.7818    0.0000 </r>
       <r>   11.9641    0.0000 </r>
       <r>   12.0639    0.0000 </r>
      </set>
      <set comment="kpoint 49">
       <r>   -5.1535    1.0000 </r>
       <r>    2.2997    1.0000 </r>
       <r>    3.8509    1.0000 </r>
       <r>    4.4262    1.0000 </r>
       <r>    7.7529    0.0000 </r>
       <r>    9.7450    0.0000 </r>
       <r>   10.5561    0.0000 </r>
       <r>   11.0841    0.0000 </r>
      </set>
      <set comment="kpoint 50">
       <r>   -5.5797    1.0000 </r>
       <r>    3.4909    1.0000 </r>
       <r>    4.5989    1.0000 </r>
       <r>    4.6396    1.0000 </r>
       <r>    7.6620    0.0000 </r>
       <r>    9.9733    0.0000 </r>
       <r>   10.3745    0.0000 </r>
       <r>   10.4845    0.0000 </r>
      </set>
      <set comment="kpoint 51">
       <r>   -5.8414    1.0000 </r>
       <r>    3.7909    1.0000 </r>
       <r>    5.4845    1.0000 </r>
       <r>    5.4845    1.0000 </r>
       <r>    8.2969    0.0000 </r>
       <r>    9.0239    0.0000 </r>
       <r>    9.0239    0.0000 </r>
       <r>   11.0154    0.0000 </r>
      </set>
      <set comment="kpoint 52">
       <r>   -5.5834    1.0000 </r>
       <r>    3.0640    1.0000 </r>
       <r>    4.3298    1.0000 </r>
       <r>    5.5544    1.0000 </r>
       <r>    8.7818    0.0000 </r>
       <r>    9.0387    0.0000 </r>
       <r>    9.3697    0.0000 </r>
       <r>   11.5133    0.0000 </r>
      </set>
      <set comment="kpoint 53">
       <r>   -5.0800    1.0000 </r>
       <r>    1.8422    1.0000 </r>
       <r>    3.3851    1.0000 </r>
       <r>    5.2244    1.0000 </r>
       <r>    8.8608    0.0000 </r>
       <r>    9.5524    0.0000 </r>
       <r>    9.8526    0.0000 </r>
       <r>   11.6914    0.0000 </r>
      </set>
      <set comment="kpoint 54">
       <r>   -4.3787    1.0000 </r>
       <r>    0.3368    1.0000 </r>
       <r>    3.0667    1.0000 </r>
       <r>    4.7738    1.0000 </r>
       <r>    8.5091    0.0000 </r>
       <r>    9.9039    0.0000 </r>
       <r>    9.9257    0.0000 </r>
       <r>   12.7501    0.0000 </r>
      </set>
      <set comment="kpoint 55">
       <r>   -3.6778    1.0000 </r>
       <r>   -0.8185    1.0000 </r>
       <r>    3.0544    1.0000 </r>
       <r>    4.3945    1.0000 </r>
       <r>    8.1902    0.0000 </r>
       <r>    9.7627    0.0000 </r>
       <r>   10.1103    0.0000 </r>
       <r>   14.1561    0.0000 </r>
      </set>
      <set comment="kpoint 56">
       <r>   -3.6716    1.0000 </r>
       <r>   -0.8304    1.0000 </r>
       <r>    3.2656    1.0000 </r>
       <r>    4.1604    1.0000 </r>
       <r>    8.0253    0.0000 </r>
       <r>    9.7595    0.0000 </r>
       <r>   10.3511    0.0000 </r>
       <r>   12.7685    0.0000 </r>
      </set>
      <set comment="kpoint 57">
       <r>   -4.3702    1.0000 </r>
       <r>    0.3186    1.0000 </r>
       <r>    3.6623    1.0000 </r>
       <r>    4.1132    1.0000 </r>
       <r>    8.0196    0.0000 </r>
       <r>    9.9033    0.0000 </r>
       <r>   10.6643    0.0000 </r>
       <r>   11.1538    0.0000 </r>
      </set>
      <set comment="kpoint 58">
       <r>   -5.0736    1.0000 </r>
       <r>    1.8811    1.0000 </r>
       <r>    4.1732    1.0000 </r>
       <r>    4.2647    1.0000 </r>
       <r>    7.9479    0.0000 </r>
       <r>    9.8818    0.0000 </r>
       <r>   10.4813    0.0000 </r>
       <r>   10.7967    0.0000 </r>
      </set>
      <set comment="kpoint 59">
       <r>   -5.4128    1.0000 </r>
       <r>    2.5101    1.0000 </r>
       <r>    4.6669    1.0000 </r>
       <r>    4.8139    1.0000 </r>
       <r>    8.2644    0.0000 </r>
       <r>    9.2710    0.0000 </r>
       <r>   10.1456    0.0000 </r>
       <r>   11.0806    0.0000 </r>
      </set>
      <set comment="kpoint 60">
       <r>   -4.9921    1.0000 </r>
       <r>    1.7992    1.0000 </r>
       <r>    3.4092    1.0000 </r>
       <r>    4.7140    1.0000 </r>
       <r>    8.4672    0.0000 </r>
       <r>    9.6060    0.0000 </r>
       <r>   10.4742    0.0000 </r>
       <r>   10.9034    0.0000 </r>
      </set>
      <set comment="kpoint 61">
       <r>   -4.3514    1.0000 </r>
       <r>    0.7276    1.0000 </r>
       <r>    2.5821    1.0000 </r>
       <r>    4.3066    1.0000 </r>
       <r>    9.0765    0.0000 </r>
       <r>    9.3578    0.0000 </r>
       <r>   10.5654    0.0000 </r>
       <r>   11.6654    0.0000 </r>
      </set>
      <set comment="kpoint 62">
       <r>   -3.6042    1.0000 </r>
       <r>   -0.4636    1.0000 </r>
       <r>    2.3403    1.0000 </r>
       <r>    3.8971    1.0000 </r>
       <r>    8.8802    0.0000 </r>
       <r>    9.3110    0.0000 </r>
       <r>   11.7255    0.0000 </r>
       <r>   12.0153    0.0000 </r>
      </set>
      <set comment="kpoint 63">
       <r>   -3.2676    1.0000 </r>
       <r>   -0.9332    1.0000 </r>
       <r>    2.3873    1.0000 </r>
       <r>    3.6946    1.0000 </r>
       <r>    8.5570    0.0000 </r>
       <r>    9.5133    0.0000 </r>
       <r>   11.8588    0.0000 </r>
       <r>   12.6162    0.0000 </r>
      </set>
      <set comment="kpoint 64">
       <r>   -3.8376    1.0000 </r>
       <r>   -0.1142    1.0000 </r>
       <r>    2.6040    1.0000 </r>
       <r>    3.7839    1.0000 </r>
       <r>    8.3967    0.0000 </r>
       <r>    9.8667    0.0000 </r>
       <r>   10.8110    0.0000 </r>
       <r>   11.9498    0.0000 </r>
      </set>
      <set comment="kpoint 65">
       <r>   -4.5769    1.0000 </r>
       <r>    1.1711    1.0000 </r>
       <r>    3.0209    1.0000 </r>
       <r>    4.1233    1.0000 </r>
       <r>    8.1820    0.0000 </r>
       <r>    9.7138    0.0000 </r>
       <r>   10.2988    0.0000 </r>
       <r>   11.8388    0.0000 </r>
      </set>
      <set comment="kpoint 66">
       <r>   -4.6551    1.0000 </r>
       <r>    1.2485    1.0000 </r>
       <r>    3.5378    1.0000 </r>
       <r>    3.9058    1.0000 </r>
       <r>    7.6113    0.0000 </r>
       <r>    9.5427    0.0000 </r>
       <r>   10.9938    0.0000 </r>
       <r>   11.4792    0.0000 </r>
      </set>
      <set comment="kpoint 67">
       <r>   -4.0881    1.0000 </r>
       <r>    0.5255    1.0000 </r>
       <r>    2.6985    1.0000 </r>
       <r>    3.5753    1.0000 </r>
       <r>    7.9342    0.0000 </r>
       <r>    9.1544    0.0000 </r>
       <r>   10.9550    0.0000 </r>
       <r>   12.8059    0.0000 </r>
      </set>
      <set comment="kpoint 68">
       <r>   -3.3540    1.0000 </r>
       <r>   -0.3627    1.0000 </r>
       <r>    2.0879    1.0000 </r>
       <r>    3.1259    1.0000 </r>
       <r>    8.6687    0.0000 </r>
       <r>    9.6354    0.0000 </r>
       <r>   10.5254    0.0000 </r>
       <r>   13.7531    0.0000 </r>
      </set>
      <set comment="kpoint 69">
       <r>   -2.7693    1.0000 </r>
       <r>   -1.0398    1.0000 </r>
       <r>    1.7783    1.0000 </r>
       <r>    2.9784    1.0000 </r>
       <r>    8.9198    0.0000 </r>
       <r>   10.0278    0.0000 </r>
       <r>   11.4521    0.0000 </r>
       <r>   12.7240    0.0000 </r>
      </set>
      <set comment="kpoint 70">
       <r>   -3.1373    1.0000 </r>
       <r>   -0.6203    1.0000 </r>
       <r>    1.7781    1.0000 </r>
       <r>    3.2103    1.0000 </r>
       <r>    9.3022    0.0000 </r>
       <r>    9.7369    0.0000 </r>
       <r>   10.7916    0.0000 </r>
       <r>   13.6127    0.0000 </r>
      </set>
      <set comment="kpoint 71">
       <r>   -3.8820    1.0000 </r>
       <r>    0.1869    1.0000 </r>
       <r>    2.2908    1.0000 </r>
       <r>    3.6877    1.0000 </r>
       <r>    8.8539    0.0000 </r>
       <r>    9.8172    0.0000 </r>
       <r>   10.0953    0.0000 </r>
       <r>   12.7020    0.0000 </r>
      </set>
      <set comment="kpoint 72">
       <r>   -3.5984    1.0000 </r>
       <r>   -0.1040    1.0000 </r>
       <r>    2.5579    1.0000 </r>
       <r>    3.3839    1.0000 </r>
       <r>    7.0656    0.0000 </r>
       <r>    8.5860    0.0000 </r>
       <r>   12.8148    0.0000 </r>
       <r>   12.9565    0.0000 </r>
      </set>
      <set comment="kpoint 73">
       <r>   -2.9168    1.0000 </r>
       <r>   -0.8421    1.0000 </r>
       <r>    2.2863    1.0000 </r>
       <r>    2.8376    1.0000 </r>
       <r>    7.6313    0.0000 </r>
       <r>    8.4124    0.0000 </r>
       <r>   12.4982    0.0000 </r>
       <r>   14.7268    0.0000 </r>
      </set>
      <set comment="kpoint 74">
       <r>   -2.1957    1.0000 </r>
       <r>   -1.5177    1.0000 </r>
       <r>    1.9432    1.0000 </r>
       <r>    2.4407    1.0000 </r>
       <r>    8.4785    0.0000 </r>
       <r>    9.2513    0.0000 </r>
       <r>   12.0654    0.0000 </r>
       <r>   12.9628    0.0000 </r>
      </set>
      <set comment="kpoint 75">
       <r>   -2.4916    1.0000 </r>
       <r>   -1.2192    1.0000 </r>
       <r>    1.6182    1.0000 </r>
       <r>    2.7742    1.0000 </r>
       <r>    8.8385    0.0000 </r>
       <r>   10.6823    0.0000 </r>
       <r>   11.3990    0.0000 </r>
       <r>   11.8549    0.0000 </r>
      </set>
      <set comment="kpoint 76">
       <r>   -3.1730    1.0000 </r>
       <r>   -0.7786    1.0000 </r>
       <r>    2.0351    1.0000 </r>
       <r>    3.3746    1.0000 </r>
       <r>    9.0819    0.0000 </r>
       <r>    9.3919    0.0000 </r>
       <r>   11.6333    0.0000 </r>
       <r>   12.8497    0.0000 </r>
      </set>
      <set comment="kpoint 77">
       <r>   -2.3190    1.0000 </r>
       <r>   -1.5351    1.0000 </r>
       <r>    2.1350    1.0000 </r>
       <r>    3.1531    1.0000 </r>
       <r>    6.8043    0.0000 </r>
       <r>    8.1777    0.0000 </r>
       <r>   14.5060    0.0000 </r>
       <r>   14.7379    0.0000 </r>
      </set>
      <set comment="kpoint 78">
       <r>   -2.2609    1.0000 </r>
       <r>   -1.5413    1.0000 </r>
       <r>    2.2019    1.0000 </r>
       <r>    2.6873    1.0000 </r>
       <r>    7.5724    0.0000 </r>
       <r>    8.2586    0.0000 </r>
       <r>   13.3579    0.0000 </r>
       <r>   14.2679    0.0000 </r>
      </set>
      <set comment="kpoint 79">
       <r>   -2.7820    1.0000 </r>
       <r>   -0.9353    1.0000 </r>
       <r>    1.9761    1.0000 </r>
       <r>    2.6907    1.0000 </r>
       <r>    8.5421    0.0000 </r>
       <r>    9.3796    0.0000 </r>
       <r>   11.2518    0.0000 </r>
       <r>   13.9053    0.0000 </r>
      </set>
      <set comment="kpoint 80">
       <r>   -2.9756    1.0000 </r>
       <r>   -0.8247    1.0000 </r>
       <r>    2.2751    1.0000 </r>
       <r>    3.2307    1.0000 </r>
       <r>    6.8942    0.0000 </r>
       <r>    8.3140    0.0000 </r>
       <r>   13.7505    0.0000 </r>
       <r>   13.7738    0.0000 </r>
      </set>
      <set comment="kpoint 81">
       <r>   -3.5316    1.0000 </r>
       <r>   -0.1462    1.0000 </r>
       <r>    2.4535    1.0000 </r>
       <r>    3.1373    1.0000 </r>
       <r>    7.7506    0.0000 </r>
       <r>    8.7158    0.0000 </r>
       <r>   11.6965    0.0000 </r>
       <r>   13.7996    0.0000 </r>
      </set>
      <set comment="kpoint 82">
       <r>   -4.1610    1.0000 </r>
       <r>    0.5906    1.0000 </r>
       <r>    2.9848    1.0000 </r>
       <r>    3.6116    1.0000 </r>
       <r>    7.3111    0.0000 </r>
       <r>    9.0022    0.0000 </r>
       <r>   11.8885    0.0000 </r>
       <r>   12.2017    0.0000 </r>
      </set>
      <set comment="kpoint 83">
       <r>   -5.3341    1.0000 </r>
       <r>    1.9195    1.0000 </r>
       <r>    5.1016    1.0000 </r>
       <r>    5.1016    1.0000 </r>
       <r>    7.9201    0.0000 </r>
       <r>    9.4243    0.0000 </r>
       <r>    9.4243    0.0000 </r>
       <r>   12.7912    0.0000 </r>
      </set>
      <set comment="kpoint 84">
       <r>   -5.0031    1.0000 </r>
       <r>    1.3518    1.0000 </r>
       <r>    3.9175    1.0000 </r>
       <r>    5.1520    1.0000 </r>
       <r>    8.4587    0.0000 </r>
       <r>    9.4565    0.0000 </r>
       <r>    9.7050    0.0000 </r>
       <r>   12.3486    0.0000 </r>
      </set>
      <set comment="kpoint 85">
       <r>   -4.4398    1.0000 </r>
       <r>    0.7670    1.0000 </r>
       <r>    2.5343    1.0000 </r>
       <r>    4.7761    1.0000 </r>
       <r>    8.5984    0.0000 </r>
       <r>   10.2355    0.0000 </r>
       <r>   10.5117    0.0000 </r>
       <r>   11.9634    0.0000 </r>
      </set>
      <set comment="kpoint 86">
       <r>   -3.7101    1.0000 </r>
       <r>   -0.1368    1.0000 </r>
       <r>    1.8724    1.0000 </r>
       <r>    4.2794    1.0000 </r>
       <r>    8.0998    0.0000 </r>
       <r>   11.0894    0.0000 </r>
       <r>   11.3450    0.0000 </r>
       <r>   12.5774    0.0000 </r>
      </set>
      <set comment="kpoint 87">
       <r>   -3.1128    1.0000 </r>
       <r>   -0.9301    1.0000 </r>
       <r>    1.8987    1.0000 </r>
       <r>    3.8703    1.0000 </r>
       <r>    7.6561    0.0000 </r>
       <r>   11.4098    0.0000 </r>
       <r>   11.5194    0.0000 </r>
       <r>   12.4039    0.0000 </r>
      </set>
      <set comment="kpoint 88">
       <r>   -3.4119    1.0000 </r>
       <r>   -0.5467    1.0000 </r>
       <r>    2.3096    1.0000 </r>
       <r>    3.6382    1.0000 </r>
       <r>    7.4260    0.0000 </r>
       <r>   10.3809    0.0000 </r>
       <r>   11.6573    0.0000 </r>
       <r>   11.8834    0.0000 </r>
      </set>
      <set comment="kpoint 89">
       <r>   -4.7645    1.0000 </r>
       <r>    0.8035    1.0000 </r>
       <r>    4.3671    1.0000 </r>
       <r>    4.4267    1.0000 </r>
       <r>    8.2170    0.0000 </r>
       <r>    9.3003    0.0000 </r>
       <r>   10.1741    0.0000 </r>
       <r>   11.7360    0.0000 </r>
      </set>
      <set comment="kpoint 90">
       <r>   -4.2904    1.0000 </r>
       <r>    0.3360    1.0000 </r>
       <r>    3.0352    1.0000 </r>
       <r>    4.3140    1.0000 </r>
       <r>    8.6554    0.0000 </r>
       <r>    9.3763    0.0000 </r>
       <r>   10.9755    0.0000 </r>
       <r>   11.3290    0.0000 </r>
      </set>
      <set comment="kpoint 91">
       <r>   -3.6205    1.0000 </r>
       <r>   -0.1742    1.0000 </r>
       <r>    1.9309    1.0000 </r>
       <r>    3.8226    1.0000 </r>
       <r>    8.8372    0.0000 </r>
       <r>    9.8951    0.0000 </r>
       <r>   11.1179    0.0000 </r>
       <r>   12.5640    0.0000 </r>
      </set>
      <set comment="kpoint 92">
       <r>   -2.9013    1.0000 </r>
       <r>   -0.8848    1.0000 </r>
       <r>    1.5670    1.0000 </r>
       <r>    3.3536    1.0000 </r>
       <r>    8.3170    0.0000 </r>
       <r>   10.8544    0.0000 </r>
       <r>   11.9368    0.0000 </r>
       <r>   12.4329    0.0000 </r>
      </set>
      <set comment="kpoint 93">
       <r>   -2.8242    1.0000 </r>
       <r>   -0.9774    1.0000 </r>
       <r>    1.8390    1.0000 </r>
       <r>    3.0916    1.0000 </r>
       <r>    7.9722    0.0000 </r>
       <r>   10.2260    0.0000 </r>
       <r>   11.3186    0.0000 </r>
       <r>   13.7461    0.0000 </r>
      </set>
      <set comment="kpoint 94">
       <r>   -3.9138    1.0000 </r>
       <r>   -0.1249    1.0000 </r>
       <r>    2.9473    1.0000 </r>
       <r>    3.8464    1.0000 </r>
       <r>    7.7053    0.0000 </r>
       <r>   10.6791    0.0000 </r>
       <r>   10.7709    0.0000 </r>
       <r>   11.2387    0.0000 </r>
      </set>
      <set comment="kpoint 95">
       <r>   -3.3384    1.0000 </r>
       <r>   -0.5466    1.0000 </r>
       <r>    2.1877    1.0000 </r>
       <r>    3.3636    1.0000 </r>
       <r>    8.1530    0.0000 </r>
       <r>   10.3332    0.0000 </r>
       <r>   10.6838    0.0000 </r>
       <r>   12.8862    0.0000 </r>
      </set>
      <set comment="kpoint 96">
       <r>   -2.6309    1.0000 </r>
       <r>   -1.0674    1.0000 </r>
       <r>    1.7420    1.0000 </r>
       <r>    2.6674    1.0000 </r>
       <r>    9.5588    0.0000 </r>
       <r>    9.9376    0.0000 </r>
       <r>   10.6280    0.0000 </r>
       <r>   12.6379    0.0000 </r>
      </set>
      <set comment="kpoint 97">
       <r>   -2.1518    1.0000 </r>
       <r>   -1.5059    1.0000 </r>
       <r>    1.8062    1.0000 </r>
       <r>    2.2902    1.0000 </r>
       <r>    9.5119    0.0000 </r>
       <r>   10.2385    0.0000 </r>
       <r>   10.9324    0.0000 </r>
       <r>   11.7159    0.0000 </r>
      </set>
      <set comment="kpoint 98">
       <r>   -2.8979    1.0000 </r>
       <r>   -0.9637    1.0000 </r>
       <r>    1.8299    1.0000 </r>
       <r>    3.4964    1.0000 </r>
       <r>    7.2246    0.0000 </r>
       <r>   10.1683    0.0000 </r>
       <r>   12.5895    0.0000 </r>
       <r>   12.6019    0.0000 </r>
      </set>
      <set comment="kpoint 99">
       <r>   -2.3881    1.0000 </r>
       <r>   -1.3586    1.0000 </r>
       <r>    1.6387    1.0000 </r>
       <r>    2.9620    1.0000 </r>
       <r>    7.8799    0.0000 </r>
       <r>   10.1281    0.0000 </r>
       <r>   12.1041    0.0000 </r>
       <r>   13.0534    0.0000 </r>
      </set>
      <set comment="kpoint 100">
       <r>   -2.4745    1.0000 </r>
       <r>   -1.3233    1.0000 </r>
       <r>    1.5711    1.0000 </r>
       <r>    3.4246    1.0000 </r>
       <r>    7.1211    0.0000 </r>
       <r>   10.0640    0.0000 </r>
       <r>   13.2632    0.0000 </r>
       <r>   13.5657    0.0000 </r>
      </set>
      <set comment="kpoint 101">
       <r>   -4.6299    1.0000 </r>
       <r>    0.2493    1.0000 </r>
       <r>    4.8192    1.0000 </r>
       <r>    4.8192    1.0000 </r>
       <r>    7.5976    0.0000 </r>
       <r>    9.4252    0.0000 </r>
       <r>    9.4252    0.0000 </r>
       <r>   13.7723    0.0000 </r>
      </set>
      <set comment="kpoint 102">
       <r>   -4.2627    1.0000 </r>
       <r>   -0.1694    1.0000 </r>
       <r>    3.7502    1.0000 </r>
       <r>    4.7633    1.0000 </r>
       <r>    8.1832    0.0000 </r>
       <r>    9.5011    0.0000 </r>
       <r>    9.5901    0.0000 </r>
       <r>   13.5508    0.0000 </r>
      </set>
      <set comment="kpoint 103">
       <r>   -3.6929    1.0000 </r>
       <r>   -0.4585    1.0000 </r>
       <r>    2.3607    1.0000 </r>
       <r>    4.3217    1.0000 </r>
       <r>    8.1465    0.0000 </r>
       <r>   10.5267    0.0000 </r>
       <r>   10.6220    0.0000 </r>
       <r>   13.4480    0.0000 </r>
      </set>
      <set comment="kpoint 104">
       <r>   -2.9916    1.0000 </r>
       <r>   -0.8457    1.0000 </r>
       <r>    1.5027    1.0000 </r>
       <r>    3.8098    1.0000 </r>
       <r>    7.5679    0.0000 </r>
       <r>   12.0136    0.0000 </r>
       <r>   12.1067    0.0000 </r>
       <r>   12.6301    0.0000 </r>
      </set>
      <set comment="kpoint 105">
       <r>   -4.0183    1.0000 </r>
       <r>   -0.5766    1.0000 </r>
       <r>    4.0035    1.0000 </r>
       <r>    4.3663    1.0000 </r>
       <r>    8.0648    0.0000 </r>
       <r>    9.2387    0.0000 </r>
       <r>    9.9112    0.0000 </r>
       <r>   13.0832    0.0000 </r>
      </set>
      <set comment="kpoint 106">
       <r>   -3.5893    1.0000 </r>
       <r>   -0.7972    1.0000 </r>
       <r>    2.8999    1.0000 </r>
       <r>    4.0515    1.0000 </r>
       <r>    8.6719    0.0000 </r>
       <r>    9.0767    0.0000 </r>
       <r>   10.9770    0.0000 </r>
       <r>   12.8786    0.0000 </r>
      </set>
      <set comment="kpoint 107">
       <r>   -3.0249    1.0000 </r>
       <r>   -0.9407    1.0000 </r>
       <r>    1.8921    1.0000 </r>
       <r>    3.4643    1.0000 </r>
       <r>    8.4015    0.0000 </r>
       <r>   10.1636    0.0000 </r>
       <r>   12.4114    0.0000 </r>
       <r>   12.6856    0.0000 </r>
      </set>
      <set comment="kpoint 108">
       <r>   -3.3507    1.0000 </r>
       <r>   -0.9496    1.0000 </r>
       <r>    2.5317    1.0000 </r>
       <r>    3.9919    1.0000 </r>
       <r>    7.8282    0.0000 </r>
       <r>   10.5554    0.0000 </r>
       <r>   10.8991    0.0000 </r>
       <r>   12.5374    0.0000 </r>
      </set>
      <set comment="kpoint 109">
       <r>   -3.9336    1.0000 </r>
       <r>   -0.9409    1.0000 </r>
       <r>    4.6723    1.0000 </r>
       <r>    4.6723    1.0000 </r>
       <r>    7.4332    0.0000 </r>
       <r>    9.3051    0.0000 </r>
       <r>    9.3051    0.0000 </r>
       <r>   13.6380    0.0000 </r>
      </set>
      <set comment="kpoint 110">
       <r>   -3.6986    1.0000 </r>
       <r>   -1.0556    1.0000 </r>
       <r>    3.7867    1.0000 </r>
       <r>    4.4890    1.0000 </r>
       <r>    8.0478    0.0000 </r>
       <r>    9.2879    0.0000 </r>
       <r>    9.6953    0.0000 </r>
       <r>   14.0179    0.0000 </r>
      </set>
     </set>
    </set>
   </array>
  </eigenvalues>
  <separator name="orbital magnetization" >
   <v name="MAGDIPOLOUT">      0.00000000      0.00000000      0.00000000</v>
  </separator>
  <dos>
   <i name="efermi">      6.18501985 </i>
   <total>
    <array>
     <dimension dim="1">gridpoints</dimension>
     <dimension dim="2">spin</dimension>
     <field>energy</field>
     <field>total</field>
     <field>integrated</field>
     <set>
      <set comment="spin 1">
       <r>    -8.1022     0.0000     0.0000 </r>
       <r>    -8.0163     0.0000     0.0000 </r>
       <r>    -7.9304     0.0000     0.0000 </r>
       <r>    -7.8445     0.0000     0.0000 </r>
       <r>    -7.7586     0.0000     0.0000 </r>
       <r>    -7.6727     0.0000     0.0000 </r>
       <r>    -7.5868     0.0000     0.0000 </r>
       <r>    -7.5008     0.0000     0.0000 </r>
       <r>    -7.4149     0.0000     0.0000 </r>
       <r>    -7.3290     0.0000     0.0000 </r>
       <r>    -7.2431     0.0000     0.0000 </r>
       <r>    -7.1572     0.0000     0.0000 </r>
       <r>    -7.0713     0.0000     0.0000 </r>
       <r>    -6.9854     0.0000     0.0000 </r>
       <r>    -6.8995     0.0000     0.0000 </r>
       <r>    -6.8136     0.0000     0.0000 </r>
       <r>    -6.7277     0.0000     0.0000 </r>
       <r>    -6.6417     0.0000     0.0000 </r>
       <r>    -6.5558     0.0000     0.0000 </r>
       <r>    -6.4699     0.0003     0.0000 </r>
       <r>    -6.3840     0.0015     0.0002 </r>
       <r>    -6.2981     0.0060     0.0007 </r>
       <r>    -6.2122     0.0178     0.0022 </r>
       <r>    -6.1263     0.0411     0.0057 </r>
       <r>    -6.0404     0.0755     0.0122 </r>
       <r>    -5.9545     0.1153     0.0221 </r>
       <r>    -5.8686     0.1539     0.0353 </r>
       <r>    -5.7826     0.1871     0.0514 </r>
       <r>    -5.6967     0.2150     0.0699 </r>
       <r>    -5.6108     0.2413     0.0906 </r>
       <r>    -5.5249     0.2661     0.1135 </r>
       <r>    -5.4390     0.2858     0.1380 </r>
       <r>    -5.3531     0.3030     0.1641 </r>
       <r>    -5.2672     0.3244     0.1919 </r>
       <r>    -5.1813     0.3493     0.2219 </r>
       <r>    -5.0954     0.3701     0.2537 </r>
       <r>    -5.0094     0.3821     0.2866 </r>
       <r>    -4.9235     0.3914     0.3202 </r>
       <r>    -4.8376     0.4124     0.3556 </r>
       <r>    -4.7517     0.4466     0.3940 </r>
       <r>    -4.6658     0.4747     0.4348 </r>
       <r>    -4.5799     0.4827     0.4762 </r>
       <r>    -4.4940     0.4840     0.5178 </r>
       <r>    -4.4081     0.5016     0.5609 </r>
       <r>    -4.3222     0.5385     0.6072 </r>
       <r>    -4.2363     0.5789     0.6569 </r>
       <r>    -4.1503     0.6142     0.7097 </r>
       <r>    -4.0644     0.6466     0.7652 </r>
       <r>    -3.9785     0.6741     0.8231 </r>
       <r>    -3.8926     0.6992     0.8832 </r>
       <r>    -3.8067     0.7398     0.9468 </r>
       <r>    -3.7208     0.8025     1.0157 </r>
       <r>    -3.6349     0.8549     1.0891 </r>
       <r>    -3.5490     0.8578     1.1628 </r>
       <r>    -3.4631     0.8211     1.2334 </r>
       <r>    -3.3772     0.7796     1.3004 </r>
       <r>    -3.2912     0.7317     1.3632 </r>
       <r>    -3.2053     0.6689     1.4207 </r>
       <r>    -3.1194     0.6290     1.4747 </r>
       <r>    -3.0335     0.6478     1.5304 </r>
       <r>    -2.9476     0.6932     1.5899 </r>
       <r>    -2.8617     0.6939     1.6495 </r>
       <r>    -2.7758     0.6186     1.7027 </r>
       <r>    -2.6899     0.5019     1.7458 </r>
       <r>    -2.6040     0.4042     1.7805 </r>
       <r>    -2.5180     0.3683     1.8122 </r>
       <r>    -2.4321     0.3974     1.8463 </r>
       <r>    -2.3462     0.4488     1.8849 </r>
       <r>    -2.2603     0.4571     1.9241 </r>
       <r>    -2.1744     0.3885     1.9575 </r>
       <r>    -2.0885     0.2665     1.9804 </r>
       <r>    -2.0026     0.1450     1.9929 </r>
       <r>    -1.9167     0.0654     1.9985 </r>
       <r>    -1.8308     0.0435     2.0022 </r>
       <r>    -1.7449     0.0868     2.0097 </r>
       <r>    -1.6589     0.1981     2.0267 </r>
       <r>    -1.5730     0.3426     2.0561 </r>
       <r>    -1.4871     0.4414     2.0940 </r>
       <r>    -1.4012     0.4458     2.1323 </r>
       <r>    -1.3153     0.4031     2.1670 </r>
       <r>    -1.2294     0.4164     2.2027 </r>
       <r>    -1.1435     0.5610     2.2509 </r>
       <r>    -1.0576     0.8321     2.3224 </r>
       <r>    -0.9717     1.1294     2.4195 </r>
       <r>    -0.8858     1.3034     2.5314 </r>
       <r>    -0.7998     1.2677     2.6403 </r>
       <r>    -0.7139     1.0777     2.7329 </r>
       <r>    -0.6280     0.8764     2.8082 </r>
       <r>    -0.5421     0.7467     2.8724 </r>
       <r>    -0.4562     0.6592     2.9290 </r>
       <r>    -0.3703     0.5819     2.9790 </r>
       <r>    -0.2844     0.5514     3.0264 </r>
       <r>    -0.1985     0.5879     3.0769 </r>
       <r>    -0.1126     0.6218     3.1303 </r>
       <r>    -0.0266     0.5743     3.1796 </r>
       <r>     0.0593     0.4724     3.2202 </r>
       <r>     0.1452     0.4118     3.2556 </r>
       <r>     0.2311     0.4236     3.2920 </r>
       <r>     0.3170     0.4404     3.3298 </r>
       <r>     0.4029     0.3974     3.3639 </r>
       <r>     0.4888     0.3181     3.3913 </r>
       <r>     0.5747     0.2759     3.4150 </r>
       <r>     0.6606     0.3076     3.4414 </r>
       <r>     0.7465     0.3778     3.4739 </r>
       <r>     0.8325     0.4060     3.5087 </r>
       <r>     0.9184     0.3471     3.5386 </r>
       <r>     1.0043     0.2477     3.5598 </r>
       <r>     1.0902     0.1926     3.5764 </r>
       <r>     1.1761     0.2154     3.5949 </r>
       <r>     1.2620     0.2852     3.6194 </r>
       <r>     1.3479     0.3591     3.6502 </r>
       <r>     1.4338     0.4321     3.6874 </r>
       <r>     1.5197     0.5311     3.7330 </r>
       <r>     1.6056     0.6744     3.7909 </r>
       <r>     1.6916     0.8592     3.8647 </r>
       <r>     1.7775     1.0540     3.9553 </r>
       <r>     1.8634     1.1798     4.0566 </r>
       <r>     1.9493     1.1661     4.1568 </r>
       <r>     2.0352     1.0486     4.2469 </r>
       <r>     2.1211     0.9502     4.3285 </r>
       <r>     2.2070     0.9557     4.4106 </r>
       <r>     2.2929     1.0359     4.4996 </r>
       <r>     2.3788     1.0989     4.5940 </r>
       <r>     2.4648     1.1046     4.6889 </r>
       <r>     2.5507     1.0932     4.7828 </r>
       <r>     2.6366     1.1024     4.8776 </r>
       <r>     2.7225     1.1243     4.9741 </r>
       <r>     2.8084     1.1640     5.0741 </r>
       <r>     2.8943     1.2599     5.1824 </r>
       <r>     2.9802     1.4005     5.3027 </r>
       <r>     3.0661     1.4924     5.4309 </r>
       <r>     3.1520     1.4719     5.5574 </r>
       <r>     3.2379     1.4015     5.6778 </r>
       <r>     3.3239     1.3912     5.7973 </r>
       <r>     3.4098     1.4433     5.9213 </r>
       <r>     3.4957     1.4572     6.0465 </r>
       <r>     3.5816     1.3929     6.1661 </r>
       <r>     3.6675     1.3239     6.2799 </r>
       <r>     3.7534     1.3158     6.3929 </r>
       <r>     3.8393     1.3420     6.5082 </r>
       <r>     3.9252     1.3338     6.6228 </r>
       <r>     4.0111     1.2648     6.7315 </r>
       <r>     4.0970     1.1786     6.8327 </r>
       <r>     4.1830     1.1470     6.9312 </r>
       <r>     4.2689     1.1971     7.0341 </r>
       <r>     4.3548     1.2617     7.1425 </r>
       <r>     4.4407     1.2360     7.2487 </r>
       <r>     4.5266     1.1099     7.3440 </r>
       <r>     4.6125     0.9796     7.4282 </r>
       <r>     4.6984     0.9135     7.5066 </r>
       <r>     4.7843     0.8748     7.5818 </r>
       <r>     4.8702     0.7955     7.6501 </r>
       <r>     4.9562     0.6754     7.7082 </r>
       <r>     5.0421     0.5687     7.7570 </r>
       <r>     5.1280     0.5005     7.8000 </r>
       <r>     5.2139     0.4478     7.8385 </r>
       <r>     5.2998     0.3895     7.8720 </r>
       <r>     5.3857     0.3347     7.9007 </r>
       <r>     5.4716     0.2957     7.9261 </r>
       <r>     5.5575     0.2610     7.9485 </r>
       <r>     5.6434     0.2143     7.9669 </r>
       <r>     5.7293     0.1593     7.9806 </r>
       <r>     5.8153     0.1082     7.9899 </r>
       <r>     5.9012     0.0657     7.9956 </r>
       <r>     5.9871     0.0334     7.9984 </r>
       <r>     6.0730     0.0134     7.9996 </r>
       <r>     6.1589     0.0043     7.9999 </r>
       <r>     6.2448     0.0027     8.0002 </r>
       <r>     6.3307     0.0084     8.0009 </r>
       <r>     6.4166     0.0268     8.0032 </r>
       <r>     6.5025     0.0630     8.0086 </r>
       <r>     6.5884     0.1128     8.0183 </r>
       <r>     6.6744     0.1669     8.0326 </r>
       <r>     6.7603     0.2276     8.0522 </r>
       <r>     6.8462     0.3021     8.0781 </r>
       <r>     6.9321     0.3802     8.1108 </r>
       <r>     7.0180     0.4417     8.1487 </r>
       <r>     7.1039     0.4803     8.1900 </r>
       <r>     7.1898     0.5017     8.2331 </r>
       <r>     7.2757     0.5170     8.2775 </r>
       <r>     7.3616     0.5532     8.3251 </r>
       <r>     7.4476     0.6411     8.3801 </r>
       <r>     7.5335     0.7755     8.4467 </r>
       <r>     7.6194     0.9024     8.5243 </r>
       <r>     7.7053     0.9629     8.6070 </r>
       <r>     7.7912     0.9674     8.6901 </r>
       <r>     7.8771     1.0045     8.7764 </r>
       <r>     7.9630     1.1373     8.8741 </r>
       <r>     8.0489     1.3162     8.9872 </r>
       <r>     8.1348     1.4441     9.1112 </r>
       <r>     8.2207     1.4914     9.2394 </r>
       <r>     8.3067     1.4972     9.3680 </r>
       <r>     8.3926     1.4917     9.4961 </r>
       <r>     8.4785     1.4619     9.6217 </r>
       <r>     8.5644     1.3854     9.7408 </r>
       <r>     8.6503     1.2710     9.8499 </r>
       <r>     8.7362     1.1592     9.9495 </r>
       <r>     8.8221     1.0927    10.0434 </r>
       <r>     8.9080     1.0944    10.1374 </r>
       <r>     8.9939     1.1755    10.2384 </r>
       <r>     9.0798     1.3415    10.3537 </r>
       <r>     9.1658     1.5644    10.4881 </r>
       <r>     9.2517     1.7725    10.6403 </r>
       <r>     9.3376     1.8955    10.8032 </r>
       <r>     9.4235     1.9112    10.9674 </r>
       <r>     9.5094     1.8416    11.1256 </r>
       <r>     9.5953     1.7193    11.2733 </r>
       <r>     9.6812     1.5807    11.4091 </r>
       <r>     9.7671     1.4669    11.5351 </r>
       <r>     9.8530     1.3931    11.6548 </r>
       <r>     9.9390     1.3381    11.7697 </r>
       <r>    10.0249     1.2982    11.8813 </r>
       <r>    10.1108     1.2994    11.9929 </r>
       <r>    10.1967     1.3252    12.1067 </r>
       <r>    10.2826     1.3139    12.2196 </r>
       <r>    10.3685     1.2563    12.3275 </r>
       <r>    10.4544     1.2105    12.4315 </r>
       <r>    10.5403     1.2038    12.5350 </r>
       <r>    10.6262     1.1982    12.6379 </r>
       <r>    10.7121     1.1738    12.7387 </r>
       <r>    10.7981     1.1752    12.8397 </r>
       <r>    10.8840     1.2405    12.9463 </r>
       <r>    10.9699     1.3321    13.0607 </r>
       <r>    11.0558     1.3694    13.1784 </r>
       <r>    11.1417     1.3140    13.2912 </r>
       <r>    11.2276     1.1975    13.3941 </r>
       <r>    11.3135     1.0743    13.4864 </r>
       <r>    11.3994     0.9819    13.5708 </r>
       <r>    11.4853     0.9477    13.6522 </r>
       <r>    11.5712     0.9923    13.7374 </r>
       <r>    11.6572     1.0985    13.8318 </r>
       <r>    11.7431     1.1975    13.9347 </r>
       <r>    11.8290     1.2333    14.0406 </r>
       <r>    11.9149     1.2126    14.1448 </r>
       <r>    12.0008     1.1541    14.2439 </r>
       <r>    12.0867     1.0435    14.3336 </r>
       <r>    12.1726     0.8795    14.4091 </r>
       <r>    12.2585     0.7249    14.4714 </r>
       <r>    12.3444     0.6673    14.5288 </r>
       <r>    12.4304     0.7340    14.5918 </r>
       <r>    12.5163     0.8726    14.6668 </r>
       <r>    12.6022     1.0055    14.7532 </r>
       <r>    12.6881     1.0828    14.8462 </r>
       <r>    12.7740     1.0951    14.9403 </r>
       <r>    12.8599     1.0473    15.0302 </r>
       <r>    12.9458     0.9330    15.1104 </r>
       <r>    13.0317     0.7680    15.1764 </r>
       <r>    13.1176     0.6116    15.2289 </r>
       <r>    13.2035     0.5077    15.2725 </r>
       <r>    13.2895     0.4477    15.3110 </r>
       <r>    13.3754     0.4115    15.3463 </r>
       <r>    13.4613     0.4080    15.3814 </r>
       <r>    13.5472     0.4719    15.4219 </r>
       <r>    13.6331     0.6239    15.4755 </r>
       <r>    13.7190     0.8092    15.5451 </r>
       <r>    13.8049     0.8937    15.6218 </r>
       <r>    13.8908     0.7838    15.6892 </r>
       <r>    13.9767     0.5434    15.7359 </r>
       <r>    14.0626     0.3254    15.7638 </r>
       <r>    14.1486     0.2159    15.7824 </r>
       <r>    14.2345     0.1898    15.7987 </r>
       <r>    14.3204     0.1813    15.8142 </r>
       <r>    14.4063     0.1612    15.8281 </r>
       <r>    14.4922     0.1527    15.8412 </r>
       <r>    14.5781     0.1862    15.8572 </r>
       <r>    14.6640     0.2508    15.8787 </r>
       <r>    14.7499     0.2925    15.9039 </r>
       <r>    14.8358     0.2634    15.9265 </r>
       <r>    14.9218     0.1754    15.9416 </r>
       <r>    15.0077     0.0855    15.9489 </r>
       <r>    15.0936     0.0347    15.9519 </r>
       <r>    15.1795     0.0252    15.9541 </r>
       <r>    15.2654     0.0418    15.9576 </r>
       <r>    15.3513     0.0657    15.9633 </r>
       <r>    15.4372     0.0806    15.9702 </r>
       <r>    15.5231     0.0840    15.9774 </r>
       <r>    15.6090     0.0826    15.9845 </r>
       <r>    15.6949     0.0751    15.9910 </r>
       <r>    15.7809     0.0561    15.9958 </r>
       <r>    15.8668     0.0315    15.9985 </r>
       <r>    15.9527     0.0128    15.9996 </r>
       <r>    16.0386     0.0037    15.9999 </r>
       <r>    16.1245     0.0007    16.0000 </r>
       <r>    16.2104     0.0001    16.0000 </r>
       <r>    16.2963     0.0000    16.0000 </r>
       <r>    16.3822     0.0000    16.0000 </r>
       <r>    16.4681     0.0000    16.0000 </r>
       <r>    16.5540     0.0000    16.0000 </r>
       <r>    16.6400     0.0000    16.0000 </r>
       <r>    16.7259     0.0000    16.0000 </r>
       <r>    16.8118     0.0000    16.0000 </r>
       <r>    16.8977     0.0000    16.0000 </r>
       <r>    16.9836     0.0000    16.0000 </r>
       <r>    17.0695     0.0000    16.0000 </r>
       <r>    17.1554     0.0000    16.0000 </r>
       <r>    17.2413     0.0000    16.0000 </r>
       <r>    17.3272     0.0000    16.0000 </r>
       <r>    17.4132     0.0000    16.0000 </r>
       <r>    17.4991     0.0000    16.0000 </r>
       <r>    17.5850     0.0000    16.0000 </r>
       <r>    17.6709     0.0000    16.0000 </r>
      </set>
     </set>
    </array>
   </total>
  </dos>
 </calculation>
 <structure name="finalpos" >
  <crystal>
   <varray name="basis" >
    <v>       0.00000000       2.71500000       2.71500000 </v>
    <v>       2.71500000       0.00000000       2.71500000 </v>
    <v>       2.71500000       2.71500000       0.00000000 </v>
   </varray>
   <i name="volume">     40.02575175 </i>
   <varray name="rec_basis" >
    <v>      -0.18416206       0.18416206       0.18416206 </v>
    <v>       0.18416206      -0.18416206       0.18416206 </v>
    <v>       0.18416206       0.18416206      -0.18416206 </v>
   </varray>
  </crystal>
  <varray name="positions" >
   <v>       0.50000000       0.50000000       0.50000000 </v>
   <v>       0.75000000       0.75000000       0.75000000 </v>
  </varray>
 </structure>
</modeling>
