unknown system                          
   1.00000000000000     
    -0.000000    2.732983    2.732983
     2.732983    0.000000    2.732983
     2.732983    2.732983   -0.000000
   Si
     2
Direct
  0.500000  0.500000  0.500000
  0.750000  0.750000  0.750000
 
   32   32   32
 0.85218504393E+00 0.87348108806E+00 0.93859714859E+00 0.10511979239E+01 0.12173254534E+01
 0.14451622703E+01 0.17443062205E+01 0.21241239078E+01 0.25908554012E+01 0.31435522366E+01
 0.37695872506E+01 0.44411407419E+01 0.51143666551E+01 0.57325791436E+01 0.62337649307E+01
 0.65612881636E+01 0.66752597084E+01 0.65612867249E+01 0.62337635546E+01 0.57325775888E+01
 0.51143628191E+01 0.44411342810E+01 0.37695805784E+01 0.31435473150E+01 0.25908519991E+01
 0.21241215817E+01 0.17443055667E+01 0.14451634126E+01 0.12173273312E+01 0.10511997799E+01
 0.93859902720E+00 0.87348252885E+00 0.87348108806E+00 0.91023409293E+00 0.98573916971E+00
 0.11038563477E+01 0.12700369024E+01 0.14908830572E+01 0.17733100711E+01 0.21229674576E+01
 0.25416804345E+01 0.30240749359E+01 0.35541737648E+01 0.41033121221E+01 0.46308155861E+01
 0.50882759649E+01 0.54270904175E+01 0.56076439696E+01 0.56076453346E+01 0.54270916013E+01
 0.50882703887E+01 0.46307997776E+01 0.41032929568E+01 0.35541659423E+01 0.30240864741E+01
 0.25417016070E+01 0.21229791521E+01 0.17733039871E+01 0.14908692663E+01 0.12700298537E+01
 0.11038583707E+01 0.98574199288E+00 0.91023282930E+00 0.87347949694E+00 0.93859714859E+00
 0.98573916971E+00 0.10669451864E+01 0.11858948163E+01 0.13472231481E+01 0.15559761687E+01
 0.18167014969E+01 0.21319352203E+01 0.24999727453E+01 0.29121966133E+01 0.33507744740E+01
 0.37879149888E+01 0.41877236594E+01 0.45109433923E+01 0.47217795117E+01 0.47950794270E+01
 0.47217812536E+01 0.45109457685E+01 0.41877253819E+01 0.37879153407E+01 0.33507733859E+01
 0.29121945294E+01 0.24999704682E+01 0.21319334960E+01 0.18167006220E+01 0.15559761000E+01
 0.13472237440E+01 0.11858956559E+01 0.10669455079E+01 0.98573860556E+00 0.93859636972E+00
 0.92315481128E+00 0.10511979239E+01 0.11038563477E+01 0.11858948163E+01 0.13006518525E+01
 0.14519866351E+01 0.16436411610E+01 0.18782481055E+01 0.21558741580E+01 0.24721374465E+01
 0.28162745822E+01 0.31699219667E+01 0.35075224871E+01 0.37989357620E+01 0.40140677583E+01
 0.41284886523E+01 0.41284889915E+01 0.40140686202E+01 0.37989386917E+01 0.35075310266E+01
 0.31699350056E+01 0.28162817653E+01 0.24721277345E+01 0.21558501142E+01 0.18782266226E+01
 0.16436370999E+01 0.14519985578E+01 0.13006662646E+01 0.11859014467E+01 0.11038555446E+01
 0.10511951886E+01 0.10254993332E+01 0.10255004908E+01 0.12173254534E+01 0.12700369024E+01
 0.13472231481E+01 0.14519866351E+01 0.15876506579E+01 0.17569941492E+01 0.19611795201E+01
 0.21983939502E+01 0.24623749515E+01 0.27412454376E+01 0.30172855383E+01 0.32682040522E+01
 0.34700475734E+01 0.36012474825E+01 0.36467773394E+01 0.36012477267E+01 0.34700473634E+01
 0.32682027759E+01 0.30172831786E+01 0.27412423511E+01 0.24623716125E+01 0.21983911086E+01
 0.19611781507E+01 0.17569947006E+01 0.15876523842E+01 0.14519880661E+01 0.13472233545E+01
 0.12700361318E+01 0.12173245431E+01 0.11866841541E+01 0.11766355139E+01 0.11866846589E+01
 0.14451622703E+01 0.14908830572E+01 0.15559761687E+01 0.16436411610E+01 0.17569941492E+01
 0.18981684681E+01 0.20672275897E+01 0.22610085967E+01 0.24721379786E+01 0.26886148833E+01
 0.28943869579E+01 0.30711306175E+01 0.32010267123E+01 0.32698996735E+01 0.32698991451E+01
 0.32010261674E+01 0.30711302850E+01 0.28943832442E+01 0.26886046477E+01 0.24721258297E+01
 0.22610058467E+01 0.20672410901E+01 0.18981914634E+01 0.17570105595E+01 0.16436398365E+01
 0.15559606058E+01 0.14908670136E+01 0.14451563328E+01 0.14161661121E+01 0.14021030052E+01
 0.14021003680E+01 0.14161632529E+01 0.17443062205E+01 0.17733100711E+01 0.18167014969E+01
 0.18782481055E+01 0.19611795201E+01 0.20672275897E+01 0.21956649609E+01 0.23424873545E+01
 0.24999727371E+01 0.26569167789E+01 0.27997482924E+01 0.29144403096E+01 0.29887997757E+01
 0.30145603501E+01 0.29888014221E+01 0.29144431119E+01 0.27997513239E+01 0.26569192265E+01
 0.24999744973E+01 0.23424887681E+01 0.21956660617E+01 0.20672280570E+01 0.19611792561E+01
 0.18782473078E+01 0.18167001861E+01 0.17733081145E+01 0.17443038898E+01 0.17262104139E+01
 0.17163958230E+01 0.17132943997E+01 0.17163968952E+01 0.17262124001E+01 0.21241239078E+01
 0.21229674576E+01 0.21319352203E+01 0.21558741580E+01 0.21983939502E+01 0.22610085967E+01
 0.23424873545E+01 0.24384946145E+01 0.25416798873E+01 0.26423964851E+01 0.27300542850E+01
 0.27948208932E+01 0.28292125979E+01 0.28292151463E+01 0.27948264722E+01 0.27300593135E+01
 0.26424004780E+01 0.25416858774E+01 0.24385036345E+01 0.23424932188E+01 0.22610013291E+01
 0.21983712041E+01 0.21558481329E+01 0.21319239737E+01 0.21229771351E+01 0.21241421301E+01
 0.21303100221E+01 0.21370488246E+01 0.21412179089E+01 0.21412209235E+01 0.21370507541E+01
 0.21303002527E+01 0.25908554012E+01 0.25416804345E+01 0.24999727453E+01 0.24721374465E+01
 0.24623749515E+01 0.24721379786E+01 0.24999727371E+01 0.25416798873E+01 0.25908553897E+01
 0.26398798485E+01 0.26812207551E+01 0.27086871773E+01 0.27182975066E+01 0.27086892198E+01
 0.26812229920E+01 0.26398812304E+01 0.25908559911E+01 0.25416787222E+01 0.24999679796E+01
 0.24721298555E+01 0.24623661854E+01 0.24721303876E+01 0.24999679715E+01 0.25416781751E+01
 0.25908559796E+01 0.26398817564E+01 0.26812229839E+01 0.27086886788E+01 0.27182975066E+01
 0.27086877183E+01 0.26812207632E+01 0.26398793225E+01 0.31435522366E+01 0.30240749359E+01
 0.29121966133E+01 0.28162745822E+01 0.27412454376E+01 0.26886148833E+01 0.26569167789E+01
 0.26423964851E+01 0.26398798485E+01 0.26438217874E+01 0.26493475797E+01 0.26529886516E+01
 0.26529887093E+01 0.26493463249E+01 0.26438186762E+01 0.26398776569E+01 0.26423949311E+01
 0.26569095192E+01 0.26886000036E+01 0.27412341915E+01 0.28162803828E+01 0.29122165287E+01
 0.30240906186E+01 0.31435505034E+01 0.32596229933E+01 0.33602835161E+01 0.34344416374E+01
 0.34737400341E+01 0.34737403302E+01 0.34344460737E+01 0.33602959599E+01 0.32596370629E+01
 0.37695872506E+01 0.35541737648E+01 0.33507744740E+01 0.31699219667E+01 0.30172855383E+01
 0.28943869579E+01 0.27997482924E+01 0.27300542850E+01 0.26812207551E+01 0.26493475797E+01
 0.26314236491E+01 0.26256449192E+01 0.26314234280E+01 0.26493454285E+01 0.26812175143E+01
 0.27300526417E+01 0.27997479528E+01 0.28943855267E+01 0.30172838984E+01 0.31699234632E+01
 0.33507788747E+01 0.35541774006E+01 0.37695891654E+01 0.39819399877E+01 0.41732911629E+01
 0.43255930328E+01 0.44236599049E+01 0.44575039826E+01 0.44236598328E+01 0.43255908956E+01
 0.41732875029E+01 0.39819373641E+01 0.44411407419E+01 0.41033121221E+01 0.37879149888E+01
 0.35075224871E+01 0.32682040522E+01 0.30711306175E+01 0.29144403096E+01 0.27948208932E+01
 0.27086871773E+01 0.26529886516E+01 0.26256449192E+01 0.26256438463E+01 0.26529863805E+01
 0.27086853347E+01 0.27948196351E+01 0.29144388435E+01 0.30711308023E+01 0.32682102640E+01
 0.35075338883E+01 0.37879210973E+01 0.41033035560E+01 0.44411239800E+01 0.47818732687E+01
 0.51005433512E+01 0.53700152857E+01 0.55654207418E+01 0.56680780382E+01 0.56680725421E+01
 0.55654043528E+01 0.53699938469E+01 0.51005313282E+01 0.47818801057E+01 0.51143666551E+01
 0.46308155861E+01 0.41877236594E+01 0.37989357620E+01 0.34700475734E+01 0.32010267123E+01
 0.29887997757E+01 0.28292125979E+01 0.27182975066E+01 0.26529887093E+01 0.26314234280E+01
 0.26529863805E+01 0.27182928981E+01 0.28292070093E+01 0.29887951888E+01 0.32010241287E+01
 0.34700474407E+01 0.37989391965E+01 0.41877309654E+01 0.46308241714E+01 0.51143728912E+01
 0.56147741048E+01 0.60994726580E+01 0.65305819157E+01 0.68705608503E+01 0.70881792112E+01
 0.71630647211E+01 0.70881825828E+01 0.68705644172E+01 0.65305834507E+01 0.60994721849E+01
 0.56147712947E+01 0.57325791436E+01 0.50882759649E+01 0.45109433923E+01 0.40140677583E+01
 0.36012474825E+01 0.32698996735E+01 0.30145603501E+01 0.28292151463E+01 0.27086892198E+01
 0.26493463249E+01 0.26493454285E+01 0.27086853347E+01 0.28292070093E+01 0.30145503817E+01
 0.32698932526E+01 0.36012472868E+01 0.40140707795E+01 0.45109463999E+01 0.50882826004E+01
 0.57325965754E+01 0.64176663505E+01 0.71041498222E+01 0.77427504322E+01 0.82807009077E+01
 0.86698593009E+01 0.88740604810E+01 0.88740744188E+01 0.86698907249E+01 0.82807265738E+01
 0.77427523800E+01 0.71041291404E+01 0.64176397131E+01 0.62337649307E+01 0.54270904175E+01
 0.47217795117E+01 0.41284886523E+01 0.36467773394E+01 0.32698991451E+01 0.29888014221E+01
 0.27948264722E+01 0.26812229920E+01 0.26438186762E+01 0.26812175143E+01 0.27948196351E+01
 0.29887951888E+01 0.32698932526E+01 0.36467748678E+01 0.41284945032E+01 0.47217929859E+01
 0.54271056768E+01 0.62337787092E+01 0.71157660058E+01 0.80295704585E+01 0.89159796621E+01
 0.97061472388E+01 0.10331068497E+02 0.10732173900E+02 0.10870430364E+02 0.10732174974E+02
 0.10331072408E+02 0.97061513120E+01 0.89159778674E+01 0.80295613732E+01 0.71157534826E+01
 0.65612881636E+01 0.56076439696E+01 0.47950794270E+01 0.41284889915E+01 0.36012477267E+01
 0.32010261674E+01 0.29144431119E+01 0.27300593135E+01 0.26398812304E+01 0.26398776569E+01
 0.27300526417E+01 0.29144388435E+01 0.32010241287E+01 0.36012472868E+01 0.41284945032E+01
 0.47950941788E+01 0.56076642579E+01 0.65613073255E+01 0.76338975505E+01 0.87821737209E+01
 0.99412731730E+01 0.11028795129E+02 0.11953641432E+02 0.12628728992E+02 0.12985272893E+02
 0.12985257376E+02 0.12628701037E+02 0.11953631641E+02 0.11028808067E+02 0.99412885463E+01
 0.87821753304E+01 0.76338855369E+01 0.66752597084E+01 0.56076453346E+01 0.47217812536E+01
 0.40140686202E+01 0.34700473634E+01 0.30711302850E+01 0.27997513239E+01 0.26424004780E+01
 0.25908559911E+01 0.26423949311E+01 0.27997479528E+01 0.30711308023E+01 0.34700474407E+01
 0.40140707795E+01 0.47217929859E+01 0.56076642579E+01 0.66752749258E+01 0.79103903461E+01
 0.92753465701E+01 0.10706166616E+02 0.12113392499E+02 0.13387709924E+02 0.14411650245E+02
 0.15077371753E+02 0.15308187488E+02 0.15077372211E+02 0.14411656996E+02 0.13387720458E+02
 0.12113396718E+02 0.10706162290E+02 0.92753400096E+01 0.79103820865E+01 0.65612867249E+01
 0.54270916013E+01 0.45109457685E+01 0.37989386917E+01 0.32682027759E+01 0.28943832442E+01
 0.26569192265E+01 0.25416858774E+01 0.25416787222E+01 0.26569095192E+01 0.28943855267E+01
 0.32682102640E+01 0.37989391965E+01 0.45109463999E+01 0.54271056768E+01 0.65613073255E+01
 0.79103903461E+01 0.94472250827E+01 0.11115905855E+02 0.12829230324E+02 0.14469249849E+02
 0.15892397333E+02 0.16941414963E+02 0.17496151243E+02 0.17496163196E+02 0.16941439046E+02
 0.15892410045E+02 0.14469240925E+02 0.12829213648E+02 0.11115899522E+02 0.94472257284E+01
 0.79103808487E+01 0.62337635546E+01 0.50882703887E+01 0.41877253819E+01 0.35075310266E+01
 0.30172831786E+01 0.26886046477E+01 0.24999744973E+01 0.24385036345E+01 0.24999679796E+01
 0.26886000036E+01 0.30172838984E+01 0.35075338883E+01 0.41877309654E+01 0.50882826004E+01
 0.62337787092E+01 0.76338975505E+01 0.92753465701E+01 0.11115905855E+02 0.13079749438E+02
 0.15053149342E+02 0.16874974116E+02 0.18342777595E+02 0.19291659126E+02 0.19619453357E+02
 0.19291650287E+02 0.18342768012E+02 0.16874966815E+02 0.15053140807E+02 0.13079740514E+02
 0.11115901314E+02 0.92753437863E+01 0.76338884110E+01 0.57325775888E+01 0.46307997776E+01
 0.37879153407E+01 0.31699350056E+01 0.27412423511E+01 0.24721258297E+01 0.23424887681E+01
 0.23424932188E+01 0.24721298555E+01 0.27412341915E+01 0.31699234632E+01 0.37879210973E+01
 0.46308241714E+01 0.57325965754E+01 0.71157660058E+01 0.87821737209E+01 0.10706166616E+02
 0.12829230324E+02 0.15053149342E+02 0.17219149136E+02 0.19095032087E+02 0.20471663374E+02
 0.21199236531E+02 0.21199219527E+02 0.20471632392E+02 0.19095017224E+02 0.17219148985E+02
 0.15053142486E+02 0.12829215431E+02 0.10706163022E+02 0.87821847653E+01 0.71157691849E+01
 0.51143628191E+01 0.41032929568E+01 0.33507733859E+01 0.28162817653E+01 0.24623716125E+01
 0.22610058467E+01 0.21956660617E+01 0.22610013291E+01 0.24623661854E+01 0.28162803828E+01
 0.33507788747E+01 0.41033035560E+01 0.51143728912E+01 0.64176663505E+01 0.80295704585E+01
 0.99412731730E+01 0.12113392499E+02 0.14469249849E+02 0.16874974116E+02 0.19095032087E+02
 0.20883265922E+02 0.22042767704E+02 0.22444393593E+02 0.22042753511E+02 0.20883245044E+02
 0.19095014418E+02 0.16874966215E+02 0.14469252572E+02 0.12113401996E+02 0.99412832006E+01
 0.80295750278E+01 0.64176625854E+01 0.44411342810E+01 0.35541659423E+01 0.29121945294E+01
 0.24721277345E+01 0.21983911086E+01 0.20672410901E+01 0.20672280570E+01 0.21983712041E+01
 0.24721303876E+01 0.29122165287E+01 0.35541774006E+01 0.44411239800E+01 0.56147741048E+01
 0.71041498222E+01 0.89159796621E+01 0.11028795129E+02 0.13387709924E+02 0.15892397333E+02
 0.18342777595E+02 0.20471663374E+02 0.22042767704E+02 0.22877368901E+02 0.22877366438E+02
 0.22042751001E+02 0.20471628447E+02 0.18342751310E+02 0.15892408882E+02 0.13387746968E+02
 0.11028817539E+02 0.89159740925E+01 0.71041421784E+01 0.56147838288E+01 0.37695805784E+01
 0.30240864741E+01 0.24999704682E+01 0.21558501142E+01 0.19611781507E+01 0.18981914634E+01
 0.19611792561E+01 0.21558481329E+01 0.24999679715E+01 0.30240906186E+01 0.37695891654E+01
 0.47818732687E+01 0.60994726580E+01 0.77427504322E+01 0.97061472388E+01 0.11953641432E+02
 0.14411650245E+02 0.16941414963E+02 0.19291659126E+02 0.21199236531E+02 0.22444393593E+02
 0.22877366438E+02 0.22444383816E+02 0.21199217058E+02 0.19291639176E+02 0.16941408393E+02
 0.14411659862E+02 0.11953658075E+02 0.97061637970E+01 0.77427654462E+01 0.60994818244E+01
 0.47818712633E+01 0.31435473150E+01 0.25417016070E+01 0.21319334960E+01 0.18782266226E+01
 0.17569947006E+01 0.17570105595E+01 0.18782473078E+01 0.21319239737E+01 0.25416781751E+01
 0.31435505034E+01 0.39819399877E+01 0.51005433512E+01 0.65305819157E+01 0.82807009077E+01
 0.10331068497E+02 0.12628728992E+02 0.15077371753E+02 0.17496151243E+02 0.19619453357E+02
 0.21199219527E+02 0.22042753511E+02 0.22042751001E+02 0.21199217058E+02 0.19619456186E+02
 0.17496151802E+02 0.15077359472E+02 0.12628714078E+02 0.10331078284E+02 0.82807404838E+01
 0.65306155830E+01 0.51005378782E+01 0.39819135022E+01 0.25908519991E+01 0.21229791521E+01
 0.18167006220E+01 0.16436370999E+01 0.15876523842E+01 0.16436398365E+01 0.18167001861E+01
 0.21229771351E+01 0.25908559796E+01 0.32596229933E+01 0.41732911629E+01 0.53700152857E+01
 0.68705608503E+01 0.86698593009E+01 0.10732173900E+02 0.12985272893E+02 0.15308187488E+02
 0.17496163196E+02 0.19291650287E+02 0.20471632392E+02 0.20883245044E+02 0.20471628447E+02
 0.19291639176E+02 0.17496151802E+02 0.15308189729E+02 0.12985291184E+02 0.10732197145E+02
 0.86698794980E+01 0.68705778654E+01 0.53700261227E+01 0.41732903942E+01 0.32596149741E+01
 0.21241215817E+01 0.17733039871E+01 0.15559761000E+01 0.14519985578E+01 0.14519880661E+01
 0.15559606058E+01 0.17733081145E+01 0.21241421301E+01 0.26398817564E+01 0.33602835161E+01
 0.43255930328E+01 0.55654207418E+01 0.70881792112E+01 0.88740604810E+01 0.10870430364E+02
 0.12985257376E+02 0.15077372211E+02 0.16941439046E+02 0.18342768012E+02 0.19095017224E+02
 0.19095014418E+02 0.18342751310E+02 0.16941408393E+02 0.15077359472E+02 0.12985291184E+02
 0.10870490067E+02 0.88740975816E+01 0.70881794556E+01 0.55654142803E+01 0.43256026204E+01
 0.33602938882E+01 0.26398716051E+01 0.17443055667E+01 0.14908692663E+01 0.13472237440E+01
 0.13006662646E+01 0.13472233545E+01 0.14908670136E+01 0.17443038898E+01 0.21303100221E+01
 0.26812229839E+01 0.34344416374E+01 0.44236599049E+01 0.56680780382E+01 0.71630647211E+01
 0.88740744188E+01 0.10732174974E+02 0.12628701037E+02 0.14411656996E+02 0.15892410045E+02
 0.16874966815E+02 0.17219148985E+02 0.16874966215E+02 0.15892408882E+02 0.14411659862E+02
 0.12628714078E+02 0.10732197145E+02 0.88740975816E+01 0.71630825890E+01 0.56680893188E+01
 0.44236637687E+01 0.34344376396E+01 0.26812157169E+01 0.21303065769E+01 0.14451634126E+01
 0.12700298537E+01 0.11858956559E+01 0.11859014467E+01 0.12700361318E+01 0.14451563328E+01
 0.17262104139E+01 0.21370488246E+01 0.27086886788E+01 0.34737400341E+01 0.44575039826E+01
 0.56680725421E+01 0.70881825828E+01 0.86698907249E+01 0.10331072408E+02 0.11953631641E+02
 0.13387720458E+02 0.14469240925E+02 0.15053140807E+02 0.15053142486E+02 0.14469252572E+02
 0.13387746968E+02 0.11953658075E+02 0.10331078284E+02 0.86698794980E+01 0.70881794556E+01
 0.56680893188E+01 0.44575223471E+01 0.34737392494E+01 0.27086760292E+01 0.21370468293E+01
 0.17262221805E+01 0.12173273312E+01 0.11038583707E+01 0.10669455079E+01 0.11038555446E+01
 0.12173245431E+01 0.14161661121E+01 0.17163958230E+01 0.21412179089E+01 0.27182975066E+01
 0.34737403302E+01 0.44236598328E+01 0.55654043528E+01 0.68705644172E+01 0.82807265738E+01
 0.97061513120E+01 0.11028808067E+02 0.12113396718E+02 0.12829213648E+02 0.13079740514E+02
 0.12829215431E+02 0.12113401996E+02 0.11028817539E+02 0.97061637970E+01 0.82807404838E+01
 0.68705778654E+01 0.55654142803E+01 0.44236637687E+01 0.34737392494E+01 0.27182948525E+01
 0.21412159558E+01 0.17163949808E+01 0.14161669190E+01 0.10511997799E+01 0.98574199288E+00
 0.98573860556E+00 0.10511951886E+01 0.11866841541E+01 0.14021030052E+01 0.17132943997E+01
 0.21412209235E+01 0.27086877183E+01 0.34344460737E+01 0.43255908956E+01 0.53699938469E+01
 0.65305834507E+01 0.77427523800E+01 0.89159778674E+01 0.99412885463E+01 0.10706162290E+02
 0.11115899522E+02 0.11115901314E+02 0.10706163022E+02 0.99412832006E+01 0.89159740925E+01
 0.77427654462E+01 0.65306155830E+01 0.53700261227E+01 0.43256026204E+01 0.34344376396E+01
 0.27086760292E+01 0.21412159558E+01 0.17132917012E+01 0.14020985820E+01 0.11866828960E+01
 0.93859902720E+00 0.91023282930E+00 0.93859636972E+00 0.10254993332E+01 0.11766355139E+01
 0.14021003680E+01 0.17163968952E+01 0.21370507541E+01 0.26812207632E+01 0.33602959599E+01
 0.41732875029E+01 0.51005313282E+01 0.60994721849E+01 0.71041291404E+01 0.80295613732E+01
 0.87821753304E+01 0.92753400096E+01 0.94472257284E+01 0.92753437863E+01 0.87821847653E+01
 0.80295750278E+01 0.71041421784E+01 0.60994818244E+01 0.51005378782E+01 0.41732903942E+01
 0.33602938882E+01 0.26812157169E+01 0.21370468293E+01 0.17163949808E+01 0.14020985820E+01
 0.11766342794E+01 0.10255007563E+01 0.87348252885E+00 0.87347949694E+00 0.92315481128E+00
 0.10255004908E+01 0.11866846589E+01 0.14161632529E+01 0.17262124001E+01 0.21303002527E+01
 0.26398793225E+01 0.32596370629E+01 0.39819373641E+01 0.47818801057E+01 0.56147712947E+01
 0.64176397131E+01 0.71157534826E+01 0.76338855369E+01 0.79103820865E+01 0.79103808487E+01
 0.76338884110E+01 0.71157691849E+01 0.64176625854E+01 0.56147838288E+01 0.47818712633E+01
 0.39819135022E+01 0.32596149741E+01 0.26398716051E+01 0.21303065769E+01 0.17262221805E+01
 0.14161669190E+01 0.11866828960E+01 0.10255007563E+01 0.92315947764E+00 0.87348173478E+00
 0.91023437694E+00 0.98573924362E+00 0.11038565062E+01 0.12700370622E+01 0.14908829803E+01
 0.17733098787E+01 0.21229674309E+01 0.25416805356E+01 0.30240750283E+01 0.35541740813E+01
 0.41033130071E+01 0.46308169754E+01 0.50882775877E+01 0.54270922636E+01 0.56076460413E+01
 0.56076471635E+01 0.54270925409E+01 0.50882702242E+01 0.46307986238E+01 0.41032908382E+01
 0.35541629994E+01 0.30240833420E+01 0.25416990283E+01 0.21229773508E+01 0.17733028411E+01
 0.14908688274E+01 0.12700301916E+01 0.11038591533E+01 0.98574276451E+00 0.91023353223E+00
 0.87348025839E+00 0.91023437694E+00 0.95622921041E+00 0.10355673388E+01 0.11519457075E+01
 0.13099471417E+01 0.15144775868E+01 0.17698794302E+01 0.20784850953E+01 0.24384954242E+01
 0.28414293651E+01 0.32699040852E+01 0.36968809248E+01 0.40874081753E+01 0.44031857573E+01
 0.46092155934E+01 0.46808575403E+01 0.46092196243E+01 0.44031821362E+01 0.40873899522E+01
 0.36968581632E+01 0.32698960949E+01 0.28414446620E+01 0.24385216348E+01 0.20785003098E+01
 0.17698732632E+01 0.15144597171E+01 0.13099348449E+01 0.11519453198E+01 0.10355708647E+01
 0.95622794610E+00 0.91023021238E+00 0.89517861513E+00 0.98573924362E+00 0.10355673388E+01
 0.11135118058E+01 0.12229521222E+01 0.13676399556E+01 0.15510504329E+01 0.17754741796E+01
 0.20407297769E+01 0.23424874187E+01 0.26705012189E+01 0.30074320088E+01 0.33291285541E+01
 0.36069789865E+01 0.38122503816E+01 0.39214923117E+01 0.39214943031E+01 0.38122533561E+01
 0.36069783412E+01 0.33291248570E+01 0.30074305107E+01 0.26705050931E+01 0.23424939051E+01
 0.20407334786E+01 0.17754726850E+01 0.15510460800E+01 0.13676368238E+01 0.12229518134E+01
 0.11135122003E+01 0.10355656224E+01 0.98573579761E+00 0.96149664004E+00 0.96149845870E+00
 0.11038565062E+01 0.11519457075E+01 0.12229521222E+01 0.13200150012E+01 0.14462915324E+01
 0.16042201595E+01 0.17946045785E+01 0.20155050825E+01 0.22610082146E+01 0.25201825527E+01
 0.27767780511E+01 0.30102453012E+01 0.31983058125E+01 0.33207051873E+01 0.33632160928E+01
 0.33207090966E+01 0.31983091880E+01 0.30102477774E+01 0.27767839510E+01 0.25201905920E+01
 0.22610083282E+01 0.20154914696E+01 0.17945869668E+01 0.16042144402E+01 0.14463006763E+01
 0.13200264566E+01 0.12229546110E+01 0.11519414162E+01 0.11038537404E+01 0.10761129687E+01
 0.10670552751E+01 0.10761124380E+01 0.12700370622E+01 0.13099471417E+01 0.13676399556E+01
 0.14462915324E+01 0.15487984372E+01 0.16769619738E+01 0.18306000903E+01 0.20066512851E+01
 0.21983941001E+01 0.23950607057E+01 0.25822331735E+01 0.27433026181E+01 0.28619164804E+01
 0.29249058164E+01 0.29249083359E+01 0.28619198462E+01 0.27433009564E+01 0.25822283223E+01
 0.23950592786E+01 0.21983969302E+01 0.20066521608E+01 0.18305958320E+01 0.16769577271E+01
 0.15487996541E+01 0.14462953416E+01 0.13676395735E+01 0.13099422425E+01 0.12700338152E+01
 0.12451119667E+01 0.12331642211E+01 0.12331626777E+01 0.12451107188E+01 0.14908829803E+01
 0.15144775868E+01 0.15510504329E+01 0.16042201595E+01 0.16769619738E+01 0.17707619920E+01
 0.18848357849E+01 0.20155053761E+01 0.21558746006E+01 0.22960154423E+01 0.24238566581E+01
 0.25267818294E+01 0.25936658412E+01 0.26168670698E+01 0.25936648833E+01 0.25267802676E+01
 0.24238541144E+01 0.22960114431E+01 0.21558709632E+01 0.20155063195E+01 0.18848438133E+01
 0.17707737917E+01 0.16769698679E+01 0.16042185314E+01 0.15510406610E+01 0.15144665780E+01
 0.14908770530E+01 0.14767942886E+01 0.14694752819E+01 0.14672231957E+01 0.14694731800E+01
 0.14767942182E+01 0.17733098787E+01 0.17698794302E+01 0.17754741796E+01 0.17946045785E+01
 0.18306000903E+01 0.18848357849E+01 0.19561801112E+01 0.20407295184E+01 0.21319350182E+01
 0.22212346329E+01 0.22991934807E+01 0.23569582458E+01 0.23876948447E+01 0.23876940767E+01
 0.23569572591E+01 0.22991952480E+01 0.22212409647E+01 0.21319437282E+01 0.20407351769E+01
 0.19561789749E+01 0.18848297482E+01 0.18305946047E+01 0.17946028351E+01 0.17754746081E+01
 0.17698789474E+01 0.17733079176E+01 0.17809711718E+01 0.17886407710E+01 0.17932620927E+01
 0.17932619727E+01 0.17886411535E+01 0.17809728598E+01 0.21229674309E+01 0.20784850953E+01
 0.20407297769E+01 0.20155050825E+01 0.20066512851E+01 0.20155053761E+01 0.20407295184E+01
 0.20784842699E+01 0.21229668964E+01 0.21673157538E+01 0.22047458893E+01 0.22296427845E+01
 0.22383600824E+01 0.22296428627E+01 0.22047493010E+01 0.21673262511E+01 0.21229832896E+01
 0.20784975143E+01 0.20407284131E+01 0.20154871429E+01 0.20066254289E+01 0.20154858829E+01
 0.20407254534E+01 0.20784934815E+01 0.21229796705E+01 0.21673235685E+01 0.22047470237E+01
 0.22296410573E+01 0.22383594757E+01 0.22296431917E+01 0.22047462679E+01 0.21673158878E+01
 0.25416805356E+01 0.24384954242E+01 0.23424874187E+01 0.22610082146E+01 0.21983941001E+01
 0.21558746006E+01 0.21319350182E+01 0.21229668964E+01 0.21241240105E+01 0.21303008797E+01
 0.21370510772E+01 0.21412212891E+01 0.21412193112E+01 0.21370509881E+01 0.21303118747E+01
 0.21241436761E+01 0.21229789655E+01 0.21319254390E+01 0.21558479587E+01 0.21983695096E+01
 0.22609992005E+01 0.23424907954E+01 0.24385004927E+01 0.25416827642E+01 0.26423986783E+01
 0.27300587020E+01 0.27948260398E+01 0.28292149647E+01 0.28292133935E+01 0.27948222056E+01
 0.27300549945E+01 0.26423967208E+01 0.30240750283E+01 0.28414293651E+01 0.26705012189E+01
 0.25201825527E+01 0.23950607057E+01 0.22960154423E+01 0.22212346329E+01 0.21673157538E+01
 0.21303008797E+01 0.21065553130E+01 0.20933598287E+01 0.20891290288E+01 0.20933605008E+01
 0.21065650495E+01 0.21303210574E+01 0.21673305417E+01 0.22212237762E+01 0.22959795910E+01
 0.23950273436E+01 0.25201796413E+01 0.26705273910E+01 0.28414570540E+01 0.30240819373E+01
 0.32054879450E+01 0.33700715709E+01 0.35018357202E+01 0.35870478219E+01 0.36165206799E+01
 0.35870409614E+01 0.35018329504E+01 0.33700799936E+01 0.32054980196E+01 0.35541740813E+01
 0.32699040852E+01 0.30074320088E+01 0.27767780511E+01 0.25822331735E+01 0.24238566581E+01
 0.22991934807E+01 0.22047458893E+01 0.21370510772E+01 0.20933598287E+01 0.20719179731E+01
 0.20719223857E+01 0.20933751610E+01 0.21370752798E+01 0.22047628290E+01 0.22991836018E+01
 0.24238211542E+01 0.25821995350E+01 0.27767741621E+01 0.30074578229E+01 0.32699352981E+01
 0.35541908499E+01 0.38439428971E+01 0.41176451064E+01 0.43512097541E+01 0.45218508063E+01
 0.46119471359E+01 0.46119455238E+01 0.45218464938E+01 0.43512054743E+01 0.41176436086E+01
 0.38439393903E+01 0.41033130071E+01 0.36968809248E+01 0.33291285541E+01 0.30102453012E+01
 0.27433026181E+01 0.25267818294E+01 0.23569582458E+01 0.22296427845E+01 0.21412212891E+01
 0.20891290288E+01 0.20719223857E+01 0.20891478074E+01 0.21412514052E+01 0.22296633987E+01
 0.23569467949E+01 0.25267414646E+01 0.27432678496E+01 0.30102482688E+01 0.33291638991E+01
 0.36969147370E+01 0.41033236571E+01 0.45293987647E+01 0.49474649044E+01 0.53238493267E+01
 0.56237998873E+01 0.58173028301E+01 0.58841688151E+01 0.58172992995E+01 0.56237894940E+01
 0.53238369819E+01 0.49474613088E+01 0.45294013675E+01 0.46308169754E+01 0.40874081753E+01
 0.36069789865E+01 0.31983058125E+01 0.28619164804E+01 0.25936658412E+01 0.23876948447E+01
 0.22383600824E+01 0.21412193112E+01 0.20933605008E+01 0.20933751610E+01 0.21412514052E+01
 0.22383808276E+01 0.23876799851E+01 0.25936207659E+01 0.28618775700E+01 0.31983080581E+01
 0.36070220235E+01 0.40874593419E+01 0.46308455450E+01 0.52170378290E+01 0.58132359654E+01
 0.63758628770E+01 0.68559327207E+01 0.72067933626E+01 0.73921209492E+01 0.73921215606E+01
 0.72067952638E+01 0.68559371728E+01 0.63758719164E+01 0.58132464119E+01 0.52170362103E+01
 0.50882775877E+01 0.44031857573E+01 0.38122503816E+01 0.33207051873E+01 0.29249058164E+01
 0.26168670698E+01 0.23876940767E+01 0.22296428627E+01 0.21370509881E+01 0.21065650495E+01
 0.21370752798E+01 0.22296633987E+01 0.23876799851E+01 0.26168184085E+01 0.29248614674E+01
 0.33207074917E+01 0.38123016272E+01 0.44032484549E+01 0.50883160822E+01 0.58487706155E+01
 0.66491936053E+01 0.74376392902E+01 0.81503116545E+01 0.87204437711E+01 0.90893992902E+01
 0.92171262106E+01 0.90894140370E+01 0.87204643855E+01 0.81503285512E+01 0.74376499782E+01
 0.66491984741E+01 0.58487609731E+01 0.54270922636E+01 0.46092155934E+01 0.39214923117E+01
 0.33632160928E+01 0.29249083359E+01 0.25936648833E+01 0.23569572591E+01 0.22047493010E+01
 0.21303118747E+01 0.21303210574E+01 0.22047628290E+01 0.23569467949E+01 0.25936207659E+01
 0.29248614674E+01 0.33632149011E+01 0.39215502506E+01 0.46092925702E+01 0.54271371272E+01
 0.63610227943E+01 0.73769040194E+01 0.84183838127E+01 0.94091690898E+01 0.10261323029E+02
 0.10888505008E+02 0.11221413796E+02 0.11221415105E+02 0.10888507848E+02 0.10261325701E+02
 0.94091738873E+01 0.84183970835E+01 0.73769224761E+01 0.63610221808E+01 0.56076460413E+01
 0.46808575403E+01 0.39214943031E+01 0.33207090966E+01 0.28619198462E+01 0.25267802676E+01
 0.22991952480E+01 0.21673262511E+01 0.21241436761E+01 0.21673305417E+01 0.22991836018E+01
 0.25267414646E+01 0.28618775700E+01 0.33207074917E+01 0.39215502506E+01 0.46809364552E+01
 0.56076959332E+01 0.66958162237E+01 0.79173931906E+01 0.92175089704E+01 0.10513206772E+02
 0.11698701829E+02 0.12658102693E+02 0.13284711185E+02 0.13502735305E+02 0.13284692942E+02
 0.12658085411E+02 0.11698700995E+02 0.10513223401E+02 0.92175370692E+01 0.79174193910E+01
 0.66958143105E+01 0.56076471635E+01 0.46092196243E+01 0.38122533561E+01 0.31983091880E+01
 0.27433009564E+01 0.24238541144E+01 0.22212409647E+01 0.21229832896E+01 0.21229789655E+01
 0.22212237762E+01 0.24238211542E+01 0.27432678496E+01 0.31983080581E+01 0.38123016272E+01
 0.46092925702E+01 0.56076959332E+01 0.68123202903E+01 0.82059346203E+01 0.97417824154E+01
 0.11338730745E+02 0.12881494829E+02 0.14229199195E+02 0.15234768581E+02 0.15773594514E+02
 0.15773595915E+02 0.15234773800E+02 0.14229207205E+02 0.12881502347E+02 0.11338741980E+02
 0.97418062025E+01 0.82059620372E+01 0.68123196156E+01 0.54270925409E+01 0.44031821362E+01
 0.36069783412E+01 0.30102477774E+01 0.25822283223E+01 0.22960114431E+01 0.21319437282E+01
 0.20784975143E+01 0.21319254390E+01 0.22959795910E+01 0.25821995350E+01 0.30102482688E+01
 0.36070220235E+01 0.44032484549E+01 0.54271371272E+01 0.66958162237E+01 0.82059346203E+01
 0.99246086188E+01 0.11781519377E+02 0.13663706397E+02 0.15416997771E+02 0.16860129704E+02
 0.17815300758E+02 0.18150085845E+02 0.17815320424E+02 0.16860153566E+02 0.15417007545E+02
 0.13663700982E+02 0.11781519924E+02 0.99246329973E+01 0.82059677338E+01 0.66958195379E+01
 0.50882702242E+01 0.40873899522E+01 0.33291248570E+01 0.27767839510E+01 0.23950592786E+01
 0.21558709632E+01 0.20407351769E+01 0.20407284131E+01 0.21558479587E+01 0.23950273436E+01
 0.27767741621E+01 0.33291638991E+01 0.40874593419E+01 0.50883160822E+01 0.63610227943E+01
 0.79173931906E+01 0.97417824154E+01 0.11781519377E+02 0.13937705511E+02 0.16058988172E+02
 0.17945971051E+02 0.19374462765E+02 0.20145119802E+02 0.20145114310E+02 0.19374454711E+02
 0.17945970657E+02 0.16058989978E+02 0.13937702095E+02 0.11781523215E+02 0.97418114466E+01