    2    2   15    1
  0.2001288E+02  0.3839590E-09  0.3839590E-09  0.3839590E-09  0.5000000E-15
  1.000000000000000E-004
  CAR 
 unknown system                          
      8     10      8
 
  0.1250000E+00  0.1250000E+00  0.1250000E+00  0.3125000E-01
    1       -5.994726   1.000000
    2        4.050325   1.000000
    3        5.364065   0.999991
    4        5.364065   0.999991
    5        8.096501   0.000000
    6        8.632537   0.000000
    7        8.632537   0.000000
    8       10.179485   0.000000
 
  0.3750000E+00  0.1250000E+00  0.1250000E+00  0.9375000E-01
    1       -4.967217   1.000000
    2        1.048261   1.000000
    3        3.367637   1.000000
    4        4.879250   1.000000
    5        8.315253   0.000000
    6        9.330286   0.000000
    7        9.514933   0.000000
    8       11.885118   0.000000
 
 -0.3750000E+00  0.1250000E+00  0.1250000E+00  0.9375000E-01
    1       -3.825918   1.000000
    2       -1.033844   1.000000
    3        3.388495   1.000000
    4        4.102798   1.000000
    5        7.822901   0.000000
    6        9.162841   0.000000
    7        9.779833   0.000000
    8       12.999472   0.000000
 
 -0.1250000E+00  0.1250000E+00  0.1250000E+00  0.9375000E-01
    1       -5.466518   1.000000
    2        2.427507   1.000000
    3        4.351326   1.000000
    4        4.415350   1.000000
    5        7.805720   0.000000
    6        9.283410   0.000000
    7       10.104777   0.000000
    8       10.429496   0.000000
 
  0.3750000E+00  0.3750000E+00  0.1250000E+00  0.9375000E-01
    1       -4.434376   1.000000
    2        0.714746   1.000000
    3        3.017164   1.000000
    4        3.470589   1.000000
    5        7.029721   0.000000
    6        8.574677   0.000000
    7       11.597961   0.000000
    8       11.906720   0.000000
 
 -0.3750000E+00  0.3750000E+00  0.1250000E+00  0.1875000E+00
    1       -2.792707   1.000000
    2       -1.249889   1.000000
    3        1.658795   1.000000
    4        2.737705   1.000000
    5        8.063734   0.000000
    6        9.954612   0.000000
    7       10.892194   0.000000
    8       13.046162   0.000000
 
 -0.1250000E+00  0.3750000E+00  0.1250000E+00  0.1875000E+00
    1       -4.018087   1.000000
    2       -0.160454   1.000000
    3        2.373967   1.000000
    4        3.746423   1.000000
    5        8.533050   0.000000
    6        9.200937   0.000000
    7       10.660099   0.000000
    8       11.576361   0.000000
 
 -0.3750000E+00 -0.3750000E+00  0.1250000E+00  0.9375000E-01
    1       -2.960809   1.000000
    2       -1.151996   1.000000
    3        2.269989   1.000000
    4        3.000866   1.000000
    5        6.589331   0.000006
    6        7.656141   0.000000
    7       13.895542   0.000000
    8       13.934487   0.000000
 
  0.3750000E+00  0.3750000E+00  0.3750000E+00  0.3125000E-01
    1       -4.533673   1.000000
    2       -0.244389   1.000000
    3        4.570783   1.000000
    4        4.570783   1.000000
    5        7.250123   0.000000
    6        9.133048   0.000000
    7        9.133048   0.000000
    8       13.491612   0.000000
 
 -0.3750000E+00  0.3750000E+00  0.3750000E+00  0.9375000E-01
    1       -3.330087   1.000000
    2       -0.947586   1.000000
    3        1.718247   1.000000
    4        3.786213   1.000000
    5        7.521257   0.000000
    6       11.094019   0.000000
    7       11.134984   0.000000
    8       12.580456   0.000000
