   2   2   0   0
  0.1529437E+02  0.3691622E-09  0.3691622E-09  0.3691622E-09  0.5000000E-15
  1.000000000000000E-004
  CAR 
 unknown system                          
     22.05774394     -6.66159619  301      9.03013528      1.00000000
     -6.662  0.0000E+00  0.0000E+00
     -6.566  0.0000E+00  0.0000E+00
     -6.470  0.0000E+00  0.0000E+00
     -6.374  0.0000E+00  0.0000E+00
     -6.279  0.0000E+00  0.0000E+00
     -6.183  0.0000E+00  0.0000E+00
     -6.087  0.0000E+00  0.0000E+00
     -5.991  0.0000E+00  0.0000E+00
     -5.896  0.0000E+00  0.0000E+00
     -5.800  0.4330E-17  0.4145E-18
     -5.704  0.9259E-15  0.8905E-16
     -5.609  0.1184E-12  0.1142E-13
     -5.513  0.9653E-11  0.9355E-12
     -5.417  0.5019E-09  0.4898E-10
     -5.321  0.1666E-07  0.1644E-08
     -5.226  0.3536E-06  0.3549E-07
     -5.130  0.4801E-05  0.4951E-06
     -5.034  0.4178E-04  0.4494E-05
     -4.938  0.2332E-03  0.2682E-04
     -4.843  0.8360E-03  0.1069E-03
     -4.747  0.1928E-02  0.2915E-03
     -4.651  0.2885E-02  0.5676E-03
     -4.556  0.2964E-02  0.8514E-03
     -4.460  0.2913E-02  0.1130E-02
     -4.364  0.4743E-02  0.1584E-02
     -4.268  0.8795E-02  0.2426E-02
     -4.173  0.1179E-01  0.3555E-02
     -4.077  0.1061E-01  0.4570E-02
     -3.981  0.7479E-02  0.5286E-02
     -3.885  0.7375E-02  0.5992E-02
     -3.790  0.1162E-01  0.7105E-02
     -3.694  0.1765E-01  0.8795E-02
     -3.598  0.2345E-01  0.1104E-01
     -3.502  0.2695E-01  0.1362E-01
     -3.407  0.2403E-01  0.1592E-01
     -3.311  0.1498E-01  0.1735E-01
     -3.215  0.6308E-02  0.1796E-01
     -3.120  0.2449E-02  0.1819E-01
     -3.024  0.3401E-02  0.1852E-01
     -2.928  0.8451E-02  0.1933E-01
     -2.832  0.1730E-01  0.2098E-01
     -2.737  0.3045E-01  0.2390E-01
     -2.641  0.4701E-01  0.2840E-01
     -2.545  0.5892E-01  0.3404E-01
     -2.449  0.5736E-01  0.3953E-01
     -2.354  0.4409E-01  0.4375E-01
     -2.258  0.2692E-01  0.4633E-01
     -2.162  0.1245E-01  0.4752E-01
     -2.067  0.4374E-02  0.4794E-01
     -1.971  0.2751E-02  0.4820E-01
     -1.875  0.6822E-02  0.4885E-01
     -1.779  0.1543E-01  0.5033E-01
     -1.684  0.2284E-01  0.5252E-01
     -1.588  0.2178E-01  0.5460E-01
     -1.492  0.1347E-01  0.5589E-01
     -1.396  0.6055E-02  0.5647E-01
     -1.301  0.4441E-02  0.5690E-01
     -1.205  0.8358E-02  0.5770E-01
     -1.109  0.1530E-01  0.5916E-01
     -1.013  0.2378E-01  0.6144E-01
     -0.918  0.3588E-01  0.6487E-01
     -0.822  0.5088E-01  0.6975E-01
     -0.726  0.5986E-01  0.7548E-01
     -0.631  0.5804E-01  0.8103E-01
     -0.535  0.5064E-01  0.8588E-01
     -0.439  0.4154E-01  0.8986E-01
     -0.343  0.3464E-01  0.9317E-01
     -0.248  0.3814E-01  0.9682E-01
     -0.152  0.5373E-01  0.1020E+00
     -0.056  0.7163E-01  0.1088E+00
      0.040  0.7719E-01  0.1162E+00
      0.135  0.6289E-01  0.1222E+00
      0.231  0.3914E-01  0.1260E+00
      0.327  0.2243E-01  0.1281E+00
      0.423  0.1522E-01  0.1296E+00
      0.518  0.1109E-01  0.1306E+00
      0.614  0.9430E-02  0.1315E+00
      0.710  0.1387E-01  0.1329E+00
      0.805  0.2258E-01  0.1350E+00
      0.901  0.2842E-01  0.1378E+00
      0.997  0.3006E-01  0.1406E+00
      1.093  0.3481E-01  0.1440E+00
      1.188  0.4572E-01  0.1483E+00
      1.284  0.5262E-01  0.1534E+00
      1.380  0.4409E-01  0.1576E+00
      1.476  0.2585E-01  0.1601E+00
      1.571  0.1484E-01  0.1615E+00
      1.667  0.2099E-01  0.1635E+00
      1.763  0.4116E-01  0.1674E+00
      1.858  0.6016E-01  0.1732E+00
      1.954  0.6260E-01  0.1792E+00
      2.050  0.4964E-01  0.1840E+00
      2.146  0.3537E-01  0.1873E+00
      2.241  0.3065E-01  0.1903E+00
      2.337  0.3672E-01  0.1938E+00
      2.433  0.4609E-01  0.1982E+00
      2.529  0.4639E-01  0.2026E+00
      2.624  0.3348E-01  0.2058E+00
      2.720  0.1786E-01  0.2076E+00
      2.816  0.1205E-01  0.2087E+00
      2.912  0.1911E-01  0.2105E+00
      3.007  0.3158E-01  0.2136E+00
      3.103  0.3810E-01  0.2172E+00
      3.199  0.3829E-01  0.2209E+00
      3.294  0.4273E-01  0.2250E+00
      3.390  0.5102E-01  0.2299E+00
      3.486  0.5125E-01  0.2348E+00
      3.582  0.4411E-01  0.2390E+00
      3.677  0.4108E-01  0.2429E+00
      3.773  0.4538E-01  0.2473E+00
      3.869  0.5242E-01  0.2523E+00
      3.965  0.5672E-01  0.2577E+00
      4.060  0.5451E-01  0.2629E+00
      4.156  0.4491E-01  0.2672E+00
      4.252  0.3007E-01  0.2701E+00
      4.347  0.1774E-01  0.2718E+00
      4.443  0.1977E-01  0.2737E+00
      4.539  0.4387E-01  0.2779E+00
      4.635  0.8065E-01  0.2856E+00
      4.730  0.1028E+00  0.2955E+00
      4.826  0.9717E-01  0.3048E+00
      4.922  0.7860E-01  0.3123E+00
      5.018  0.5839E-01  0.3179E+00
      5.113  0.3652E-01  0.3214E+00
      5.209  0.2031E-01  0.3233E+00
      5.305  0.1777E-01  0.3250E+00
      5.401  0.2419E-01  0.3273E+00
      5.496  0.2877E-01  0.3301E+00
      5.592  0.3066E-01  0.3330E+00
      5.688  0.3987E-01  0.3368E+00
      5.783  0.5869E-01  0.3425E+00
      5.879  0.7360E-01  0.3495E+00
      5.975  0.7340E-01  0.3565E+00
      6.071  0.6482E-01  0.3627E+00
      6.166  0.6176E-01  0.3686E+00
      6.262  0.6944E-01  0.3753E+00
      6.358  0.8186E-01  0.3831E+00
      6.454  0.8798E-01  0.3916E+00
      6.549  0.7978E-01  0.3992E+00
      6.645  0.6005E-01  0.4049E+00
      6.741  0.4384E-01  0.4091E+00
      6.836  0.4244E-01  0.4132E+00
      6.932  0.5248E-01  0.4182E+00
      7.028  0.6422E-01  0.4244E+00
      7.124  0.7051E-01  0.4311E+00
      7.219  0.7151E-01  0.4380E+00
      7.315  0.7012E-01  0.4447E+00
      7.411  0.6661E-01  0.4511E+00
      7.507  0.6473E-01  0.4573E+00
      7.602  0.6983E-01  0.4639E+00
      7.698  0.7629E-01  0.4712E+00
      7.794  0.7078E-01  0.4780E+00
      7.890  0.5329E-01  0.4831E+00
      7.985  0.4026E-01  0.4870E+00
      8.081  0.4270E-01  0.4911E+00
      8.177  0.5158E-01  0.4960E+00
      8.272  0.4971E-01  0.5008E+00
      8.368  0.3531E-01  0.5041E+00
      8.464  0.2180E-01  0.5062E+00
      8.560  0.1688E-01  0.5078E+00
      8.655  0.1885E-01  0.5096E+00
      8.751  0.3010E-01  0.5125E+00
      8.847  0.5501E-01  0.5178E+00
      8.943  0.8215E-01  0.5257E+00
      9.038  0.8704E-01  0.5340E+00
      9.134  0.6315E-01  0.5400E+00
      9.230  0.3242E-01  0.5431E+00
      9.326  0.1624E-01  0.5447E+00
      9.421  0.1605E-01  0.5462E+00
      9.517  0.2402E-01  0.5485E+00
      9.613  0.3507E-01  0.5519E+00
      9.708  0.4535E-01  0.5562E+00
      9.804  0.5021E-01  0.5610E+00
      9.900  0.4868E-01  0.5657E+00
      9.996  0.4459E-01  0.5700E+00
     10.091  0.4285E-01  0.5741E+00
     10.187  0.4776E-01  0.5786E+00
     10.283  0.6140E-01  0.5845E+00
     10.379  0.7469E-01  0.5917E+00
     10.474  0.7260E-01  0.5986E+00
     10.570  0.6063E-01  0.6044E+00
     10.666  0.6253E-01  0.6104E+00
     10.761  0.8575E-01  0.6186E+00
     10.857  0.1102E+00  0.6292E+00
     10.953  0.1112E+00  0.6398E+00
     11.049  0.8657E-01  0.6481E+00
     11.144  0.5695E-01  0.6535E+00
     11.240  0.3776E-01  0.6572E+00
     11.336  0.2982E-01  0.6600E+00
     11.432  0.3528E-01  0.6634E+00
     11.527  0.5343E-01  0.6685E+00
     11.623  0.6745E-01  0.6750E+00
     11.719  0.6066E-01  0.6808E+00
     11.815  0.4043E-01  0.6846E+00
     11.910  0.2707E-01  0.6872E+00
     12.006  0.2672E-01  0.6898E+00
     12.102  0.3189E-01  0.6928E+00
     12.197  0.4212E-01  0.6969E+00
     12.293  0.6328E-01  0.7029E+00
     12.389  0.8714E-01  0.7113E+00
     12.485  0.9682E-01  0.7205E+00
     12.580  0.9330E-01  0.7295E+00
     12.676  0.9133E-01  0.7382E+00
     12.772  0.9231E-01  0.7470E+00
     12.868  0.8624E-01  0.7553E+00
     12.963  0.7405E-01  0.7624E+00
     13.059  0.6497E-01  0.7686E+00
     13.155  0.5935E-01  0.7743E+00
     13.250  0.5479E-01  0.7795E+00
     13.346  0.5663E-01  0.7850E+00
     13.442  0.6538E-01  0.7912E+00
     13.538  0.7345E-01  0.7983E+00
     13.633  0.8130E-01  0.8060E+00
     13.729  0.9519E-01  0.8151E+00
     13.825  0.1102E+00  0.8257E+00
     13.921  0.1140E+00  0.8366E+00
     14.016  0.1077E+00  0.8469E+00
     14.112  0.1045E+00  0.8569E+00
     14.208  0.1075E+00  0.8672E+00
     14.304  0.1015E+00  0.8769E+00
     14.399  0.7618E-01  0.8842E+00
     14.495  0.4270E-01  0.8883E+00
     14.591  0.1786E-01  0.8900E+00
     14.686  0.6515E-02  0.8906E+00
     14.782  0.5810E-02  0.8912E+00
     14.878  0.1312E-01  0.8925E+00
     14.974  0.2494E-01  0.8948E+00
     15.069  0.3572E-01  0.8983E+00
     15.165  0.4383E-01  0.9025E+00
     15.261  0.5355E-01  0.9076E+00
     15.357  0.6689E-01  0.9140E+00
     15.452  0.7513E-01  0.9212E+00
     15.548  0.6550E-01  0.9275E+00
     15.644  0.4217E-01  0.9315E+00
     15.739  0.2691E-01  0.9341E+00
     15.835  0.3519E-01  0.9374E+00
     15.931  0.5903E-01  0.9431E+00
     16.027  0.7232E-01  0.9500E+00
     16.122  0.6280E-01  0.9560E+00
     16.218  0.5059E-01  0.9609E+00
     16.314  0.5433E-01  0.9661E+00
     16.410  0.6105E-01  0.9719E+00
     16.505  0.5165E-01  0.9769E+00
     16.601  0.3173E-01  0.9799E+00
     16.697  0.1704E-01  0.9815E+00
     16.793  0.1079E-01  0.9826E+00
     16.888  0.9580E-02  0.9835E+00
     16.984  0.1474E-01  0.9849E+00
     17.080  0.2795E-01  0.9876E+00
     17.175  0.4257E-01  0.9916E+00
     17.271  0.4917E-01  0.9963E+00
     17.367  0.4652E-01  0.1001E+01
     17.463  0.3872E-01  0.1005E+01
     17.558  0.3007E-01  0.1007E+01
     17.654  0.2690E-01  0.1010E+01
     17.750  0.3380E-01  0.1013E+01
     17.846  0.4468E-01  0.1017E+01
     17.941  0.4733E-01  0.1022E+01
     18.037  0.4109E-01  0.1026E+01
     18.133  0.3595E-01  0.1029E+01
     18.228  0.3304E-01  0.1033E+01
     18.324  0.2605E-01  0.1035E+01
     18.420  0.1784E-01  0.1037E+01
     18.516  0.1720E-01  0.1038E+01
     18.611  0.2429E-01  0.1041E+01
     18.707  0.2999E-01  0.1044E+01
     18.803  0.2777E-01  0.1046E+01
     18.899  0.1948E-01  0.1048E+01
     18.994  0.1034E-01  0.1049E+01
     19.090  0.4017E-02  0.1049E+01
     19.186  0.1335E-02  0.1050E+01
     19.282  0.1777E-02  0.1050E+01
     19.377  0.6193E-02  0.1050E+01
     19.473  0.1613E-01  0.1052E+01
     19.569  0.2843E-01  0.1055E+01
     19.664  0.3385E-01  0.1058E+01
     19.760  0.2752E-01  0.1061E+01
     19.856  0.1685E-01  0.1062E+01
     19.952  0.1164E-01  0.1063E+01
     20.047  0.1202E-01  0.1064E+01
     20.143  0.1159E-01  0.1066E+01
     20.239  0.7720E-02  0.1066E+01
     20.335  0.3345E-02  0.1067E+01
     20.430  0.9328E-03  0.1067E+01
     20.526  0.1671E-03  0.1067E+01
     20.622  0.1920E-04  0.1067E+01
     20.718  0.1414E-05  0.1067E+01
     20.813  0.6665E-07  0.1067E+01
     20.909  0.2008E-08  0.1067E+01
     21.005  0.3861E-10  0.1067E+01
     21.100  0.4736E-12  0.1067E+01
     21.196  0.3701E-14  0.1067E+01
     21.292  0.1979E-16  0.1067E+01
     21.388  0.0000E+00  0.1067E+01
     21.483  0.0000E+00  0.1067E+01
     21.579  0.0000E+00  0.1067E+01
     21.675  0.0000E+00  0.1067E+01
     21.771  0.0000E+00  0.1067E+01
     21.866  0.0000E+00  0.1067E+01
     21.962  0.0000E+00  0.1067E+01
     22.058  0.0000E+00  0.1067E+01
