 vasp.5.4.4.18Apr17-6-g9f103f2a35 (build Dec 09 2018 21:25:21) complex          
  
 executed on IFC18.0.1.163_CrayMP date 2019.03.20  09:21:13
 running on    8 total cores
 distrk:  each k-point on    8 cores,    1 groups
 distr:  one band on NCORES_PER_BAND=   1 cores,    8 groups


--------------------------------------------------------------------------------------------------------


 INCAR:
 POTCAR:   PAW_PBE Si 05Jan2001                   

 ----------------------------------------------------------------------------- 
|                                                                             |
|           W    W    AA    RRRRR   N    N  II  N    N   GGGG   !!!           |
|           W    W   A  A   R    R  NN   N  II  NN   N  G    G  !!!           |
|           W    W  A    A  R    R  N N  N  II  N N  N  G       !!!           |
|           W WW W  AAAAAA  RRRRR   N  N N  II  N  N N  G  GGG   !            |
|           WW  WW  A    A  R   R   N   NN  II  N   NN  G    G                |
|           W    W  A    A  R    R  N    N  II  N    N   GGGG   !!!           |
|                                                                             |
|      For optimal performance we recommend to set                            |
|        NCORE= 4 - approx SQRT( number of cores)                             |
|      NCORE specifies how many cores store one orbital (NPAR=cpu/NCORE).     |
|      This setting can  greatly improve the performance of VASP for DFT.     |
|      The default,   NCORE=1            might be grossly inefficient         |
|      on modern multi-core architectures or massively parallel machines.     |
|      Do your own testing !!!!                                               |
|      Unfortunately you need to use the default for GW and RPA calculations. |
|      (for HF NCORE is supported but not extensively tested yet)             |
|                                                                             |
 ----------------------------------------------------------------------------- 

 POTCAR:   PAW_PBE Si 05Jan2001                   
   VRHFIN =Si: s2p2                                                             
   LEXCH  = PE                                                                  
   EATOM  =   103.0669 eV,    7.5752 Ry                                         
                                                                                
   TITEL  = PAW_PBE Si 05Jan2001                                                
   LULTRA =        F    use ultrasoft PP ?                                      
   IUNSCR =        1    unscreen: 0-lin 1-nonlin 2-no                           
   RPACOR =    1.500    partial core radius                                     
   POMASS =   28.085; ZVAL   =    4.000    mass and valenz                      
   RCORE  =    1.900    outmost cutoff radius                                   
   RWIGS  =    2.480; RWIGS  =    1.312    wigner-seitz radius (au A)           
   ENMAX  =  245.345; ENMIN  =  184.009 eV                                      
   ICORE  =        2    local potential                                         
   LCOR   =        T    correct aug charges                                     
   LPAW   =        T    paw PP                                                  
   EAUG   =  322.069                                                            
   DEXC   =    -.007                                                            
   RMAX   =    2.944    core radius for proj-oper                               
   RAUG   =    1.300    factor for augmentation sphere                          
   RDEP   =    1.993    radius for radial grids                                 
   QCUT   =   -4.246; QGAM   =    8.493    optimization parameters              
                                                                                
   Description                                                                  
     l     E      TYP  RCUT    TYP  RCUT                                        
     0   .000     23  1.900                                                     
     0   .000     23  1.900                                                     
     1   .000     23  1.900                                                     
     1   .000     23  1.900                                                     
     2   .000      7  1.900                                                     
  local pseudopotential read in
  partial core-charges read in
  atomic valenz-charges read in
  non local Contribution for L=           0  read in
    real space projection operators read in
  non local Contribution for L=           0  read in
    real space projection operators read in
  non local Contribution for L=           1  read in
    real space projection operators read in
  non local Contribution for L=           1  read in
    real space projection operators read in
    PAW grid and wavefunctions read in
 
   number of l-projection  operators is LMAX  =           4
   number of lm-projection operators is LMMAX =           8
 
 PAW_PBE Si 05Jan2001                   :
 energy of atom  1       EATOM= -103.0669
 kinetic energy error for atom=    0.0052 (will be added to EATOM!!)
 
 
 POSCAR: Si2                                     
  positions in direct lattice
  No initial velocities read in
 exchange correlation table for  LEXCH =        8
   RHO(1)=    0.500       N(1)  =     2000
   RHO(2)=  100.500       N(2)  =     4000
 


--------------------------------------------------------------------------------------------------------


 ion  position               nearest neighbor table
   1  0.250  0.750  0.500-   2 2.53   2 2.53   2 2.53   2 2.53   2 3.11   2 3.11   2 3.11   2 3.11

   2  0.000  0.000  0.000-   1 2.53   1 2.53   1 2.53   1 2.53   1 3.11   1 3.11   1 3.11   1 3.11

 
  LATTYP: Found a body centered tetragonal cell.
 ALAT       =     4.9000000000
 C/A-ratio  =     0.5200000000
  
  Lattice vectors:
  
 A1 = (  -2.4500000000,   2.4500000000,   1.2740000000)
 A2 = (   2.4500000000,  -2.4500000000,   1.2740000000)
 A3 = (   2.4500000000,   2.4500000000,  -1.2740000000)


Analysis of symmetry for initial positions (statically):
=====================================================================
 Subroutine PRICEL returns:
 Original cell was already a primitive cell.
 

 Routine SETGRP: Setting up the symmetry group for a 
 body centered tetragonal supercell.


 Subroutine GETGRP returns: Found 16 space group operations
 (whereof  8 operations were pure point group operations)
 out of a pool of 16 trial point group operations.


The static configuration has the point symmetry D_2d.
 The point group associated with its full space group is D_4h.


Analysis of symmetry for dynamics (positions and initial velocities):
=====================================================================
 Subroutine PRICEL returns:
 Original cell was already a primitive cell.
 

 Routine SETGRP: Setting up the symmetry group for a 
 body centered tetragonal supercell.


 Subroutine GETGRP returns: Found 16 space group operations
 (whereof  8 operations were pure point group operations)
 out of a pool of 16 trial point group operations.


The dynamic configuration has the point symmetry D_2d.
 The point group associated with its full space group is D_4h.


 Subroutine INISYM returns: Found 16 space group operations
 (whereof  8 operations are pure point group operations),
 and found     1 'primitive' translations

 
 
 KPOINTS: Automatic kpoint scheme                 

Automatic generation of k-mesh.
Space group operators:
 irot       det(A)        alpha          n_x          n_y          n_z        tau_x        tau_y        tau_z
    1     1.000000     0.000000     1.000000     0.000000     0.000000     0.000000     0.000000     0.000000
    2    -1.000000    90.000000    -0.000000    -0.000000    -1.000000     0.000000     0.000000     0.000000
    3     1.000000   180.000000    -0.000000    -0.000000    -1.000000     0.000000     0.000000     0.000000
    4    -1.000000    90.000000    -0.000000     0.000000     1.000000     0.000000     0.000000     0.000000
    5    -1.000000   180.000000     0.000000    -1.000000     0.000000     0.000000     0.000000     0.000000
    6     1.000000   180.000000     0.707107     0.707107    -0.000000     0.000000     0.000000     0.000000
    7    -1.000000   180.000000     1.000000     0.000000     0.000000     0.000000     0.000000     0.000000
    8     1.000000   180.000000     0.707107    -0.707107     0.000000     0.000000     0.000000     0.000000
    9    -1.000000     0.000000     1.000000     0.000000     0.000000     0.250000     0.750000     0.500000
   10     1.000000    90.000000    -0.000000    -0.000000    -1.000000     0.250000     0.750000     0.500000
   11    -1.000000   180.000000    -0.000000    -0.000000    -1.000000     0.250000     0.750000     0.500000
   12     1.000000    90.000000    -0.000000     0.000000     1.000000     0.250000     0.750000     0.500000
   13     1.000000   180.000000     0.000000    -1.000000     0.000000     0.250000     0.750000     0.500000
   14    -1.000000   180.000000     0.707107     0.707107    -0.000000     0.250000     0.750000     0.500000
   15     1.000000   180.000000     1.000000     0.000000     0.000000     0.250000     0.750000     0.500000
   16    -1.000000   180.000000     0.707107    -0.707107     0.000000     0.250000     0.750000     0.500000
 
 Subroutine IBZKPT returns following result:
 ===========================================
 
 Found     18 irreducible k-points:
 
 Following reciprocal coordinates:
            Coordinates               Weight
  0.000000  0.000000  0.000000      1.000000
  0.200000  0.000000 -0.000000      8.000000
  0.400000  0.000000 -0.000000      8.000000
  0.200000  0.200000 -0.000000      8.000000
  0.400000  0.200000 -0.000000     16.000000
 -0.400000  0.200000  0.000000     16.000000
 -0.200000  0.200000  0.000000      4.000000
  0.400000  0.400000 -0.000000      8.000000
 -0.400000  0.400000  0.000000      4.000000
  0.200000  0.200000  0.200000      8.000000
 -0.200000  0.200000  0.200000      4.000000
 -0.400000  0.400000  0.200000      8.000000
 -0.200000  0.400000  0.200000      8.000000
 -0.400000 -0.400000  0.200000      8.000000
 -0.200000 -0.400000  0.200000      8.000000
 -0.200000 -0.200000  0.200000      2.000000
 -0.400000  0.400000  0.400000      4.000000
 -0.400000 -0.400000  0.400000      2.000000
 
 Following cartesian coordinates:
            Coordinates               Weight
  0.000000  0.000000  0.000000      1.000000
  0.000000  0.040816  0.078493      8.000000
  0.000000  0.081633  0.156986      8.000000
  0.040816  0.040816  0.156986      8.000000
  0.040816  0.081633  0.235479     16.000000
  0.040816 -0.081633 -0.078493     16.000000
  0.040816 -0.040816  0.000000      4.000000
  0.081633  0.081633  0.313972      8.000000
  0.081633 -0.081633  0.000000      4.000000
  0.081633  0.081633  0.156986      8.000000
  0.081633  0.000000 -0.000000      4.000000
  0.122449 -0.040816  0.000000      8.000000
  0.122449  0.000000  0.078493      8.000000
 -0.040816 -0.040816 -0.313972      8.000000
 -0.040816  0.000000 -0.235479      8.000000
 -0.000000  0.000000 -0.156986      2.000000
  0.163265  0.000000 -0.000000      4.000000
 -0.000000  0.000000 -0.313972      2.000000
 


--------------------------------------------------------------------------------------------------------




 Dimension of arrays:
   k-points           NKPTS =     18   k-points in BZ     NKDIM =     18   number of bands    NBANDS=      8
   number of dos      NEDOS =    301   number of ions     NIONS =      2
   non local maximal  LDIM  =      4   non local SUM 2l+1 LMDIM =      8
   total plane-waves  NPLWV =   2744
   max r-space proj   IRMAX =      1   max aug-charges    IRDMAX=   3198
   dimension x,y,z NGX =    14 NGY =   14 NGZ =   14
   dimension x,y,z NGXF=    28 NGYF=   28 NGZF=   28
   support grid    NGXF=    28 NGYF=   28 NGZF=   28
   ions per type =               2
   NGX,Y,Z   is equivalent  to a cutoff of   6.30,  6.30,  6.30 a.u.
   NGXF,Y,Z  is equivalent  to a cutoff of  12.61, 12.61, 12.61 a.u.

 SYSTEM =  unknown system                          
 POSCAR =  Si2                                     

 Startparameter for this run:
   NWRITE =      2    write-flag & timer
   PREC   = normal    normal or accurate (medium, high low for compatibility)
   ISTART =      0    job   : 0-new  1-cont  2-samecut
   ICHARG =      2    charge: 1-file 2-atom 10-const
   ISPIN  =      1    spin polarized calculation?
   LNONCOLLINEAR =      F non collinear calculations
   LSORBIT =      F    spin-orbit coupling
   INIWAV =      1    electr: 0-lowe 1-rand  2-diag
   LASPH  =      F    aspherical Exc in radial PAW
   METAGGA=      F    non-selfconsistent MetaGGA calc.

 Electronic Relaxation 1
   ENCUT  =  250.0 eV  18.37 Ry    4.29 a.u.   4.76  4.76  4.76*2*pi/ulx,y,z
   ENINI  =  250.0     initial cutoff
   ENAUG  =  322.1 eV  augmentation charge cutoff
   NELM   =     60;   NELMIN=  2; NELMDL= -5     # of ELM steps 
   EDIFF  = 0.4E-03   stopping-criterion for ELM
   LREAL  =      F    real-space projection
   NLSPLINE    = F    spline interpolate recip. space projectors
   LCOMPAT=      F    compatible to vasp.4.4
   GGA_COMPAT  = T    GGA compatible to vasp.4.4-vasp.4.6
   LMAXPAW     = -100 max onsite density
   LMAXMIX     =    2 max onsite mixed and CHGCAR
   VOSKOWN=      0    Vosko Wilk Nusair interpolation
   ROPT   =    0.00000
 Ionic relaxation
   EDIFFG = -.1E-01   stopping-criterion for IOM
   NSW    =     15    number of steps for IOM
   NBLOCK =      1;   KBLOCK =     15    inner block; outer block 
   IBRION =      2    ionic relax: 0-MD 1-quasi-New 2-CG
   NFREE  =      1    steps in history (QN), initial steepest desc. (CG)
   ISIF   =      3    stress and relaxation
   IWAVPR =     11    prediction:  0-non 1-charg 2-wave 3-comb
   ISYM   =      2    0-nonsym 1-usesym 2-fastsym
   LCORR  =      T    Harris-Foulkes like correction to forces

   POTIM  = 0.5000    time-step for ionic-motion
   TEIN   =    0.0    initial temperature
   TEBEG  =    0.0;   TEEND  =   0.0 temperature during run
   SMASS  =  -3.00    Nose mass-parameter (am)
   estimated Nose-frequenzy (Omega)   =  0.10E-29 period in steps =****** mass=  -0.311E-27a.u.
   SCALEE = 1.0000    scale energy and forces
   NPACO  =    256;   APACO  = 16.0  distance and # of slots for P.C.
   PSTRESS=    0.0 pullay stress

  Mass of Ions in am
   POMASS =  28.09
  Ionic Valenz
   ZVAL   =   4.00
  Atomic Wigner-Seitz radii
   RWIGS  =  -1.00
  virtual crystal weights 
   VCA    =   1.00
   NELECT =       8.0000    total number of electrons
   NUPDOWN=      -1.0000    fix difference up-down

 DOS related values:
   EMIN   =  10.00;   EMAX   =-10.00  energy-range for DOS
   EFERMI =   0.00
   ISMEAR =     0;   SIGMA  =   0.20  broadening in eV -4-tet -1-fermi 0-gaus

 Electronic relaxation 2 (details)
   IALGO  =     38    algorithm
   LDIAG  =      T    sub-space diagonalisation (order eigenvalues)
   LSUBROT=      F    optimize rotation matrix (better conditioning)
   TURBO    =      0    0=normal 1=particle mesh
   IRESTART =      0    0=no restart 2=restart with 2 vectors
   NREBOOT  =      0    no. of reboots
   NMIN     =      0    reboot dimension
   EREF     =   0.00    reference energy to select bands
   IMIX   =      4    mixing-type and parameters
     AMIX     =   0.40;   BMIX     =  1.00
     AMIX_MAG =   1.60;   BMIX_MAG =  1.00
     AMIN     =   0.10
     WC   =   100.;   INIMIX=   1;  MIXPRE=   1;  MAXMIX= -45

 Intra band minimization:
   WEIMIN = 0.0010     energy-eigenvalue tresh-hold
   EBREAK =  0.13E-04  absolut break condition
   DEPER  =   0.30     relativ break condition  

   TIME   =   0.40     timestep for ELM

  volume/ion in A,a.u.               =      15.29       103.21
  Fermi-wavevector in a.u.,A,eV,Ry     =   1.046930  1.978411 14.912834  1.096062
  Thomas-Fermi vector in A             =   2.181789
 
 Write flags
   LWAVE        =      T    write WAVECAR
   LDOWNSAMPLE  =      F    k-point downsampling of WAVECAR
   LCHARG       =      T    write CHGCAR
   LVTOT        =      F    write LOCPOT, total local potential
   LVHAR        =      F    write LOCPOT, Hartree potential only
   LELF         =      F    write electronic localiz. function (ELF)
   LORBIT       =      0    0 simple, 1 ext, 2 COOP (PROOUT), +10 PAW based schemes


 Dipole corrections
   LMONO  =      F    monopole corrections only (constant potential shift)
   LDIPOL =      F    correct potential (dipole corrections)
   IDIPOL =      0    1-x, 2-y, 3-z, 4-all directions 
   EPSILON=  1.0000000 bulk dielectric constant

 Exchange correlation treatment:
   GGA     =    --    GGA type
   LEXCH   =     8    internal setting for exchange type
   VOSKOWN=      0    Vosko Wilk Nusair interpolation
   LHFCALC =     F    Hartree Fock is set to
   LHFONE  =     F    Hartree Fock one center treatment
   AEXX    =    0.0000 exact exchange contribution

 Linear response parameters
   LEPSILON=     F    determine dielectric tensor
   LRPA    =     F    only Hartree local field effects (RPA)
   LNABLA  =     F    use nabla operator in PAW spheres
   LVEL    =     F    velocity operator in full k-point grid
   LINTERFAST=   F  fast interpolation
   KINTER  =     0    interpolate to denser k-point grid
   CSHIFT  =0.1000    complex shift for real part using Kramers Kronig
   OMEGAMAX=  -1.0    maximum frequency
   DEG_THRESHOLD= 0.2000000E-02 threshold for treating states as degnerate
   RTIME   =   -0.100 relaxation time in fs
  (WPLASMAI=    0.000 imaginary part of plasma frequency in eV, 0.658/RTIME)
   DFIELD  = 0.0000000 0.0000000 0.0000000 field for delta impulse in time
 
 Orbital magnetization related:
   ORBITALMAG=     F  switch on orbital magnetization
   LCHIMAG   =     F  perturbation theory with respect to B field
   DQ        =  0.001000  dq finite difference perturbation B field
   LLRAUG    =     F  two centre corrections for induced B field



--------------------------------------------------------------------------------------------------------


 conjugate gradient relaxation of ions
 charge density and potential will be updated during run
 non-spin polarized calculation
 Variant of blocked Davidson
 Davidson routine will perform the subspace rotation
 perform sub-space diagonalisation
    after iterative eigenvector-optimisation
 modified Broyden-mixing scheme, WC =      100.0
 initial mixing is a Kerker type mixing with AMIX =  0.4000 and BMIX =      1.0000
 Hartree-type preconditioning will be used
 using additional bands            4
 reciprocal scheme for non local part
 use partial core corrections
 calculate Harris-corrections to forces 
   (improved forces if not selfconsistent)
 use gradient corrections 
 use of overlap-Matrix (Vanderbilt PP)
 Gauss-broadening in eV      SIGMA  =   0.20


--------------------------------------------------------------------------------------------------------


  energy-cutoff  :      250.00
  volume of cell :       30.59
      direct lattice vectors                 reciprocal lattice vectors
    -2.450000000  2.450000000  1.274000000     0.000000000  0.204081633  0.392464678
     2.450000000 -2.450000000  1.274000000     0.204081633  0.000000000  0.392464678
     2.450000000  2.450000000 -1.274000000     0.204081633  0.204081633 -0.000000000

  length of vectors
     3.691622408  3.691622408  3.691622408     0.442354876  0.442354876  0.288615013


 
 k-points in units of 2pi/SCALE and weight: Automatic kpoint scheme                 
   0.00000000  0.00000000  0.00000000       0.008
   0.00000000  0.04081633  0.07849294       0.064
   0.00000000  0.08163265  0.15698587       0.064
   0.04081633  0.04081633  0.15698587       0.064
   0.04081633  0.08163265  0.23547881       0.128
   0.04081633 -0.08163265 -0.07849294       0.128
   0.04081633 -0.04081633  0.00000000       0.032
   0.08163265  0.08163265  0.31397174       0.064
   0.08163265 -0.08163265  0.00000000       0.032
   0.08163265  0.08163265  0.15698587       0.064
   0.08163265  0.00000000  0.00000000       0.032
   0.12244898 -0.04081633  0.00000000       0.064
   0.12244898  0.00000000  0.07849294       0.064
  -0.04081633 -0.04081633 -0.31397174       0.064
  -0.04081633  0.00000000 -0.23547881       0.064
   0.00000000  0.00000000 -0.15698587       0.016
   0.16326531  0.00000000  0.00000000       0.032
   0.00000000  0.00000000 -0.31397174       0.016
 
 k-points in reciprocal lattice and weights: Automatic kpoint scheme                 
   0.00000000  0.00000000  0.00000000       0.008
   0.20000000  0.00000000 -0.00000000       0.064
   0.40000000  0.00000000 -0.00000000       0.064
   0.20000000  0.20000000 -0.00000000       0.064
   0.40000000  0.20000000 -0.00000000       0.128
  -0.40000000  0.20000000  0.00000000       0.128
  -0.20000000  0.20000000  0.00000000       0.032
   0.40000000  0.40000000 -0.00000000       0.064
  -0.40000000  0.40000000  0.00000000       0.032
   0.20000000  0.20000000  0.20000000       0.064
  -0.20000000  0.20000000  0.20000000       0.032
  -0.40000000  0.40000000  0.20000000       0.064
  -0.20000000  0.40000000  0.20000000       0.064
  -0.40000000 -0.40000000  0.20000000       0.064
  -0.20000000 -0.40000000  0.20000000       0.064
  -0.20000000 -0.20000000  0.20000000       0.016
  -0.40000000  0.40000000  0.40000000       0.032
  -0.40000000 -0.40000000  0.40000000       0.016
 
 position of ions in fractional coordinates (direct lattice) 
   0.25000000  0.75000000  0.50000000
   0.00000000  0.00000000  0.00000000
 
 position of ions in cartesian coordinates  (Angst):
   2.45000000  0.00000000  0.63700000
   0.00000000  0.00000000  0.00000000
 


--------------------------------------------------------------------------------------------------------


 k-point  1 :   0.0000 0.0000 0.0000  plane waves:     263
 k-point  2 :   0.2000 0.0000-0.0000  plane waves:     275
 k-point  3 :   0.4000 0.0000-0.0000  plane waves:     281
 k-point  4 :   0.2000 0.2000-0.0000  plane waves:     273
 k-point  5 :   0.4000 0.2000-0.0000  plane waves:     274
 k-point  6 :  -0.4000 0.2000 0.0000  plane waves:     276
 k-point  7 :  -0.2000 0.2000 0.0000  plane waves:     283
 k-point  8 :   0.4000 0.4000-0.0000  plane waves:     274
 k-point  9 :  -0.4000 0.4000 0.0000  plane waves:     275
 k-point 10 :   0.2000 0.2000 0.2000  plane waves:     271
 k-point 11 :  -0.2000 0.2000 0.2000  plane waves:     270
 k-point 12 :  -0.4000 0.4000 0.2000  plane waves:     275
 k-point 13 :  -0.2000 0.4000 0.2000  plane waves:     274
 k-point 14 :  -0.4000-0.4000 0.2000  plane waves:     276
 k-point 15 :  -0.2000-0.4000 0.2000  plane waves:     274
 k-point 16 :  -0.2000-0.2000 0.2000  plane waves:     271
 k-point 17 :  -0.4000 0.4000 0.4000  plane waves:     280
 k-point 18 :  -0.4000-0.4000 0.4000  plane waves:     280

 maximum and minimum number of plane-waves per node :       283      263

 maximum number of plane-waves:       283
 maximum index in each direction: 
   IXMAX=    5   IYMAX=    5   IZMAX=    4
   IXMIN=   -5   IYMIN=   -5   IZMIN=   -5


 serial   3D FFT for wavefunctions
 parallel 3D FFT for charge:
    minimum data exchange during FFTs selected (reduces bandwidth)


 total amount of memory used by VASP MPI-rank0    30822. kBytes
=======================================================================

   base      :      30000. kBytes
   nonl-proj :        340. kBytes
   fftplans  :        119. kBytes
   grid      :        270. kBytes
   one-center:          6. kBytes
   wavefun   :         87. kBytes
 
     INWAV:  cpu time    0.0000: real time    0.0004
 Broyden mixing: mesh for mixing (old mesh)
   NGX =  9   NGY =  9   NGZ =  9
  (NGX  = 28   NGY  = 28   NGZ  = 28)
  gives a total of    729 points

 initial charge density was supplied:
 charge density of overlapping atoms calculated
 number of electron       8.0000000 magnetization 
 keeping initial charge density in first step


--------------------------------------------------------------------------------------------------------


 Maximum index for augmentation-charges          442 (set IRDMAX)


--------------------------------------------------------------------------------------------------------


 First call to EWALD:  gamma=   0.567
 Maximum number of real-space cells 4x 4x 3
 Maximum number of reciprocal cells 3x 3x 3

    FEWALD:  cpu time    0.0080: real time    0.0073


--------------------------------------- Iteration      1(   1)  ---------------------------------------


    POTLOK:  cpu time    0.0240: real time    0.0392
    SETDIJ:  cpu time    0.0080: real time    0.0091
     EDDAV:  cpu time    0.1520: real time    0.1552
       DOS:  cpu time    0.0040: real time    0.0022
    --------------------------------------------
      LOOP:  cpu time    0.1880: real time    0.2064

 eigenvalue-minimisations  :   296
 total energy-change (2. order) :-0.3678103E+00  (-0.2426571E+03)
 number of electron       8.0000000 magnetization 
 augmentation part        8.0000000 magnetization 

 Free energy of the ion-electron system (eV)
  ---------------------------------------------------
  alpha Z        PSCENC =         4.40202223
  Ewald energy   TEWEN  =      -265.18101312
  -Hartree energ DENC   =        -2.30415367
  -exchange      EXHF   =         0.00000000
  -V(xc)+E(xc)   XCENC  =       -17.81545108
  PAW double counting   =        65.95520812      -30.76852678
  entropy T*S    EENTRO =        -0.01212378
  eigenvalues    EBANDS =        39.23272860
  atomic energy  EATOM  =       206.12349923
  Solvation  Ediel_sol  =         0.00000000
  ---------------------------------------------------
  free energy    TOTEN  =        -0.36781026 eV

  energy without entropy =       -0.35568648  energy(sigma->0) =       -0.36174837


--------------------------------------------------------------------------------------------------------




--------------------------------------- Iteration      1(   2)  ---------------------------------------


     EDDAV:  cpu time    0.2400: real time    0.2540
       DOS:  cpu time    0.0000: real time    0.0020
    --------------------------------------------
      LOOP:  cpu time    0.2400: real time    0.2562

 eigenvalue-minimisations  :   456
 total energy-change (2. order) :-0.9797060E+01  (-0.9162100E+01)
 number of electron       8.0000000 magnetization 
 augmentation part        8.0000000 magnetization 

 Free energy of the ion-electron system (eV)
  ---------------------------------------------------
  alpha Z        PSCENC =         4.40202223
  Ewald energy   TEWEN  =      -265.18101312
  -Hartree energ DENC   =        -2.30415367
  -exchange      EXHF   =         0.00000000
  -V(xc)+E(xc)   XCENC  =       -17.81545108
  PAW double counting   =        65.95520812      -30.76852678
  entropy T*S    EENTRO =        -0.01908493
  eigenvalues    EBANDS =        29.44262991
  atomic energy  EATOM  =       206.12349923
  Solvation  Ediel_sol  =         0.00000000
  ---------------------------------------------------
  free energy    TOTEN  =       -10.16487010 eV

  energy without entropy =      -10.14578516  energy(sigma->0) =      -10.15532763


--------------------------------------------------------------------------------------------------------




--------------------------------------- Iteration      1(   3)  ---------------------------------------


     EDDAV:  cpu time    0.1880: real time    0.1966
       DOS:  cpu time    0.0040: real time    0.0020
    --------------------------------------------
      LOOP:  cpu time    0.1920: real time    0.1983

 eigenvalue-minimisations  :   360
 total energy-change (2. order) :-0.7588224E-01  (-0.7587518E-01)
 number of electron       8.0000000 magnetization 
 augmentation part        8.0000000 magnetization 

 Free energy of the ion-electron system (eV)
  ---------------------------------------------------
  alpha Z        PSCENC =         4.40202223
  Ewald energy   TEWEN  =      -265.18101312
  -Hartree energ DENC   =        -2.30415367
  -exchange      EXHF   =         0.00000000
  -V(xc)+E(xc)   XCENC  =       -17.81545108
  PAW double counting   =        65.95520812      -30.76852678
  entropy T*S    EENTRO =        -0.01902563
  eigenvalues    EBANDS =        29.36668837
  atomic energy  EATOM  =       206.12349923
  Solvation  Ediel_sol  =         0.00000000
  ---------------------------------------------------
  free energy    TOTEN  =       -10.24075233 eV

  energy without entropy =      -10.22172670  energy(sigma->0) =      -10.23123952


--------------------------------------------------------------------------------------------------------




--------------------------------------- Iteration      1(   4)  ---------------------------------------


     EDDAV:  cpu time    0.2480: real time    0.2551
       DOS:  cpu time    0.0000: real time    0.0020
    --------------------------------------------
      LOOP:  cpu time    0.2480: real time    0.2572

 eigenvalue-minimisations  :   464
 total energy-change (2. order) :-0.1657330E-03  (-0.1657333E-03)
 number of electron       8.0000000 magnetization 
 augmentation part        8.0000000 magnetization 

 Free energy of the ion-electron system (eV)
  ---------------------------------------------------
  alpha Z        PSCENC =         4.40202223
  Ewald energy   TEWEN  =      -265.18101312
  -Hartree energ DENC   =        -2.30415367
  -exchange      EXHF   =         0.00000000
  -V(xc)+E(xc)   XCENC  =       -17.81545108
  PAW double counting   =        65.95520812      -30.76852678
  entropy T*S    EENTRO =        -0.01902230
  eigenvalues    EBANDS =        29.36651930
  atomic energy  EATOM  =       206.12349923
  Solvation  Ediel_sol  =         0.00000000
  ---------------------------------------------------
  free energy    TOTEN  =       -10.24091807 eV

  energy without entropy =      -10.22189577  energy(sigma->0) =      -10.23140692


--------------------------------------------------------------------------------------------------------




--------------------------------------- Iteration      1(   5)  ---------------------------------------


     EDDAV:  cpu time    0.1880: real time    0.1927
       DOS:  cpu time    0.0000: real time    0.0022
    CHARGE:  cpu time    0.0120: real time    0.0108
    MIXING:  cpu time    0.0000: real time    0.0019
    --------------------------------------------
      LOOP:  cpu time    0.2000: real time    0.2076

 eigenvalue-minimisations  :   352
 total energy-change (2. order) :-0.4567971E-07  (-0.4582122E-07)
 number of electron       7.9999993 magnetization 
 augmentation part       -0.4707018 magnetization 

 Broyden mixing:
  rms(total) = 0.14608E+00    rms(broyden)= 0.14606E+00
  rms(prec ) = 0.32753E+00
  weight for this iteration     100.00

 Free energy of the ion-electron system (eV)
  ---------------------------------------------------
  alpha Z        PSCENC =         4.40202223
  Ewald energy   TEWEN  =      -265.18101312
  -Hartree energ DENC   =        -2.30415367
  -exchange      EXHF   =         0.00000000
  -V(xc)+E(xc)   XCENC  =       -17.81545108
  PAW double counting   =        65.95520812      -30.76852678
  entropy T*S    EENTRO =        -0.01902230
  eigenvalues    EBANDS =        29.36651926
  atomic energy  EATOM  =       206.12349923
  Solvation  Ediel_sol  =         0.00000000
  ---------------------------------------------------
  free energy    TOTEN  =       -10.24091811 eV

  energy without entropy =      -10.22189581  energy(sigma->0) =      -10.23140696


--------------------------------------------------------------------------------------------------------




--------------------------------------- Iteration      1(   6)  ---------------------------------------


    POTLOK:  cpu time    0.0200: real time    0.0270
    SETDIJ:  cpu time    0.0080: real time    0.0089
     EDDAV:  cpu time    0.2160: real time    0.2173
       DOS:  cpu time    0.0000: real time    0.0020
    CHARGE:  cpu time    0.0120: real time    0.0098
    MIXING:  cpu time    0.0000: real time    0.0015
    --------------------------------------------
      LOOP:  cpu time    0.2560: real time    0.2668

 eigenvalue-minimisations  :   416
 total energy-change (2. order) : 0.5358171E-02  (-0.1866200E-03)
 number of electron       7.9999993 magnetization 
 augmentation part       -0.4723641 magnetization 

 Broyden mixing:
  rms(total) = 0.91388E-01    rms(broyden)= 0.91387E-01
  rms(prec ) = 0.20510E+00
  weight for this iteration     100.00

 eigenvalues of (default mixing * dielectric matrix)
  average eigenvalue GAMMA=   2.6665
  2.6665

 Free energy of the ion-electron system (eV)
  ---------------------------------------------------
  alpha Z        PSCENC =         4.40202223
  Ewald energy   TEWEN  =      -265.18101312
  -Hartree energ DENC   =        -2.32692296
  -exchange      EXHF   =         0.00000000
  -V(xc)+E(xc)   XCENC  =       -17.73328389
  PAW double counting   =        67.87293412      -32.72433116
  entropy T*S    EENTRO =        -0.01914540
  eigenvalues    EBANDS =        29.35068101
  atomic energy  EATOM  =       206.12349923
  Solvation  Ediel_sol  =         0.00000000
  ---------------------------------------------------
  free energy    TOTEN  =       -10.23555994 eV

  energy without entropy =      -10.21641454  energy(sigma->0) =      -10.22598724


--------------------------------------------------------------------------------------------------------




--------------------------------------- Iteration      1(   7)  ---------------------------------------


    POTLOK:  cpu time    0.0200: real time    0.0273
    SETDIJ:  cpu time    0.0080: real time    0.0088
     EDDAV:  cpu time    0.1400: real time    0.1417
       DOS:  cpu time    0.0040: real time    0.0021
    CHARGE:  cpu time    0.0080: real time    0.0093
    MIXING:  cpu time    0.0000: real time    0.0015
    --------------------------------------------
      LOOP:  cpu time    0.1800: real time    0.1909

 eigenvalue-minimisations  :   288
 total energy-change (2. order) : 0.4238574E-02  (-0.5414889E-03)
 number of electron       7.9999993 magnetization 
 augmentation part       -0.4754345 magnetization 

 Broyden mixing:
  rms(total) = 0.34078E-02    rms(broyden)= 0.34004E-02
  rms(prec ) = 0.89399E-02
  weight for this iteration     100.00

 eigenvalues of (default mixing * dielectric matrix)
  average eigenvalue GAMMA=   2.6083
  2.6083  2.6083

 Free energy of the ion-electron system (eV)
  ---------------------------------------------------
  alpha Z        PSCENC =         4.40202223
  Ewald energy   TEWEN  =      -265.18101312
  -Hartree energ DENC   =        -2.45794983
  -exchange      EXHF   =         0.00000000
  -V(xc)+E(xc)   XCENC  =       -17.58039245
  PAW double counting   =        70.94799640      -35.86463000
  entropy T*S    EENTRO =        -0.01933198
  eigenvalues    EBANDS =        29.39847814
  atomic energy  EATOM  =       206.12349923
  Solvation  Ediel_sol  =         0.00000000
  ---------------------------------------------------
  free energy    TOTEN  =       -10.23132137 eV

  energy without entropy =      -10.21198939  energy(sigma->0) =      -10.22165538


--------------------------------------------------------------------------------------------------------




--------------------------------------- Iteration      1(   8)  ---------------------------------------


    POTLOK:  cpu time    0.0200: real time    0.0321
    SETDIJ:  cpu time    0.0080: real time    0.0088
     EDDAV:  cpu time    0.0960: real time    0.0971
       DOS:  cpu time    0.0040: real time    0.0021
    --------------------------------------------
      LOOP:  cpu time    0.1280: real time    0.1392

 eigenvalue-minimisations  :   168
 total energy-change (2. order) : 0.1833453E-04  (-0.8958350E-05)
 number of electron       7.9999993 magnetization 
 augmentation part       -0.4754345 magnetization 

 Free energy of the ion-electron system (eV)
  ---------------------------------------------------
  alpha Z        PSCENC =         4.40202223
  Ewald energy   TEWEN  =      -265.18101312
  -Hartree energ DENC   =        -2.47839378
  -exchange      EXHF   =         0.00000000
  -V(xc)+E(xc)   XCENC  =       -17.58083833
  PAW double counting   =        70.74750675      -35.66463332
  entropy T*S    EENTRO =        -0.01930117
  eigenvalues    EBANDS =        29.41984847
  atomic energy  EATOM  =       206.12349923
  Solvation  Ediel_sol  =         0.00000000
  ---------------------------------------------------
  free energy    TOTEN  =       -10.23130303 eV

  energy without entropy =      -10.21200186  energy(sigma->0) =      -10.22165245


--------------------------------------------------------------------------------------------------------




 average (electrostatic) potential at core
  the test charge radii are     0.9892
  (the norm of the test charge is              1.0000)
       1 -80.5481       2 -80.5481
 
 
 
 E-fermi :   9.1554     XC(G=0): -10.8934     alpha+bet :-15.6819


 k-point     1 :       0.0000    0.0000    0.0000
  band No.  band energies     occupation 
      1      -4.6166      2.00000
      2       6.1830      2.00000
      3       6.2983      2.00000
      4       6.2984      2.00000
      5      10.5421      0.00000
      6      16.8712      0.00000
      7      17.3687      0.00000
      8      17.3687      0.00000

 k-point     2 :       0.2000    0.0000   -0.0000
  band No.  band energies     occupation 
      1      -3.4899      2.00000
      2       5.0233      2.00000
      3       6.2768      2.00000
      4       9.3011      0.30275
      5      12.6313      0.00000
      6      12.8211      0.00000
      7      13.4157      0.00000
      8      15.5137      0.00000

 k-point     3 :       0.4000    0.0000   -0.0000
  band No.  band energies     occupation 
      1      -0.1592      2.00000
      2       5.1740      2.00000
      3       6.0050      2.00000
      4       7.2543      2.00000
      5       8.9539      1.84571
      6      11.3936      0.00000
      7      13.6668      0.00000
      8      14.2985      0.00000

 k-point     4 :       0.2000    0.2000   -0.0000
  band No.  band energies     occupation 
      1      -0.6215      2.00000
      2       5.9985      2.00000
      3       6.8939      2.00000
      4       6.9312      2.00000
      5       9.7384      0.00004
      6      11.8648      0.00000
      7      12.4044      0.00000
      8      12.6841      0.00000

 k-point     5 :       0.4000    0.2000   -0.0000
  band No.  band energies     occupation 
      1       1.2104      2.00000
      2       3.3916      2.00000
      3       4.4679      2.00000
      4       7.7079      2.00000
      5       9.0442      1.56820
      6      11.0316      0.00000
      7      13.8701      0.00000
      8      16.2521      0.00000

 k-point     6 :      -0.4000    0.2000    0.0000
  band No.  band energies     occupation 
      1      -2.5463      2.00000
      2       2.0330      2.00000
      3       6.7454      2.00000
      4      10.4383      0.00000
      5      11.0911      0.00000
      6      12.2933      0.00000
      7      13.9889      0.00000
      8      15.8950      0.00000

 k-point     7 :      -0.2000    0.2000    0.0000
  band No.  band energies     occupation 
      1      -4.1409      2.00000
      2       2.7422      2.00000
      3       6.7399      2.00000
      4       8.3571      2.00000
      5      13.1689      0.00000
      6      13.2914      0.00000
      7      15.0178      0.00000
      8      19.2704      0.00000

 k-point     8 :       0.4000    0.4000   -0.0000
  band No.  band energies     occupation 
      1      -0.6833      2.00000
      2      -0.6796      2.00000
      3       8.4176      2.00000
      4       8.4838      2.00000
      5      10.6794      0.00000
      6      13.1975      0.00000
      7      13.5996      0.00000
      8      14.0572      0.00000

 k-point     9 :      -0.4000    0.4000    0.0000
  band No.  band energies     occupation 
      1      -2.7226      2.00000
      2      -0.3960      2.00000
      3       8.0629      2.00000
      4       9.9507      0.00000
      5      10.2578      0.00000
      6      12.1832      0.00000
      7      18.1045      0.00000
      8      18.8246      0.00000

 k-point    10 :       0.2000    0.2000    0.2000
  band No.  band energies     occupation 
      1       0.7647      2.00000
      2       3.0255      2.00000
      3       6.1222      2.00000
      4       6.1435      2.00000
      5      11.3578      0.00000
      6      13.0748      0.00000
      7      13.9944      0.00000
      8      14.4647      0.00000

 k-point    11 :      -0.2000    0.2000    0.2000
  band No.  band energies     occupation 
      1      -3.6679      2.00000
      2       2.5738      2.00000
      3       4.1976      2.00000
      4      10.2235      0.00000
      5      11.4400      0.00000
      6      14.4678      0.00000
      7      17.6362      0.00000
      8      18.1484      0.00000

 k-point    12 :      -0.4000    0.4000    0.2000
  band No.  band energies     occupation 
      1      -2.2623      2.00000
      2       0.0182      2.00000
      3       4.9513      2.00000
      4       7.1562      2.00000
      5      13.5863      0.00000
      6      15.6303      0.00000
      7      17.8259      0.00000
      8      18.0730      0.00000

 k-point    13 :      -0.2000    0.4000    0.2000
  band No.  band energies     occupation 
      1      -1.6181      2.00000
      2       2.2623      2.00000
      3       3.9854      2.00000
      4       7.7271      2.00000
      5       9.9945      0.00000
      6      15.4745      0.00000
      7      16.3055      0.00000
      8      17.2258      0.00000

 k-point    14 :      -0.4000   -0.4000    0.2000
  band No.  band energies     occupation 
      1       0.1820      2.00000
      2       0.1938      2.00000
      3       5.1294      2.00000
      4       5.1313      2.00000
      5       9.5959      0.00184
      6      16.1856      0.00000
      7      17.6156      0.00000
      8      18.4653      0.00000

 k-point    15 :      -0.2000   -0.4000    0.2000
  band No.  band energies     occupation 
      1       2.4682      2.00000
      2       3.4260      2.00000
      3       4.2943      2.00000
      4       5.7874      2.00000
      5       7.3015      2.00000
      6      12.1297      0.00000
      7      13.4973      0.00000
      8      16.1495      0.00000

 k-point    16 :      -0.2000   -0.2000    0.2000
  band No.  band energies     occupation 
      1      -1.0877      2.00000
      2       7.7670      2.00000
      3       8.1045      2.00000
      4       8.4461      2.00000
      5       8.4461      2.00000
      6      10.0916      0.00000
      7      11.5703      0.00000
      8      11.5704      0.00000

 k-point    17 :      -0.4000    0.4000    0.4000
  band No.  band energies     occupation 
      1      -0.9197      2.00000
      2       0.6884      2.00000
      3       2.5042      2.00000
      4       4.0874      2.00000
      5      16.1280      0.00000
      6      16.4652      0.00000
      7      18.9902      0.00000
      8      20.2933      0.00000

 k-point    18 :      -0.4000   -0.4000    0.4000
  band No.  band energies     occupation 
      1       1.3108      2.00000
      2       1.3338      2.00000
      3       3.1245      2.00000
      4       3.1245      2.00000
      5       9.1816      0.85306
      6      18.3811      0.00000
      7      19.5748      0.00000
      8      19.5748      0.00000


--------------------------------------------------------------------------------------------------------


 soft charge-density along one line, spin component           1
         0         1         2         3         4         5         6         7         8         9
 total charge-density along one line
 
 pseudopotential strength for first ion, spin component:           1
 18.065  -0.003   0.000  -0.000  -0.000  -0.000   0.000   0.000
 -0.003   0.005  -0.000   0.000   0.000   0.000  -0.000  -0.000
  0.000  -0.000   4.117   0.000   0.000  -0.006  -0.000  -0.000
 -0.000   0.000   0.000   4.118   0.000  -0.000  -0.006  -0.000
 -0.000   0.000   0.000   0.000   4.117  -0.000  -0.000  -0.006
 -0.000   0.000  -0.006  -0.000  -0.000   0.005   0.000   0.000
  0.000  -0.000  -0.000  -0.006  -0.000   0.000   0.005   0.000
  0.000  -0.000  -0.000  -0.000  -0.006   0.000   0.000   0.005
 total augmentation occupancy for first ion, spin component:           1
  1.627  -0.530   0.000   0.000   0.000   0.000   0.000   0.000
 -0.530   0.972  -0.000   0.000   0.000   0.000   0.000  -0.000
 -0.000  -0.000   0.898   0.000  -0.000  -0.542   0.000   0.000
  0.000   0.000  -0.000   0.841   0.000   0.000  -0.541   0.000
  0.000   0.000  -0.000   0.000   0.898   0.000   0.000  -0.542
  0.000  -0.000  -0.542   0.000   0.000   0.415   0.000  -0.000
  0.000   0.000   0.000  -0.541   0.000   0.000   0.440  -0.000
 -0.000  -0.000   0.000   0.000  -0.542  -0.000  -0.000   0.415


------------------------ aborting loop because EDIFF is reached ----------------------------------------


    CHARGE:  cpu time    0.0120: real time    0.0089
    FORLOC:  cpu time    0.0000: real time    0.0005
    FORNL :  cpu time    0.0080: real time    0.0082
    STRESS:  cpu time    0.0560: real time    0.0545
    FORCOR:  cpu time    0.0120: real time    0.0127
    FORHAR:  cpu time    0.0000: real time    0.0036
    MIXING:  cpu time    0.0000: real time    0.0010
    OFIELD:  cpu time    0.0000: real time    0.0004

  FORCE on cell =-STRESS in cart. coord.  units (eV):
  Direction    XX          YY          ZZ          XY          YZ          ZX
  --------------------------------------------------------------------------------------
  Alpha Z     4.40202     4.40202     4.40202
  Ewald     -90.96023   -90.96023   -83.26083    -0.00000     0.00000     0.00000
  Hartree     0.54901     0.54901     1.38349     0.00000     0.00000     0.00000
  E(xc)     -25.43361   -25.43361   -25.38110     0.00005     0.00001     0.00001
  Local     -11.33916   -11.33916   -17.37824    -0.00002    -0.00005    -0.00005
  n-local    76.95291    77.35213    76.86305     1.03142    -0.48442    -0.36719
  augment   -12.14748   -12.14748   -11.98285     0.00004     0.00005     0.00005
  Kinetic    63.75138    52.81850    54.60043     5.02130    -4.07299    -5.34368
  Fock        0.00000     0.00000     0.00000     0.00000     0.00000     0.00000
  -------------------------------------------------------------------------------------
  Total       0.50801     0.50801    -0.75404    -0.00000     0.00000     0.00000
  in kB      26.60832    26.60832   -39.49499    -0.00000     0.00000     0.00000
  external pressure =        4.57 kB  Pullay stress =        0.00 kB


 VOLUME and BASIS-vectors are now :
 -----------------------------------------------------------------------------
  energy-cutoff  :      250.00
  volume of cell :       30.59
      direct lattice vectors                 reciprocal lattice vectors
    -2.450000000  2.450000000  1.274000000     0.000000000  0.204081633  0.392464678
     2.450000000 -2.450000000  1.274000000     0.204081633  0.000000000  0.392464678
     2.450000000  2.450000000 -1.274000000     0.204081633  0.204081633 -0.000000000

  length of vectors
     3.691622408  3.691622408  3.691622408     0.442354876  0.442354876  0.288615013


 FORCES acting on ions
    electron-ion (+dipol)            ewald-force                    non-local-force                 convergence-correction
 -----------------------------------------------------------------------------------------------
   0.941E-05 -.941E-05 0.139E-13   0.198E-14 0.156E-15 0.342E-17   -.972E-16 0.485E-16 -.206E-16   -.177E-06 0.177E-06 -.309E-15
   -.941E-05 0.941E-05 -.540E-14   -.185E-14 0.943E-16 0.891E-15   0.766E-16 -.414E-16 0.218E-16   0.177E-06 -.177E-06 0.329E-15
 -----------------------------------------------------------------------------------------------
   -.155E-13 0.124E-13 0.854E-14   0.139E-15 0.250E-15 0.894E-15   -.206E-16 0.711E-17 0.123E-17   -.235E-15 0.457E-16 0.193E-16
 
 
 POSITION                                       TOTAL-FORCE (eV/Angst)
 -----------------------------------------------------------------------------------
      2.45000      0.00000      0.63700        -0.000000      0.000000     -0.000000
      0.00000      0.00000      0.00000         0.000000     -0.000000      0.000000
 -----------------------------------------------------------------------------------
    total drift:                               -0.000000      0.000000      0.000000


--------------------------------------------------------------------------------------------------------



  FREE ENERGIE OF THE ION-ELECTRON SYSTEM (eV)
  ---------------------------------------------------
  free  energy   TOTEN  =       -10.23130303 eV

  energy  without entropy=      -10.21200186  energy(sigma->0) =      -10.22165245
 


--------------------------------------------------------------------------------------------------------


    POTLOK:  cpu time    0.0280: real time    0.0459


--------------------------------------------------------------------------------------------------------




--------------------------------------------------------------------------------------------------------


    WAVPRE:  cpu time    0.4560: real time    0.7421
    FEWALD:  cpu time    0.0040: real time    0.0008
    GENKIN:  cpu time    0.0040: real time    0.0062
    ORTHCH:  cpu time    0.0120: real time    0.0117
     LOOP+:  cpu time    2.2760: real time    2.7303


--------------------------------------- Iteration      2(   1)  ---------------------------------------


    POTLOK:  cpu time    0.0160: real time    0.0245
    SETDIJ:  cpu time    0.0080: real time    0.0085
     EDDAV:  cpu time    0.2240: real time    0.2235
       DOS:  cpu time    0.0040: real time    0.0023
    CHARGE:  cpu time    0.0080: real time    0.0094
    MIXING:  cpu time    0.0000: real time    0.0011
    --------------------------------------------
      LOOP:  cpu time    0.2600: real time    0.2702

 eigenvalue-minimisations  :   432
 total energy-change (2. order) :-0.3268786E-01  (-0.6932704E-01)
 number of electron       8.0000012 magnetization 
 augmentation part       -0.4756923 magnetization 

 Broyden mixing:
  rms(total) = 0.56236E-01    rms(broyden)= 0.56219E-01
  rms(prec ) = 0.16850E+00
  weight for this iteration     100.00

 Free energy of the ion-electron system (eV)
  ---------------------------------------------------
  alpha Z        PSCENC =         4.37567706
  Ewald energy   TEWEN  =      -264.43954791
  -Hartree energ DENC   =        -2.49365519
  -exchange      EXHF   =         0.00000000
  -V(xc)+E(xc)   XCENC  =       -17.60990578
  PAW double counting   =        70.75057953      -35.66802495
  entropy T*S    EENTRO =        -0.02466611
  eigenvalues    EBANDS =        28.72203491
  atomic energy  EATOM  =       206.12349923
  Solvation  Ediel_sol  =         0.00000000
  ---------------------------------------------------
  free energy    TOTEN  =       -10.26400922 eV

  energy without entropy =      -10.23934311  energy(sigma->0) =      -10.25167617


--------------------------------------------------------------------------------------------------------




--------------------------------------- Iteration      2(   2)  ---------------------------------------


    POTLOK:  cpu time    0.0200: real time    0.0295
    SETDIJ:  cpu time    0.0080: real time    0.0087
     EDDAV:  cpu time    0.1640: real time    0.1639
       DOS:  cpu time    0.0000: real time    0.0019
    CHARGE:  cpu time    0.0120: real time    0.0095
    MIXING:  cpu time    0.0000: real time    0.0012
    --------------------------------------------
      LOOP:  cpu time    0.2040: real time    0.2144

 eigenvalue-minimisations  :   328
 total energy-change (2. order) : 0.9257642E-02  (-0.1539860E-02)
 number of electron       8.0000012 magnetization 
 augmentation part       -0.4757296 magnetization 

 Broyden mixing:
  rms(total) = 0.31304E-01    rms(broyden)= 0.31303E-01
  rms(prec ) = 0.93859E-01
  weight for this iteration     100.00

 eigenvalues of (default mixing * dielectric matrix)
  average eigenvalue GAMMA=   2.2515
  2.2515

 Free energy of the ion-electron system (eV)
  ---------------------------------------------------
  alpha Z        PSCENC =         4.37567706
  Ewald energy   TEWEN  =      -264.43954791
  -Hartree energ DENC   =        -2.54806201
  -exchange      EXHF   =         0.00000000
  -V(xc)+E(xc)   XCENC  =       -17.60687073
  PAW double counting   =        70.76743096      -35.68555678
  entropy T*S    EENTRO =        -0.02494194
  eigenvalues    EBANDS =        28.78362054
  atomic energy  EATOM  =       206.12349923
  Solvation  Ediel_sol  =         0.00000000
  ---------------------------------------------------
  free energy    TOTEN  =       -10.25475158 eV

  energy without entropy =      -10.22980964  energy(sigma->0) =      -10.24228061


--------------------------------------------------------------------------------------------------------




--------------------------------------- Iteration      2(   3)  ---------------------------------------


    POTLOK:  cpu time    0.0200: real time    0.0272
    SETDIJ:  cpu time    0.0080: real time    0.0086
     EDDAV:  cpu time    0.1880: real time    0.1909
       DOS:  cpu time    0.0040: real time    0.0021
    CHARGE:  cpu time    0.0080: real time    0.0098
    MIXING:  cpu time    0.0000: real time    0.0012
    --------------------------------------------
      LOOP:  cpu time    0.2320: real time    0.2397

 eigenvalue-minimisations  :   376
 total energy-change (2. order) : 0.4339070E-02  (-0.1241567E-02)
 number of electron       8.0000012 magnetization 
 augmentation part       -0.4750626 magnetization 

 Broyden mixing:
  rms(total) = 0.28531E-02    rms(broyden)= 0.28528E-02
  rms(prec ) = 0.67557E-02
  weight for this iteration     100.00

 eigenvalues of (default mixing * dielectric matrix)
  average eigenvalue GAMMA=   1.3450
  2.2112  0.4789

 Free energy of the ion-electron system (eV)
  ---------------------------------------------------
  alpha Z        PSCENC =         4.37567706
  Ewald energy   TEWEN  =      -264.43954791
  -Hartree energ DENC   =        -2.63131153
  -exchange      EXHF   =         0.00000000
  -V(xc)+E(xc)   XCENC  =       -17.60155611
  PAW double counting   =        70.76572062      -35.68417548
  entropy T*S    EENTRO =        -0.02523704
  eigenvalues    EBANDS =        28.86651864
  atomic energy  EATOM  =       206.12349923
  Solvation  Ediel_sol  =         0.00000000
  ---------------------------------------------------
  free energy    TOTEN  =       -10.25041251 eV

  energy without entropy =      -10.22517547  energy(sigma->0) =      -10.23779399


--------------------------------------------------------------------------------------------------------




--------------------------------------- Iteration      2(   4)  ---------------------------------------


    POTLOK:  cpu time    0.0200: real time    0.0287
    SETDIJ:  cpu time    0.0080: real time    0.0088
     EDDAV:  cpu time    0.1000: real time    0.0974
       DOS:  cpu time    0.0000: real time    0.0021
    --------------------------------------------
      LOOP:  cpu time    0.1240: real time    0.1371

 eigenvalue-minimisations  :   176
 total energy-change (2. order) :-0.3165792E-04  (-0.4431571E-04)
 number of electron       8.0000012 magnetization 
 augmentation part       -0.4750626 magnetization 

 Free energy of the ion-electron system (eV)
  ---------------------------------------------------
  alpha Z        PSCENC =         4.37567706
  Ewald energy   TEWEN  =      -264.43954791
  -Hartree energ DENC   =        -2.62966522
  -exchange      EXHF   =         0.00000000
  -V(xc)+E(xc)   XCENC  =       -17.60176746
  PAW double counting   =        70.75562481      -35.67368033
  entropy T*S    EENTRO =        -0.02522970
  eigenvalues    EBANDS =        28.86464537
  atomic energy  EATOM  =       206.12349923
  Solvation  Ediel_sol  =         0.00000000
  ---------------------------------------------------
  free energy    TOTEN  =       -10.25044417 eV

  energy without entropy =      -10.22521446  energy(sigma->0) =      -10.23782932


--------------------------------------------------------------------------------------------------------




 average (electrostatic) potential at core
  the test charge radii are     0.9892
  (the norm of the test charge is              1.0000)
       1 -80.6311       2 -80.6311
 
 
 
 E-fermi :   9.0494     XC(G=0): -10.8650     alpha+bet :-15.5881


 k-point     1 :       0.0000    0.0000    0.0000
  band No.  band energies     occupation 
      1      -4.6526      2.00000
      2       5.6567      2.00000
      3       6.0696      2.00000
      4       6.0696      2.00000
      5      10.3937      0.00000
      6      16.6793      0.00000
      7      16.8742      0.00000
      8      16.8742      0.00000

 k-point     2 :       0.2000    0.0000   -0.0000
  band No.  band energies     occupation 
      1      -3.4979      2.00000
      2       4.7182      2.00000
      3       6.1330      2.00000
      4       8.9538      1.50093
      5      12.4836      0.00000
      6      13.0701      0.00000
      7      13.3955      0.00000
      8      15.3898      0.00000

 k-point     3 :       0.4000    0.0000   -0.0000
  band No.  band energies     occupation 
      1      -0.0827      2.00000
      2       5.3684      2.00000
      3       5.8014      2.00000
      4       7.2921      2.00000
      5       8.9530      1.50448
      6      11.5150      0.00000
      7      13.4906      0.00000
      8      14.1254      0.00000

 k-point     4 :       0.2000    0.2000   -0.0000
  band No.  band energies     occupation 
      1      -0.5328      2.00000
      2       5.9075      2.00000
      3       7.0040      2.00000
      4       7.0098      2.00000
      5       9.6754      0.00001
      6      11.6900      0.00000
      7      12.4433      0.00000
      8      12.6579      0.00000

 k-point     5 :       0.4000    0.2000   -0.0000
  band No.  band energies     occupation 
      1       1.2510      2.00000
      2       3.3857      2.00000
      3       4.6327      2.00000
      4       7.6884      2.00000
      5       9.0049      1.24723
      6      10.9373      0.00000
      7      13.8594      0.00000
      8      16.0305      0.00000

 k-point     6 :      -0.4000    0.2000    0.0000
  band No.  band energies     occupation 
      1      -2.5801      2.00000
      2       1.8631      2.00000
      3       6.5565      2.00000
      4      10.3773      0.00000
      5      10.8143      0.00000
      6      12.3104      0.00000
      7      14.2026      0.00000
      8      15.5494      0.00000

 k-point     7 :      -0.2000    0.2000    0.0000
  band No.  band energies     occupation 
      1      -4.1898      2.00000
      2       2.4905      2.00000
      3       6.5032      2.00000
      4       7.9607      2.00000
      5      12.8999      0.00000
      6      12.9592      0.00000
      7      14.5279      0.00000
      8      19.8961      0.00000

 k-point     8 :       0.4000    0.4000   -0.0000
  band No.  band energies     occupation 
      1      -0.7686      2.00000
      2      -0.7663      2.00000
      3       8.1985      2.00000
      4       8.2745      2.00000
      5      10.8638      0.00000
      6      12.8026      0.00000
      7      13.8119      0.00000
      8      13.8866      0.00000

 k-point     9 :      -0.4000    0.4000    0.0000
  band No.  band energies     occupation 
      1      -2.8100      2.00000
      2      -0.5490      2.00000
      3       7.8028      2.00000
      4       9.5448      0.00046
      5       9.9624      0.00000
      6      11.7370      0.00000
      7      17.8410      0.00000
      8      19.4729      0.00000

 k-point    10 :       0.2000    0.2000    0.2000
  band No.  band energies     occupation 
      1       0.8167      2.00000
      2       3.0170      2.00000
      3       6.2672      2.00000
      4       6.2760      2.00000
      5      11.2189      0.00000
      6      12.8496      0.00000
      7      13.7756      0.00000
      8      14.2865      0.00000

 k-point    11 :      -0.2000    0.2000    0.2000
  band No.  band energies     occupation 
      1      -3.7299      2.00000
      2       2.2747      2.00000
      3       4.0611      2.00000
      4       9.8937      0.00000
      5      10.9775      0.00000
      6      14.1953      0.00000
      7      17.6332      0.00000
      8      17.8489      0.00000

 k-point    12 :      -0.4000    0.4000    0.2000
  band No.  band energies     occupation 
      1      -2.3643      2.00000
      2      -0.1564      2.00000
      3       4.7447      2.00000
      4       6.8894      2.00000
      5      13.1624      0.00000
      6      15.2955      0.00000
      7      18.1544      0.00000
      8      18.5146      0.00000

 k-point    13 :      -0.2000    0.4000    0.2000
  band No.  band energies     occupation 
      1      -1.6792      2.00000
      2       2.0278      2.00000
      3       3.9167      2.00000
      4       7.5122      2.00000
      5      10.3465      0.00000
      6      15.0970      0.00000
      7      16.3635      0.00000
      8      17.3341      0.00000

 k-point    14 :      -0.4000   -0.4000    0.2000
  band No.  band energies     occupation 
      1       0.0626      2.00000
      2       0.0697      2.00000
      3       4.9753      2.00000
      4       4.9806      2.00000
      5       9.9885      0.00000
      6      16.3287      0.00000
      7      17.2278      0.00000
      8      17.9927      0.00000

 k-point    15 :      -0.2000   -0.4000    0.2000
  band No.  band energies     occupation 
      1       2.4947      2.00000
      2       3.6218      2.00000
      3       4.1566      2.00000
      4       5.8461      2.00000
      5       7.2488      2.00000
      6      12.0433      0.00000
      7      13.5555      0.00000
      8      15.9944      0.00000

 k-point    16 :      -0.2000   -0.2000    0.2000
  band No.  band energies     occupation 
      1      -0.9867      2.00000
      2       7.6187      2.00000
      3       8.1067      2.00000
      4       8.5346      1.99973
      5       8.5346      1.99973
      6       9.9101      0.00000
      7      11.5488      0.00000
      8      11.5489      0.00000

 k-point    17 :      -0.4000    0.4000    0.4000
  band No.  band energies     occupation 
      1      -1.0706      2.00000
      2       0.4364      2.00000
      3       2.4175      2.00000
      4       3.9032      2.00000
      5      16.3597      0.00000
      6      17.0268      0.00000
      7      18.8116      0.00000
      8      19.6937      0.00000

 k-point    18 :      -0.4000   -0.4000    0.4000
  band No.  band energies     occupation 
      1       1.1057      2.00000
      2       1.1177      2.00000
      3       3.0789      2.00000
      4       3.0789      2.00000
      5       9.6013      0.00010
      6      18.2741      0.00000
      7      19.6368      0.00000
      8      19.6369      0.00000


--------------------------------------------------------------------------------------------------------


 soft charge-density along one line, spin component           1
         0         1         2         3         4         5         6         7         8         9
 total charge-density along one line
 
 pseudopotential strength for first ion, spin component:           1
 18.075  -0.003   0.000  -0.000  -0.000  -0.000   0.000   0.000
 -0.003   0.005  -0.000   0.000   0.000   0.000  -0.000  -0.000
  0.000  -0.000   4.118   0.000   0.000  -0.006  -0.000  -0.000
 -0.000   0.000   0.000   4.119   0.000  -0.000  -0.006  -0.000
 -0.000   0.000   0.000   0.000   4.118  -0.000  -0.000  -0.006
 -0.000   0.000  -0.006  -0.000  -0.000   0.005   0.000   0.000
  0.000  -0.000  -0.000  -0.006  -0.000   0.000   0.005   0.000
  0.000  -0.000  -0.000  -0.000  -0.006   0.000   0.000   0.005
 total augmentation occupancy for first ion, spin component:           1
  1.626  -0.532  -0.000   0.000   0.000   0.000   0.000  -0.000
 -0.532   0.967   0.000   0.000  -0.000   0.000   0.000   0.000
  0.000   0.000   0.884   0.000   0.000  -0.534   0.000   0.000
  0.000   0.000   0.000   0.867   0.000   0.000  -0.558  -0.000
  0.000  -0.000   0.000   0.000   0.884   0.000  -0.000  -0.534
  0.000   0.000  -0.534   0.000   0.000   0.409   0.000   0.000
  0.000   0.000   0.000  -0.558  -0.000   0.000   0.451   0.000
 -0.000   0.000   0.000  -0.000  -0.534   0.000   0.000   0.409


------------------------ aborting loop because EDIFF is reached ----------------------------------------


    CHARGE:  cpu time    0.0120: real time    0.0095
    FORLOC:  cpu time    0.0000: real time    0.0005
    FORNL :  cpu time    0.0080: real time    0.0078
    STRESS:  cpu time    0.0520: real time    0.0532
    FORCOR:  cpu time    0.0120: real time    0.0120
    FORHAR:  cpu time    0.0040: real time    0.0034
    MIXING:  cpu time    0.0000: real time    0.0009
    OFIELD:  cpu time    0.0000: real time    0.0004

  FORCE on cell =-STRESS in cart. coord.  units (eV):
  Direction    XX          YY          ZZ          XY          YZ          ZX
  --------------------------------------------------------------------------------------
  Alpha Z     4.37568     4.37568     4.37568
  Ewald     -92.52378   -92.52378   -79.39203     0.00000    -0.00000    -0.00000
  Hartree     0.45937     0.45937     1.71170     0.00000     0.00000     0.00000
  E(xc)     -25.38891   -25.38891   -25.39941     0.00005     0.00001     0.00001
  Local      -9.49014    -9.49014   -21.78937    -0.00001    -0.00005    -0.00005
  n-local    76.55425    76.78931    77.76327     0.98317    -0.38342    -0.45612
  augment   -12.11120   -12.11120   -12.04720     0.00004     0.00005     0.00005
  Kinetic    63.07181    53.22153    54.54889     4.67108    -3.14034    -5.10790
  Fock        0.00000     0.00000     0.00000     0.00000     0.00000     0.00000
  -------------------------------------------------------------------------------------
  Total       0.13947     0.13947    -0.22847     0.00000    -0.00000     0.00000
  in kB       7.26157     7.26157   -11.89535     0.00000    -0.00000     0.00000
  external pressure =        0.88 kB  Pullay stress =        0.00 kB


 VOLUME and BASIS-vectors are now :
 -----------------------------------------------------------------------------
  energy-cutoff  :      250.00
  volume of cell :       30.77
      direct lattice vectors                 reciprocal lattice vectors
    -2.480021734  2.480021734  1.250827996    -0.000000000  0.201611136  0.399735217
     2.480021734 -2.480021734  1.250827996     0.201611136 -0.000000000  0.399735217
     2.480021734  2.480021734 -1.250827996     0.201611136  0.201611136  0.000000000

  length of vectors
     3.723652277  3.723652277  3.723652277     0.447700004  0.447700004  0.285121203


 FORCES acting on ions
    electron-ion (+dipol)            ewald-force                    non-local-force                 convergence-correction
 -----------------------------------------------------------------------------------------------
   0.984E-05 -.984E-05 -.746E-14   0.164E-14 -.123E-14 -.804E-15   0.745E-16 -.677E-16 -.289E-17   -.170E-06 0.170E-06 -.252E-15
   -.984E-05 0.984E-05 0.763E-14   -.175E-14 0.893E-15 0.307E-15   -.776E-16 0.508E-16 -.639E-17   0.170E-06 -.170E-06 0.465E-16
 -----------------------------------------------------------------------------------------------
   -.156E-13 0.133E-13 0.178E-15   -.111E-15 -.333E-15 -.497E-15   -.304E-17 -.169E-16 -.928E-17   -.232E-15 0.238E-16 -.206E-15
 
 
 POSITION                                       TOTAL-FORCE (eV/Angst)
 -----------------------------------------------------------------------------------
      2.48002      0.00000      0.62541         0.000000     -0.000000      0.000000
      0.00000     -0.00000      0.00000        -0.000000      0.000000     -0.000000
 -----------------------------------------------------------------------------------
    total drift:                               -0.000000      0.000000     -0.000000


--------------------------------------------------------------------------------------------------------



  FREE ENERGIE OF THE ION-ELECTRON SYSTEM (eV)
  ---------------------------------------------------
  free  energy   TOTEN  =       -10.25044417 eV

  energy  without entropy=      -10.22521446  energy(sigma->0) =      -10.23782932
 
 d Force = 0.0000000E+00[ 0.000E+00, 0.000E+00]  d Energy = 0.1914114E-01-0.191E-01
 d Force = 0.0000000E+00[ 0.000E+00, 0.000E+00]  d Ewald  =-0.7414652E+00 0.741E+00


--------------------------------------------------------------------------------------------------------


    POTLOK:  cpu time    0.0320: real time    0.0447


--------------------------------------------------------------------------------------------------------


 Steepest descent step on ions:
 trial-energy change:   -0.019141  1 .order   -0.016869   -0.026165   -0.007574
  (g-gl).g = 0.262E-01      g.g   = 0.262E-01  gl.gl    = 0.000E+00
 g(Force)  = 0.650E-44   g(Stress)= 0.262E-01 ortho     = 0.000E+00
 gamma     =   0.00000
 trial     =   1.00000
 opt step  =   1.21541  (harmonic =   1.40738) maximal distance =0.00000000
 next E    =   -10.251283   (d E  =  -0.01998)


--------------------------------------------------------------------------------------------------------


    WAVPRE:  cpu time    0.0120: real time    0.0264
    FEWALD:  cpu time    0.0000: real time    0.0008
    GENKIN:  cpu time    0.0080: real time    0.0061
    ORTHCH:  cpu time    0.0120: real time    0.0118
     LOOP+:  cpu time    1.0240: real time    1.1517


--------------------------------------- Iteration      3(   1)  ---------------------------------------


    POTLOK:  cpu time    0.0200: real time    0.0241
    SETDIJ:  cpu time    0.0080: real time    0.0086
     EDDAV:  cpu time    0.2160: real time    0.2143
       DOS:  cpu time    0.0000: real time    0.0023
    CHARGE:  cpu time    0.0080: real time    0.0094
    MIXING:  cpu time    0.0040: real time    0.0011
    --------------------------------------------
      LOOP:  cpu time    0.2560: real time    0.2604

 eigenvalue-minimisations  :   416
 total energy-change (2. order) :-0.1681451E-02  (-0.3285619E-02)
 number of electron       8.0000016 magnetization 
 augmentation part       -0.4751009 magnetization 

 Broyden mixing:
  rms(total) = 0.11424E-01    rms(broyden)= 0.11420E-01
  rms(prec ) = 0.34078E-01
  weight for this iteration     100.00

 Free energy of the ion-electron system (eV)
  ---------------------------------------------------
  alpha Z        PSCENC =         4.37038587
  Ewald energy   TEWEN  =      -264.27246459
  -Hartree energ DENC   =        -2.63721831
  -exchange      EXHF   =         0.00000000
  -V(xc)+E(xc)   XCENC  =       -17.60750775
  PAW double counting   =        70.71924388      -35.63550153
  entropy T*S    EENTRO =        -0.02425811
  eigenvalues    EBANDS =        28.71172735
  atomic energy  EATOM  =       206.12349923
  Solvation  Ediel_sol  =         0.00000000
  ---------------------------------------------------
  free energy    TOTEN  =       -10.25209396 eV

  energy without entropy =      -10.22783585  energy(sigma->0) =      -10.23996491


--------------------------------------------------------------------------------------------------------




--------------------------------------- Iteration      3(   2)  ---------------------------------------


    POTLOK:  cpu time    0.0160: real time    0.0290
    SETDIJ:  cpu time    0.0080: real time    0.0086
     EDDAV:  cpu time    0.1480: real time    0.1456
       DOS:  cpu time    0.0000: real time    0.0019
    --------------------------------------------
      LOOP:  cpu time    0.1720: real time    0.1850

 eigenvalue-minimisations  :   280
 total energy-change (2. order) : 0.3801669E-03  (-0.7198022E-04)
 number of electron       8.0000016 magnetization 
 augmentation part       -0.4751009 magnetization 

 Free energy of the ion-electron system (eV)
  ---------------------------------------------------
  alpha Z        PSCENC =         4.37038587
  Ewald energy   TEWEN  =      -264.27246459
  -Hartree energ DENC   =        -2.65135123
  -exchange      EXHF   =         0.00000000
  -V(xc)+E(xc)   XCENC  =       -17.60663359
  PAW double counting   =        70.72684976      -35.64343376
  entropy T*S    EENTRO =        -0.02431673
  eigenvalues    EBANDS =        28.72575125
  atomic energy  EATOM  =       206.12349923
  Solvation  Ediel_sol  =         0.00000000
  ---------------------------------------------------
  free energy    TOTEN  =       -10.25171379 eV

  energy without entropy =      -10.22739707  energy(sigma->0) =      -10.23955543


--------------------------------------------------------------------------------------------------------




 average (electrostatic) potential at core
  the test charge radii are     0.9892
  (the norm of the test charge is              1.0000)
       1 -80.6563       2 -80.6563
 
 
 
 E-fermi :   9.0281     XC(G=0): -10.8597     alpha+bet :-15.5692


 k-point     1 :       0.0000    0.0000    0.0000
  band No.  band energies     occupation 
      1      -4.6630      2.00000
      2       5.5299      2.00000
      3       6.0223      2.00000
      4       6.0223      2.00000
      5      10.3706      0.00000
      6      16.6339      0.00000
      7      16.7653      0.00000
      8      16.7653      0.00000

 k-point     2 :       0.2000    0.0000   -0.0000
  band No.  band energies     occupation 
      1      -3.5021      2.00000
      2       4.6445      2.00000
      3       6.1052      2.00000
      4       8.8740      1.72413
      5      12.4597      0.00000
      6      13.1227      0.00000
      7      13.3782      0.00000
      8      15.3729      0.00000

 k-point     3 :       0.4000    0.0000   -0.0000
  band No.  band energies     occupation 
      1      -0.0680      2.00000
      2       5.4110      2.00000
      3       5.7482      2.00000
      4       7.3057      2.00000
      5       8.9494      1.42220
      6      11.5455      0.00000
      7      13.4527      0.00000
      8      14.0892      0.00000

 k-point     4 :       0.2000    0.2000   -0.0000
  band No.  band energies     occupation 
      1      -0.5154      2.00000
      2       5.8788      2.00000
      3       7.0212      2.00000
      4       7.0333      2.00000
      5       9.6640      0.00001
      6      11.6504      0.00000
      7      12.4583      0.00000
      8      12.6542      0.00000

 k-point     5 :       0.4000    0.2000   -0.0000
  band No.  band energies     occupation 
      1       1.2575      2.00000
      2       3.3795      2.00000
      3       4.6686      2.00000
      4       7.6846      2.00000
      5       8.9966      1.17640
      6      10.9189      0.00000
      7      13.8591      0.00000
      8      15.9846      0.00000

 k-point     6 :      -0.4000    0.2000    0.0000
  band No.  band energies     occupation 
      1      -2.5899      2.00000
      2       1.8223      2.00000
      3       6.5171      2.00000
      4      10.3463      0.00000
      5      10.7509      0.00000
      6      12.3271      0.00000
      7      14.2493      0.00000
      8      15.4768      0.00000

 k-point     7 :      -0.2000    0.2000    0.0000
  band No.  band energies     occupation 
      1      -4.2030      2.00000
      2       2.4310      2.00000
      3       6.4542      2.00000
      4       7.8710      2.00000
      5      12.8486      0.00000
      6      12.8882      0.00000
      7      14.4191      0.00000
      8      20.0302      0.00000

 k-point     8 :       0.4000    0.4000   -0.0000
  band No.  band energies     occupation 
      1      -0.7900      2.00000
      2      -0.7880      2.00000
      3       8.1512      2.00000
      4       8.2289      2.00000
      5      10.8933      0.00000
      6      12.7136      0.00000
      7      13.7697      0.00000
      8      13.9515      0.00000

 k-point     9 :      -0.4000    0.4000    0.0000
  band No.  band energies     occupation 
      1      -2.8318      2.00000
      2      -0.5855      2.00000
      3       7.7488      2.00000
      4       9.4536      0.00262
      5       9.9005      0.00000
      6      11.6374      0.00000
      7      17.7786      0.00000
      8      19.6125      0.00000

 k-point    10 :       0.2000    0.2000    0.2000
  band No.  band energies     occupation 
      1       0.8259      2.00000
      2       3.0122      2.00000
      3       6.2972      2.00000
      4       6.3031      2.00000
      5      11.1916      0.00000
      6      12.8022      0.00000
      7      13.7305      0.00000
      8      14.2487      0.00000

 k-point    11 :      -0.2000    0.2000    0.2000
  band No.  band energies     occupation 
      1      -3.7460      2.00000
      2       2.2033      2.00000
      3       4.0352      2.00000
      4       9.8228      0.00000
      5      10.8725      0.00000
      6      14.1440      0.00000
      7      17.5197      0.00000
      8      17.8639      0.00000

 k-point    12 :      -0.4000    0.4000    0.2000
  band No.  band energies     occupation 
      1      -2.3894      2.00000
      2      -0.1983      2.00000
      3       4.7016      2.00000
      4       6.8325      2.00000
      5      13.0646      0.00000
      6      15.2084      0.00000
      7      18.1755      0.00000
      8      18.6191      0.00000

 k-point    13 :      -0.2000    0.4000    0.2000
  band No.  band energies     occupation 
      1      -1.6952      2.00000
      2       1.9707      2.00000
      3       3.9059      2.00000
      4       7.4659      2.00000
      5      10.4202      0.00000
      6      15.0014      0.00000
      7      16.3839      0.00000
      8      17.3541      0.00000

 k-point    14 :      -0.4000   -0.4000    0.2000
  band No.  band energies     occupation 
      1       0.0330      2.00000
      2       0.0389      2.00000
      3       4.9434      2.00000
      4       4.9501      2.00000
      5      10.0719      0.00000
      6      16.3396      0.00000
      7      17.1579      0.00000
      8      17.8878      0.00000

 k-point    15 :      -0.2000   -0.4000    0.2000
  band No.  band energies     occupation 
      1       2.4952      2.00000
      2       3.6651      2.00000
      3       4.1205      2.00000
      4       5.8643      2.00000
      5       7.2401      2.00000
      6      12.0200      0.00000
      7      13.5714      0.00000
      8      15.9611      0.00000

 k-point    16 :      -0.2000   -0.2000    0.2000
  band No.  band energies     occupation 
      1      -0.9665      2.00000
      2       7.5664      2.00000
      3       8.1020      2.00000
      4       8.5588      1.99910
      5       8.5588      1.99910
      6       9.8778      0.00000
      7      11.5470      0.00000
      8      11.5471      0.00000

 k-point    17 :      -0.4000    0.4000    0.4000
  band No.  band energies     occupation 
      1      -1.1073      2.00000
      2       0.3755      2.00000
      3       2.4027      2.00000
      4       3.8650      2.00000
      5      16.3652      0.00000
      6      17.1379      0.00000
[...]
    -2.488672964  2.488672964  1.244150622     0.000000000  0.200910287  0.401880601
     2.488672964 -2.488672964  1.244150622     0.200910287 -0.000000000  0.401880601
     2.488672964  2.488672964 -1.244150622     0.200910287  0.200910287  0.000000000

  length of vectors
     3.732947497  3.732947497  3.732947497     0.449302750  0.449302750  0.284130053


 FORCES acting on ions
    electron-ion (+dipol)            ewald-force                    non-local-force                 convergence-correction
 -----------------------------------------------------------------------------------------------
   0.989E-05 -.989E-05 0.161E-14   0.247E-14 -.438E-15 -.537E-15   -.167E-16 0.215E-16 0.118E-16   0.445E-07 -.445E-07 -.929E-16
   -.989E-05 0.989E-05 -.339E-14   -.253E-14 0.152E-15 0.166E-14   0.145E-16 -.306E-16 0.444E-17   -.445E-07 0.445E-07 -.684E-16
 -----------------------------------------------------------------------------------------------
   -.141E-13 0.134E-13 -.178E-14   -.638E-16 -.287E-15 0.112E-14   -.216E-17 -.910E-17 0.163E-16   -.175E-15 -.718E-16 -.161E-15
 
 
 POSITION                                       TOTAL-FORCE (eV/Angst)
 -----------------------------------------------------------------------------------
      2.48867      0.00000      0.62208         0.000000     -0.000000     -0.000000
      0.00000     -0.00000      0.00000        -0.000000      0.000000      0.000000
 -----------------------------------------------------------------------------------
    total drift:                               -0.000000      0.000000     -0.000000


--------------------------------------------------------------------------------------------------------



  FREE ENERGIE OF THE ION-ELECTRON SYSTEM (eV)
  ---------------------------------------------------
  free  energy   TOTEN  =       -10.25155945 eV

  energy  without entropy=      -10.22755145  energy(sigma->0) =      -10.23955545
 
 d Force = 0.0000000E+00[ 0.000E+00, 0.000E+00]  d Energy = 0.4320339E-04-0.432E-04
 d Force = 0.0000000E+00[ 0.000E+00, 0.000E+00]  d Ewald  = 0.2169322E-01-0.217E-01


--------------------------------------------------------------------------------------------------------


    POTLOK:  cpu time    0.0320: real time    0.0439


--------------------------------------------------------------------------------------------------------




--------------------------------------------------------------------------------------------------------


    WAVPRE:  cpu time    0.0080: real time    0.0205
    FEWALD:  cpu time    0.0040: real time    0.0008
    GENKIN:  cpu time    0.0040: real time    0.0061
    ORTHCH:  cpu time    0.0120: real time    0.0118
     LOOP+:  cpu time    0.4960: real time    0.5967


--------------------------------------- Iteration      7(   1)  ---------------------------------------


    POTLOK:  cpu time    0.0200: real time    0.0260
    SETDIJ:  cpu time    0.0080: real time    0.0087
     EDDAV:  cpu time    0.2040: real time    0.2037
       DOS:  cpu time    0.0040: real time    0.0023
    CHARGE:  cpu time    0.0080: real time    0.0094
    MIXING:  cpu time    0.0000: real time    0.0011
    --------------------------------------------
      LOOP:  cpu time    0.2440: real time    0.2520

 eigenvalue-minimisations  :   400
 total energy-change (2. order) :-0.2824941E-04  (-0.1219670E-03)
 number of electron       8.0000016 magnetization 
 augmentation part       -0.4749178 magnetization 

 Broyden mixing:
  rms(total) = 0.23994E-02    rms(broyden)= 0.23984E-02
  rms(prec ) = 0.71479E-02
  weight for this iteration     100.00

 Free energy of the ion-electron system (eV)
  ---------------------------------------------------
  alpha Z        PSCENC =         4.36969286
  Ewald energy   TEWEN  =      -264.25005115
  -Hartree energ DENC   =        -2.68149579
  -exchange      EXHF   =         0.00000000
  -V(xc)+E(xc)   XCENC  =       -17.60569027
  PAW double counting   =        70.72148355      -35.63790817
  entropy T*S    EENTRO =        -0.02426174
  eigenvalues    EBANDS =        28.73314144
  atomic energy  EATOM  =       206.12349923
  Solvation  Ediel_sol  =         0.00000000
  ---------------------------------------------------
  free energy    TOTEN  =       -10.25159005 eV

  energy without entropy =      -10.22732831  energy(sigma->0) =      -10.23945918


--------------------------------------------------------------------------------------------------------




--------------------------------------- Iteration      7(   2)  ---------------------------------------


    POTLOK:  cpu time    0.0200: real time    0.0268
    SETDIJ:  cpu time    0.0080: real time    0.0086
     EDDAV:  cpu time    0.0840: real time    0.0838
       DOS:  cpu time    0.0000: real time    0.0020
    --------------------------------------------
      LOOP:  cpu time    0.1160: real time    0.1210

 eigenvalue-minimisations  :   144
 total energy-change (2. order) : 0.1667317E-04  (-0.2872706E-05)
 number of electron       8.0000016 magnetization 
 augmentation part       -0.4749178 magnetization 

 Free energy of the ion-electron system (eV)
  ---------------------------------------------------
  alpha Z        PSCENC =         4.36969286
  Ewald energy   TEWEN  =      -264.25005115
  -Hartree energ DENC   =        -2.67831865
  -exchange      EXHF   =         0.00000000
  -V(xc)+E(xc)   XCENC  =       -17.60590756
  PAW double counting   =        70.72033108      -35.63672656
  entropy T*S    EENTRO =        -0.02425005
  eigenvalues    EBANDS =        28.73015742
  atomic energy  EATOM  =       206.12349923
  Solvation  Ediel_sol  =         0.00000000
  ---------------------------------------------------
  free energy    TOTEN  =       -10.25157338 eV

  energy without entropy =      -10.22732333  energy(sigma->0) =      -10.23944835


--------------------------------------------------------------------------------------------------------




 average (electrostatic) potential at core
  the test charge radii are     0.9892
  (the norm of the test charge is              1.0000)
       1 -80.6487       2 -80.6487
 
 
 
 E-fermi :   9.0301     XC(G=0): -10.8578     alpha+bet :-15.5667


 k-point     1 :       0.0000    0.0000    0.0000
  band No.  band energies     occupation 
      1      -4.6616      2.00000
      2       5.5299      2.00000
      3       6.0149      2.00000
      4       6.0149      2.00000
      5      10.3595      0.00000
      6      16.6239      0.00000
      7      16.7511      0.00000
      8      16.7511      0.00000

 k-point     2 :       0.2000    0.0000   -0.0000
  band No.  band energies     occupation 
      1      -3.4999      2.00000
      2       4.6433      2.00000
      3       6.0991      2.00000
      4       8.8706      1.74085
      5      12.4491      0.00000
      6      13.1347      0.00000
      7      13.3792      0.00000
      8      15.3757      0.00000

 k-point     3 :       0.4000    0.0000   -0.0000
  band No.  band energies     occupation 
      1      -0.0634      2.00000
      2       5.4163      2.00000
      3       5.7546      2.00000
      4       7.3032      2.00000
      5       8.9558      1.40104
      6      11.5486      0.00000
      7      13.4490      0.00000
      8      14.0855      0.00000

 k-point     4 :       0.2000    0.2000   -0.0000
  band No.  band energies     occupation 
      1      -0.5105      2.00000
      2       5.8803      2.00000
      3       7.0289      2.00000
      4       7.0403      2.00000
      5       9.6623      0.00001
      6      11.6479      0.00000
      7      12.4611      0.00000
      8      12.6564      0.00000

 k-point     5 :       0.4000    0.2000   -0.0000
  band No.  band energies     occupation 
      1       1.2612      2.00000
      2       3.3819      2.00000
      3       4.6783      2.00000
      4       7.6857      2.00000
      5       8.9982      1.17847
      6      10.9180      0.00000
      7      13.8608      0.00000
      8      15.9800      0.00000

 k-point     6 :      -0.4000    0.2000    0.0000
  band No.  band energies     occupation 
      1      -2.5883      2.00000
      2       1.8216      2.00000
      3       6.5117      2.00000
      4      10.3460      0.00000
      5      10.7452      0.00000
      6      12.3347      0.00000
      7      14.2590      0.00000
      8      15.4685      0.00000

 k-point     7 :      -0.2000    0.2000    0.0000
  band No.  band energies     occupation 
      1      -4.2019      2.00000
      2       2.4287      2.00000
      3       6.4465      2.00000
      4       7.8662      2.00000
      5      12.8367      0.00000
      6      12.8771      0.00000
      7      14.4098      0.00000
      8      20.0577      0.00000

 k-point     8 :       0.4000    0.4000   -0.0000
  band No.  band energies     occupation 
      1      -0.7894      2.00000
      2      -0.7873      2.00000
      3       8.1457      2.00000
      4       8.2223      2.00000
      5      10.9041      0.00000
      6      12.7073      0.00000
      7      13.7661      0.00000
      8      13.9628      0.00000

 k-point     9 :      -0.4000    0.4000    0.0000
  band No.  band energies     occupation 
      1      -2.8315      2.00000
      2      -0.5864      2.00000
      3       7.7404      2.00000
      4       9.4476      0.00316
      5       9.8909      0.00000
      6      11.6300      0.00000
      7      17.7677      0.00000
      8      19.6401      0.00000

 k-point    10 :       0.2000    0.2000    0.2000
  band No.  band energies     occupation 
      1       0.8299      2.00000
      2       3.0148      2.00000
      3       6.3051      2.00000
      4       6.3113      2.00000
      5      11.1878      0.00000
      6      12.7983      0.00000
      7      13.7253      0.00000
      8      14.2460      0.00000

 k-point    11 :      -0.2000    0.2000    0.2000
  band No.  band energies     occupation 
      1      -3.7452      2.00000
      2       2.2020      2.00000
      3       4.0288      2.00000
      4       9.8142      0.00000
      5      10.8660      0.00000
      6      14.1308      0.00000
      7      17.5050      0.00000
      8      17.8728      0.00000

 k-point    12 :      -0.4000    0.4000    0.2000
  band No.  band energies     occupation 
      1      -2.3893      2.00000
      2      -0.1993      2.00000
      3       4.6958      2.00000
      4       6.8257      2.00000
      5      13.0570      0.00000
      6      15.2009      0.00000
      7      18.1754      0.00000
      8      18.6382      0.00000

 k-point    13 :      -0.2000    0.4000    0.2000
  band No.  band energies     occupation 
      1      -1.6941      2.00000
      2       1.9710      2.00000
      3       3.9011      2.00000
      4       7.4603      2.00000
      5      10.4353      0.00000
      6      14.9974      0.00000
      7      16.3924      0.00000
      8      17.3509      0.00000

 k-point    14 :      -0.4000   -0.4000    0.2000
  band No.  band energies     occupation 
      1       0.0333      2.00000
      2       0.0394      2.00000
      3       4.9391      2.00000
      4       4.9456      2.00000
      5      10.0878      0.00000
      6      16.3502      0.00000
      7      17.1497      0.00000
      8      17.8769      0.00000

 k-point    15 :      -0.2000   -0.4000    0.2000
  band No.  band energies     occupation 
      1       2.4981      2.00000
      2       3.6710      2.00000
      3       4.1286      2.00000
      4       5.8627      2.00000
      5       7.2391      2.00000
      6      12.0251      0.00000
      7      13.5734      0.00000
      8      15.9621      0.00000

 k-point    16 :      -0.2000   -0.2000    0.2000
  band No.  band energies     occupation 
      1      -0.9614      2.00000
      2       7.5756      2.00000
      3       8.1102      2.00000
      4       8.5568      1.99918
      5       8.5568      1.99918
      6       9.8785      0.00000
      7      11.5494      0.00000
      8      11.5494      0.00000

 k-point    17 :      -0.4000    0.4000    0.4000
  band No.  band energies     occupation 
      1      -1.1077      2.00000
      2       0.3753      2.00000
      3       2.3973      2.00000
      4       3.8598      2.00000
      5      16.3718      0.00000
      6      17.1589      0.00000
      7      18.8180      0.00000
      8      19.5449      0.00000

 k-point    18 :      -0.4000   -0.4000    0.4000
  band No.  band energies     occupation 
      1       1.0558      2.00000
      2       1.0656      2.00000
      3       3.0690      2.00000
      4       3.0690      2.00000
      5       9.7076      0.00000
      6      18.2465      0.00000
      7      19.6403      0.00000
      8      19.6404      0.00000


--------------------------------------------------------------------------------------------------------


 soft charge-density along one line, spin component           1
         0         1         2         3         4         5         6         7         8         9
 total charge-density along one line
 
 pseudopotential strength for first ion, spin component:           1
 18.077  -0.003   0.000  -0.000  -0.000  -0.000   0.000   0.000
 -0.003   0.005  -0.000   0.000   0.000   0.000  -0.000  -0.000
  0.000  -0.000   4.118   0.000   0.000  -0.006  -0.000  -0.000
 -0.000   0.000   0.000   4.119   0.000  -0.000  -0.006  -0.000
 -0.000   0.000   0.000   0.000   4.118  -0.000  -0.000  -0.006
 -0.000   0.000  -0.006  -0.000  -0.000   0.005   0.000   0.000
  0.000  -0.000  -0.000  -0.006  -0.000   0.000   0.005   0.000
  0.000  -0.000  -0.000  -0.000  -0.006   0.000   0.000   0.005
 total augmentation occupancy for first ion, spin component:           1
  1.625  -0.535   0.000   0.000   0.000   0.000   0.000  -0.000
 -0.535   0.971   0.000   0.000   0.000   0.000   0.000   0.000
  0.000   0.000   0.881  -0.000   0.000  -0.530  -0.000   0.000
  0.000   0.000   0.000   0.873   0.000   0.000  -0.571   0.000
  0.000   0.000   0.000   0.000   0.881   0.000   0.000  -0.530
 -0.000   0.000  -0.530   0.000   0.000   0.404   0.000   0.000
  0.000   0.000  -0.000  -0.571   0.000  -0.000   0.467   0.000
  0.000   0.000   0.000   0.000  -0.530   0.000   0.000   0.404


------------------------ aborting loop because EDIFF is reached ----------------------------------------


    CHARGE:  cpu time    0.0080: real time    0.0089
    FORLOC:  cpu time    0.0000: real time    0.0005
    FORNL :  cpu time    0.0080: real time    0.0079
    STRESS:  cpu time    0.0560: real time    0.0533
    FORCOR:  cpu time    0.0120: real time    0.0124
    FORHAR:  cpu time    0.0000: real time    0.0032
    MIXING:  cpu time    0.0040: real time    0.0008
    OFIELD:  cpu time    0.0000: real time    0.0004

  FORCE on cell =-STRESS in cart. coord.  units (eV):
  Direction    XX          YY          ZZ          XY          YZ          ZX
  --------------------------------------------------------------------------------------
  Alpha Z     4.36969     4.36969     4.36969
  Ewald     -92.91797   -92.91797   -78.41416    -0.00000    -0.00000    -0.00000
  Hartree     0.44003     0.44003     1.79309     0.00000     0.00000     0.00000
  E(xc)     -25.38087   -25.38087   -25.40824     0.00005     0.00001     0.00001
  Local      -9.05197    -9.05197   -22.86107    -0.00001    -0.00005    -0.00005
  n-local    76.47212    76.65513    77.96032     0.97053    -0.36546    -0.47092
  augment   -12.09900   -12.09900   -12.06408     0.00004     0.00005     0.00005
  Kinetic    62.88235    53.26821    54.62641     4.59276    -2.93089    -5.05605
  Fock        0.00000     0.00000     0.00000     0.00000     0.00000     0.00000
  -------------------------------------------------------------------------------------
  Total      -0.00119    -0.00119     0.00196     0.00000     0.00000     0.00000
  in kB      -0.06171    -0.06171     0.10210     0.00000     0.00000     0.00000
  external pressure =       -0.01 kB  Pullay stress =        0.00 kB


 VOLUME and BASIS-vectors are now :
 -----------------------------------------------------------------------------
  energy-cutoff  :      250.00
  volume of cell :       30.82
      direct lattice vectors                 reciprocal lattice vectors
    -2.487348259  2.487348259  1.245173084    -0.000000000  0.201017287  0.401550601
     2.487348259 -2.487348259  1.245173084     0.201017287 -0.000000000  0.401550601
     2.487348259  2.487348259 -1.245173084     0.201017287  0.201017287  0.000000000

  length of vectors
     3.731522307  3.731522307  3.731522307     0.449055492  0.449055492  0.284281374


 FORCES acting on ions
    electron-ion (+dipol)            ewald-force                    non-local-force                 convergence-correction
 -----------------------------------------------------------------------------------------------
   0.988E-05 -.988E-05 -.214E-14   0.260E-14 -.553E-14 0.192E-14   0.387E-16 -.584E-16 -.794E-17   0.199E-07 -.199E-07 -.242E-15
   -.988E-05 0.988E-05 0.981E-14   -.261E-14 0.519E-14 -.260E-14   -.586E-17 0.601E-16 0.158E-16   -.199E-07 0.199E-07 0.104E-15
 -----------------------------------------------------------------------------------------------
   -.133E-13 0.138E-13 0.767E-14   -.711E-17 -.341E-15 -.685E-15   0.329E-16 0.166E-17 0.787E-17   -.163E-15 -.362E-15 -.138E-15
 
 
 POSITION                                       TOTAL-FORCE (eV/Angst)
 -----------------------------------------------------------------------------------
      2.48735      0.00000      0.62259         0.000000     -0.000000      0.000000
      0.00000     -0.00000      0.00000        -0.000000      0.000000     -0.000000
 -----------------------------------------------------------------------------------
    total drift:                               -0.000000      0.000000      0.000000


--------------------------------------------------------------------------------------------------------



  FREE ENERGIE OF THE ION-ELECTRON SYSTEM (eV)
  ---------------------------------------------------
  free  energy   TOTEN  =       -10.25157338 eV

  energy  without entropy=      -10.22732333  energy(sigma->0) =      -10.23944835
 
 d Force = 0.0000000E+00[ 0.000E+00, 0.000E+00]  d Energy = 0.1392302E-04-0.139E-04
 d Force = 0.0000000E+00[ 0.000E+00, 0.000E+00]  d Ewald  = 0.3464158E-01-0.346E-01


--------------------------------------------------------------------------------------------------------


    POTLOK:  cpu time    0.0280: real time    0.0432


--------------------------------------------------------------------------------------------------------




--------------------------------------------------------------------------------------------------------


  
 reached required accuracy - stopping structural energy minimisation
 writing wavefunctions
     LOOP+:  cpu time    0.5800: real time    0.7567
    4ORBIT:  cpu time    0.0000: real time    0.0000

 total amount of memory used by VASP MPI-rank0    30822. kBytes
=======================================================================

   base      :      30000. kBytes
   nonl-proj :        340. kBytes
   fftplans  :        119. kBytes
   grid      :        270. kBytes
   one-center:          6. kBytes
   wavefun   :         87. kBytes
 
  
  
 General timing and accounting informations for this job:
 ========================================================
  
                  Total CPU time used (sec):       10.916
                            User time (sec):        9.028
                          System time (sec):        1.888
                         Elapsed time (sec):       14.995
  
                   Maximum memory used (kb):        9560.
                   Average memory used (kb):           0.
  
                          Minor page faults:        38085
                          Major page faults:           28
                 Voluntary context switches:        29168
