<?xml version="1.0" encoding="ISO-8859-1"?>
<modeling>
 <generator>
  <i name="program" type="string">vasp </i>
  <i name="version" type="string">5.4.4.18Apr17-6-g9f103f2a35  </i>
  <i name="subversion" type="string">(build Dec 09 2018 21:25:21) complex            parallel </i>
  <i name="platform" type="string">IFC18.0.1.163_CrayMPICH7.7.0_MKL18.0.1.163 </i>
  <i name="date" type="string">2019 03 20 </i>
  <i name="time" type="string">09:21:13 </i>
 </generator>
 <incar>
  <i type="string" name="PREC">normal</i>
  <i type="int" name="IBRION">     2</i>
  <i name="EDIFF">      0.00040000</i>
  <i name="EDIFFG">     -0.01000000</i>
  <i type="int" name="NSW">    15</i>
  <i type="int" name="ISIF">     3</i>
  <i name="ENCUT">    250.00000000</i>
  <i type="int" name="NBANDS">     8</i>
  <i type="logical" name="LREAL"> F  </i>
  <i type="int" name="ISMEAR">     0</i>
  <i name="SIGMA">      0.20000000</i>
  <v type="int" name="KPOINT_BSE">    -1     0     0     0</v>
 </incar>
 <structure name="primitive_cell" >
  <crystal>
   <varray name="basis" >
    <v>      -2.45000000       2.45000000       1.27400000 </v>
    <v>       2.45000000      -2.45000000       1.27400000 </v>
    <v>       2.45000000       2.45000000      -1.27400000 </v>
   </varray>
   <i name="volume">     30.58874000 </i>
   <varray name="rec_basis" >
    <v>       0.00000000       0.20408163       0.39246468 </v>
    <v>       0.20408163       0.00000000       0.39246468 </v>
    <v>       0.20408163       0.20408163      -0.00000000 </v>
   </varray>
  </crystal>
  <varray name="positions" >
   <v>       0.25000000      -0.25000000      -0.50000000 </v>
   <v>       0.00000000       0.00000000       0.00000000 </v>
  </varray>
 </structure>
 <varray name="primitive_index" >
  <v type="int" >        1 </v>
  <v type="int" >        2 </v>
 </varray>
 <kpoints>
  <generation param="Monkhorst-Pack">
   <v type="int" name="divisions">       5        5        5 </v>
   <v name="usershift">      0.00000000       0.00000000       0.00000000 </v>
   <v name="genvec1">      0.20000000       0.00000000      -0.00000000 </v>
   <v name="genvec2">      0.00000000       0.20000000      -0.00000000 </v>
   <v name="genvec3">      0.00000000      -0.00000000       0.20000000 </v>
   <v name="shift">      0.00000000       0.00000000       0.00000000 </v>
  </generation>
  <varray name="kpointlist" >
   <v>       0.00000000       0.00000000       0.00000000 </v>
   <v>       0.20000000       0.00000000      -0.00000000 </v>
   <v>       0.40000000       0.00000000      -0.00000000 </v>
   <v>       0.20000000       0.20000000      -0.00000000 </v>
   <v>       0.40000000       0.20000000      -0.00000000 </v>
   <v>      -0.40000000       0.20000000       0.00000000 </v>
   <v>      -0.20000000       0.20000000       0.00000000 </v>
   <v>       0.40000000       0.40000000      -0.00000000 </v>
   <v>      -0.40000000       0.40000000       0.00000000 </v>
   <v>       0.20000000       0.20000000       0.20000000 </v>
   <v>      -0.20000000       0.20000000       0.20000000 </v>
   <v>      -0.40000000       0.40000000       0.20000000 </v>
   <v>      -0.20000000       0.40000000       0.20000000 </v>
   <v>      -0.40000000      -0.40000000       0.20000000 </v>
   <v>      -0.20000000      -0.40000000       0.20000000 </v>
   <v>      -0.20000000      -0.20000000       0.20000000 </v>
   <v>      -0.40000000       0.40000000       0.40000000 </v>
   <v>      -0.40000000      -0.40000000       0.40000000 </v>
  </varray>
  <varray name="weights" >
   <v>       0.00800000 </v>
   <v>       0.06400000 </v>
   <v>       0.06400000 </v>
   <v>       0.06400000 </v>
   <v>       0.12800000 </v>
   <v>       0.12800000 </v>
   <v>       0.03200000 </v>
   <v>       0.06400000 </v>
   <v>       0.03200000 </v>
   <v>       0.06400000 </v>
   <v>       0.03200000 </v>
   <v>       0.06400000 </v>
   <v>       0.06400000 </v>
   <v>       0.06400000 </v>
   <v>       0.06400000 </v>
   <v>       0.01600000 </v>
   <v>       0.03200000 </v>
   <v>       0.01600000 </v>
  </varray>
 </kpoints>
 <parameters>
  <separator name="general" >
   <i type="string" name="SYSTEM">unknown system</i>
   <i type="logical" name="LCOMPAT"> F  </i>
  </separator>
  <separator name="electronic" >
   <i type="string" name="PREC">normal</i>
   <i name="ENMAX">    250.00000000</i>
   <i name="ENAUG">    322.06900000</i>
   <i name="EDIFF">      0.00040000</i>
   <i type="int" name="IALGO">    38</i>
   <i type="int" name="IWAVPR">    11</i>
   <i type="int" name="NBANDS">     8</i>
   <i name="NELECT">      8.00000000</i>
   <i type="int" name="TURBO">     0</i>
   <i type="int" name="IRESTART">     0</i>
   <i type="int" name="NREBOOT">     0</i>
   <i type="int" name="NMIN">     0</i>
   <i name="EREF">      0.00000000</i>
   <separator name="electronic smearing" >
    <i type="int" name="ISMEAR">     0</i>
    <i name="SIGMA">      0.20000000</i>
    <i name="KSPACING">      0.50000000</i>
    <i type="logical" name="KGAMMA"> T  </i>
   </separator>
   <separator name="electronic projectors" >
    <i type="logical" name="LREAL"> F  </i>
    <v name="ROPT">      0.00000000</v>
    <i type="int" name="LMAXPAW">  -100</i>
    <i type="int" name="LMAXMIX">     2</i>
    <i type="logical" name="NLSPLINE"> F  </i>
   </separator>
   <separator name="electronic startup" >
    <i type="int" name="ISTART">     0</i>
    <i type="int" name="ICHARG">     2</i>
    <i type="int" name="INIWAV">     1</i>
   </separator>
   <separator name="electronic spin" >
    <i type="int" name="ISPIN">     1</i>
    <i type="logical" name="LNONCOLLINEAR"> F  </i>
    <v name="MAGMOM">      1.00000000      1.00000000</v>
    <i name="NUPDOWN">     -1.00000000</i>
    <i type="logical" name="LSORBIT"> F  </i>
    <v name="SAXIS">      0.00000000      0.00000000      1.00000000</v>
    <i type="logical" name="LSPIRAL"> F  </i>
    <v name="QSPIRAL">      0.00000000      0.00000000      0.00000000</v>
    <i type="logical" name="LZEROZ"> F  </i>
   </separator>
   <separator name="electronic exchange-correlation" >
    <i type="logical" name="LASPH"> F  </i>
    <i type="logical" name="LMETAGGA"> F  </i>
   </separator>
   <separator name="electronic convergence" >
    <i type="int" name="NELM">    60</i>
    <i type="int" name="NELMDL">    -5</i>
    <i type="int" name="NELMIN">     2</i>
    <i name="ENINI">    250.00000000</i>
    <separator name="electronic convergence detail" >
     <i type="logical" name="LDIAG"> T  </i>
     <i type="logical" name="LSUBROT"> F  </i>
     <i name="WEIMIN">      0.00100000</i>
     <i name="EBREAK">      0.00001250</i>
     <i name="DEPER">      0.30000000</i>
     <i type="int" name="NRMM">     4</i>
     <i name="TIME">      0.40000000</i>
    </separator>
   </separator>
   <separator name="electronic mixer" >
    <i name="AMIX">      0.40000000</i>
    <i name="BMIX">      1.00000000</i>
    <i name="AMIN">      0.10000000</i>
    <i name="AMIX_MAG">      1.60000000</i>
    <i name="BMIX_MAG">      1.00000000</i>
    <separator name="electronic mixer details" >
     <i type="int" name="IMIX">     4</i>
     <i type="logical" name="MIXFIRST"> F  </i>
     <i type="int" name="MAXMIX">   -45</i>
     <i name="WC">    100.00000000</i>
     <i type="int" name="INIMIX">     1</i>
     <i type="int" name="MIXPRE">     1</i>
     <i type="int" name="MREMOVE">     5</i>
    </separator>
   </separator>
   <separator name="electronic dipolcorrection" >
    <i type="logical" name="LDIPOL"> F  </i>
    <i type="logical" name="LMONO"> F  </i>
    <i type="int" name="IDIPOL">     0</i>
    <i name="EPSILON">      1.00000000</i>
    <v name="DIPOL">   -100.00000000   -100.00000000   -100.00000000</v>
    <i name="EFIELD">      0.00000000</i>
   </separator>
  </separator>
  <separator name="grids" >
   <i type="int" name="NGX">    14</i>
   <i type="int" name="NGY">    14</i>
   <i type="int" name="NGZ">    14</i>
   <i type="int" name="NGXF">    28</i>
   <i type="int" name="NGYF">    28</i>
   <i type="int" name="NGZF">    28</i>
   <i type="logical" name="ADDGRID"> F  </i>
  </separator>
  <separator name="ionic" >
   <i type="int" name="NSW">    15</i>
   <i type="int" name="IBRION">     2</i>
   <i type="int" name="MDALGO">     0</i>
   <i type="int" name="ISIF">     3</i>
   <i name="PSTRESS">      0.00000000</i>
   <i name="EDIFFG">     -0.01000000</i>
   <i type="int" name="NFREE">     1</i>
   <i name="POTIM">      0.50000000</i>
   <i name="SMASS">     -3.00000000</i>
   <i name="SCALEE">      1.00000000</i>
  </separator>
  <separator name="ionic md" >
   <i name="TEBEG">      0.00010000</i>
   <i name="TEEND">      0.00010000</i>
   <i type="int" name="NBLOCK">     1</i>
   <i type="int" name="KBLOCK">    15</i>
   <i type="int" name="NPACO">   256</i>
   <i name="APACO">     16.00000000</i>
  </separator>
  <separator name="symmetry" >
   <i type="int" name="ISYM">     2</i>
   <i name="SYMPREC">      0.00001000</i>
  </separator>
  <separator name="dos" >
   <i type="int" name="LORBIT">     0</i>
   <v name="RWIGS">     -1.00000000</v>
   <i type="int" name="NEDOS">   301</i>
   <i name="EMIN">     10.00000000</i>
   <i name="EMAX">    -10.00000000</i>
   <i name="EFERMI">      0.00000000</i>
  </separator>
  <separator name="writing" >
   <i type="int" name="NWRITE">     2</i>
   <i type="logical" name="LWAVE"> T  </i>
   <i type="logical" name="LDOWNSAMPLE"> F  </i>
   <i type="logical" name="LCHARG"> T  </i>
   <i type="logical" name="LPARD"> F  </i>
   <i type="logical" name="LVTOT"> F  </i>
   <i type="logical" name="LVHAR"> F  </i>
   <i type="logical" name="LELF"> F  </i>
   <i type="logical" name="LOPTICS"> F  </i>
   <v name="STM">      0.00000000      0.00000000      0.00000000      0.00000000      0.00000000      0.00000000      0.00000000</v>
  </separator>
  <separator name="performance" >
   <i type="int" name="NPAR">     8</i>
   <i type="int" name="NSIM">     4</i>
   <i type="int" name="NBLK">    -1</i>
   <i type="logical" name="LPLANE"> T  </i>
   <i type="logical" name="LSCALAPACK"> T  </i>
   <i type="logical" name="LSCAAWARE"> F  </i>
   <i type="logical" name="LSCALU"> F  </i>
   <i type="logical" name="LASYNC"> F  </i>
   <i type="logical" name="LORBITALREAL"> F  </i>
  </separator>
  <separator name="miscellaneous" >
   <i type="int" name="IDIOT">     3</i>
   <i type="int" name="ISPECIAL">     0</i>
   <i type="logical" name="LMUSIC"> F  </i>
   <v name="POMASS">     28.08500000</v>
   <v name="DARWINR">      0.00000000</v>
   <v name="DARWINV">      1.00000000</v>
   <i type="logical" name="LCORR"> T  </i>
  </separator>
  <i type="logical" name="GGA_COMPAT"> T  </i>
  <i type="logical" name="LBERRY"> F  </i>
  <i type="int" name="ICORELEVEL">     0</i>
  <i type="logical" name="LDAU"> F  </i>
  <i type="int" name="I_CONSTRAINED_M">     0</i>
  <separator name="electronic exchange-correlation" >
   <i type="string" name="GGA">--</i>
   <i type="int" name="VOSKOWN">     0</i>
   <i type="logical" name="LHFCALC"> F  </i>
   <i type="string" name="PRECFOCK"></i>
   <i type="logical" name="LSYMGRAD"> F  </i>
   <i type="logical" name="LHFONE"> F  </i>
   <i type="logical" name="LRHFCALC"> F  </i>
   <i type="logical" name="LTHOMAS"> F  </i>
   <i type="logical" name="LMODELHF"> F  </i>
   <i name="ENCUT4O">     -1.00000000</i>
   <i type="int" name="EXXOEP">     0</i>
   <i type="int" name="FOURORBIT">     0</i>
   <i name="AEXX">      0.00000000</i>
   <i name="HFALPHA">      0.00000000</i>
   <i name="MCALPHA">      0.00000000</i>
   <i name="ALDAX">      1.00000000</i>
   <i name="AGGAX">      1.00000000</i>
   <i name="ALDAC">      1.00000000</i>
   <i name="AGGAC">      1.00000000</i>
   <i type="int" name="NKREDX">     1</i>
   <i type="int" name="NKREDY">     1</i>
   <i type="int" name="NKREDZ">     1</i>
   <i type="logical" name="SHIFTRED"> F  </i>
   <i type="logical" name="ODDONLY"> F  </i>
   <i type="logical" name="EVENONLY"> F  </i>
   <i type="int" name="LMAXFOCK">     0</i>
   <i type="int" name="NMAXFOCKAE">     0</i>
   <i type="logical" name="LFOCKAEDFT"> F  </i>
   <i name="HFSCREEN">      0.00000000</i>
   <i name="HFSCREENC">      0.00000000</i>
   <i type="int" name="NBANDSGWLOW">     0</i>
  </separator>
  <separator name="vdW DFT" >
   <i type="logical" name="LUSE_VDW"> F  </i>
   <i name="Zab_VDW">     -0.84910000</i>
   <i name="PARAM1">      0.12340000</i>
   <i name="PARAM2">      1.00000000</i>
   <i name="PARAM3">      0.00000000</i>
  </separator>
  <separator name="model GW" >
   <i type="int" name="MODEL_GW">     0</i>
   <i name="MODEL_EPS0">      9.17662200</i>
   <i name="MODEL_ALPHA">      1.00000000</i>
  </separator>
  <separator name="linear response parameters" >
   <i type="logical" name="LEPSILON"> F  </i>
   <i type="logical" name="LRPA"> F  </i>
   <i type="logical" name="LNABLA"> F  </i>
   <i type="logical" name="LVEL"> F  </i>
   <i type="int" name="KINTER">     0</i>
   <i name="CSHIFT">      0.10000000</i>
   <i name="OMEGAMAX">     -1.00000000</i>
   <i name="DEG_THRESHOLD">      0.00200000</i>
   <i name="RTIME">     -0.10000000</i>
   <i name="WPLASMAI">      0.00000000</i>
   <v name="DFIELD">      0.00000000      0.00000000      0.00000000</v>
   <v name="WPLASMA">      0.00000000      0.00000000      0.00000000      0.00000000      0.00000000      0.00000000      0.00000000      0.00000000      0.00000000</v>
  </separator>
  <separator name="orbital magnetization" >
   <i type="logical" name="NUCIND"> F  </i>
   <v name="MAGPOS">      0.00000000      0.00000000      0.00000000</v>
   <i type="logical" name="LNICSALL"> T  </i>
   <i type="logical" name="ORBITALMAG"> F  </i>
   <i type="logical" name="LMAGBLOCH"> F  </i>
   <i type="logical" name="LCHIMAG"> F  </i>
   <i type="logical" name="LGAUGE"> T  </i>
   <i type="int" name="MAGATOM">     0</i>
   <v name="MAGDIPOL">      0.00000000      0.00000000      0.00000000</v>
   <v name="AVECCONST">      0.00000000      0.00000000      0.00000000</v>
  </separator>
  <separator name="response functions" >
   <i type="logical" name="LADDER"> F  </i>
   <i type="logical" name="LRPAFORCE"> F  </i>
   <i type="logical" name="LFXC"> F  </i>
   <i type="logical" name="LHARTREE"> T  </i>
   <i type="int" name="IBSE">     0</i>
   <v type="int" name="KPOINT">    -1     0     0     0</v>
   <i type="logical" name="LTCTE"> F  </i>
   <i type="logical" name="LTETE"> F  </i>
   <i type="logical" name="LTRIPLET"> F  </i>
   <i type="logical" name="LFXCEPS"> F  </i>
   <i type="logical" name="LFXHEG"> F  </i>
   <i type="int" name="NATURALO">     2</i>
   <i type="logical" name="L2ORDER"> F  </i>
   <i type="logical" name="LMP2LT"> F  </i>
   <i type="logical" name="LUSEW"> F  </i>
   <i name="ENCUTGW">     -2.00000000</i>
   <i name="ENCUTGWSOFT">     -2.00000000</i>
   <i name="ENCUTLF">     -1.00000000</i>
   <i type="int" name="LMAXMP2">    -1</i>
   <i name="SCISSOR">      0.00000000</i>
   <i type="int" name="NOMEGA">     0</i>
   <i type="int" name="NOMEGAR">     0</i>
   <i type="int" name="NBANDSGW">    -1</i>
   <i type="int" name="NBANDSO">    -1</i>
   <i type="int" name="NBANDSV">    -1</i>
   <i type="int" name="NELM">     1</i>
   <i type="int" name="NELMHF">     1</i>
   <i type="int" name="DIM">     3</i>
   <i type="int" name="ANTIRES">     0</i>
   <i name="OMEGAMAX">    -30.00000000</i>
   <i name="OMEGAMIN">    -30.00000000</i>
   <i name="OMEGATL">   -200.00000000</i>
   <i type="int" name="OMEGAGRID">   140</i>
   <i name="CSHIFT">     -0.10000000</i>
   <i type="logical" name="SELFENERGY"> F  </i>
   <i type="logical" name="LSPECTRAL"> F  </i>
   <i type="logical" name="LSPECTRALGW"> F  </i>
   <i type="logical" name="LSINGLES"> F  </i>
   <i type="logical" name="LFERMIGW"> F  </i>
   <i type="logical" name="ODDONLYGW"> F  </i>
   <i type="logical" name="EVENONLYGW"> F  </i>
   <i type="int" name="NKREDLFX">     1</i>
   <i type="int" name="NKREDLFY">     1</i>
   <i type="int" name="NKREDLFZ">     1</i>
   <i type="int" name="MAXMEM">  2800</i>
   <i type="int" name="TELESCOPE">     0</i>
   <i type="int" name="TAUPAR">     1</i>
   <i type="int" name="OMEGAPAR">    -1</i>
   <i name="LAMBDA">      1.00000000</i>
  </separator>
  <separator name="External order field" >
   <i name="OFIELD_KAPPA">      0.00000000</i>
   <v name="OFIELD_K">      0.00000000      0.00000000      0.00000000</v>
   <i name="OFIELD_Q6_NEAR">      0.00000000</i>
   <i name="OFIELD_Q6_FAR">      0.00000000</i>
   <i name="OFIELD_A">      0.00000000</i>
  </separator>
 </parameters>
 <atominfo>
  <atoms>       2 </atoms>
  <types>       1 </types>
  <array name="atoms" >
   <dimension dim="1">ion</dimension>
   <field type="string">element</field>
   <field type="int">atomtype</field>
   <set>
    <rc><c>Si</c><c>   1</c></rc>
    <rc><c>Si</c><c>   1</c></rc>
   </set>
  </array>
  <array name="atomtypes" >
   <dimension dim="1">type</dimension>
   <field type="int">atomspertype</field>
   <field type="string">element</field>
   <field>mass</field>
   <field>valence</field>
   <field type="string">pseudopotential</field>
   <set>
    <rc><c>   2</c><c>Si</c><c>     28.08500000</c><c>      4.00000000</c><c> PAW_PBE Si 05Jan2001                   </c></rc>
   </set>
  </array>
 </atominfo>
 <structure name="initialpos" >
  <crystal>
   <varray name="basis" >
    <v>      -2.45000000       2.45000000       1.27400000 </v>
    <v>       2.45000000      -2.45000000       1.27400000 </v>
    <v>       2.45000000       2.45000000      -1.27400000 </v>
   </varray>
   <i name="volume">     30.58874000 </i>
   <varray name="rec_basis" >
    <v>       0.00000000       0.20408163       0.39246468 </v>
    <v>       0.20408163       0.00000000       0.39246468 </v>
    <v>       0.20408163       0.20408163      -0.00000000 </v>
   </varray>
  </crystal>
  <varray name="positions" >
   <v>       0.25000000       0.75000000       0.50000000 </v>
   <v>       0.00000000       0.00000000       0.00000000 </v>
  </varray>
 </structure>
 <calculation>
  <scstep>
   <time name="dav">    0.15    0.16</time>
   <time name="total">    0.19    0.21</time>
   <energy>
    <i name="alphaZ">      4.40202223 </i>
    <i name="ewald">   -265.18101312 </i>
    <i name="hartreedc">     -2.30415367 </i>
    <i name="XCdc">    -17.81545108 </i>
    <i name="pawpsdc">     65.95520812 </i>
    <i name="pawaedc">    -30.76852678 </i>
    <i name="eentropy">     -0.01212378 </i>
    <i name="bandstr">     39.23272860 </i>
    <i name="atom">    206.12349923 </i>
    <i name="e_fr_energy">     -0.36781026 </i>
    <i name="e_wo_entrp">     -0.35568648 </i>
    <i name="e_0_energy">     -0.36174837 </i>
   </energy>
  </scstep>
  <scstep>
   <time name="dav">    0.24    0.25</time>
   <time name="total">    0.24    0.26</time>
   <energy>
    <i name="e_fr_energy">    -10.16487010 </i>
    <i name="e_wo_entrp">    -10.14578516 </i>
    <i name="e_0_energy">    -10.15532763 </i>
   </energy>
  </scstep>
  <scstep>
   <time name="dav">    0.19    0.20</time>
   <time name="total">    0.19    0.20</time>
   <energy>
    <i name="e_fr_energy">    -10.24075233 </i>
    <i name="e_wo_entrp">    -10.22172670 </i>
    <i name="e_0_energy">    -10.23123952 </i>
   </energy>
  </scstep>
  <scstep>
   <time name="dav">    0.25    0.26</time>
   <time name="total">    0.25    0.26</time>
   <energy>
    <i name="e_fr_energy">    -10.24091807 </i>
    <i name="e_wo_entrp">    -10.22189577 </i>
    <i name="e_0_energy">    -10.23140692 </i>
   </energy>
  </scstep>
  <scstep>
   <time name="dav">    0.19    0.19</time>
   <time name="total">    0.20    0.21</time>
   <energy>
    <i name="e_fr_energy">    -10.24091811 </i>
    <i name="e_wo_entrp">    -10.22189581 </i>
    <i name="e_0_energy">    -10.23140696 </i>
   </energy>
  </scstep>
  <scstep>
   <time name="dav">    0.22    0.22</time>
   <time name="total">    0.26    0.27</time>
   <energy>
    <i name="e_fr_energy">    -10.23555994 </i>
    <i name="e_wo_entrp">    -10.21641454 </i>
    <i name="e_0_energy">    -10.22598724 </i>
   </energy>
  </scstep>
  <scstep>
   <time name="dav">    0.14    0.14</time>
   <time name="total">    0.18    0.19</time>
   <energy>
    <i name="e_fr_energy">    -10.23132137 </i>
    <i name="e_wo_entrp">    -10.21198939 </i>
    <i name="e_0_energy">    -10.22165538 </i>
   </energy>
  </scstep>
  <scstep>
   <time name="dav">    0.10    0.10</time>
   <time name="total">    0.13    0.14</time>
   <energy>
    <i name="alphaZ">      4.40202223 </i>
    <i name="ewald">   -265.18101312 </i>
    <i name="hartreedc">     -2.47839378 </i>
    <i name="XCdc">    -17.58083833 </i>
    <i name="pawpsdc">     70.74750675 </i>
    <i name="pawaedc">    -35.66463332 </i>
    <i name="eentropy">     -0.01930117 </i>
    <i name="bandstr">     29.41984847 </i>
    <i name="atom">    206.12349923 </i>
    <i name="e_fr_energy">    -10.23130303 </i>
    <i name="e_wo_entrp">    -10.21200186 </i>
    <i name="e_0_energy">    -10.22165245 </i>
   </energy>
  </scstep>
  <structure>
   <crystal>
    <varray name="basis" >
     <v>      -2.45000000       2.45000000       1.27400000 </v>
     <v>       2.45000000      -2.45000000       1.27400000 </v>
     <v>       2.45000000       2.45000000      -1.27400000 </v>
    </varray>
    <i name="volume">     30.58874000 </i>
    <varray name="rec_basis" >
     <v>       0.00000000       0.20408163       0.39246468 </v>
     <v>       0.20408163       0.00000000       0.39246468 </v>
     <v>       0.20408163       0.20408163      -0.00000000 </v>
    </varray>
   </crystal>
   <varray name="positions" >
    <v>       0.25000000       0.75000000       0.50000000 </v>
    <v>       0.00000000       0.00000000       0.00000000 </v>
   </varray>
  </structure>
  <varray name="forces" >
   <v>      -0.00000000       0.00000000      -0.00000000 </v>
   <v>       0.00000000      -0.00000000       0.00000000 </v>
  </varray>
  <varray name="stress" >
   <v>      26.60832199       0.00000000       0.00000000 </v>
   <v>      -0.00000000      26.60832199       0.00000000 </v>
   <v>       0.00000000       0.00000000     -39.49498623 </v>
  </varray>
  <energy>
   <i name="e_fr_energy">    -10.23130303 </i>
   <i name="e_wo_entrp">    -10.22165245 </i>
   <i name="e_0_energy">     -0.01930117 </i>
  </energy>
  <time name="totalsc">    2.28    2.73</time>
 </calculation>
 <calculation>
  <scstep>
   <time name="dav">    0.22    0.22</time>
   <time name="total">    0.26    0.27</time>
   <energy>
    <i name="alphaZ">      4.37567706 </i>
    <i name="ewald">   -264.43954791 </i>
    <i name="hartreedc">     -2.49365519 </i>
    <i name="XCdc">    -17.60990578 </i>
    <i name="pawpsdc">     70.75057953 </i>
    <i name="pawaedc">    -35.66802495 </i>
    <i name="eentropy">     -0.02466611 </i>
    <i name="bandstr">     28.72203491 </i>
    <i name="atom">    206.12349923 </i>
    <i name="e_fr_energy">    -10.26400922 </i>
    <i name="e_wo_entrp">    -10.23934311 </i>
    <i name="e_0_energy">    -10.25167617 </i>
   </energy>
  </scstep>
  <scstep>
   <time name="dav">    0.16    0.16</time>
   <time name="total">    0.20    0.21</time>
   <energy>
    <i name="e_fr_energy">    -10.25475158 </i>
    <i name="e_wo_entrp">    -10.22980964 </i>
    <i name="e_0_energy">    -10.24228061 </i>
   </energy>
  </scstep>
  <scstep>
   <time name="dav">    0.19    0.19</time>
   <time name="total">    0.23    0.24</time>
   <energy>
    <i name="e_fr_energy">    -10.25041251 </i>
    <i name="e_wo_entrp">    -10.22517547 </i>
    <i name="e_0_energy">    -10.23779399 </i>
   </energy>
  </scstep>
  <scstep>
   <time name="dav">    0.10    0.10</time>
   <time name="total">    0.12    0.14</time>
   <energy>
    <i name="alphaZ">      4.37567706 </i>
    <i name="ewald">   -264.43954791 </i>
    <i name="hartreedc">     -2.62966522 </i>
    <i name="XCdc">    -17.60176746 </i>
    <i name="pawpsdc">     70.75562481 </i>
    <i name="pawaedc">    -35.67368033 </i>
    <i name="eentropy">     -0.02522970 </i>
    <i name="bandstr">     28.86464537 </i>
    <i name="atom">    206.12349923 </i>
    <i name="e_fr_energy">    -10.25044417 </i>
    <i name="e_wo_entrp">    -10.22521446 </i>
    <i name="e_0_energy">    -10.23782932 </i>
   </energy>
  </scstep>
  <structure>
   <crystal>
    <varray name="basis" >
     <v>      -2.48002173       2.48002173       1.25082800 </v>
     <v>       2.48002173      -2.48002173       1.25082800 </v>
     <v>       2.48002173       2.48002173      -1.25082800 </v>
    </varray>
    <i name="volume">     30.77290939 </i>
    <varray name="rec_basis" >
     <v>      -0.00000000       0.20161114       0.39973522 </v>
     <v>       0.20161114      -0.00000000       0.39973522 </v>
     <v>       0.20161114       0.20161114       0.00000000 </v>
    </varray>
   </crystal>
   <varray name="positions" >
    <v>       0.25000000       0.75000000       0.50000000 </v>
    <v>      -0.00000000       0.00000000      -0.00000000 </v>
   </varray>
  </structure>
  <varray name="forces" >
   <v>       0.00000000      -0.00000000       0.00000000 </v>
   <v>      -0.00000000       0.00000000      -0.00000000 </v>
  </varray>
  <varray name="stress" >
   <v>       7.26156931       0.00000000       0.00000000 </v>
   <v>       0.00000000       7.26156931      -0.00000000 </v>
   <v>       0.00000000      -0.00000000     -11.89534957 </v>
  </varray>
  <energy>
   <i name="e_fr_energy">    -10.25044417 </i>
   <i name="e_wo_entrp">    -10.23782932 </i>
   <i name="e_0_energy">     -0.02522970 </i>
  </energy>
  <time name="totalsc">    1.02    1.15</time>
 </calculation>
 <calculation>
  <scstep>
   <time name="dav">    0.22    0.21</time>
   <time name="total">    0.26    0.26</time>
   <energy>
    <i name="alphaZ">      4.37038587 </i>
    <i name="ewald">   -264.27246459 </i>
    <i name="hartreedc">     -2.63721831 </i>
    <i name="XCdc">    -17.60750775 </i>
    <i name="pawpsdc">     70.71924388 </i>
    <i name="pawaedc">    -35.63550153 </i>
    <i name="eentropy">     -0.02425811 </i>
    <i name="bandstr">     28.71172735 </i>
    <i name="atom">    206.12349923 </i>
    <i name="e_fr_energy">    -10.25209396 </i>
    <i name="e_wo_entrp">    -10.22783585 </i>
    <i name="e_0_energy">    -10.23996491 </i>
   </energy>
  </scstep>
  <scstep>
   <time name="dav">    0.15    0.15</time>
   <time name="total">    0.17    0.19</time>
   <energy>
    <i name="alphaZ">      4.37038587 </i>
    <i name="ewald">   -264.27246459 </i>
    <i name="hartreedc">     -2.65135123 </i>
    <i name="XCdc">    -17.60663359 </i>
    <i name="pawpsdc">     70.72684976 </i>
    <i name="pawaedc">    -35.64343376 </i>
    <i name="eentropy">     -0.02431673 </i>
    <i name="bandstr">     28.72575125 </i>
    <i name="atom">    206.12349923 </i>
    <i name="e_fr_energy">    -10.25171379 </i>
    <i name="e_wo_entrp">    -10.22739707 </i>
    <i name="e_0_energy">    -10.23955543 </i>
   </energy>
  </scstep>
  <structure>
   <crystal>
    <varray name="basis" >
     <v>      -2.48648877       2.48648877       1.24583647 </v>
     <v>       2.48648877      -2.48648877       1.24583647 </v>
     <v>       2.48648877       2.48648877      -1.24583647 </v>
    </varray>
    <i name="volume">     30.81016586 </i>
    <varray name="rec_basis" >
     <v>       0.00000000       0.20108677       0.40133678 </v>
     <v>       0.20108677       0.00000000       0.40133678 </v>
     <v>       0.20108677       0.20108677      -0.00000000 </v>
    </varray>
   </crystal>
   <varray name="positions" >
    <v>       0.25000000       0.75000000       0.50000000 </v>
    <v>      -0.00000000       0.00000000      -0.00000000 </v>
   </varray>
  </structure>
  <varray name="forces" >
   <v>      -0.00000000       0.00000000      -0.00000000 </v>
   <v>       0.00000000      -0.00000000       0.00000000 </v>
  </varray>
  <varray name="stress" >
   <v>       5.29228998       0.00000000       0.00000000 </v>
   <v>       0.00000000       5.29228998       0.00000000 </v>
   <v>      -0.00000000       0.00000000      -6.96970042 </v>
  </varray>
  <energy>
   <i name="e_fr_energy">    -10.25171379 </i>
   <i name="e_wo_entrp">    -10.23955543 </i>
   <i name="e_0_energy">     -0.02431673 </i>
  </energy>
  <time name="totalsc">    0.63    0.73</time>
 </calculation>
 <calculation>
  <scstep>
   <time name="dav">    0.21    0.21</time>
   <time name="total">    0.25    0.26</time>
   <energy>
    <i name="alphaZ">      4.36020988 </i>
    <i name="ewald">   -263.92988620 </i>
    <i name="hartreedc">     -2.67929208 </i>
    <i name="XCdc">    -17.61720443 </i>
    <i name="pawpsdc">     70.73025993 </i>
    <i name="pawaedc">    -35.64710368 </i>
    <i name="eentropy">     -0.02257869 </i>
    <i name="bandstr">     28.43122940 </i>
    <i name="atom">    206.12349923 </i>
    <i name="e_fr_energy">    -10.25086665 </i>
    <i name="e_wo_entrp">    -10.22828796 </i>
    <i name="e_0_energy">    -10.23957731 </i>
   </energy>
  </scstep>
  <scstep>
   <time name="dav">    0.18    0.18</time>
   <time name="total">    0.22    0.23</time>
   <energy>
    <i name="e_fr_energy">    -10.24931996 </i>
    <i name="e_wo_entrp">    -10.22669414 </i>
    <i name="e_0_energy">    -10.23800705 </i>
   </energy>
  </scstep>
  <scstep>
   <time name="dav">    0.16    0.16</time>
   <time name="total">    0.20    0.21</time>
   <energy>
    <i name="e_fr_energy">    -10.24859764 </i>
    <i name="e_wo_entrp">    -10.22591297 </i>
    <i name="e_0_energy">    -10.23725531 </i>
   </energy>
  </scstep>
  <scstep>
   <time name="dav">    0.08    0.08</time>
   <time name="total">    0.11    0.12</time>
   <energy>
    <i name="alphaZ">      4.36020988 </i>
    <i name="ewald">   -263.92988620 </i>
    <i name="hartreedc">     -2.75008890 </i>
    <i name="XCdc">    -17.61228065 </i>
    <i name="pawpsdc">     70.75176738 </i>
    <i name="pawaedc">    -35.66916734 </i>
    <i name="eentropy">     -0.02268337 </i>
    <i name="bandstr">     28.50002564 </i>
    <i name="atom">    206.12349923 </i>
    <i name="e_fr_energy">    -10.24860435 </i>
    <i name="e_wo_entrp">    -10.22592097 </i>
    <i name="e_0_energy">    -10.23726266 </i>
   </energy>
  </scstep>
  <structure>
   <crystal>
    <varray name="basis" >
     <v>      -2.49942283       2.49942283       1.23585343 </v>
     <v>       2.49942283      -2.49942283       1.23585343 </v>
     <v>       2.49942283       2.49942283      -1.23585343 </v>
    </varray>
    <i name="volume">     30.88207159 </i>
    <varray name="rec_basis" >
     <v>      -0.00000000       0.20004618       0.40457872 </v>
     <v>       0.20004618      -0.00000000       0.40457872 </v>
     <v>       0.20004618       0.20004618       0.00000000 </v>
    </varray>
   </crystal>
   <varray name="positions" >
    <v>       0.25000000       0.75000000       0.50000000 </v>
    <v>      -0.00000000       0.00000000      -0.00000000 </v>
   </varray>
  </structure>
  <varray name="forces" >
   <v>      -0.00000000       0.00000000      -0.00000000 </v>
   <v>       0.00000000      -0.00000000       0.00000000 </v>
  </varray>
  <varray name="stress" >
   <v>     -14.28190896       0.00000000       0.00000000 </v>
   <v>       0.00000000     -14.28190896      -0.00000000 </v>
   <v>       0.00000000      -0.00000000      27.10875120 </v>
  </varray>
  <energy>
   <i name="e_fr_energy">    -10.24860435 </i>
   <i name="e_wo_entrp">    -10.23726266 </i>
   <i name="e_0_energy">     -0.02268337 </i>
  </energy>
  <time name="totalsc">    0.98    1.09</time>
 </calculation>
 <calculation>
  <scstep>
   <time name="dav">    0.21    0.21</time>
   <time name="total">    0.25    0.26</time>
   <energy>
    <i name="alphaZ">      4.36796821 </i>
    <i name="ewald">   -264.19371635 </i>
    <i name="hartreedc">     -2.74172040 </i>
    <i name="XCdc">    -17.60351908 </i>
    <i name="pawpsdc">     70.74352810 </i>
    <i name="pawaedc">    -35.66053573 </i>
    <i name="eentropy">     -0.02404069 </i>
    <i name="bandstr">     28.73558364 </i>
    <i name="atom">    206.12349923 </i>
    <i name="e_fr_energy">    -10.25295308 </i>
    <i name="e_wo_entrp">    -10.22891239 </i>
    <i name="e_0_energy">    -10.24093273 </i>
   </energy>
  </scstep>
  <scstep>
   <time name="dav">    0.16    0.17</time>
   <time name="total">    0.21    0.22</time>
   <energy>
    <i name="e_fr_energy">    -10.25197599 </i>
    <i name="e_wo_entrp">    -10.22801953 </i>
    <i name="e_0_energy">    -10.23999776 </i>
   </energy>
  </scstep>
  <scstep>
   <time name="dav">    0.12    0.12</time>
   <time name="total">    0.16    0.17</time>
   <energy>
    <i name="e_fr_energy">    -10.25150962 </i>
    <i name="e_wo_entrp">    -10.22766318 </i>
    <i name="e_0_energy">    -10.23958640 </i>
   </energy>
  </scstep>
  <scstep>
   <time name="dav">    0.08    0.08</time>
   <time name="total">    0.11    0.12</time>
   <energy>
    <i name="alphaZ">      4.36796821 </i>
    <i name="ewald">   -264.19371635 </i>
    <i name="hartreedc">     -2.68744133 </i>
    <i name="XCdc">    -17.60743252 </i>
    <i name="pawpsdc">     70.71358578 </i>
    <i name="pawaedc">    -35.62963983 </i>
    <i name="eentropy">     -0.02385010 </i>
    <i name="bandstr">     28.68551066 </i>
    <i name="atom">    206.12349923 </i>
    <i name="e_fr_energy">    -10.25151625 </i>
    <i name="e_wo_entrp">    -10.22766615 </i>
    <i name="e_0_energy">    -10.23959120 </i>
   </energy>
  </scstep>
  <structure>
   <crystal>
    <varray name="basis" >
     <v>      -2.48950024       2.48950024       1.24351210 </v>
     <v>       2.48950024      -2.48950024       1.24351210 </v>
     <v>       2.48950024       2.48950024      -1.24351210 </v>
    </varray>
    <i name="volume">     30.82721921 </i>
    <varray name="rec_basis" >
     <v>      -0.00000000       0.20084352       0.40208696 </v>
     <v>       0.20084352      -0.00000000       0.40208696 </v>
     <v>       0.20084352       0.20084352      -0.00000000 </v>
    </varray>
   </crystal>
   <varray name="positions" >
    <v>       0.25000000       0.75000000       0.50000000 </v>
    <v>      -0.00000000       0.00000000      -0.00000000 </v>
   </varray>
  </structure>
  <varray name="forces" >
   <v>       0.00000000       0.00000000       0.00000000 </v>
   <v>      -0.00000000      -0.00000000      -0.00000000 </v>
  </varray>
  <varray name="stress" >
   <v>      -1.61161210       0.00000000       0.00000000 </v>
   <v>       0.00000000      -1.61161210       0.00000000 </v>
   <v>       0.00000000       0.00000000       3.16621421 </v>
  </varray>
  <energy>
   <i name="e_fr_energy">    -10.25151625 </i>
   <i name="e_wo_entrp">    -10.23959120 </i>
   <i name="e_0_energy">     -0.02385010 </i>
  </energy>
  <time name="totalsc">    0.93    1.04</time>
 </calculation>
 <calculation>
  <scstep>
   <time name="dav">    0.14    0.15</time>
   <time name="total">    0.19    0.19</time>
   <energy>
    <i name="alphaZ">      4.36862944 </i>
    <i name="ewald">   -264.21540957 </i>
    <i name="hartreedc">     -2.68690322 </i>
    <i name="XCdc">    -17.60667568 </i>
    <i name="pawpsdc">     70.71334491 </i>
    <i name="pawaedc">    -35.62938119 </i>
    <i name="eentropy">     -0.02401372 </i>
    <i name="bandstr">     28.70534801 </i>
    <i name="atom">    206.12349923 </i>
    <i name="e_fr_energy">    -10.25156180 </i>
    <i name="e_wo_entrp">    -10.22754808 </i>
    <i name="e_0_energy">    -10.23955494 </i>
   </energy>
  </scstep>
  <scstep>
   <time name="dav">    0.08    0.08</time>
   <time name="total">    0.11    0.12</time>
   <energy>
    <i name="alphaZ">      4.36862944 </i>
    <i name="ewald">   -264.21540957 </i>
    <i name="hartreedc">     -2.68492018 </i>
    <i name="XCdc">    -17.60679197 </i>
    <i name="pawpsdc">     70.71625339 </i>
    <i name="pawaedc">    -35.63244470 </i>
    <i name="eentropy">     -0.02400801 </i>
    <i name="bandstr">     28.70363293 </i>
    <i name="atom">    206.12349923 </i>
    <i name="e_fr_energy">    -10.25155945 </i>
    <i name="e_wo_entrp">    -10.22755145 </i>
    <i name="e_0_energy">    -10.23955545 </i>
   </energy>
  </scstep>
  <structure>
   <crystal>
    <varray name="basis" >
     <v>      -2.48867296       2.48867296       1.24415062 </v>
     <v>       2.48867296      -2.48867296       1.24415062 </v>
     <v>       2.48867296       2.48867296      -1.24415062 </v>
    </varray>
    <i name="volume">     30.82255329 </i>
    <varray name="rec_basis" >
     <v>       0.00000000       0.20091029       0.40188060 </v>
     <v>       0.20091029      -0.00000000       0.40188060 </v>
     <v>       0.20091029       0.20091029       0.00000000 </v>
    </varray>
   </crystal>
   <varray name="positions" >
    <v>       0.25000000       0.75000000       0.50000000 </v>
    <v>      -0.00000000       0.00000000      -0.00000000 </v>
   </varray>
  </structure>
  <varray name="forces" >
   <v>       0.00000000      -0.00000000      -0.00000000 </v>
   <v>      -0.00000000       0.00000000       0.00000000 </v>
  </varray>
  <varray name="stress" >
   <v>      -1.08504121      -0.00000000      -0.00000000 </v>
   <v>      -0.00000000      -1.08504121       0.00000000 </v>
   <v>      -0.00000000       0.00000000       2.10058632 </v>
  </varray>
  <energy>
   <i name="e_fr_energy">    -10.25155945 </i>
   <i name="e_wo_entrp">    -10.23955545 </i>
   <i name="e_0_energy">     -0.02400801 </i>
  </energy>
  <time name="totalsc">    0.50    0.60</time>
 </calculation>
 <calculation>
  <scstep>
   <time name="dav">    0.20    0.20</time>
   <time name="total">    0.24    0.25</time>
   <energy>
    <i name="alphaZ">      4.36969286 </i>
    <i name="ewald">   -264.25005115 </i>
    <i name="hartreedc">     -2.68149579 </i>
    <i name="XCdc">    -17.60569027 </i>
    <i name="pawpsdc">     70.72148355 </i>
    <i name="pawaedc">    -35.63790817 </i>
    <i name="eentropy">     -0.02426174 </i>
    <i name="bandstr">     28.73314144 </i>
    <i name="atom">    206.12349923 </i>
    <i name="e_fr_energy">    -10.25159005 </i>
    <i name="e_wo_entrp">    -10.22732831 </i>
    <i name="e_0_energy">    -10.23945918 </i>
   </energy>
  </scstep>
  <scstep>
   <time name="dav">    0.08    0.08</time>
   <time name="total">    0.12    0.12</time>
   <energy>
    <i name="alphaZ">      4.36969286 </i>
    <i name="ewald">   -264.25005115 </i>
    <i name="hartreedc">     -2.67831865 </i>
    <i name="XCdc">    -17.60590756 </i>
    <i name="pawpsdc">     70.72033108 </i>
    <i name="pawaedc">    -35.63672656 </i>
    <i name="eentropy">     -0.02425005 </i>
    <i name="bandstr">     28.73015742 </i>
    <i name="atom">    206.12349923 </i>
    <i name="e_fr_energy">    -10.25157338 </i>
    <i name="e_wo_entrp">    -10.22732333 </i>
    <i name="e_0_energy">    -10.23944835 </i>
   </energy>
  </scstep>
  <structure>
   <crystal>
    <varray name="basis" >
     <v>      -2.48734826       2.48734826       1.24517308 </v>
     <v>       2.48734826      -2.48734826       1.24517308 </v>
     <v>       2.48734826       2.48734826      -1.24517308 </v>
    </varray>
    <i name="volume">     30.81505219 </i>
    <varray name="rec_basis" >
     <v>      -0.00000000       0.20101729       0.40155060 </v>
     <v>       0.20101729      -0.00000000       0.40155060 </v>
     <v>       0.20101729       0.20101729       0.00000000 </v>
    </varray>
   </crystal>
   <varray name="positions" >
    <v>       0.25000000       0.75000000       0.50000000 </v>
    <v>      -0.00000000       0.00000000      -0.00000000 </v>
   </varray>
  </structure>
  <varray name="forces" >
   <v>       0.00000000      -0.00000000       0.00000000 </v>
   <v>      -0.00000000       0.00000000      -0.00000000 </v>
  </varray>
  <varray name="stress" >
   <v>      -0.06170567       0.00000000       0.00000000 </v>
   <v>       0.00000000      -0.06170567       0.00000000 </v>
   <v>       0.00000000       0.00000000       0.10209752 </v>
  </varray>
  <energy>
   <i name="e_fr_energy">    -10.25157338 </i>
   <i name="e_wo_entrp">    -10.23944835 </i>
   <i name="e_0_energy">     -0.02425005 </i>
  </energy>
  <time name="totalsc">    0.58    0.76</time>
  <eigenvalues>
   <array>
    <dimension dim="1">band</dimension>
    <dimension dim="2">kpoint</dimension>
    <dimension dim="3">spin</dimension>
    <field>eigene</field>
    <field>occ</field>
    <set>
     <set comment="spin 1">
      <set comment="kpoint 1">
       <r>   -4.6616    1.0000 </r>
       <r>    5.5299    1.0000 </r>
       <r>    6.0149    1.0000 </r>
       <r>    6.0149    1.0000 </r>
       <r>   10.3595    0.0000 </r>
       <r>   16.6239    0.0000 </r>
       <r>   16.7511    0.0000 </r>
       <r>   16.7511    0.0000 </r>
      </set>
      <set comment="kpoint 2">
       <r>   -3.4999    1.0000 </r>
       <r>    4.6433    1.0000 </r>
       <r>    6.0991    1.0000 </r>
       <r>    8.8706    0.8704 </r>
       <r>   12.4491    0.0000 </r>
       <r>   13.1347    0.0000 </r>
       <r>   13.3792    0.0000 </r>
       <r>   15.3757    0.0000 </r>
      </set>
      <set comment="kpoint 3">
       <r>   -0.0634    1.0000 </r>
       <r>    5.4163    1.0000 </r>
       <r>    5.7546    1.0000 </r>
       <r>    7.3032    1.0000 </r>
       <r>    8.9558    0.7005 </r>
       <r>   11.5486    0.0000 </r>
       <r>   13.4490    0.0000 </r>
       <r>   14.0855    0.0000 </r>
      </set>
      <set comment="kpoint 4">
       <r>   -0.5105    1.0000 </r>
       <r>    5.8803    1.0000 </r>
       <r>    7.0289    1.0000 </r>
       <r>    7.0403    1.0000 </r>
       <r>    9.6623    0.0000 </r>
       <r>   11.6479    0.0000 </r>
       <r>   12.4611    0.0000 </r>
       <r>   12.6564    0.0000 </r>
      </set>
      <set comment="kpoint 5">
       <r>    1.2612    1.0000 </r>
       <r>    3.3819    1.0000 </r>
       <r>    4.6783    1.0000 </r>
       <r>    7.6857    1.0000 </r>
       <r>    8.9982    0.5892 </r>
       <r>   10.9180    0.0000 </r>
       <r>   13.8608    0.0000 </r>
       <r>   15.9800    0.0000 </r>
      </set>
      <set comment="kpoint 6">
       <r>   -2.5883    1.0000 </r>
       <r>    1.8216    1.0000 </r>
       <r>    6.5117    1.0000 </r>
       <r>   10.3460    0.0000 </r>
       <r>   10.7452    0.0000 </r>
       <r>   12.3347    0.0000 </r>
       <r>   14.2590    0.0000 </r>
       <r>   15.4685    0.0000 </r>
      </set>
      <set comment="kpoint 7">
       <r>   -4.2019    1.0000 </r>
       <r>    2.4287    1.0000 </r>
       <r>    6.4465    1.0000 </r>
       <r>    7.8662    1.0000 </r>
       <r>   12.8367    0.0000 </r>
       <r>   12.8771    0.0000 </r>
       <r>   14.4098    0.0000 </r>
       <r>   20.0577    0.0000 </r>
      </set>
      <set comment="kpoint 8">
       <r>   -0.7894    1.0000 </r>
       <r>   -0.7873    1.0000 </r>
       <r>    8.1457    1.0000 </r>
       <r>    8.2223    1.0000 </r>
       <r>   10.9041    0.0000 </r>
       <r>   12.7073    0.0000 </r>
       <r>   13.7661    0.0000 </r>
       <r>   13.9628    0.0000 </r>
      </set>
      <set comment="kpoint 9">
       <r>   -2.8315    1.0000 </r>
       <r>   -0.5864    1.0000 </r>
       <r>    7.7404    1.0000 </r>
       <r>    9.4476    0.0016 </r>
       <r>    9.8909    0.0000 </r>
       <r>   11.6300    0.0000 </r>
       <r>   17.7677    0.0000 </r>
       <r>   19.6401    0.0000 </r>
      </set>
      <set comment="kpoint 10">
       <r>    0.8299    1.0000 </r>
       <r>    3.0148    1.0000 </r>
       <r>    6.3051    1.0000 </r>
       <r>    6.3113    1.0000 </r>
       <r>   11.1878    0.0000 </r>
       <r>   12.7983    0.0000 </r>
       <r>   13.7253    0.0000 </r>
       <r>   14.2460    0.0000 </r>
      </set>
      <set comment="kpoint 11">
       <r>   -3.7452    1.0000 </r>
       <r>    2.2020    1.0000 </r>
       <r>    4.0288    1.0000 </r>
       <r>    9.8142    0.0000 </r>
       <r>   10.8660    0.0000 </r>
       <r>   14.1308    0.0000 </r>
       <r>   17.5050    0.0000 </r>
       <r>   17.8728    0.0000 </r>
      </set>
      <set comment="kpoint 12">
       <r>   -2.3893    1.0000 </r>
       <r>   -0.1993    1.0000 </r>
       <r>    4.6958    1.0000 </r>
       <r>    6.8257    1.0000 </r>
       <r>   13.0570    0.0000 </r>
       <r>   15.2009    0.0000 </r>
       <r>   18.1754    0.0000 </r>
       <r>   18.6382    0.0000 </r>
      </set>
      <set comment="kpoint 13">
       <r>   -1.6941    1.0000 </r>
       <r>    1.9710    1.0000 </r>
       <r>    3.9011    1.0000 </r>
       <r>    7.4603    1.0000 </r>
       <r>   10.4353    0.0000 </r>
       <r>   14.9974    0.0000 </r>
       <r>   16.3924    0.0000 </r>
       <r>   17.3509    0.0000 </r>
      </set>
      <set comment="kpoint 14">
       <r>    0.0333    1.0000 </r>
       <r>    0.0394    1.0000 </r>
       <r>    4.9391    1.0000 </r>
       <r>    4.9456    1.0000 </r>
       <r>   10.0878    0.0000 </r>
       <r>   16.3502    0.0000 </r>
       <r>   17.1497    0.0000 </r>
       <r>   17.8769    0.0000 </r>
      </set>
      <set comment="kpoint 15">
       <r>    2.4981    1.0000 </r>
       <r>    3.6710    1.0000 </r>
       <r>    4.1286    1.0000 </r>
       <r>    5.8627    1.0000 </r>
       <r>    7.2391    1.0000 </r>
       <r>   12.0251    0.0000 </r>
       <r>   13.5734    0.0000 </r>
       <r>   15.9621    0.0000 </r>
      </set>
      <set comment="kpoint 16">
       <r>   -0.9614    1.0000 </r>
       <r>    7.5756    1.0000 </r>
       <r>    8.1102    1.0000 </r>
       <r>    8.5568    0.9996 </r>
       <r>    8.5568    0.9996 </r>
       <r>    9.8785    0.0000 </r>
       <r>   11.5494    0.0000 </r>
       <r>   11.5494    0.0000 </r>
      </set>
      <set comment="kpoint 17">
       <r>   -1.1077    1.0000 </r>
       <r>    0.3753    1.0000 </r>
       <r>    2.3973    1.0000 </r>
       <r>    3.8598    1.0000 </r>
       <r>   16.3718    0.0000 </r>
       <r>   17.1589    0.0000 </r>
       <r>   18.8180    0.0000 </r>
       <r>   19.5449    0.0000 </r>
      </set>
      <set comment="kpoint 18">
       <r>    1.0558    1.0000 </r>
       <r>    1.0656    1.0000 </r>
       <r>    3.0690    1.0000 </r>
       <r>    3.0690    1.0000 </r>
       <r>    9.7076    0.0000 </r>
       <r>   18.2465    0.0000 </r>
       <r>   19.6403    0.0000 </r>
       <r>   19.6404    0.0000 </r>
      </set>
     </set>
    </set>
   </array>
  </eigenvalues>
  <separator name="orbital magnetization" >
   <v name="MAGDIPOLOUT">      0.00000000      0.00000000      0.00000000</v>
  </separator>
  <dos>
   <i name="efermi">      9.03013528 </i>
   <total>
    <array>
     <dimension dim="1">gridpoints</dimension>
     <dimension dim="2">spin</dimension>
     <field>energy</field>
     <field>total</field>
     <field>integrated</field>
     <set>
      <set comment="spin 1">
       <r>    -6.6616     0.0000     0.0000 </r>
       <r>    -6.5659     0.0000     0.0000 </r>
       <r>    -6.4701     0.0000     0.0000 </r>
       <r>    -6.3744     0.0000     0.0000 </r>
       <r>    -6.2787     0.0000     0.0000 </r>
       <r>    -6.1829     0.0000     0.0000 </r>
       <r>    -6.0872     0.0000     0.0000 </r>
       <r>    -5.9915     0.0000     0.0000 </r>
       <r>    -5.8957     0.0000     0.0000 </r>
       <r>    -5.8000     0.0000     0.0000 </r>
       <r>    -5.7043     0.0000     0.0000 </r>
       <r>    -5.6086     0.0000     0.0000 </r>
       <r>    -5.5128     0.0000     0.0000 </r>
       <r>    -5.4171     0.0000     0.0000 </r>
       <r>    -5.3214     0.0000     0.0000 </r>
       <r>    -5.2256     0.0000     0.0000 </r>
       <r>    -5.1299     0.0001     0.0000 </r>
       <r>    -5.0342     0.0006     0.0001 </r>
       <r>    -4.9384     0.0035     0.0004 </r>
       <r>    -4.8427     0.0125     0.0016 </r>
       <r>    -4.7470     0.0289     0.0044 </r>
       <r>    -4.6512     0.0433     0.0085 </r>
       <r>    -4.5555     0.0445     0.0128 </r>
       <r>    -4.4598     0.0437     0.0170 </r>
       <r>    -4.3640     0.0711     0.0238 </r>
       <r>    -4.2683     0.1319     0.0364 </r>
       <r>    -4.1726     0.1769     0.0533 </r>
       <r>    -4.0769     0.1591     0.0686 </r>
       <r>    -3.9811     0.1122     0.0793 </r>
       <r>    -3.8854     0.1106     0.0899 </r>
       <r>    -3.7897     0.1743     0.1066 </r>
       <r>    -3.6939     0.2648     0.1319 </r>
       <r>    -3.5982     0.3518     0.1656 </r>
       <r>    -3.5025     0.4043     0.2043 </r>
       <r>    -3.4067     0.3605     0.2388 </r>
       <r>    -3.3110     0.2247     0.2603 </r>
       <r>    -3.2153     0.0946     0.2694 </r>
       <r>    -3.1195     0.0367     0.2729 </r>
       <r>    -3.0238     0.0510     0.2778 </r>
       <r>    -2.9281     0.1268     0.2899 </r>
       <r>    -2.8324     0.2594     0.3148 </r>
       <r>    -2.7366     0.4567     0.3585 </r>
       <r>    -2.6409     0.7051     0.4260 </r>
       <r>    -2.5452     0.8838     0.5106 </r>
       <r>    -2.4494     0.8603     0.5929 </r>
       <r>    -2.3537     0.6614     0.6563 </r>
       <r>    -2.2580     0.4037     0.6949 </r>
       <r>    -2.1622     0.1868     0.7128 </r>
       <r>    -2.0665     0.0656     0.7191 </r>
       <r>    -1.9708     0.0413     0.7230 </r>
       <r>    -1.8750     0.1023     0.7328 </r>
       <r>    -1.7793     0.2315     0.7550 </r>
       <r>    -1.6836     0.3426     0.7878 </r>
       <r>    -1.5878     0.3267     0.8191 </r>
       <r>    -1.4921     0.2021     0.8384 </r>
       <r>    -1.3964     0.0908     0.8471 </r>
       <r>    -1.3007     0.0666     0.8535 </r>
       <r>    -1.2049     0.1254     0.8655 </r>
       <r>    -1.1092     0.2296     0.8874 </r>
       <r>    -1.0135     0.3568     0.9216 </r>
       <r>    -0.9177     0.5382     0.9731 </r>
       <r>    -0.8220     0.7632     1.0462 </r>
       <r>    -0.7263     0.8980     1.1321 </r>
       <r>    -0.6305     0.8706     1.2155 </r>
       <r>    -0.5348     0.7596     1.2882 </r>
       <r>    -0.4391     0.6231     1.3479 </r>
       <r>    -0.3433     0.5195     1.3976 </r>
       <r>    -0.2476     0.5721     1.4524 </r>
       <r>    -0.1519     0.8059     1.5295 </r>
       <r>    -0.0561     1.0744     1.6324 </r>
       <r>     0.0396     1.1579     1.7432 </r>
       <r>     0.1353     0.9433     1.8335 </r>
       <r>     0.2310     0.5871     1.8897 </r>
       <r>     0.3268     0.3364     1.9219 </r>
       <r>     0.4225     0.2282     1.9438 </r>
       <r>     0.5182     0.1663     1.9597 </r>
       <r>     0.6140     0.1414     1.9732 </r>
       <r>     0.7097     0.2081     1.9932 </r>
       <r>     0.8054     0.3386     2.0256 </r>
       <r>     0.9012     0.4262     2.0664 </r>
       <r>     0.9969     0.4509     2.1095 </r>
       <r>     1.0926     0.5222     2.1595 </r>
       <r>     1.1884     0.6858     2.2252 </r>
       <r>     1.2841     0.7893     2.3007 </r>
       <r>     1.3798     0.6614     2.3641 </r>
       <r>     1.4756     0.3878     2.4012 </r>
       <r>     1.5713     0.2226     2.4225 </r>
       <r>     1.6670     0.3148     2.4526 </r>
       <r>     1.7627     0.6175     2.5117 </r>
       <r>     1.8585     0.9024     2.5981 </r>
       <r>     1.9542     0.9390     2.6880 </r>
       <r>     2.0499     0.7447     2.7593 </r>
       <r>     2.1457     0.5305     2.8101 </r>
       <r>     2.2414     0.4597     2.8541 </r>
       <r>     2.3371     0.5508     2.9068 </r>
       <r>     2.4329     0.6913     2.9730 </r>
       <r>     2.5286     0.6959     3.0396 </r>
       <r>     2.6243     0.5023     3.0877 </r>
       <r>     2.7201     0.2679     3.1134 </r>
       <r>     2.8158     0.1808     3.1307 </r>
       <r>     2.9115     0.2867     3.1581 </r>
       <r>     3.0072     0.4737     3.2035 </r>
       <r>     3.1030     0.5715     3.2582 </r>
       <r>     3.1987     0.5744     3.3132 </r>
       <r>     3.2944     0.6409     3.3745 </r>
       <r>     3.3902     0.7653     3.4478 </r>
       <r>     3.4859     0.7688     3.5214 </r>
       <r>     3.5816     0.6616     3.5847 </r>
       <r>     3.6774     0.6162     3.6437 </r>
       <r>     3.7731     0.6807     3.7089 </r>
       <r>     3.8688     0.7863     3.7841 </r>
       <r>     3.9646     0.8508     3.8656 </r>
       <r>     4.0603     0.8177     3.9439 </r>
       <r>     4.1560     0.6737     4.0084 </r>
       <r>     4.2518     0.4510     4.0515 </r>
       <r>     4.3475     0.2661     4.0770 </r>
       <r>     4.4432     0.2966     4.1054 </r>
       <r>     4.5389     0.6581     4.1684 </r>
       <r>     4.6347     1.2097     4.2842 </r>
       <r>     4.7304     1.5424     4.4319 </r>
       <r>     4.8261     1.4575     4.5714 </r>
       <r>     4.9219     1.1789     4.6843 </r>
       <r>     5.0176     0.8759     4.7681 </r>
       <r>     5.1133     0.5477     4.8205 </r>
       <r>     5.2091     0.3046     4.8497 </r>
       <r>     5.3048     0.2666     4.8752 </r>
       <r>     5.4005     0.3629     4.9100 </r>
       <r>     5.4963     0.4316     4.9513 </r>
       <r>     5.5920     0.4600     4.9953 </r>
       <r>     5.6877     0.5981     5.0526 </r>
       <r>     5.7835     0.8804     5.1368 </r>
       <r>     5.8792     1.1040     5.2425 </r>
       <r>     5.9749     1.1010     5.3479 </r>
       <r>     6.0706     0.9722     5.4410 </r>
       <r>     6.1664     0.9264     5.5297 </r>
       <r>     6.2621     1.0415     5.6294 </r>
       <r>     6.3578     1.2279     5.7469 </r>
       <r>     6.4536     1.3197     5.8733 </r>
       <r>     6.5493     1.1966     5.9878 </r>
       <r>     6.6450     0.9008     6.0741 </r>
       <r>     6.7408     0.6576     6.1370 </r>
       <r>     6.8365     0.6366     6.1980 </r>
       <r>     6.9322     0.7872     6.2733 </r>
       <r>     7.0280     0.9632     6.3655 </r>
       <r>     7.1237     1.0576     6.4668 </r>
       <r>     7.2194     1.0726     6.5695 </r>
       <r>     7.3151     1.0518     6.6701 </r>
       <r>     7.4109     0.9991     6.7658 </r>
       <r>     7.5066     0.9710     6.8588 </r>
       <r>     7.6023     1.0474     6.9590 </r>
       <r>     7.6981     1.1443     7.0686 </r>
       <r>     7.7938     1.0618     7.1702 </r>
       <r>     7.8895     0.7994     7.2467 </r>
       <r>     7.9853     0.6039     7.3046 </r>
       <r>     8.0810     0.6404     7.3659 </r>
       <r>     8.1767     0.7737     7.4399 </r>
       <r>     8.2725     0.7457     7.5113 </r>
       <r>     8.3682     0.5296     7.5620 </r>
       <r>     8.4639     0.3269     7.5933 </r>
       <r>     8.5597     0.2531     7.6175 </r>
       <r>     8.6554     0.2828     7.6446 </r>
       <r>     8.7511     0.4515     7.6878 </r>
       <r>     8.8468     0.8252     7.7668 </r>
       <r>     8.9426     1.2323     7.8848 </r>
       <r>     9.0383     1.3056     8.0098 </r>
       <r>     9.1340     0.9473     8.1005 </r>
       <r>     9.2298     0.4863     8.1470 </r>
       <r>     9.3255     0.2436     8.1703 </r>
       <r>     9.4212     0.2408     8.1934 </r>
       <r>     9.5170     0.3603     8.2279 </r>
       <r>     9.6127     0.5260     8.2782 </r>
       <r>     9.7084     0.6802     8.3434 </r>
       <r>     9.8042     0.7531     8.4154 </r>
       <r>     9.8999     0.7302     8.4854 </r>
       <r>     9.9956     0.6689     8.5494 </r>
       <r>    10.0914     0.6427     8.6109 </r>
       <r>    10.1871     0.7163     8.6795 </r>
       <r>    10.2828     0.9210     8.7677 </r>
       <r>    10.3785     1.1204     8.8749 </r>
       <r>    10.4743     1.0891     8.9792 </r>
       <r>    10.5700     0.9095     9.0662 </r>
       <r>    10.6657     0.9380     9.1560 </r>
       <r>    10.7615     1.2862     9.2792 </r>
       <r>    10.8572     1.6524     9.4373 </r>
       <r>    10.9529     1.6679     9.5970 </r>
       <r>    11.0487     1.2986     9.7213 </r>
       <r>    11.1444     0.8543     9.8031 </r>
       <r>    11.2401     0.5665     9.8573 </r>
       <r>    11.3359     0.4473     9.9002 </r>
       <r>    11.4316     0.5291     9.9508 </r>
       <r>    11.5273     0.8015    10.0275 </r>
       <r>    11.6231     1.0117    10.1244 </r>
       <r>    11.7188     0.9099    10.2115 </r>
       <r>    11.8145     0.6065    10.2695 </r>
       <r>    11.9102     0.4060    10.3084 </r>
       <r>    12.0060     0.4008    10.3468 </r>
       <r>    12.1017     0.4784    10.3926 </r>
       <r>    12.1974     0.6318    10.4531 </r>
       <r>    12.2932     0.9492    10.5439 </r>
       <r>    12.3889     1.3071    10.6691 </r>
       <r>    12.4846     1.4523    10.8081 </r>
       <r>    12.5804     1.3994    10.9420 </r>
       <r>    12.6761     1.3699    11.0732 </r>
       <r>    12.7718     1.3846    11.2057 </r>
       <r>    12.8676     1.2935    11.3296 </r>
       <r>    12.9633     1.1108    11.4359 </r>
       <r>    13.0590     0.9746    11.5292 </r>
       <r>    13.1547     0.8903    11.6144 </r>
       <r>    13.2505     0.8219    11.6931 </r>
       <r>    13.3462     0.8495    11.7744 </r>
       <r>    13.4419     0.9807    11.8683 </r>
       <r>    13.5377     1.1018    11.9738 </r>
       <r>    13.6334     1.2195    12.0905 </r>
       <r>    13.7291     1.4278    12.2272 </r>
       <r>    13.8249     1.6524    12.3854 </r>
       <r>    13.9206     1.7106    12.5492 </r>
       <r>    14.0163     1.6153    12.7038 </r>
       <r>    14.1121     1.5673    12.8538 </r>
       <r>    14.2078     1.6125    13.0082 </r>
       <r>    14.3035     1.5232    13.1540 </r>
       <r>    14.3993     1.1428    13.2634 </r>
       <r>    14.4950     0.6405    13.3247 </r>
       <r>    14.5907     0.2680    13.3504 </r>
       <r>    14.6864     0.0977    13.3597 </r>
       <r>    14.7822     0.0871    13.3681 </r>
       <r>    14.8779     0.1967    13.3869 </r>
       <r>    14.9736     0.3741    13.4227 </r>
       <r>    15.0694     0.5358    13.4740 </r>
       <r>    15.1651     0.6574    13.5370 </r>
       <r>    15.2608     0.8032    13.6139 </r>
       <r>    15.3566     1.0034    13.7099 </r>
       <r>    15.4523     1.1269    13.8178 </r>
       <r>    15.5480     0.9825    13.9118 </r>
       <r>    15.6438     0.6326    13.9724 </r>
       <r>    15.7395     0.4037    14.0111 </r>
       <r>    15.8352     0.5278    14.0616 </r>
       <r>    15.9310     0.8854    14.1463 </r>
       <r>    16.0267     1.0848    14.2502 </r>
       <r>    16.1224     0.9420    14.3404 </r>
       <r>    16.2181     0.7589    14.4130 </r>
       <r>    16.3139     0.8149    14.4910 </r>
       <r>    16.4096     0.9158    14.5787 </r>
       <r>    16.5053     0.7747    14.6529 </r>
       <r>    16.6011     0.4759    14.6984 </r>
       <r>    16.6968     0.2556    14.7229 </r>
       <r>    16.7925     0.1618    14.7384 </r>
       <r>    16.8883     0.1437    14.7521 </r>
       <r>    16.9840     0.2211    14.7733 </r>
       <r>    17.0797     0.4193    14.8134 </r>
       <r>    17.1755     0.6386    14.8746 </r>
       <r>    17.2712     0.7375    14.9452 </r>
       <r>    17.3669     0.6978    15.0120 </r>
       <r>    17.4626     0.5808    15.0676 </r>
       <r>    17.5584     0.4510    15.1107 </r>
       <r>    17.6541     0.4035    15.1494 </r>
       <r>    17.7498     0.5070    15.1979 </r>
       <r>    17.8456     0.6702    15.2621 </r>
       <r>    17.9413     0.7100    15.3300 </r>
       <r>    18.0370     0.6163    15.3890 </r>
       <r>    18.1328     0.5392    15.4407 </r>
       <r>    18.2285     0.4956    15.4881 </r>
       <r>    18.3242     0.3907    15.5255 </r>
       <r>    18.4200     0.2676    15.5511 </r>
       <r>    18.5157     0.2580    15.5758 </r>
       <r>    18.6114     0.3644    15.6107 </r>
       <r>    18.7072     0.4499    15.6538 </r>
       <r>    18.8029     0.4165    15.6936 </r>
       <r>    18.8986     0.2922    15.7216 </r>
       <r>    18.9943     0.1551    15.7365 </r>
       <r>    19.0901     0.0603    15.7422 </r>
       <r>    19.1858     0.0200    15.7441 </r>
       <r>    19.2815     0.0266    15.7467 </r>
       <r>    19.3773     0.0929    15.7556 </r>
       <r>    19.4730     0.2419    15.7787 </r>
       <r>    19.5687     0.4264    15.8196 </r>
       <r>    19.6645     0.5077    15.8682 </r>
       <r>    19.7602     0.4129    15.9077 </r>
       <r>    19.8559     0.2528    15.9319 </r>
       <r>    19.9517     0.1746    15.9486 </r>
       <r>    20.0474     0.1803    15.9659 </r>
       <r>    20.1431     0.1738    15.9825 </r>
       <r>    20.2389     0.1158    15.9936 </r>
       <r>    20.3346     0.0502    15.9984 </r>
       <r>    20.4303     0.0140    15.9997 </r>
       <r>    20.5260     0.0025    16.0000 </r>
       <r>    20.6218     0.0003    16.0000 </r>
       <r>    20.7175     0.0000    16.0000 </r>
       <r>    20.8132     0.0000    16.0000 </r>
       <r>    20.9090     0.0000    16.0000 </r>
       <r>    21.0047     0.0000    16.0000 </r>
       <r>    21.1004     0.0000    16.0000 </r>
       <r>    21.1962     0.0000    16.0000 </r>
       <r>    21.2919     0.0000    16.0000 </r>
       <r>    21.3876     0.0000    16.0000 </r>
       <r>    21.4834     0.0000    16.0000 </r>
       <r>    21.5791     0.0000    16.0000 </r>
       <r>    21.6748     0.0000    16.0000 </r>
       <r>    21.7706     0.0000    16.0000 </r>
       <r>    21.8663     0.0000    16.0000 </r>
       <r>    21.9620     0.0000    16.0000 </r>
       <r>    22.0577     0.0000    16.0000 </r>
      </set>
     </set>
    </array>
   </total>
  </dos>
 </calculation>
 <structure name="finalpos" >
  <crystal>
   <varray name="basis" >
    <v>      -2.48734826       2.48734826       1.24517308 </v>
    <v>       2.48734826      -2.48734826       1.24517308 </v>
    <v>       2.48734826       2.48734826      -1.24517308 </v>
   </varray>
   <i name="volume">     30.81505219 </i>
   <varray name="rec_basis" >
    <v>      -0.00000000       0.20101729       0.40155060 </v>
    <v>       0.20101729      -0.00000000       0.40155060 </v>
    <v>       0.20101729       0.20101729       0.00000000 </v>
   </varray>
  </crystal>
  <varray name="positions" >
   <v>       0.25000000       0.75000000       0.50000000 </v>
   <v>      -0.00000000       0.00000000      -0.00000000 </v>
  </varray>
 </structure>
</modeling>
