unknown system                          
   1.00000000000000     
     0.000000    2.715000    2.715000
     2.715000    0.000000    2.715000
     2.715000    2.715000    0.000000
   Si
     2
Direct
  0.500000  0.500000  0.500000
  0.750000  0.750000  0.750000
 
   24   24   24
 0.87057     0.90794      1.0251      1.2366      1.5635      2.0288      2.6477      3.4154      4.2924      5.1941    
  5.9947      6.5522      6.7526      6.5522      5.9946      5.1941      4.2924      3.4154      2.6477      2.0288    
  1.5635      1.2365      1.0251     0.90794     0.90794     0.96880      1.0983      1.3104      1.6219      2.0465    
  2.5864      3.2234      3.9092      4.5635      5.0844      5.3749      5.3749      5.0844      4.5635      3.9093    
  3.2235      2.5864      2.0464      1.6219      1.3104      1.0983     0.96882     0.90795      1.0251      1.0983    
  1.2301      1.4327      1.7174      2.0895      2.5417      3.0482      3.5600      4.0085      4.3180      4.4289    
  4.3180      4.0085      3.5601      3.0482      2.5417      2.0894      1.7174      1.4327      1.2301      1.0983    
  1.0251      1.0018      1.2366      1.3104      1.4327      1.6130      1.8578      2.1661      2.5254      2.9076    
  3.2686      3.5542      3.7129      3.7129      3.5543      3.2686      2.9075      2.5253      2.1661      1.8578    
  1.6131      1.4328      1.3104      1.2365      1.2022      1.2022      1.5635      1.6219      1.7174      1.8578    
  2.0464      2.2792      2.5417      2.8078      3.0411      3.2022      3.2599      3.2022      3.0410      2.8077    
  2.5417      2.2792      2.0465      1.8578      1.7174      1.6219      1.5635      1.5332      1.5240      1.5332    
  2.0288      2.0465      2.0895      2.1661      2.2792      2.4239      2.5864      2.7448      2.8721      2.9434    
  2.9434      2.8721      2.7448      2.5865      2.4240      2.2793      2.1661      2.0894      2.0464      2.0288    
  2.0258      2.0272      2.0272      2.0257      2.6477      2.5864      2.5417      2.5254      2.5417      2.5864    
  2.6477      2.7092      2.7543      2.7709      2.7543      2.7092      2.6477      2.5865      2.5417      2.5254    
  2.5417      2.5864      2.6477      2.7092      2.7543      2.7709      2.7543      2.7092      3.4154      3.2234    
  3.0482      2.9076      2.8078      2.7448      2.7092      2.6911      2.6836      2.6836      2.6911      2.7092    
  2.7448      2.8077      2.9075      3.0481      3.2235      3.4154      3.5972      3.7394      3.8175      3.8175    
  3.7394      3.5972      4.2924      3.9092      3.5600      3.2686      3.0411      2.8721      2.7543      2.6836    
  2.6599      2.6836      2.7543      2.8721      3.0410      3.2686      3.5600      3.9093      4.2924      4.6682    
  4.9865      5.1997      5.2747      5.1997      4.9865      4.6682      5.1941      4.5635      4.0085      3.5542    
  3.2022      2.9434      2.7709      2.6836      2.6836      2.7708      2.9434      3.2022      3.5542      4.0085    
  4.5635      5.1942      5.8456      6.4404      6.8955      7.1422      7.1422      6.8955      6.4404      5.8456    
  5.9947      5.0844      4.3180      3.7129      3.2599      2.9434      2.7543      2.6911      2.7543      2.9434    
  3.2599      3.7129      4.3180      5.0844      5.9947      6.9888      7.9636      8.7910      9.3473      9.5435    
  9.3473      8.7910      7.9636      6.9887      6.5522      5.3749      4.4289      3.7129      3.2022      2.8721    
  2.7092      2.7092      2.8721      3.2022      3.7129      4.4288      5.3749      6.5522      7.9110      9.3368    
  10.659      11.686      12.249      12.249      11.686      10.659      9.3368      7.9111      6.7526      5.3749    
  4.3180      3.5543      3.0410      2.7448      2.6477      2.7448      3.0410      3.5542      4.3180      5.3749    
  6.7527      8.4295      10.304      12.185      13.818      14.935      15.333      14.935      13.818      12.185    
  10.304      8.4295      6.5522      5.0844      4.0085      3.2686      2.8077      2.5865      2.5865      2.8077    
  3.2686      4.0085      5.0844      6.5522      8.4295      10.653      13.049      15.331      17.126      18.102    
  18.102      17.126      15.331      13.049      10.653      8.4295      5.9946      4.5635      3.5601      2.9075    
  2.5417      2.4240      2.5417      2.9075      3.5600      4.5635      5.9947      7.9110      10.304      13.049    
  15.880      18.349      19.999      20.574      19.999      18.349      15.880      13.049      10.304      7.9110    
  5.1941      3.9093      3.0482      2.5253      2.2792      2.2793      2.5254      3.0481      3.9093      5.1942    
  6.9888      9.3368      12.185      15.331      18.349      20.670      21.912      21.912      20.670      18.349    
  15.331      12.185      9.3368      6.9887      4.2924      3.2235      2.5417      2.1661      2.0465      2.1661    
  2.5417      3.2235      4.2924      5.8456      7.9636      10.659      13.818      17.126      19.999      21.912    
  22.578      21.912      19.999      17.126      13.818      10.659      7.9636      5.8455      3.4154      2.5864    
  2.0894      1.8578      1.8578      2.0894      2.5864      3.4154      4.6682      6.4404      8.7910      11.686    
  14.935      18.102      20.574      21.912      21.912      20.574      18.102      14.935      11.686      8.7910    
  6.4404      4.6682      2.6477      2.0464      1.7174      1.6131      1.7174      2.0464      2.6477      3.5972    
  4.9865      6.8955      9.3473      12.249      15.333      18.102      19.999      20.670      19.999      18.102    
  15.332      12.249      9.3473      6.8955      4.9865      3.5972      2.0288      1.6219      1.4327      1.4328    
  1.6219      2.0288      2.7092      3.7394      5.1997      7.1422      9.5435      12.249      14.935      17.126    
  18.349      18.349      17.126      14.935      12.249      9.5436      7.1422      5.1997      3.7394      2.7092    
  1.5635      1.3104      1.2301      1.3104      1.5635      2.0258      2.7543      3.8175      5.2747      7.1422    
  9.3473      11.686      13.818      15.331      15.880      15.331      13.818      11.686      9.3473      7.1422    
  5.2747      3.8175      2.7543      2.0258      1.2365      1.0983      1.0983      1.2365      1.5332      2.0272    
  2.7709      3.8175      5.1997      6.8955      8.7910      10.659      12.185      13.049      13.049      12.185    
  10.659      8.7910      6.8955      5.1997      3.8175      2.7708      2.0272      1.5332      1.0251     0.96882    
  1.0251      1.2022      1.5240      2.0272      2.7543      3.7394      4.9865      6.4404      7.9636      9.3368    
  10.304      10.653      10.304      9.3368      7.9636      6.4404      4.9865      3.7394      2.7543      2.0272    
  1.5240      1.2022     0.90794     0.90795      1.0018      1.2022      1.5332      2.0257      2.7092      3.5972    
  4.6682      5.8456      6.9887      7.9111      8.4295      8.4295      7.9110      6.9887      5.8455      4.6682    
  3.5972      2.7092      2.0258      1.5332      1.2022      1.0018     0.90794     0.96879      1.0983      1.3104    
  1.6219      2.0465      2.5864      3.2234      3.9092      4.5635      5.0844      5.3749      5.3749      5.0844    
  4.5635      3.9093      3.2235      2.5864      2.0464      1.6219      1.3104      1.0983     0.96882     0.90795    
 0.96879      1.0371      1.1613      1.3541      1.6272      1.9862      2.4239      2.9145      3.4100      3.8434    
  4.1423      4.2491      4.1423      3.8435      3.4101      2.9146      2.4239      1.9861      1.6271      1.3541    
  1.1613      1.0371     0.96881     0.94715      1.0983      1.1613      1.2688      1.4314      1.6563      1.9431    
  2.2792      2.6374      2.9755      3.2425      3.3907      3.3907      3.2426      2.9756      2.6374      2.2792    
  1.9430      1.6563      1.4314      1.2688      1.1613      1.0983      1.0697      1.0697      1.3104      1.3541    
  1.4314      1.5513      1.7180      1.9275      2.1661      2.4090      2.6222      2.7695      2.8223      2.7695    
  2.6222      2.4089      2.1661      1.9274      1.7179      1.5514      1.4314      1.3541      1.3104      1.2898    
  1.2841      1.2899      1.6219      1.6272      1.6563      1.7180      1.8150      1.9431      2.0895      2.2338    
  2.3507      2.4165      2.4165      2.3507      2.2337      2.0894      1.9430      1.8150      1.7180      1.6564    
  1.6273      1.6220      1.6285      1.6354      1.6354      1.6285      2.0465      1.9862      1.9431      1.9275    
  1.9431      1.9862      2.0464      2.1083      2.1547      2.1718      2.1547      2.1083      2.0465      1.9862    
  1.9431      1.9275      1.9431      1.9862      2.0465      2.1083      2.1547      2.1718      2.1547      2.1083    
  2.5864      2.4239      2.2792      2.1661      2.0895      2.0464      2.0288      2.0257      2.0272      2.0273    
  2.0258      2.0288      2.0464      2.0894      2.1661      2.2793      2.4239      2.5864      2.7448      2.8721    
  2.9434      2.9434      2.8721      2.7448      3.2234      2.9145      2.6374      2.4090      2.2338      2.1083    
  2.0257      1.9793      1.9643      1.9793      2.0258      2.1083      2.2336      2.4089      2.6374      2.9146    
  3.2235      3.5336      3.8032      3.9882      4.0543      3.9883      3.8033      3.5336      3.9092      3.4100    
  2.9755      2.6222      2.3507      2.1547      2.0272      1.9643      1.9643      2.0272      2.1546      2.3506    
  2.6222      2.9756      3.4101      3.9093      4.4353      4.9284      5.3157      5.5300      5.5300      5.3158    
  4.9284      4.4354      4.5635      3.8434      3.2425      2.7695      2.4165      2.1718      2.0273      1.9793    
  2.0272      2.1717      2.4164      2.7695      3.2427      3.8436      4.5636      5.3641      6.1700      6.8739    
  7.3589      7.5323      7.3589      6.8739      6.1701      5.3642      5.0844      4.1423      3.3907      2.8223    
  2.4165      2.1547      2.0258      2.0258      2.1546      2.4164      2.8222      3.3908      4.1425      5.0845    
  6.1904      7.3811      8.5193      9.4277      9.9352      9.9352      9.4277      8.5194      7.3813      6.1905    
  5.3749      4.2491      3.3907      2.7695      2.3507      2.1083      2.0288      2.1083      2.3506      2.7695    
  3.3908      4.2493      5.3750      6.7668      8.3624      10.014      11.490      12.525      12.898      12.525    
  11.490      10.014      8.3626      6.7669      5.3749      4.1423      3.2426      2.6222      2.2337      2.0465    
  2.0464      2.2336      2.6222      3.2427      4.1425      5.3750      6.9743      8.9156      11.072      13.190    
  14.916      15.894      15.894      14.916      13.190      11.072      8.9158      6.9744      5.0844      3.8435    
  2.9756      2.4089      2.0894      1.9862      2.0894      2.4089      2.9756      3.8436      5.0845      6.7668    
  8.9156      11.456      14.158      16.629      18.389      19.029      18.389      16.629      14.158      11.456    
  8.9157      6.7668      4.5635      3.4101      2.6374      2.1661      1.9430      1.9431      2.1661      2.6374    
  3.4101      4.5636      6.1904      8.3624      11.072      14.158      17.255      19.820      21.284      21.284    
  19.820      17.255      14.158      11.072      8.3625      6.1904      3.9093      2.9146      2.2792      1.9274    
  1.8150      1.9275      2.2793      2.9146      3.9093      5.3641      7.3811      10.014      13.190      16.629    
  19.820      22.105      22.935      22.105      19.820      16.629      13.190      10.014      7.3812      5.3642    
  3.2235      2.4239      1.9430      1.7179      1.7180      1.9431      2.4239      3.2235      4.4353      6.1700    
  8.5193      11.490      14.916      18.389      21.284      22.935      22.935      21.284      18.389      14.916    
  11.490      8.5194      6.1701      4.4354      2.5864      1.9861      1.6563      1.5514      1.6564      1.9862    
  2.5864      3.5336      4.9284      6.8739      9.4277      12.525      15.894      19.029      21.284      22.105    
  21.284      19.029      15.893      12.524      9.4277      6.8740      4.9285      3.5337      2.0464      1.6271    
  1.4314      1.4314      1.6273      2.0465      2.7448      3.8032      5.3157      7.3589      9.9352      12.898    
  15.894      18.389      19.820      19.820      18.389      15.893      12.898      9.9351      7.3589      5.3159    
  3.8033      2.7448      1.6219      1.3541      1.2688      1.3541      1.6220      2.1083      2.8721      3.9882    
  5.5300      7.5323      9.9352      12.525      14.916      16.629      17.255      16.629      14.916      12.524    
  9.9351      7.5324      5.5301      3.9883      2.8721      2.1083      1.3104      1.1613      1.1613      1.3104    
  1.6285      2.1547      2.9434      4.0543      5.5300      7.3589      9.4277      11.490      13.190      14.158    
  14.158      13.190      11.490      9.4277      7.3589      5.5301      4.0544      2.9434      2.1546      1.6285    
  1.0983      1.0371      1.0983      1.2898      1.6354      2.1718      2.9434      3.9883      5.3158      6.8739    
  8.5194      10.014      11.072      11.456      11.072      10.014      8.5194      6.8740      5.3159      3.9883    
  2.9434      2.1718      1.6353      1.2898     0.96882     0.96881      1.0697      1.2841      1.6354      2.1547    
  2.8721      3.8033      4.9284      6.1701      7.3813      8.3626      8.9158      8.9157      8.3625      7.3812    
  6.1701      4.9285      3.8033      2.8721      2.1546      1.6353      1.2840      1.0698     0.90795     0.94715    
  1.0697      1.2899      1.6285      2.1083      2.7448      3.5336      4.4354      5.3642      6.1905      6.7669    
  6.9744      6.7668      6.1904      5.3642      4.4354      3.5337      2.7448      2.1083      1.6285      1.2898    
  1.0698     0.94719      1.0251      1.0983      1.2301      1.4327      1.7174      2.0895      2.5417      3.0482    
  3.5601      4.0085      4.3180      4.4288      4.3180      4.0084      3.5601      3.0482      2.5417      2.0895    
  1.7174      1.4328      1.2301      1.0983      1.0251      1.0018      1.0983      1.1613      1.2688      1.4314    
  1.6563      1.9431      2.2792      2.6374      2.9755      3.2425      3.3906      3.3906      3.2426      2.9756    
  2.6374      2.2792      1.9431      1.6563      1.4314      1.2688      1.1613      1.0983      1.0697      1.0697    
  1.2301      1.2688      1.3399      1.4531      1.6126      1.8150      2.0464      2.2823      2.4893      2.6323    
  2.6835      2.6323      2.4894      2.2823      2.0464      1.8150      1.6126      1.4530      1.3399      1.2688    
  1.2301      1.2128      1.2082      1.2128      1.4327      1.4314      1.4531      1.5071      1.5969      1.7180    
  1.8578      1.9962      2.1085      2.1717      2.1717      2.1085      1.9961      1.8577      1.7179      1.5969    
  1.5071      1.4531      1.4314      1.4327      1.4443      1.4539      1.4539      1.4443      1.7174      1.6563    
  1.6126      1.5969      1.6126      1.6563      1.7174      1.7802      1.8272      1.8446      1.8272      1.7801    
  1.7174      1.6563      1.6126      1.5969      1.6127      1.6564      1.7174      1.7802      1.8272      1.8446    
  1.8272      1.7802      2.0895      1.9431      1.8150      1.7180      1.6563      1.6272      1.6219      1.6285    
  1.6354      1.6354      1.6285      1.6219      1.6272      1.6564      1.7180      1.8150      1.9431      2.0895    
  2.2338      2.3507      2.4165      2.4165      2.3507      2.2337      2.5417      2.2792      2.0464      1.8578    
  1.7174      1.6219      1.5635      1.5332      1.5240      1.5332      1.5635      1.6219      1.7174      1.8578    
  2.0465      2.2792      2.5417      2.8077      3.0410      3.2022      3.2599      3.2022      3.0411      2.8078    
  3.0482      2.6374      2.2823      1.9962      1.7802      1.6285      1.5332      1.4875      1.4875      1.5332    
  1.6285      1.7802      1.9962      2.2823      2.6374      3.0482      3.4840      3.8956      4.2213      4.4024    
  4.4024      4.2214      3.8956      3.4840      3.5601      2.9755      2.4893      2.1085      1.8272      1.6354    
  1.5240      1.4875      1.5240      1.6354      1.8272      2.1085      2.4894      2.9755      3.5600      4.2132    
  4.8752      5.4579      5.8620      6.0071      5.8620      5.4579      4.8752      4.2132      4.0085      3.2425    
  2.6323      2.1717      1.8446      1.6354      1.5332      1.5332      1.6354      1.8446      2.1717      2.6324    
  3.2426      4.0085      4.9109      5.8892      6.8320      7.5905      8.0165      8.0164      7.5904      6.8320    
  5.8892      4.9110      4.3180      3.3906      2.6835      2.1717      1.8272      1.6285      1.5635      1.6285    
  1.8272      2.1717      2.6835      3.3907      4.3180      5.4684      6.7962      8.1828      9.4339      10.316    
  10.636      10.316      9.4338      8.1828      6.7962      5.4684      4.4288      3.3906      2.6323      2.1085    
  1.7801      1.6219      1.6219      1.7802      2.1085      2.6324      3.3907      4.4288      5.7800      7.4318    
  9.2848      11.123      12.634      13.495      13.495      12.635      11.123      9.2848      7.4319      5.7800    
  4.3180      3.2426      2.4894      1.9961      1.7174      1.6272      1.7174      1.9962      2.4894      3.2426    
  4.3180      5.7800      7.6612      9.9088      12.327      14.561      16.162      16.746      16.162      14.561    
  12.327      9.9088      7.6612      5.7800      4.0084      2.9756      2.2823      1.8577      1.6563      1.6564    
  1.8578      2.2823      2.9755      4.0085      5.4684      7.4318      9.9088      12.766      15.664      18.086    
  19.477      19.477      18.086      15.664      12.766      9.9089      7.4319      5.4684      3.5601      2.6374    
  2.0464      1.7179      1.6126      1.7180      2.0465      2.6374      3.5600      4.9109      6.7962      9.2848    
  12.327      15.664      18.790      21.052      21.881      21.052      18.790      15.664      12.327      9.2848    
  6.7962      4.9109      3.0482      2.2792      1.8150      1.5969      1.5969      1.8150      2.2792      3.0482    
  4.2132      5.8892      8.1828      11.123      14.561      18.086      21.052      22.764      22.764      21.052    
  18.086      14.561      11.123      8.1829      5.8892      4.2132      2.5417      1.9431      1.6126      1.5071    
  1.6127      1.9431      2.5417      3.4840      4.8752      6.8320      9.4339      12.634      16.162      19.477    
  21.881      22.764      21.881      19.477      16.162      12.635      9.4339      6.8321      4.8751      3.4840    
  2.0895      1.6563      1.4530      1.4531      1.6564      2.0895      2.8077      3.8956      5.4579      7.5905    
  10.316      13.495      16.746      19.477      21.052      21.052      19.477      16.746      13.495      10.316    
  7.5905      5.4579      3.8956      2.8078      1.7174      1.4314      1.3399      1.4314      1.7174      2.2338    
  3.0410      4.2213      5.8620      8.0165      10.636      13.495      16.162      18.086      18.790      18.086    
  16.162      13.495      10.636      8.0165      5.8620      4.2213      3.0410      2.2338      1.4328      1.2688    
  1.2688      1.4327      1.7802      2.3507      3.2022      4.4024      6.0071      8.0164      10.316      12.635    
  14.561      15.664      15.664      14.561      12.635      10.316      8.0165      6.0071      4.4024      3.2021    
  2.3507      1.7802      1.2301      1.1613      1.2301      1.4443      1.8272      2.4165      3.2599      4.4024    
  5.8620      7.5904      9.4338      11.123      12.327      12.766      12.327      11.123      9.4339      7.5905    
  5.8620      4.4024      3.2599      2.4165      1.8272      1.4443      1.0983      1.0983      1.2128      1.4539    
  1.8446      2.4165      3.2022      4.2214      5.4579      6.8320      8.1828      9.2848      9.9088      9.9089    
  9.2848      8.1829      6.8321      5.4579      4.2213      3.2021      2.4165      1.8446      1.4539      1.2128    
  1.0251      1.0697      1.2082      1.4539      1.8272      2.3507      3.0411      3.8956      4.8752      5.8892    
  6.7962      7.4319      7.6612      7.4319      6.7962      5.8892      4.8751      3.8956      3.0410      2.3507    
  1.8272      1.4539      1.2082      1.0697      1.0018      1.0697      1.2128      1.4443      1.7802      2.2337    
  2.8078      3.4840      4.2132      4.9110      5.4684      5.7800      5.7800      5.4684      4.9109      4.2132    
  3.4840      2.8078      2.2338      1.7802      1.4443      1.2128      1.0697      1.0018      1.2365      1.3104    
  1.4327      1.6130      1.8578      2.1661      2.5254      2.9076      3.2686      3.5542      3.7129      3.7129    
  3.5542      3.2686      2.9075      2.5253      2.1661      1.8579      1.6131      1.4328      1.3104      1.2365    
  1.2022      1.2022      1.3104      1.3541      1.4314      1.5513      1.7180      1.9275      2.1661      2.4089    
  2.6222      2.7695      2.8222      2.7695      2.6222      2.4090      2.1661      1.9275      1.7180      1.5514    
  1.4314      1.3541      1.3104      1.2898      1.2840      1.2899      1.4327      1.4314      1.4531      1.5071    
  1.5969      1.7180      1.8578      1.9962      2.1085      2.1717      2.1717      2.1085      1.9962      1.8578    
  1.7180      1.5969      1.5071      1.4531      1.4314      1.4327      1.4443      1.4539      1.4539      1.4443    
  1.6130      1.5513      1.5071      1.4911      1.5071      1.5513      1.6130      1.6763      1.7236      1.7412    
  1.7236      1.6763      1.6130      1.5513      1.5071      1.4912      1.5071      1.5513      1.6130      1.6763    
  1.7236      1.7412      1.7236      1.6763      1.8578      1.7180      1.5969      1.5071      1.4531      1.4314    
  1.4327      1.4443      1.4539      1.4539      1.4443      1.4327      1.4314      1.4531      1.5071      1.5969    
  1.7180      1.8578      1.9962      2.1085      2.1717      2.1717      2.1085      1.9962      2.1661      1.9275    
  1.7180      1.5513      1.4314      1.3541      1.3104      1.2899      1.2840      1.2898      1.3104      1.3541    
  1.4314      1.5514      1.7180      1.9275      2.1661      2.4090      2.6222      2.7695      2.8222      2.7695    
  2.6222      2.4089      2.5254      2.1661      1.8578      1.6130      1.4327      1.3104      1.2365      1.2022    
  1.2022      1.2365      1.3104      1.4328      1.6131      1.8579      2.1661      2.5253      2.9075      3.2686    
  3.5542      3.7129      3.7129      3.5542      3.2686      2.9076      2.9076      2.4089      1.9962      1.6763    
  1.4443      1.2899      1.2022      1.1739      1.2022      1.2898      1.4444      1.6764      1.9962      2.4089    
  2.9075      3.4651      4.0299      4.5262      4.8700      4.9932      4.8699      4.5262      4.0299      3.4652    
  3.2686      2.6222      2.1085      1.7236      1.4539      1.2840      1.2022      1.2022      1.2840      1.4539    
  1.7237      2.1085      2.6221      3.2685      4.0298      4.8534      5.6455      6.2812      6.6378      6.6378    
  6.2811      5.6454      4.8534      4.0299      3.5542      2.7695      2.1717      1.7412      1.4539      1.2898    
  1.2365      1.2898      1.4539      1.7412      2.1718      2.7695      3.5541      4.5261      5.6454      6.8114    
  7.8609      8.6001      8.8676      8.6000      7.8607      6.8112      5.6454      4.5262      3.7129      2.8222    
  2.1717      1.7236      1.4443      1.3104      1.3104      1.4444      1.7237      2.1718      2.8222      3.7128    
  4.8698      6.2812      7.8609      9.4254      10.709      11.440      11.440      10.709      9.4252      7.8607    
  6.2811      4.8699      3.7129      2.7695      2.1085      1.6763      1.4327      1.3541      1.4328      1.6764    
  2.1085      2.7695      3.7128      4.9931      6.6378      8.6002      10.710      12.656      14.050      14.559    
  14.050      12.656      10.709      8.6000      6.6378      4.9932      3.5542      2.6222      1.9962      1.6130    
  1.4314      1.4314      1.6131      1.9962      2.6221      3.5541      4.8698      6.6378      8.8677      11.440    
  14.050      16.231      17.484      17.484      16.231      14.050      11.440      8.8676      6.6378      4.8700    
  3.2686      2.4090      1.8578      1.5513      1.4531      1.5514      1.8579      2.4089      3.2685      4.5261    
  6.2812      8.6002      11.440      14.559      17.484      19.602      20.379      19.602      17.484      14.559    
  11.440      8.6001      6.2812      4.5262      2.9075      2.1661      1.7180      1.5071      1.5071      1.7180    
  2.1661      2.9075      4.0298      5.6454      7.8609      10.710      14.050      17.484      20.379      22.051    
  22.051      20.379      17.484      14.050      10.709      7.8609      5.6455      4.0299      2.5253      1.9275    
  1.5969      1.4912      1.5969      1.9275      2.5253      3.4651      4.8534      6.8114      9.4254      12.656    
  16.231      19.602      22.051      22.951      22.051      19.602      16.231      12.656      9.4254      6.8114    
  4.8534      3.4651      2.1661      1.7180      1.5071      1.5071      1.7180      2.1661      2.9075      4.0299    
  5.6455      7.8609      10.709      14.050      17.484      20.379      22.051      22.051      20.379      17.484    
  14.050      10.710      7.8609      5.6454      4.0298      2.9075      1.8579      1.5514      1.4531      1.5513    
  1.8578      2.4090      3.2686      4.5262      6.2812      8.6001      11.440      14.559      17.484      19.602    
  20.379      19.602      17.484      14.559      11.440      8.6002      6.2812      4.5261      3.2685      2.4089    
  1.6131      1.4314      1.4314      1.6130      1.9962      2.6222      3.5542      4.8700      6.6378      8.8676    
  11.440      14.050      16.231      17.484      17.484      16.231      14.050      11.440      8.8677      6.6378    
  4.8698      3.5541      2.6221      1.9962      1.4328      1.3541      1.4327      1.6763      2.1085      2.7695    
  3.7129      4.9932      6.6378      8.6000      10.709      12.656      14.050      14.559      14.050      12.656    
  10.710      8.6002      6.6378      4.9931      3.7128      2.7695      2.1085      1.6764      1.3104      1.3104    
  1.4443      1.7236      2.1717      2.8222      3.7129      4.8699      6.2811      7.8607      9.4252      10.709    
  11.440      11.440      10.709      9.4254      7.8609      6.2812      4.8698      3.7128      2.8222      2.1718    
  1.7237      1.4444      1.2365      1.2898      1.4539      1.7412      2.1717      2.7695      3.5542      4.5262    
  5.6454      6.8112      7.8607      8.6000      8.8676      8.6001      7.8609      6.8114      5.6454      4.5261    
  3.5541      2.7695      2.1718      1.7412      1.4539      1.2898      1.2022      1.2840      1.4539      1.7236    
  2.1085      2.6222      3.2686      4.0299      4.8534      5.6454      6.2811      6.6378      6.6378      6.2812    
  5.6455      4.8534      4.0298      3.2685      2.6221      2.1085      1.7237      1.4539      1.2840      1.2022    
  1.2022      1.2899      1.4443      1.6763      1.9962      2.4089      2.9076      3.4652      4.0299      4.5262    
  4.8699      4.9932      4.8700      4.5262      4.0299      3.4651      2.9075      2.4089      1.9962      1.6764    
  1.4444      1.2898      1.2022      1.1739      1.5635      1.6219      1.7174      1.8578      2.0464      2.2792    
  2.5417      2.8078      3.0411      3.2022      3.2599      3.2022      3.0410      2.8077      2.5417      2.2792    
  2.0465      1.8578      1.7174      1.6219      1.5635      1.5332      1.5240      1.5332      1.6219      1.6272    
  1.6563      1.7180      1.8150      1.9431      2.0895      2.2337      2.3507      2.4165      2.4165      2.3507    
  2.2338      2.0895      1.9431      1.8150      1.7180      1.6564      1.6272      1.6219      1.6285      1.6354    
  1.6354      1.6285      1.7174      1.6563      1.6126      1.5969      1.6126      1.6563      1.7174      1.7802    
  1.8272      1.8446      1.8272      1.7802      1.7174      1.6564      1.6127      1.5969      1.6126      1.6563    
  1.7174      1.7801      1.8272      1.8446      1.8272      1.7802      1.8578      1.7180      1.5969      1.5071    
  1.4531      1.4314      1.4327      1.4443      1.4539      1.4539      1.4443      1.4327      1.4314      1.4531    
  1.5071      1.5969      1.7179      1.8577      1.9961      2.1085      2.1717      2.1717      2.1085      1.9962    
  2.0464      1.8150      1.6126      1.4531      1.3399      1.2688      1.2301      1.2128      1.2082      1.2128    
  1.2301      1.2688      1.3399      1.4530      1.6126      1.8150      2.0464      2.2823      2.4894      2.6323    
  2.6835      2.6323      2.4893      2.2823      2.2792      1.9431      1.6563      1.4314      1.2688      1.1613    
  1.0983      1.0697      1.0697      1.0983      1.1613      1.2688      1.4314      1.6563      1.9431      2.2792    
  2.6374      2.9756      3.2426      3.3906      3.3906      3.2425      2.9755      2.6374      2.5417      2.0895    