    2    2   15    1
  0.2111999E+02  0.3909125E-09  0.3909125E-09  0.3909125E-09  0.5000000E-15
  1.000000000000000E-004
  CAR 
 unknown system                          
      8     60      8
 
  0.6250000E-01  0.6250000E-01  0.6250000E-01  0.3906250E-02
    1       -6.252945   1.000000
    2        4.761019   1.000000
    3        5.217678   0.998854
    4        5.217678   0.998854
    5        7.823111   0.000000
    6        7.958148   0.000000
    7        7.958148   0.000000
    8        8.535051   0.000000
 
  0.1875000E+00  0.6250000E-01  0.6250000E-01  0.1171875E-01
    1       -5.994123   1.000000
    2        3.272477   1.000000
    3        4.443653   1.000000
    4        5.101017   0.999947
    5        7.838074   0.000000
    6        8.196709   0.000000
    7        8.458959   0.000000
    8       10.060848   0.000000
 
  0.3125000E+00  0.6250000E-01  0.6250000E-01  0.1171875E-01
    1       -5.370533   1.000000
    2        1.113859   1.000000
    3        3.965487   1.000000
    4        4.654011   1.000000
    5        7.385164   0.000000
    6        8.688024   0.000000
    7        8.963193   0.000000
    8       11.674721   0.000000
 
  0.4375000E+00  0.6250000E-01  0.6250000E-01  0.1171875E-01
    1       -4.505638   1.000000
    2       -0.706301   1.000000
    3        3.750647   1.000000
    4        4.260547   1.000000
    5        7.072553   0.000000
    6        8.772643   0.000000
    7        8.786353   0.000000
    8       12.979834   0.000000
 
 -0.4375000E+00  0.6250000E-01  0.6250000E-01  0.1171875E-01
    1       -4.081448   1.000000
    2       -1.375188   1.000000
    3        3.795068   1.000000
    4        4.051198   1.000000
    5        6.994368   0.000000
    6        8.590622   0.000000
    7        8.851923   0.000000
    8       13.083928   0.000000
 
 -0.3125000E+00  0.6250000E-01  0.6250000E-01  0.1171875E-01
    1       -4.800772   1.000000
    2       -0.169637   1.000000
    3        4.071582   1.000000
    4        4.074166   1.000000
    5        7.162609   0.000000
    6        8.583695   0.000000
    7        9.089565   0.000000
    8       12.121046   0.000000
 
 -0.1875000E+00  0.6250000E-01  0.6250000E-01  0.1171875E-01
    1       -5.614780   1.000000
    2        1.820945   1.000000
    3        4.344260   1.000000
    4        4.522609   1.000000
    5        7.527999   0.000000
    6        8.409391   0.000000
    7        9.118158   0.000000
    8       10.911234   0.000000
 
 -0.6250000E-01  0.6250000E-01  0.6250000E-01  0.1171875E-01
    1       -6.122827   1.000000
    2        4.008679   1.000000
    3        4.810482   1.000000
    4        4.953636   1.000000
    5        7.677138   0.000000
    6        8.162558   0.000000
    7        8.514495   0.000000
    8        9.310344   0.000000
 
  0.1875000E+00  0.1875000E+00  0.6250000E-01  0.1171875E-01
    1       -5.863817   1.000000
    2        3.113830   1.000000
    3        4.274412   1.000000
    4        4.343609   1.000000
    5        7.273869   0.000000
    6        8.882591   0.000000
    7        9.343913   0.000000
    8        9.797979   0.000000
 
  0.3125000E+00  0.1875000E+00  0.6250000E-01  0.2343750E-01
    1       -5.357806   1.000000
    2        1.650149   1.000000
    3        3.337223   1.000000
    4        4.095146   1.000000
    5        7.435613   0.000000
    6        8.986529   0.000000
    7        9.744996   0.000000
    8       10.120380   0.000000
 
  0.4375000E+00  0.1875000E+00  0.6250000E-01  0.2343750E-01
    1       -4.545481   1.000000
    2       -0.136475   1.000000
    3        2.844143   1.000000
    4        3.704046   1.000000
    5        7.611106   0.000000
    6        8.981243   0.000000
    7       10.148538   0.000000
    8       10.457903   0.000000
 
 -0.4375000E+00  0.1875000E+00  0.6250000E-01  0.2343750E-01
    1       -3.821359   1.000000
    2       -1.291648   1.000000
    3        2.560411   1.000000
    4        3.615914   1.000000
    5        7.660672   0.000000
    6        8.721055   0.000000
    7       10.014732   0.000000
    8       12.398746   0.000000
 
 -0.3125000E+00  0.1875000E+00  0.6250000E-01  0.2343750E-01
    1       -4.255471   1.000000
    2       -0.634019   1.000000
    3        2.496083   1.000000
    4        3.887706   1.000000
    5        7.906000   0.000000
    6        8.658456   0.000000
    7        9.954511   0.000000
    8       11.677006   0.000000
 
 -0.1875000E+00  0.1875000E+00  0.6250000E-01  0.2343750E-01
    1       -5.119230   1.000000
    2        1.024347   1.000000
    3        2.802287   1.000000
    4        4.373812   1.000000
    5        8.218978   0.000000
    6        8.544624   0.000000
    7        9.826717   0.000000
    8       10.324820   0.000000
 
 -0.6250000E-01  0.1875000E+00  0.6250000E-01  0.2343750E-01
    1       -5.738112   1.000000
    2        2.467275   1.000000
    3        3.887583   1.000000
    4        4.731719   1.000000
    5        7.805680   0.000000
    6        8.381831   0.000000
    7        9.163543   0.000000
    8       10.336383   0.000000
 
  0.3125000E+00  0.3125000E+00  0.6250000E-01  0.1171875E-01
    1       -4.970797   1.000000
    2        1.136371   1.000000
    3        3.201296   1.000000
    4        3.318570   1.000000
    5        6.493709   0.000000
    6        8.126155   0.000000
    7       11.134812   0.000000
    8       11.290806   0.000000
 
  0.4375000E+00  0.3125000E+00  0.6250000E-01  0.2343750E-01
    1       -4.246401   1.000000
    2       -0.062950   1.000000
    3        2.446458   1.000000
    4        2.986165   1.000000
    5        6.801600   0.000000
    6        7.969071   0.000000
    7       11.100901   0.000000
    8       12.252036   0.000000
 
 -0.4375000E+00  0.3125000E+00  0.6250000E-01  0.2343750E-01
    1       -3.387351   1.000000
    2       -1.210687   1.000000
    3        1.638534   1.000000
    4        2.955267   1.000000
    5        7.035154   0.000000
    6        9.581607   0.000000
    7       10.687397   0.000000
    8       12.164934   0.000000
 
 -0.3125000E+00  0.3125000E+00  0.6250000E-01  0.2343750E-01
    1       -3.458098   1.000000
    2       -1.118588   1.000000
    3        1.303284   1.000000
    4        3.285222   1.000000
    5        7.417902   0.000000
    6       10.272617   0.000000
    7       11.512180   0.000000
    8       11.876643   0.000000
 
 -0.1875000E+00  0.3125000E+00  0.6250000E-01  0.2343750E-01
    1       -4.316768   1.000000
    2       -0.188249   1.000000
    3        1.877993   1.000000
    4        3.846027   1.000000
    5        8.002676   0.000000
    6        9.196819   0.000000
    7       10.563540   0.000000
    8       10.873835   0.000000
 
 -0.6250000E-01  0.3125000E+00  0.6250000E-01  0.2343750E-01
    1       -5.010810   1.000000
    2        0.456700   1.000000
    3        3.437108   1.000000
    4        4.277132   1.000000
    5        7.665323   0.000000
    6        8.586451   0.000000
    7        9.425407   0.000000
    8       11.081340   0.000000
 
  0.4375000E+00  0.4375000E+00  0.6250000E-01  0.1171875E-01
    1       -3.614781   1.000000
    2       -0.901526   1.000000
    3        2.539248   1.000000
    4        2.744564   1.000000
    5        6.121288   0.000419
    6        6.826099   0.000000
    7       13.362070   0.000000
    8       13.392368   0.000000
 
 -0.4375000E+00  0.4375000E+00  0.6250000E-01  0.2343750E-01
    1       -2.739165   1.000000
    2       -1.858962   1.000000
    3        2.008979   1.000000
    4        2.513680   1.000000
    5        6.544340   0.000000
    6        7.250080   0.000000
    7       13.134115   0.000000
    8       14.086492   0.000000
 
 -0.3125000E+00  0.4375000E+00  0.6250000E-01  0.2343750E-01
    1       -2.841739   1.000000
    2       -1.692676   1.000000
    3        1.313893   1.000000
    4        2.816732   1.000000
    5        6.894684   0.000000
    6        9.425543   0.000000
    7       11.653435   0.000000
    8       12.749220   0.000000
 
 -0.1875000E+00  0.4375000E+00  0.6250000E-01  0.2343750E-01
    1       -3.573800   1.000000
    2       -1.264512   1.000000
    3        1.820384   1.000000
    4        3.394225   1.000000
    5        7.527191   0.000000
    6        9.436030   0.000000
    7       10.929509   0.000000
    8       12.157163   0.000000
 
 -0.6250000E-01  0.4375000E+00  0.6250000E-01  0.2343750E-01
    1       -4.158901   1.000000
    2       -1.096527   1.000000
    3        3.260499   1.000000
    4        3.955943   1.000000
    5        7.455439   0.000000
    6        8.525342   0.000000
    7        9.264267   0.000000
    8       12.720230   0.000000
 
 -0.4375000E+00 -0.4375000E+00  0.6250000E-01  0.1171875E-01
    1       -2.786427   1.000000
    2       -1.874307   1.000000
    3        2.406355   1.000000
    4        2.627214   1.000000
    5        6.124547   0.000385
    6        6.475049   0.000000
    7       14.408389   0.000000
    8       14.459178   0.000000
 
 -0.3125000E+00 -0.4375000E+00  0.6250000E-01  0.2343750E-01
    1       -3.533811   1.000000
    2       -0.963894   1.000000
    3        2.158739   1.000000
    4        2.668118   1.000000
    5        6.624378   0.000000
    6        7.498450   0.000000
    7       12.091906   0.000000
    8       13.372272   0.000000
 
 -0.1875000E+00 -0.4375000E+00  0.6250000E-01  0.2343750E-01
    1       -3.992330   1.000000
    2       -0.681871   1.000000
    3        2.201215   1.000000
    4        3.244032   1.000000
    5        7.297158   0.000000
    6        9.757643   0.000000
    7        9.921723   0.000000
    8       11.140332   0.000000
 
 -0.3125000E+00 -0.3125000E+00  0.6250000E-01  0.1171875E-01
    1       -4.346784   1.000000
    2        0.110912   1.000000
    3        2.804669   1.000000
    4        2.976849   1.000000
    5        6.242807   0.000013
    6        7.389479   0.000000
    7       12.231989   0.000000
    8       12.328432   0.000000
 
 -0.1875000E+00 -0.3125000E+00  0.6250000E-01  0.2343750E-01
    1       -4.858098   1.000000
    2        0.811273   1.000000
    3        2.848012   1.000000
    4        3.473324   1.000000
    5        7.078611   0.000000
    6        8.614930   0.000000
    7       10.184513   0.000000
    8       11.156483   0.000000
 
 -0.1875000E+00 -0.1875000E+00  0.6250000E-01  0.1171875E-01
    1       -5.478460   1.000000
    2        2.146677   1.000000
    3        3.723157   1.000000
    4        3.758719   1.000000
    5        6.851562   0.000000
    6        8.918805   0.000000
    7       10.133495   0.000000
    8       10.289206   0.000000
 
  0.1875000E+00  0.1875000E+00  0.1875000E+00  0.3906250E-02
    1       -5.867098   1.000000
    2        2.574084   1.000000
    3        4.792160   1.000000
    4        4.792160   1.000000
    5        7.386019   0.000000
    6        8.557267   0.000000
    7        8.557267   0.000000
    8       10.684279   0.000000
 
  0.3125000E+00  0.1875000E+00  0.1875000E+00  0.1171875E-01
    1       -5.488583   1.000000
    2        1.739186   1.000000
    3        3.335660   1.000000
    4        4.804990   1.000000
    5        8.038503   0.000000
    6        8.680048   0.000000
    7        8.953289   0.000000
    8       10.855438   0.000000
 
  0.4375000E+00  0.1875000E+00  0.1875000E+00  0.1171875E-01
    1       -4.768734   1.000000
    2        0.400893   1.000000
    3        2.293376   1.000000
    4        4.319062   1.000000
    5        7.937971   0.000000
    6        9.417968   0.000000
    7        9.601049   0.000000
    8       11.141322   0.000000
 
 -0.4375000E+00  0.1875000E+00  0.1875000E+00  0.1171875E-01
    1       -3.912911   1.000000
    2       -1.025079   1.000000
    3        2.132798   1.000000
    4        3.808370   1.000000
    5        7.480042   0.000000
    6        9.560271   0.000000
    7        9.818775   0.000000
    8       12.970653   0.000000
 
 -0.3125000E+00  0.1875000E+00  0.1875000E+00  0.1171875E-01
    1       -3.897443   1.000000
    2       -1.052776   1.000000
    3        2.417463   1.000000
    4        3.503384   1.000000
    5        7.225732   0.000000
    6        9.617522   0.000000
    7       10.156049   0.000000
    8       11.098890   0.000000
 
 -0.1875000E+00  0.1875000E+00  0.1875000E+00  0.1171875E-01
    1       -4.751665   1.000000
    2        0.397793   1.000000
    3        3.011630   1.000000
    4        3.482573   1.000000
    5        7.164068   0.000000
    6        9.280772   0.000000
    7        9.910806   0.000000
    8       10.502415   0.000000
 
  0.3125000E+00  0.3125000E+00  0.1875000E+00  0.1171875E-01
    1       -5.240846   1.000000
    2        1.097350   1.000000
    3        3.804740   1.000000
    4        3.886528   1.000000
    5        7.523252   0.000000
    6        8.808260   0.000000
    7        9.774607   0.000000
    8       10.175716   0.000000
 
  0.4375000E+00  0.3125000E+00  0.1875000E+00  0.2343750E-01
    1       -4.636932   1.000000
    2        0.327630   1.000000
    3        2.348461   1.000000
    4        3.695979   1.000000
    5        8.019188   0.000000
    6        8.992180   0.000000
    7        9.546093   0.000000
    8       10.986302   0.000000
 
 -0.4375000E+00  0.3125000E+00  0.1875000E+00  0.2343750E-01
    1       -3.780695   1.000000
    2       -0.746893   1.000000
    3        1.591555   1.000000
    4        3.154059   1.000000
    5        8.461045   0.000000
    6        8.938504   0.000000
    7       10.181551   0.000000
    8       12.054370   0.000000
 
 -0.3125000E+00  0.3125000E+00  0.1875000E+00  0.2343750E-01
    1       -3.315726   1.000000
    2       -1.332386   1.000000
    3        1.588713   1.000000
    4        2.855564   1.000000
    5        8.012197   0.000000
    6        9.256904   0.000000
    7       10.944419   0.000000
    8       12.166880   0.000000
 
 -0.1875000E+00  0.3125000E+00  0.1875000E+00  0.2343750E-01
    1       -4.052547   1.000000
    2       -0.372333   1.000000
    3        2.000462   1.000000
    4        3.026370   1.000000
    5        7.749022   0.000000
    6        8.947574   0.000000
    7        9.747840   0.000000
    8       12.170299   0.000000
 
  0.4375000E+00  0.4375000E+00  0.1875000E+00  0.1171875E-01
    1       -4.157586   1.000000
    2       -0.311218   1.000000
    3        2.317439   1.000000
    4        3.162967   1.000000
    5        6.804095   0.000000
    6        8.783119   0.000000
    7       10.926541   0.000000
    8       11.305343   0.000000
 
 -0.4375000E+00  0.4375000E+00  0.1875000E+00  0.2343750E-01
    1       -3.383488   1.000000
    2       -1.098656   1.000000
    3        1.770438   1.000000
    4        2.512678   1.000000
    5        7.555522   0.000000
    6        8.549173   0.000000
    7       10.621370   0.000000
    8       13.333117   0.000000
 
 -0.3125000E+00  0.4375000E+00  0.1875000E+00  0.2343750E-01
    1       -2.608489   1.000000
    2       -1.833011   1.000000
    3        1.470285   1.000000
    4        2.033696   1.000000
    5        8.651695   0.000000
    6        9.572839   0.000000
    7       10.174495   0.000000
    8       11.169409   0.000000
 
 -0.1875000E+00  0.4375000E+00  0.1875000E+00  0.2343750E-01
    1       -3.189380   1.000000
    2       -1.296031   1.000000
    3        1.457707   1.000000
    4        2.489487   1.000000
    5        8.747319   0.000000
    6        9.152528   0.000000
    7        9.877439   0.000000
    8       12.304915   0.000000
 
 -0.4375000E+00 -0.4375000E+00  0.1875000E+00  0.1171875E-01
    1       -2.763145   1.000000
    2       -1.807763   1.000000
    3        1.569531   1.000000
    4        2.831860   1.000000
    5        6.391877   0.000000
    6        8.236203   0.000000
    7       13.063529   0.000000
    8       13.219856   0.000000
 
 -0.3125000E+00 -0.4375000E+00  0.1875000E+00  0.2343750E-01
    1       -2.666002   1.000000
    2       -1.841313   1.000000
    3        1.659615   1.000000
    4        2.236398   1.000000
    5        7.456588   0.000000
    6        8.348414   0.000000
    7       11.602080   0.000000
    8       12.684679   0.000000
 
 -0.3125000E+00 -0.3125000E+00  0.1875000E+00  0.1171875E-01
    1       -3.476882   1.000000
    2       -1.058256   1.000000
    3        1.821498   1.000000
    4        2.943368   1.000000
    5        6.534242   0.000000
    6        8.417601   0.000000
    7       12.057059   0.000000
    8       12.184831   0.000000
 
  0.3125000E+00  0.3125000E+00  0.3125000E+00  0.3906250E-02
    1       -5.138268   1.000000
    2        0.435462   1.000000
    3        4.390277   1.000000
    4        4.390277   1.000000
    5        6.933251   0.000000
    6        8.805519   0.000000
    7        8.805519   0.000000
    8       12.727136   0.000000
 
  0.4375000E+00  0.3125000E+00  0.3125000E+00  0.1171875E-01
    1       -4.676621   1.000000
    2       -0.132945   1.000000
    3        2.968892   1.000000
    4        4.304219   1.000000
    5        7.668317   0.000000
    6        9.017855   0.000000
    7        9.070716   0.000000
    8       12.146974   0.000000
 
 -0.4375000E+00  0.3125000E+00  0.3125000E+00  0.1171875E-01
    1       -3.914506   1.000000
    2       -0.677148   1.000000
    3        1.513785   1.000000
    4        3.747154   1.000000
    5        7.420107   0.000000
    6       10.413563   0.000000
    7       10.556939   0.000000
    8       11.885725   0.000000
 
 -0.3125000E+00  0.3125000E+00  0.3125000E+00  0.1171875E-01
    1       -3.126817   1.000000
    2       -1.442574   1.000000
    3        1.196083   1.000000
    4        3.221147   1.000000
    5        6.838609   0.000000
    6       10.642001   0.000000
    7       11.648827   0.000000
    8       11.849978   0.000000
 
  0.4375000E+00  0.4375000E+00  0.3125000E+00  0.1171875E-01
    1       -4.375621   1.000000
    2       -0.669977   1.000000
    3        3.284494   1.000000
    4        3.764445   1.000000
    5        7.425559   0.000000
    6        8.770954   0.000000
    7        9.545192   0.000000
    8       11.526025   0.000000
 
 -0.4375000E+00  0.4375000E+00  0.3125000E+00  0.2343750E-01
    1       -3.780116   1.000000
    2       -1.034586   1.000000
    3        2.031312   1.000000
    4        3.311809   1.000000
    5        8.198791   0.000000
    6        8.573041   0.000000
    7       10.997960   0.000000
    8       11.289897   0.000000
 
 -0.3125000E+00  0.4375000E+00  0.3125000E+00  0.2343750E-01
    1       -2.992661   1.000000
    2       -1.511856   1.000000
    3        1.284990   1.000000
    4        2.628358   1.000000
    5        7.890727   0.000000
    6       10.086357   0.000000
    7       10.831300   0.000000
    8       11.332525   0.000000
 
 -0.4375000E+00 -0.4375000E+00  0.3125000E+00  0.1171875E-01
    1       -3.436598   1.000000
    2       -1.311584   1.000000
    3        1.661616   1.000000
    4        3.317395   1.000000
    5        6.978916   0.000000
    6       10.598084   0.000000
    7       10.895179   0.000000
    8       10.903767   0.000000
 
  0.4375000E+00  0.4375000E+00  0.4375000E+00  0.3906250E-02
    1       -4.287945   1.000000
    2       -1.149206   1.000000
    3        4.174357   1.000000
    4        4.174357   1.000000
    5        6.681452   0.000000
    6        8.687431   0.000000
    7        8.687431   0.000000
    8       12.989312   0.000000
 
 -0.4375000E+00  0.4375000E+00  0.4375000E+00  0.1171875E-01
    1       -3.952251   1.000000
    2       -1.323769   1.000000
    3        2.980912   1.000000
    4        3.918137   1.000000
    5        7.435428   0.000000
    6        8.785549   0.000000
    7        9.247086   0.000000
    8       13.310163   0.000000
