       N       E                     dE             d eps       ncg     rms          rms(c)
DAV:   1     0.447894466402E+01    0.44789E+01   -0.26962E+03   960   0.581E+02
DAV:   2    -0.108116311113E+02   -0.15291E+02   -0.14896E+02  1560   0.726E+01
DAV:   3    -0.109857866681E+02   -0.17416E+00   -0.17416E+00  1128   0.101E+01
DAV:   4    -0.109866437740E+02   -0.85711E-03   -0.85711E-03  1640   0.784E-01
DAV:   5    -0.109866440126E+02   -0.23858E-06   -0.23851E-06  1136   0.130E-02    0.288E+00
DAV:   6    -0.108836632193E+02    0.10298E+00   -0.65457E-02  1152   0.133E+00    0.172E+00
DAV:   7    -0.108347349077E+02    0.48928E-01   -0.12711E-01  1192   0.198E+00    0.142E-01
DAV:   8    -0.108360679520E+02   -0.13330E-02   -0.37845E-03  1144   0.451E-01    0.251E-02
DAV:   9    -0.108361732442E+02   -0.10529E-03   -0.10695E-04   744   0.827E-02
   1 F= -.10836173E+02 E0= -.10836164E+02  d E =-.108362E+02
