 running on    8 total cores
 distrk:  each k-point on    8 cores,    1 groups
 distr:  one band on    1 cores,    8 groups
 using from now: INCAR     
 vasp.5.4.4.18Apr17-6-g9f103f2a35 (build Dec 09 2018 21:25:21) complex          
  
 POSCAR found type information on POSCAR  Si
 POSCAR found :  1 types and       2 ions
 scaLAPACK will be used

 ----------------------------------------------------------------------------- 
|                                                                             |
|           W    W    AA    RRRRR   N    N  II  N    N   GGGG   !!!           |
|           W    W   A  A   R    R  NN   N  II  NN   N  G    G  !!!           |
|           W    W  A    A  R    R  N N  N  II  N N  N  G       !!!           |
|           W WW W  AAAAAA  RRRRR   N  N N  II  N  N N  G  GGG   !            |
|           WW  WW  A    A  R   R   N   NN  II  N   NN  G    G                |
|           W    W  A    A  R    R  N    N  II  N    N   GGGG   !!!           |
|                                                                             |
|      For optimal performance we recommend to set                            |
|        NCORE= 4 - approx SQRT( number of cores)                             |
|      NCORE specifies how many cores store one orbital (NPAR=cpu/NCORE).     |
|      This setting can  greatly improve the performance of VASP for DFT.     |
|      The default,   NCORE=1            might be grossly inefficient         |
|      on modern multi-core architectures or massively parallel machines.     |
|      Do your own testing !!!!                                               |
|      Unfortunately you need to use the default for GW and RPA calculations. |
|      (for HF NCORE is supported but not extensively tested yet)             |
|                                                                             |
 ----------------------------------------------------------------------------- 

 LDA part: xc-table for Pade appr. of Perdew
 POSCAR, INCAR and KPOINTS ok, starting setup
 FFT: planning ...
 WAVECAR not read
 entering main loop
       N       E                     dE             d eps       ncg     rms          rms(c)
DAV:   1     0.447894466402E+01    0.44789E+01   -0.26962E+03   960   0.581E+02
DAV:   2    -0.108116311113E+02   -0.15291E+02   -0.14896E+02  1560   0.726E+01
DAV:   3    -0.109857866681E+02   -0.17416E+00   -0.17416E+00  1128   0.101E+01
DAV:   4    -0.109866437740E+02   -0.85711E-03   -0.85711E-03  1640   0.784E-01
DAV:   5    -0.109866440126E+02   -0.23858E-06   -0.23851E-06  1136   0.130E-02    0.288E+00
DAV:   6    -0.108836632193E+02    0.10298E+00   -0.65457E-02  1152   0.133E+00    0.172E+00
DAV:   7    -0.108347349077E+02    0.48928E-01   -0.12711E-01  1192   0.198E+00    0.142E-01
DAV:   8    -0.108360679520E+02   -0.13330E-02   -0.37845E-03  1144   0.451E-01    0.251E-02
DAV:   9    -0.108361732442E+02   -0.10529E-03   -0.10695E-04   744   0.827E-02
   1 F= -.10836173E+02 E0= -.10836164E+02  d E =-.108362E+02
 curvature:   0.00 expect dE= 0.000E+00 dE for cont linesearch  0.000E+00
 trial: gam= 0.00000 g(F)=  0.435E-45 g(S)=  0.000E+00 ort = 0.000E+00 (trialstep = 0.100E+01)
 search vector abs. value=  0.100E-09
 reached required accuracy - stopping structural energy minimisation
 writing wavefunctions
