unknown system                          
   1.00000000000000     
     0.000000    2.715000    2.715000
     2.715000    0.000000    2.715000
     2.715000    2.715000    0.000000
   Si
     2
Direct
  0.500000  0.500000  0.500000
  0.750000  0.750000  0.750000
 
   28   28   28
 0.88750     0.91450     0.99776      1.1444      1.3664      1.6796      2.1000      2.6370      3.2861      4.0226    
  4.7972      5.5381      6.1590      6.5744      6.7207      6.5744      6.1590      5.5382      4.7972      4.0226    
  3.2861      2.6369      2.1000      1.6796      1.3664      1.1444     0.99776     0.91449     0.91450     0.96000    
  1.0545      1.2051      1.4225      1.7190      2.1044      2.5809      3.1370      3.7428      4.3496      4.8941    
  5.3078      5.5318      5.5318      5.3078      4.8941      4.3497      3.7428      3.1370      2.5809      2.1044    
  1.7190      1.4226      1.2051      1.0545     0.96000     0.91450     0.99776      1.0545      1.1537      1.3021    
  1.5086      1.7816      2.1257      2.5372      2.9996      3.4819      3.9394      4.3198      4.5727      4.6615    
  4.5727      4.3198      3.9394      3.4819      2.9996      2.5372      2.1257      1.7817      1.5087      1.3021    
  1.1537      1.0545     0.99777     0.97932      1.1444      1.2051      1.3021      1.4417      1.6303      1.8730    
  2.1699      2.5133      2.8847      3.2542      3.5839      3.8331      3.9676      3.9676      3.8331      3.5839    
  3.2542      2.8847      2.5133      2.1699      1.8730      1.6303      1.4416      1.3021      1.2051      1.1444    
  1.1152      1.1152      1.3664      1.4225      1.5086      1.6303      1.7922      1.9964      2.2401      2.5133    
  2.7977      3.0669      3.2904      3.4389      3.4910      3.4389      3.2904      3.0669      2.7977      2.5133    
  2.2401      1.9964      1.7922      1.6303      1.5087      1.4226      1.3664      1.3351      1.3251      1.3351    
  1.6796      1.7190      1.7816      1.8730      1.9964      2.1522      2.3359      2.5372      2.7395      2.9213    
  3.0595      3.1343      3.1343      3.0595      2.9213      2.7395      2.5372      2.3359      2.1522      1.9964    
  1.8730      1.7817      1.7190      1.6797      1.6578      1.6484      1.6484      1.6578      2.1000      2.1044    
  2.1257      2.1699      2.2401      2.3359      2.4526      2.5809      2.7071      2.8147      2.8873      2.9130    
  2.8873      2.8147      2.7071      2.5809      2.4526      2.3359      2.2401      2.1700      2.1257      2.1044    
  2.1000      2.1050      2.1119      2.1150      2.1119      2.1050      2.6370      2.5809      2.5372      2.5133    
  2.5133      2.5372      2.5809      2.6370      2.6946      2.7422      2.7691      2.7691      2.7422      2.6946    
  2.6369      2.5809      2.5372      2.5134      2.5134      2.5372      2.5809      2.6369      2.6946      2.7422    
  2.7691      2.7691      2.7422      2.6946      3.2861      3.1370      2.9996      2.8847      2.7977      2.7395    
  2.7071      2.6946      2.6943      2.6982      2.7002      2.6982      2.6943      2.6946      2.7071      2.7395    
  2.7977      2.8847      2.9996      3.1370      3.2861      3.4317      3.5552      3.6385      3.6679      3.6385    
  3.5552      3.4317      4.0226      3.7428      3.4819      3.2542      3.0669      2.9213      2.8147      2.7422    
  2.6982      2.6776      2.6776      2.6981      2.7421      2.8146      2.9213      3.0670      3.2543      3.4819    
  3.7428      4.0226      4.2995      4.5460      4.7322      4.8327      4.8327      4.7322      4.5459      4.2995    
  4.7972      4.3496      3.9394      3.5839      3.2904      3.0595      2.8873      2.7691      2.7002      2.6776    
  2.7002      2.7690      2.8873      3.0595      3.2905      3.5839      3.9394      4.3496      4.7972      5.2533    
  5.6787      6.0283      6.2592      6.3400      6.2592      6.0283      5.6787      5.2533      5.5381      4.8941    
  4.3198      3.8331      3.4389      3.1343      2.9130      2.7691      2.6982      2.6981      2.7690      2.9130    
  3.1343      3.4390      3.8331      4.3198      4.8941      5.5381      6.2175      6.8810      7.4648      7.9023    
  8.1373      8.1373      7.9023      7.4648      6.8810      6.2175      6.1590      5.3078      4.5727      3.9676    
  3.4910      3.1343      2.8873      2.7422      2.6943      2.7421      2.8873      3.1343      3.4911      3.9676    
  4.5727      5.3077      6.1589      7.0908      8.0429      8.9325      9.6645      10.148      10.318      10.148    
  9.6644      8.9324      8.0429      7.0908      6.5744      5.5318      4.6615      3.9676      3.4389      3.0595    
  2.8147      2.6946      2.6946      2.8146      3.0595      3.4390      3.9676      4.6616      5.5318      6.5743    
  7.7599      9.0264      10.277      11.389      12.229      12.682      12.682      12.229      11.389      10.277    
  9.0264      7.7600      6.7207      5.5318      4.5727      3.8331      3.2904      2.9213      2.7071      2.6369    
  2.7071      2.9213      3.2905      3.8331      4.5727      5.5318      6.7206      8.1244      9.6900      11.319    
  12.867      14.162      15.027      15.331      15.027      14.162      12.867      11.319      9.6900      8.1245    
  6.5744      5.3078      4.3198      3.5839      3.0669      2.7395      2.5809      2.5809      2.7395      3.0670    
  3.5839      4.3198      5.3077      6.5743      8.1244      9.9249      11.890      13.875      15.676      17.046    
  17.782      17.782      17.046      15.676      13.875      11.890      9.9249      8.1245      6.1590      4.8941    
  3.9394      3.2542      2.7977      2.5372      2.4526      2.5372      2.7977      3.2543      3.9394      4.8941    
  6.1589      7.7599      9.6900      11.890      14.234      16.509      18.410      19.661      20.096      19.661    
  18.410      16.509      14.234      11.890      9.6900      7.7600      5.5382      4.3497      3.4819      2.8847    
  2.5133      2.3359      2.3359      2.5134      2.8847      3.4819      4.3496      5.5381      7.0908      9.0264    
  11.319      13.875      16.509      18.891      20.678      21.632      21.632      20.679      18.891      16.509    
  13.875      11.319      9.0264      7.0908      4.7972      3.7428      2.9996      2.5133      2.2401      2.1522    
  2.2401      2.5134      2.9996      3.7428      4.7972      6.2175      8.0429      10.277      12.867      15.676    
  18.410      20.678      22.170      22.689      22.170      20.679      18.410      15.676      12.867      10.277    
  8.0428      6.2176      4.0226      3.1370      2.5372      2.1699      1.9964      1.9964      2.1700      2.5372    
  3.1370      4.0226      5.2533      6.8810      8.9325      11.389      14.162      17.046      19.661      21.632    
  22.689      22.689      21.632      19.661      17.046      14.162      11.389      8.9324      6.8810      5.2533    
  3.2861      2.5809      2.1257      1.8730      1.7922      1.8730      2.1257      2.5809      3.2861      4.2995    
  5.6787      7.4648      9.6645      12.229      15.027      17.782      20.096      21.632      22.170      21.632    
  20.096      17.782      15.027      12.229      9.6645      7.4648      5.6787      4.2995      2.6369      2.1044    
  1.7817      1.6303      1.6303      1.7817      2.1044      2.6369      3.4317      4.5460      6.0283      7.9023    
  10.148      12.682      15.331      17.782      19.661      20.679      20.679      19.661      17.782      15.331    
  12.682      10.148      7.9023      6.0284      4.5460      3.4317      2.1000      1.7190      1.5087      1.4416    
  1.5087      1.7190      2.1000      2.6946      3.5552      4.7322      6.2592      8.1373      10.318      12.682    
  15.027      17.046      18.410      18.891      18.410      17.046      15.027      12.682      10.318      8.1374    
  6.2593      4.7322      3.5552      2.6946      1.6796      1.4226      1.3021      1.3021      1.4226      1.6797    
  2.1050      2.7422      3.6385      4.8327      6.3400      8.1373      10.148      12.229      14.162      15.676    
  16.509      16.509      15.676      14.162      12.229      10.148      8.1374      6.3401      4.8327      3.6385    
  2.7421      2.1050      1.3664      1.2051      1.1537      1.2051      1.3664      1.6578      2.1119      2.7691    
  3.6679      4.8327      6.2592      7.9023      9.6644      11.389      12.867      13.875      14.234      13.875    
  12.867      11.389      9.6645      7.9023      6.2593      4.8327      3.6679      2.7690      2.1119      1.6578    
  1.1444      1.0545      1.0545      1.1444      1.3351      1.6484      2.1150      2.7691      3.6385      4.7322    
  6.0283      7.4648      8.9324      10.277      11.319      11.890      11.890      11.319      10.277      8.9324    
  7.4648      6.0284      4.7322      3.6385      2.7690      2.1150      1.6484      1.3351     0.99776     0.96000    
 0.99777      1.1152      1.3251      1.6484      2.1119      2.7422      3.5552      4.5459      5.6787      6.8810    
  8.0429      9.0264      9.6900      9.9249      9.6900      9.0264      8.0428      6.8810      5.6787      4.5460    
  3.5552      2.7421      2.1119      1.6484      1.3251      1.1152     0.91449     0.91450     0.97932      1.1152    
  1.3351      1.6578      2.1050      2.6946      3.4317      4.2995      5.2533      6.2175      7.0908      7.7600    
  8.1245      8.1245      7.7600      7.0908      6.2176      5.2533      4.2995      3.4317      2.6946      2.1050    
  1.6578      1.3351      1.1152     0.97931     0.91450     0.96000      1.0545      1.2051      1.4225      1.7190    
  2.1044      2.5809      3.1370      3.7428      4.3496      4.8941      5.3078      5.5318      5.5318      5.3078    
  4.8941      4.3497      3.7428      3.1370      2.5809      2.1044      1.7190      1.4226      1.2051      1.0545    
 0.96000     0.91450     0.96000      1.0152      1.1116      1.2557      1.4558      1.7202      2.0537      2.4526    
  2.9010      3.3684      3.8115      4.1796      4.4243      4.5102      4.4243      4.1796      3.8115      3.3684    
  2.9009      2.4526      2.0537      1.7203      1.4558      1.2557      1.1116      1.0152     0.96001     0.94201    
  1.0545      1.1116      1.2025      1.3328      1.5089      1.7358      2.0139      2.3359      2.6841      3.0303    
  3.3386      3.5713      3.6967      3.6967      3.5713      3.3386      3.0303      2.6841      2.3359      2.0139    
  1.7358      1.5090      1.3328      1.2025      1.1116      1.0545      1.0270      1.0270      1.2051      1.2557    
  1.3328      1.4417      1.5872      1.7714      1.9921      2.2401      2.4982      2.7420      2.9438      3.0775    
  3.1244      3.0775      2.9438      2.7420      2.4981      2.2401      1.9922      1.7714      1.5872      1.4417    
  1.3328      1.2557      1.2051      1.1768      1.1677      1.1768      1.4225      1.4558      1.5089      1.5872    
  1.6941      1.8303      1.9921      2.1699      2.3485      2.5084      2.6294      2.6947      2.6947      2.6294    
  2.5084      2.3485      2.1699      1.9921      1.8303      1.6941      1.5872      1.5089      1.4558      1.4225    
  1.4040      1.3960      1.3960      1.4040      1.7190      1.7202      1.7358      1.7714      1.8303      1.9126    
  2.0139      2.1257      2.2355      2.3286      2.3913      2.4134      2.3913      2.3286      2.2355      2.1257    
  2.0139      1.9126      1.8303      1.7714      1.7358      1.7203      1.7190      1.7250      1.7319      1.7348    
  1.7319      1.7250      2.1044      2.0537      2.0139      1.9921      1.9921      2.0139      2.0537      2.1044    
  2.1561      2.1985      2.2223      2.2223      2.1985      2.1561      2.1044      2.0537      2.0139      1.9921    
  1.9921      2.0139      2.0537      2.1044      2.1561      2.1985      2.2223      2.2223      2.1985      2.1561    
  2.5809      2.4526      2.3359      2.2401      2.1699      2.1257      2.1044      2.1000      2.1050      2.1119    
  2.1150      2.1119      2.1050      2.1000      2.1044      2.1257      2.1700      2.2401      2.3359      2.4526    
  2.5809      2.7071      2.8147      2.8873      2.9130      2.8873      2.8147      2.7071      3.1370      2.9010    
  2.6841      2.4982      2.3485      2.2355      2.1561      2.1050      2.0759      2.0630      2.0630      2.0759    
  2.1050      2.1561      2.2355      2.3485      2.4982      2.6841      2.9009      3.1370      3.3736      3.5862    
  3.7481      3.8358      3.8358      3.7481      3.5862      3.3736      3.7428      3.3684      3.0303      2.7420    
  2.5084      2.3286      2.1985      2.1119      2.0630      2.0473      2.0630      2.1119      2.1985      2.3287    
  2.5084      2.7420      3.0303      3.3683      3.7428      4.1300      4.4962      4.8006      5.0034      5.0746    
  5.0034      4.8006      4.4961      4.1300      4.3496      3.8115      3.3386      2.9438      2.6294      2.3913    
  2.2223      2.1150      2.0630      2.0630      2.1149      2.2223      2.3913      2.6295      2.9438      3.3386    
  3.8114      4.3496      4.9261      5.4980      6.0084      6.3955      6.6050      6.6050      6.3955      6.0084    
  5.4979      4.9261      4.8941      4.1796      3.5713      3.0775      2.6947      2.4134      2.2223      2.1119    
  2.0759      2.1119      2.2223      2.4134      2.6948      3.0775      3.5713      4.1795      4.8941      5.6882    
  6.5125      7.2948      7.9475      8.3832      8.5365      8.3832      7.9475      7.2948      6.5124      5.6881    
  5.3078      4.4243      3.6967      3.1244      2.6947      2.3913      2.1985      2.1050      2.1050      2.1985    
  2.3913      2.6948      3.1244      3.6967      4.4242      5.3077      6.3270      7.4327      8.5418      9.5417    
  10.306      10.721      10.721      10.306      9.5417      8.5418      7.4327      6.3270      5.5318      4.5102    
  3.6967      3.0775      2.6294      2.3286      2.1561      2.1000      2.1561      2.3287      2.6295      3.0775    
  3.6967      4.5101      5.5317      6.7547      8.1387      9.6000      11.009      12.199      13.002      13.286    
  13.002      12.199      11.009      9.5999      8.1386      6.7547      5.5318      4.4243      3.5713      2.9438    
  2.5084      2.2355      2.1044      2.1044      2.2355      2.5084      2.9438      3.5713      4.4242      5.5317    
  6.9054      8.5235      10.315      12.148      13.830      15.134      15.851      15.851      15.135      13.830    
  12.148      10.315      8.5234      6.9054      5.3078      4.1796      3.3386      2.7420      2.3485      2.1257    
  2.0537      2.1257      2.3485      2.7420      3.3386      4.1795      5.3077      6.7547      8.5235      10.568    
  12.774      14.945      16.813      18.089      18.544      18.090      16.813      14.945      12.774      10.568    
  8.5234      6.7547      4.8941      3.8115      3.0303      2.4981      2.1699      2.0139      2.0139      2.1700    
  2.4982      3.0303      3.8114      4.8941      6.3270      8.1387      10.315      12.774      15.342      17.744    
  19.634      20.678      20.678      19.634      17.744      15.342      12.774      10.315      8.1386      6.3270    
  4.3497      3.3684      2.6841      2.2401      1.9921      1.9126      1.9921      2.2401      2.6841      3.3683    
  4.3496      5.6882      7.4327      9.6000      12.148      14.945      17.744      20.186      21.859      22.455    
  21.859      20.186      17.744      14.945      12.148      9.5999      7.4327      5.6882      3.7428      2.9009    
  2.3359      1.9922      1.8303      1.8303      1.9921      2.3359      2.9009      3.7428      4.9261      6.5125    
  8.5418      11.009      13.830      16.813      19.634      21.859      23.088      23.088      21.859      19.634    
  16.813      13.830      11.009      8.5418      6.5125      4.9261      3.1370      2.4526      2.0139      1.7714    
  1.6941      1.7714      2.0139      2.4526      3.1370      4.1300      5.4980      7.2948      9.5417      12.199    
  15.134      18.089      20.678      22.455      23.088      22.455      20.677      18.089      15.135      12.199    
  9.5417      7.2948      5.4979      4.1300      2.5809      2.0537      1.7358      1.5872      1.5872      1.7358    
  2.0537      2.5809      3.3736      4.4962      6.0084      7.9475      10.306      13.002      15.851      18.544    
  20.678      21.859      21.859      20.677      18.544      15.851      13.002      10.306      7.9476      6.0084    
  4.4961      3.3735      2.1044      1.7203      1.5090      1.4417      1.5089      1.7203      2.1044      2.7071    
  3.5862      4.8006      6.3955      8.3832      10.721      13.286      15.851      18.090      19.634      20.186    
  19.634      18.089      15.851      13.286      10.721      8.3833      6.3955      4.8006      3.5861      2.7071    
  1.7190      1.4558      1.3328      1.3328      1.4558      1.7190      2.1561      2.8147      3.7481      5.0034    
  6.6050      8.5365      10.721      13.002      15.135      16.813      17.744      17.744      16.813      15.135    
  13.002      10.721      8.5367      6.6050      5.0033      3.7480      2.8146      2.1561      1.4226      1.2557    
  1.2025      1.2557      1.4225      1.7250      2.1985      2.8873      3.8358      5.0746      6.6050      8.3832    
  10.306      12.199      13.830      14.945      15.342      14.945      13.830      12.199      10.306      8.3833    
  6.6050      5.0746      3.8358      2.8873      2.1985      1.7251      1.2051      1.1116      1.1116      1.2051    
  1.4040      1.7319      2.2223      2.9130      3.8358      5.0034      6.3955      7.9475      9.5417      11.009    
  12.148      12.774      12.774      12.148      11.009      9.5417      7.9476      6.3955      5.0033      3.8358    
  2.9130      2.2223      1.7319      1.4040      1.0545      1.0152      1.0545      1.1768      1.3960      1.7348    
  2.2223      2.8873      3.7481      4.8006      6.0084      7.2948      8.5418      9.5999      10.315      10.568    
  10.315      9.5999      8.5418      7.2948      6.0084      4.8006      3.7480      2.8873      2.2223      1.7348    
  1.3960      1.1768     0.96000     0.96001      1.0270      1.1677      1.3960      1.7319      2.1985      2.8147    
  3.5862      4.4961      5.4979      6.5124      7.4327      8.1386      8.5234      8.5234      8.1386      7.4327    
  6.5125      5.4979      4.4961      3.5861      2.8146      2.1985      1.7319      1.3960      1.1677      1.0270    
 0.91450     0.94201      1.0270      1.1768      1.4040      1.7250      2.1561      2.7071      3.3736      4.1300    
  4.9261      5.6881      6.3270      6.7547      6.9054      6.7547      6.3270      5.6882      4.9261      4.1300    
  3.3735      2.7071      2.1561      1.7251      1.4040      1.1768      1.0270     0.94201     0.99777      1.0545    
  1.1537      1.3021      1.5086      1.7816      2.1257      2.5372      2.9996      3.4819      3.9394      4.3198    
  4.5727      4.6615      4.5727      4.3198      3.9394      3.4819      2.9996      2.5372      2.1257      1.7817    
  1.5087      1.3021      1.1537      1.0545     0.99777     0.97932      1.0545      1.1116      1.2025      1.3328    
  1.5089      1.7358      2.0139      2.3359      2.6841      3.0303      3.3386      3.5713      3.6967      3.6967    
  3.5713      3.3386      3.0303      2.6841      2.3359      2.0139      1.7358      1.5090      1.3328      1.2025    
  1.1116      1.0545      1.0270      1.0270      1.1537      1.2025      1.2768      1.3817      1.5217      1.6994    
  1.9126      2.1522      2.4015      2.6369      2.8315      2.9603      3.0053      2.9603      2.8315      2.6369    
  2.4015      2.1522      1.9126      1.6994      1.5217      1.3817      1.2768      1.2025      1.1537      1.1262    
  1.1173      1.1262      1.3021      1.3328      1.3817      1.4537      1.5526      1.6793      1.8303      1.9964    
  2.1630      2.3118      2.4242      2.4846      2.4846      2.4241      2.3118      2.1630      1.9965      1.8304    
  1.6794      1.5526      1.4537      1.3817      1.3328      1.3021      1.2849      1.2773      1.2773      1.2849    
  1.5086      1.5089      1.5217      1.5526      1.6051      1.6793      1.7714      1.8730      1.9723      2.0562    
  2.1123      2.1320      2.1123      2.0562      1.9723      1.8730      1.7714      1.6794      1.6051      1.5526    
  1.5217      1.5089      1.5087      1.5145      1.5207      1.5232      1.5207      1.5145      1.7816      1.7358    
  1.6994      1.6793      1.6793      1.6994      1.7358      1.7816      1.8279      1.8653      1.8862      1.8862    
  1.8653      1.8279      1.7816      1.7358      1.6994      1.6793      1.6793      1.6994      1.7358      1.7816    
  1.8279      1.8653      1.8862      1.8862      1.8653      1.8279      2.1257      2.0139      1.9126      1.8303    
  1.7714      1.7358      1.7202      1.7190      1.7250      1.7319      1.7348      1.7319      1.7250      1.7190    
  1.7203      1.7358      1.7714      1.8303      1.9126      2.0139      2.1257      2.2355      2.3286      2.3913    
  2.4134      2.3913      2.3286      2.2355      2.5372      2.3359      2.1522      1.9964      1.8730      1.7816    
  1.7190      1.6796      1.6578      1.6484      1.6484      1.6578      1.6796      1.7190      1.7817      1.8730    
  1.9964      2.1522      2.3359      2.5372      2.7395      2.9213      3.0595      3.1343      3.1343      3.0595    
  2.9213      2.7395      2.9996      2.6841      2.4015      2.1630      1.9723      1.8279      1.7250      1.6578    
  1.6204      1.6084      1.6203      1.6578      1.7251      1.8279      1.9723      2.1630      2.4015      2.6841    
  2.9996      3.3277      3.6387      3.8977      4.0701      4.1308      4.0701      3.8977      3.6387      3.3276    
  3.4819      3.0303      2.6369      2.3118      2.0562      1.8653      1.7319      1.6484      1.6084      1.6084    
  1.6484      1.7319      1.8653      2.0562      2.3118      2.6368      3.0303      3.4819      3.9689      4.4541    
  4.8886      5.2187      5.3975      5.3975      5.2187      4.8886      4.4540      3.9688      3.9394      3.3386    
  2.8315      2.4242      2.1123      1.8862      1.7348      1.6484      1.6203      1.6484      1.7348      1.8862    
  2.1123      2.4241      2.8314      3.3386      3.9394      4.6118      5.3136      5.9824      6.5420      6.9163    
  7.0481      6.9163      6.5421      5.9825      5.3136      4.6118      4.3198      3.5713      2.9603      2.4846    
  2.1320      1.8862      1.7319      1.6578      1.6578      1.7319      1.8862      2.1320      2.4846      2.9602    
  3.5713      4.3198      5.1894      6.1379      7.0935      7.9576      8.6194      8.9797      8.9797      8.6194    
  7.9577      7.0935      6.1379      5.1893      4.5727      3.6967      3.0053      2.4846      2.1123      1.8653    
  1.7250      1.6796      1.7251      1.8653      2.1123      2.4846      3.0053      3.6967      4.5727      5.6287    
  6.8302      8.1040      9.3353      10.378      11.082      11.331      11.082      10.378      9.3354      8.1040    
  6.8302      5.6287      4.6615      3.6967      2.9603      2.4241      2.0562      1.8279      1.7190      1.7190    
  1.8279      2.0562      2.4241      2.9602      3.6967      4.6616      5.8669      7.2943      8.8808      10.508    
  12.004      13.164      13.801      13.801      13.164      12.004      10.508      8.8808      7.2942      5.8668    
  4.5727      3.5713      2.8315      2.3118      1.9723      1.7816      1.7203      1.7817      1.9723      2.3118    
  2.8314      3.5713      4.5727      5.8669      7.4579      9.3048      11.302      13.270      14.963      16.120    
  16.532      16.120      14.964      13.270      11.302      9.3048      7.4579      5.8668      4.3198      3.3386    
  2.6369      2.1630      1.8730      1.7358      1.7358      1.8730      2.1630      2.6368      3.3386      4.3198    
  5.6287      7.2943      9.3048      11.584      13.967      16.196      17.950      18.922      18.922      17.950    
  16.196      13.967      11.584      9.3048      7.2942      5.6287      3.9394      3.0303      2.4015      1.9965    
  1.7714      1.6994      1.7714      1.9964      2.4015      3.0303      3.9394      5.1894      6.8302      8.8808    
  11.302      13.967      16.636      18.967      20.574      21.150      20.574      18.966      16.636      13.967    
  11.302      8.8808      6.8302      5.1893      3.4819      2.6841      2.1522      1.8304      1.6794      1.6793    
  1.8303      2.1522      2.6841      3.4819      4.6118      6.1379      8.1040      10.508      13.270      16.196    
  18.967      21.166      22.392      22.392      21.166      18.966      16.196      13.270      10.508      8.1040    
  6.1379      4.6118      2.9996      2.3359      1.9126      1.6794      1.6051      1.6793      1.9126      2.3359    
  2.9996      3.9689      5.3136      7.0935      9.3353      12.004      14.963      17.950      20.574      22.392    
  23.045      22.392      20.574      17.950      14.964      12.004      9.3354      7.0935      5.3136      3.9688    
  2.5372      2.0139      1.6994      1.5526      1.5526      1.6994      2.0139      2.5372      3.3277      4.4541    
  5.9824      7.9576      10.378      13.164      16.120      18.922      21.150      22.392      22.392      21.149    
  18.922      16.120      13.164      10.378      7.9577      5.9824      4.4540      3.3276      2.1257      1.7358    
  1.5217      1.4537      1.5217      1.7358      2.1257      2.7395      3.6387      4.8886      6.5420      8.6194    
  11.082      13.801      16.532      18.922      20.574      21.166      20.574      18.922      16.532      13.801    
  11.082      8.6194      6.5420      4.8885      3.6387      2.7395      1.7817      1.5090      1.3817      1.3817    
  1.5089      1.7816      2.2355      2.9213      3.8977      5.2187      6.9163      8.9797      11.331      13.801    
  16.120      17.950      18.966      18.966      17.950      16.120      13.801      11.331      8.9798      6.9163    
  5.2186      3.8976      2.9213      2.2355      1.5087      1.3328      1.2768      1.3328      1.5087      1.8279    
  2.3286      3.0595      4.0701      5.3975      7.0481      8.9797      11.082      13.164      14.964      16.196    
  16.636      16.196      14.964      13.164      11.082      8.9798      7.0481      5.3974      4.0701      3.0595    
  2.3287      1.8279      1.3021      1.2025      1.2025      1.3021      1.5145      1.8653      2.3913      3.1343    
  4.1308      5.3975      6.9163      8.6194      10.378      12.004      13.270      13.967      13.967      13.270    
  12.004      10.378      8.6194      6.9163      5.3974      4.1307      3.1343      2.3913      1.8653      1.5145    
  1.1537      1.1116      1.1537      1.2849      1.5207      1.8862      2.4134      3.1343      4.0701      5.2187    
  6.5421      7.9577      9.3354      10.508      11.302      11.584      11.302      10.508      9.3354      7.9577    
  6.5420      5.2186      4.0701      3.1343      2.4134      1.8862      1.5207      1.2849      1.0545      1.0545    
  1.1262      1.2773      1.5232      1.8862      2.3913      3.0595      3.8977      4.8886      5.9825      7.0935    
  8.1040      8.8808      9.3048      9.3048      8.8808      8.1040      7.0935      5.9824      4.8885      3.8976    
  3.0595      2.3913      1.8862      1.5232      1.2773      1.1262     0.99777      1.0270      1.1173      1.2773    
  1.5207      1.8653      2.3286      2.9213      3.6387      4.4540      5.3136      6.1379      6.8302      7.2942    
  7.4579      7.2942      6.8302      6.1379      5.3136      4.4540      3.6387      2.9213      2.3287      1.8653    
  1.5207      1.2773      1.1173      1.0270     0.97932      1.0270      1.1262      1.2849      1.5145      1.8279    
  2.2355      2.7395      3.3276      3.9688      4.6118      5.1893      5.6287      5.8668      5.8668      5.6287    
  5.1893      4.6118      3.9688      3.3276      2.7395      2.2355      1.8279      1.5145      1.2849      1.1262    
  1.0270     0.97932      1.1444      1.2051      1.3021      1.4417      1.6303      1.8730      2.1699      2.5133    
  2.8847      3.2542      3.5839      3.8331      3.9676      3.9676      3.8331      3.5839      3.2542      2.8847    
  2.5133      2.1699      1.8730      1.6303      1.4416      1.3021      1.2051      1.1444      1.1152      1.1152    
  1.2051      1.2557      1.3328      1.4417      1.5872      1.7714      1.9921      2.2401      2.4982      2.7420    
  2.9438      3.0775      3.1244      3.0775      2.9438      2.7420      2.4981      2.2401      1.9921      1.7714    
  1.5872      1.4417      1.3328      1.2557      1.2051      1.1768      1.1677      1.1768      1.3021      1.3328    
  1.3817      1.4537      1.5526      1.6793      1.8303      1.9964      2.1630      2.3118      2.4242      2.4846    
  2.4846      2.4242      2.3118      2.1630      1.9965      1.8304      1.6794      1.5526      1.4537      1.3817    
  1.3328      1.3021      1.2849      1.2773      1.2773      1.2849      1.4417      1.4417      1.4537      1.4831    
  1.5335      1.6051      1.6941      1.7922      1.8881      1.9687      2.0226      2.0415      2.0226      1.9687    