unknown system                          
   1.00000000000000     
     0.000000    2.515555    2.515555
     2.515555    0.000000    2.515555
     2.515555    2.515555    0.000000
   Si
     2
Direct
  0.000000  0.000000  0.000000
  0.250000  0.250000  0.250000
 
   32   32   32
 -6.6039     -5.3076     -1.7867      2.9993      7.8615      11.784      14.194      15.028      14.624      13.528    
  12.222      10.912      9.7242      8.7479      8.0317      7.5973      7.4521      7.5973      8.0317      8.7479    
  9.7242      10.912      12.223      13.528      14.624      15.028      14.194      11.784      7.8613      2.9992    
 -1.7867     -5.3075     -5.3076     -2.6915      1.7756      6.8855      11.446      14.647      16.214      16.337    
  15.499      14.249      12.899      11.594      10.448      9.5381      8.9119      8.5940      8.5938      8.9118    
  9.5381      10.448      11.594      12.899      14.249      15.499      16.337      16.214      14.647      11.446    
  6.8857      1.7754     -2.6922     -5.3080     -1.7867      1.7756      6.5296      11.237      14.912      17.067    
  17.717      17.232      16.135      14.830      13.482      12.217      11.135      10.312      9.8002      9.6265    
  9.8002      10.312      11.135      12.217      13.482      14.830      16.135      17.232      17.717      17.067    
  14.912      11.237      6.5297      1.7757     -1.7867     -3.1111      2.9993      6.8855      11.237      15.001    
  17.518      18.619      18.530      17.690      16.526      15.229      13.924      12.724      11.726      11.012    
  10.640      10.640      11.012      11.726      12.723      13.924      15.229      16.526      17.689      18.530    
  18.619      17.518      15.001      11.237      6.8858      2.9998     0.69463     0.69434      7.8615      11.446    
  14.912      17.518      18.934      19.227      18.719      17.796      16.657      15.414      14.179      13.059    
  12.161      11.579      11.377      11.579      12.161      13.059      14.179      15.414      16.657      17.796    
  18.719      19.227      18.934      17.518      14.912      11.445      7.8614      5.1367      4.1166      5.1367    
  11.784      14.647      17.067      18.619      19.227      19.080      18.478      17.596      16.526      15.360    
  14.204      13.172      12.383      11.952      11.952      12.383      13.172      14.204      15.360      16.526    
  17.596      18.478      19.080      19.227      18.619      17.067      14.647      11.784      9.1899      7.6396    
  7.6397      9.1901      14.194      16.214      17.717      18.530      18.719      18.478      17.924      17.121    
  16.135      15.049      13.958      12.992      12.316      12.072      12.316      12.992      13.958      15.049    
  16.135      17.121      17.924      18.478      18.719      18.530      17.717      16.214      14.194      12.089    
  10.481      9.8782      10.482      12.089      15.028      16.337      17.232      17.690      17.796      17.596    
  17.121      16.406      15.498      14.455      13.388      12.492      11.975      11.975      12.492      13.388    
  14.455      15.499      16.406      17.121      17.596      17.796      17.689      17.232      16.337      15.028    
  13.511      12.149      11.337      11.337      12.149      13.511      14.624      15.499      16.135      16.526    
  16.657      16.526      16.135      15.498      14.624      13.580      12.549      11.780      11.495      11.780    
  12.549      13.580      14.624      15.499      16.135      16.526      16.657      16.526      16.135      15.498    
  14.624      13.581      12.549      11.780      11.495      11.780      12.549      13.580      13.528      14.249    
  14.830      15.229      15.414      15.360      15.049      14.455      13.580      12.558      11.634      11.081    
  11.081      11.634      12.558      13.580      14.455      15.049      15.360      15.415      15.229      14.830    
  14.249      13.528      12.734      11.950      11.302      10.932      10.932      11.302      11.950      12.734    
  12.222      12.899      13.482      13.924      14.179      14.204      13.958      13.388      12.549      11.634    
  10.918      10.647      10.918      11.634      12.549      13.388      13.958      14.204      14.179      13.924    
  13.482      12.899      12.223      11.509      10.826      10.252      9.8649      9.7278      9.8649      10.252    
  10.826      11.509      10.912      11.594      12.217      12.724      13.059      13.172      12.992      12.492    
  11.780      11.081      10.647      10.647      11.081      11.780      12.492      12.992      13.172      13.059    
  12.723      12.217      11.594      10.912      10.222      9.5765      9.0276      8.6254      8.4120      8.4121    
  8.6257      9.0278      9.5765      10.222      9.7242      10.448      11.135      11.726      12.161      12.383    
  12.316      11.975      11.495      11.081      10.918      11.081      11.495      11.975      12.316      12.383    
  12.161      11.726      11.135      10.448      9.7242      9.0163      8.3692      7.8206      7.4021      7.1392    
  7.0496      7.1393      7.4022      7.8207      8.3692      9.0163      8.7479      9.5381      10.312      11.012    
  11.579      11.952      12.072      11.975      11.780      11.634      11.634      11.780      11.975      12.072    
  11.952      11.579      11.012      10.313      9.5381      8.7478      7.9933      7.3152      6.7432      6.2977    
  5.9928      5.8379      5.8379      5.9927      6.2976      6.7432      7.3154      7.9935      8.0317      8.9119    
  9.8002      10.640      11.377      11.952      12.316      12.492      12.549      12.558      12.549      12.492    
  12.316      11.952      11.377      10.640      9.8002      8.9119      8.0317      7.2083      6.4782      5.8647    
  5.3808      5.0326      4.8228      4.7527      4.8228      5.0326      5.3808      5.8647      6.4782      7.2083    
  7.5973      8.5940      9.6265      10.640      11.579      12.383      12.992      13.388      13.580      13.580    
  13.388      12.992      12.383      11.579      10.640      9.6264      8.5939      7.5973      6.6827      5.8819    
  5.2123      4.6799      4.2843      4.0229      3.8928      3.8928      4.0229      4.2845      4.6799      5.2121    
  5.8816      6.6825      7.4521      8.5938      9.8002      11.012      12.161      13.172      13.958      14.455    
  14.624      14.455      13.958      13.172      12.161      11.012      9.8002      8.5939      7.4521      6.4204    
  5.5276      4.7856      4.1940      3.7458      3.4324      3.2470      3.1857      3.2470      3.4323      3.7457    
  4.1940      4.7856      5.5276      6.4204      7.5973      8.9118      10.312      11.726      13.059      14.204    
  15.049      15.499      15.499      15.049      14.204      13.059      11.726      10.313      8.9119      7.5973    
  6.4204      5.4103      4.5756      3.9103      3.4007      3.0320      2.7924      2.6743      2.6743      2.7923    
  3.0318      3.4005      3.9103      4.5758      5.4106      6.4206      8.0317      9.5381      11.135      12.723    
  14.179      15.360      16.135      16.406      16.135      15.360      14.179      12.723      11.135      9.5381    
  8.0317      6.6827      5.5276      4.5756      3.8172      3.2328      2.8011      2.5046      2.3311      2.2740    
  2.3311      2.5046      2.8011      3.2328      3.8173      4.5757      5.5276      6.6827      8.7479      10.448    
  12.217      13.924      15.414      16.526      17.121      17.121      16.526      15.415      13.924      12.217    
  10.448      8.7478      7.2083      5.8819      4.7856      3.9103      3.2328      2.7258      2.3654      2.1342    
  2.0211      2.0211      2.1342      2.3655      2.7259      3.2329      3.9103      4.7854      5.8816      7.2082    
  9.7242      11.594      13.482      15.229      16.657      17.596      17.924      17.596      16.657      15.229    
  13.482      11.594      9.7242      7.9933      6.4782      5.2123      4.1940      3.4007      2.8011      2.3654    
  2.0700      1.8988      1.8427      1.8988      2.0700      2.3654      2.8011      3.4007      4.1940      5.2122    
  6.4782      7.9932      10.912      12.899      14.830      16.526      17.796      18.478      18.478      17.796    
  16.526      14.830      12.899      10.912      9.0163      7.3152      5.8647      4.6799      3.7458      3.0320    
  2.5046      2.1342      1.8988      1.7844      1.7844      1.8988      2.1342      2.5045      3.0318      3.7457    
  4.6799      5.8650      7.3154      9.0163      12.223      14.249      16.135      17.689      18.719      19.080    
  18.719      17.689      16.135      14.249      12.223      10.222      8.3692      6.7432      5.3808      4.2843    
  3.4324      2.7924      2.3311      2.0211      1.8427      1.7844      1.8427      2.0211      2.3311      2.7923    
  3.4323      4.2843      5.3808      6.7432      8.3693      10.222      13.528      15.499      17.232      18.530    
  19.227      19.227      18.530      17.232      15.498      13.528      11.509      9.5765      7.8206      6.2977    
  5.0326      4.0229      3.2470      2.6743      2.2740      2.0211      1.8988      1.8988      2.0211      2.2740    
  2.6743      3.2471      4.0230      5.0326      6.2976      7.8204      9.5765      11.510      14.624      16.337    
  17.717      18.619      18.934      18.619      17.717      16.337      14.624      12.734      10.826      9.0276    
  7.4021      5.9928      4.8228      3.8928      3.1857      2.6743      2.3311      2.1342      2.0700      2.1342    
  2.3311      2.6743      3.1857      3.8928      4.8228      5.9929      7.4021      9.0277      10.826      12.734    
  15.028      16.214      17.067      17.518      17.518      17.067      16.214      15.028      13.581      11.950    
  10.252      8.6254      7.1392      5.8379      4.7527      3.8928      3.2470      2.7923      2.5046      2.3655    
  2.3654      2.5045      2.7923      3.2471      3.8928      4.7526      5.8379      7.1394      8.6256      10.252    
  11.950      13.580      14.194      14.647      14.912      15.001      14.912      14.647      14.194      13.511    
  12.549      11.302      9.8649      8.4120      7.0496      5.8379      4.8228      4.0229      3.4323      3.0318    
  2.8011      2.7259      2.8011      3.0318      3.4323      4.0230      4.8228      5.8379      7.0495      8.4120    
  9.8649      11.302      12.549      13.511      11.784      11.446      11.237      11.237      11.445      11.784    
  12.089      12.149      11.780      10.932      9.7278      8.4121      7.1393      5.9927      5.0326      4.2845    
  3.7457      3.4005      3.2328      3.2329      3.4007      3.7457      4.2843      5.0326      5.9929      7.1394    
  8.4120      9.7276      10.932      11.780      12.149      12.089      7.8613      6.8857      6.5297      6.8858    
  7.8614      9.1899      10.481      11.337      11.495      10.932      9.8649      8.6257      7.4022      6.2976    
  5.3808      4.6799      4.1940      3.9103      3.8173      3.9103      4.1940      4.6799      5.3808      6.2976    
  7.4021      8.6256      9.8649      10.932      11.495      11.337      10.482      9.1898      2.9992      1.7754    
  1.7757      2.9998      5.1367      7.6396      9.8782      11.337      11.780      11.302      10.252      9.0278    
  7.8207      6.7432      5.8647      5.2121      4.7856      4.5758      4.5757      4.7854      5.2122      5.8650    
  6.7432      7.8204      9.0277      10.252      11.302      11.780      11.337      9.8782      7.6396      5.1364    
 -1.7867     -2.6922     -1.7867     0.69463      4.1166      7.6397      10.482      12.149      12.549      11.950    
  10.826      9.5765      8.3692      7.3154      6.4782      5.8816      5.5276      5.4106      5.5276      5.8816    
  6.4782      7.3154      8.3693      9.5765      10.826      11.950      12.549      12.149      10.482      7.6396    
  4.1165     0.69460     -5.3075     -5.3080     -3.1111     0.69434      5.1367      9.1901      12.089      13.511    
  13.580      12.734      11.509      10.222      9.0163      7.9935      7.2083      6.6825      6.4204      6.4206    
  6.6827      7.2082      7.9932      9.0163      10.222      11.510      12.734      13.580      13.511      12.089    
  9.1898      5.1364     0.69460     -3.1103     -5.3076     -2.6915      1.7756      6.8855      11.446      14.647    
  16.214      16.337      15.499      14.249      12.899      11.594      10.448      9.5381      8.9119      8.5940    
  8.5939      8.9118      9.5382      10.448      11.594      12.899      14.249      15.499      16.337      16.214    
  14.647      11.446      6.8857      1.7754     -2.6922     -5.3079     -2.6915      1.0539      6.0550      11.015    
  14.905      17.213      17.954      17.505      16.406      15.085      13.717      12.429      11.325      10.484    
  9.9601      9.7823      9.9601      10.484      11.325      12.429      13.717      15.085      16.406      17.505    
  17.954      17.213      14.905      11.015      6.0546      1.0531     -2.6922     -4.0841      1.7756      6.0550    
  10.855      15.027      17.855      19.151      19.150      18.317      17.121      15.782      14.427      13.175    
  12.131      11.381      10.990      10.990      11.381      12.131      13.175      14.427      15.782      17.121    
  18.317      19.150      19.151      17.855      15.027      10.855      6.0547      1.7754     -.76143     -.76138    
  6.8855      11.015      15.027      18.078      19.792      20.237      19.760      18.796      17.596      16.279    
  14.960      13.757      12.788      12.155      11.935      12.155      12.788      13.757      14.960      16.279    
  17.596      18.796      19.760      20.237      19.792      18.078      15.027      11.015      6.8858      3.7511    
  2.5778      3.7508      11.446      14.905      17.855      19.792      20.617      20.538      19.904      18.956    
  17.796      16.521      15.244      14.086      13.190      12.697      12.697      13.190      14.087      15.244    
  16.521      17.796      18.956      19.904      20.538      20.618      19.792      17.855      14.905      11.445    
  8.3237      6.4601      6.4601      8.3237      14.647      17.213      19.151      20.237      20.538      20.292    
  19.686      18.796      17.690      16.447      15.165      14.011      13.195      12.900      13.196      14.011    
  15.166      16.447      17.689      18.796      19.686      20.292      20.538      20.237      19.151      17.213    
  14.647      11.991      9.9668      9.2082      9.9671      11.991      16.214      17.954      19.150      19.760    
  19.904      19.686      19.146      18.317      17.232      15.936      14.585      13.439      12.776      12.776    
  13.440      14.586      15.936      17.232      18.317      19.145      19.686      19.904      19.760      19.150    
  17.954      16.214      14.208      12.412      11.344      11.344      12.412      14.208      16.337      17.505    
  18.317      18.796      18.956      18.796      18.317      17.505      16.337      14.919      13.510      12.458    
  12.068      12.459      13.511      14.920      16.337      17.505      18.317      18.796      18.956      18.796    
  18.317      17.505      16.337      14.920      13.511      12.459      12.068      12.458      13.510      14.919    
  15.499      16.406      17.121      17.596      17.796      17.690      17.232      16.337      15.028      13.511    
  12.149      11.337      11.337      12.149      13.512      15.028      16.337      17.232      17.689      17.796    
  17.596      17.121      16.406      15.499      14.455      13.388      12.492      11.975      11.975      12.492    
  13.388      14.455      14.249      15.085      15.782      16.279      16.521      16.447      15.936      14.919    
  13.511      12.023      10.877      10.446      10.877      12.022      13.511      14.919      15.936      16.447    
  16.521      16.279      15.782      15.085      14.249      13.344      12.461      11.700      11.176      10.988    
  11.176      11.700      12.461      13.344      12.899      13.717      14.427      14.960      15.244      15.165    
  14.585      13.510      12.149      10.877      10.106      10.106      10.877      12.149      13.510      14.586    
  15.165      15.244      14.960      14.427      13.717      12.899      12.044      11.225      10.515      9.9878    
  9.7063      9.7063      9.9878      10.515      11.224      12.044      11.594      12.429      13.175      13.757    
  14.086      14.011      13.439      12.458      11.337      10.446      10.106      10.445      11.337      12.458    
  13.439      14.011      14.086      13.757      13.175      12.429      11.594      10.745      9.9466      9.2547    
  8.7191      8.3796      8.2634      8.3798      8.7192      9.2547      9.9464      10.745      10.448      11.325    
  12.131      12.788      13.190      13.195      12.776      12.068      11.337      10.877      10.877      11.337    
  12.067      12.775      13.195      13.190      12.788      12.131      11.325      10.448      9.5730      8.7615    
  8.0613      7.5078      7.1254      6.9301      6.9302      7.1254      7.5078      8.0614      8.7615      9.5730    
  9.5381      10.484      11.381      12.155      12.697      12.900      12.776      12.459      12.149      12.022    
  12.149      12.458      12.775      12.900      12.697      12.155      11.381      10.484      9.5381      8.6115    
  7.7622      7.0321      6.4477      6.0238      5.7674      5.6816      5.7673      6.0237      6.4478      7.0323    
  7.7624      8.6116      8.9119      9.9601      10.990      11.935      12.697      13.196      13.440      13.511    
  13.512      13.511      13.510      13.439      13.195      12.697      11.935      10.990      9.9602      8.9119    
  7.9076      6.9988      6.2212      5.5941      5.1249      4.8140      4.6593      4.6593      4.8140      5.1249    
  5.5941      6.2212      6.9988      7.9076      8.5940      9.7823      10.990      12.155      13.190      14.011    
  14.586      14.920      15.028      14.919      14.586      14.011      13.190      12.155      10.990      9.7822    
  8.5939      7.4812      6.4893      5.6464      4.9649      4.4449      4.0808      3.8656      3.7944      3.8656    
  4.0809      4.4450      4.9648      5.6462      6.4891      7.4812      8.5939      9.9601      11.381      12.788    
  14.087      15.166      15.936      16.337      16.337      15.936      15.165      14.086      12.788      11.381    
  9.9602      8.5939      7.3387      6.2354      5.3060      4.5555      3.9765      3.5569      3.2845      3.1506    
  3.1505      3.2845      3.5569      3.9765      4.5554      5.3060      6.2354      7.3387      8.9118      10.484    
  12.131      13.757      15.244      16.447      17.232      17.505      17.232      16.447      15.244      13.757    
  12.131      10.484      8.9119      7.4812      6.2354      5.1935      4.3545      3.7040      3.2226      2.8921    
  2.6991      2.6356      2.6990      2.8920      3.2225      3.7040      4.3547      5.1938      6.2355      7.4812    
  9.5382      11.325      13.175      14.960      16.521      17.689      18.317      18.317      17.689      16.521    
  14.960      13.175      11.325      9.5381      7.9076      6.4893      5.3060      4.3545      3.6146      3.0602    
  2.6663      2.4137      2.2903      2.2903      2.4137      2.6663      3.0603      3.6147      4.3545      5.3060    
  6.4893      7.9076      10.448      12.429      14.427      16.279      17.796      18.796      19.145      18.796    
  17.796      16.279      14.427      12.429      10.448      8.6115      6.9988      5.6464      4.5555      3.7040    
  3.0602      2.5926      2.2758      2.0922      2.0321      2.0922      2.2758      2.5928      3.0603      3.7040    
  4.5552      5.6462      6.9987      8.6116      11.594      13.717      15.782      17.596      18.956      19.686    
  19.686      18.956      17.596      15.782      13.717      11.594      9.5730      7.7622      6.2212      4.9649    
  3.9765      3.2226      2.6663      2.2758      2.0276      1.9071      1.9071      2.0277      2.2758      2.6663    
  3.2226      3.9765      4.9649      6.2211      7.7622      9.5730      12.899      15.085      17.121      18.796    
  19.904      20.292      19.904      18.796      17.121      15.085      12.899      10.745      8.7615      7.0321    
  5.5941      4.4449      3.5569      2.8921      2.4137      2.0922      1.9071      1.8466      1.9071      2.0922    
  2.4137      2.8920      3.5568      4.4450      5.5943      7.0323      8.7614      10.745      14.249      16.406    
  18.317      19.760      20.538      20.538      19.760      18.317      16.406      14.249      12.044      9.9466    
  8.0613      6.4477      5.1249      4.0808      3.2845      2.6991      2.2903      2.0321      1.9071      1.9071    
  2.0320      2.2903      2.6990      3.2845      4.0808      5.1249      6.4478      8.0614      9.9466      12.044    
  15.499      17.505      19.150      20.237      20.618      20.237      19.150      17.505      15.499      13.344    
  11.225      9.2547      7.5078      6.0238      4.8140      3.8656      3.1506      2.6356      2.2903      2.0922    
  2.0277      2.0922      2.2903      2.6355      3.1506      3.8656      4.8140      6.0237      7.5076      9.2547    
  11.225      13.345      16.337      17.954      19.151      19.792      19.792      19.151      17.954      16.337    
  14.455      12.461      10.515      8.7191      7.1254      5.7674      4.6593      3.7944      3.1505      2.6990    
  2.4137      2.2758      2.2758      2.4137      2.6990      3.1506      3.7944      4.6593      5.7674      7.1254    
  8.7191      10.515      12.461      14.455      16.214      17.213      17.855      18.078      17.855      17.213    
  16.214      14.920      13.388      11.700      9.9878      8.3796      6.9301      5.6816      4.6593      3.8656    
  3.2845      2.8920      2.6663      2.5928      2.6663      2.8920      3.2845      3.8656      4.6593      5.6815    
  6.9302      8.3798      9.9880      11.700      13.388      14.919      14.647      14.905      15.027      15.027    
  14.905      14.647      14.208      13.511      12.492      11.176      9.7063      8.2634      6.9302      5.7673    
  4.8140      4.0809      3.5569      3.2225      3.0603      3.0603      3.2226      3.5568      4.0808      4.8140    
  5.7674      6.9302      8.2632      9.7062      11.176      12.492      13.510      14.208      11.446      11.015    
  10.855      11.015      11.445      11.991      12.412      12.459      11.975      10.988      9.7063      8.3798    
  7.1254      6.0237      5.1249      4.4450      3.9765      3.7040      3.6147      3.7040      3.9765      4.4450    
  5.1249      6.0237      7.1254      8.3798      9.7062      10.988      11.975      12.459      12.412      11.991    
  6.8857      6.0546      6.0547      6.8858      8.3237      9.9668      11.344      12.068      11.975      11.176    
  9.9878      8.7192      7.5078      6.4478      5.5941      4.9648      4.5554      4.3547      4.3545      4.5552    
  4.9649      5.5943      6.4478      7.5076      8.7191      9.9880      11.176      11.975      12.067      11.344    
  9.9672      8.3239      1.7754      1.0531      1.7754      3.7511      6.4601      9.2082      11.344      12.458    
  12.492      11.700      10.515      9.2547      8.0614      7.0323      6.2212      5.6462      5.3060      5.1938    
  5.3060      5.6462      6.2211      7.0323      8.0614      9.2547      10.515      11.700      12.492      12.459    
  11.344      9.2081      6.4599      3.7510     -2.6922     -2.6922     -.76143      2.5778      6.4601      9.9671    
  12.412      13.510      13.388      12.461      11.224      9.9464      8.7615      7.7624      6.9988      6.4891    
  6.2354      6.2355      6.4893      6.9987      7.7622      8.7614      9.9466      11.225      12.461      13.388    
  13.510      12.412      9.9672      6.4599      2.5777     -.76136     -5.3079     -4.0841     -.76138      3.7508    
  8.3237      11.991      14.208      14.919      14.455      13.344      12.044      10.745      9.5730      8.6116    
  7.9076      7.4812      7.3387      7.4812      7.9076      8.6116      9.5730      10.745      12.044      13.345    
  14.455      14.919      14.208      11.991      8.3239      3.7510     -.76136     -4.0842     -1.7867      1.7756    
  6.5296      11.237      14.912      17.067      17.717      17.232      16.135      14.830      13.482      12.217    
  11.135      10.312      9.8002      9.6265      9.8002      10.312      11.135      12.217      13.482      14.830    
  16.135      17.232      17.717      17.067      14.912      11.237      6.5297      1.7757     -1.7867     -3.1111    
  1.7756      6.0550      10.855      15.027      17.855      19.151      19.150      18.317      17.121      15.782    
  14.427      13.175      12.131      11.381      10.990      10.990      11.381      12.131      13.175      14.427    
  15.782      17.121      18.317      19.150      19.151      17.855      15.027      10.855      6.0547      1.7754    
 -.76145     -.76139      6.5296      10.855      15.062      18.270      20.090      20.589      20.125      19.146    
  17.924      16.581      15.233      14.001      13.006      12.355      12.128      12.355      13.006      14.001    
  15.233      16.581      17.924      19.146      20.125      20.590      20.091      18.270      15.062      10.855    
  6.5296      3.2472      2.0189      3.2472      11.237      15.027      18.270      20.419      21.364      21.324    
  20.671      19.686      18.478      17.145      15.802      14.574      13.617      13.088      13.088      13.617    
  14.574      15.802      17.145      18.478      19.686      20.671      21.324      21.364      20.419      18.270    
  15.027      11.237      7.8205      5.7811      5.7809      7.8201      14.912      17.855      20.090      21.364    
  21.745      21.495      20.852      19.904      18.719      17.368      15.952      14.665      13.751      13.419    
  13.751      14.665      15.952      17.368      18.719      19.904      20.852      21.495      21.745      21.364    
  20.091      17.855      14.912      11.873      9.5597      8.6925      9.5597      11.873      17.067      19.151    
  20.589      21.324      21.495      21.260      20.671      19.760      18.530      17.030      15.449      14.100    
  13.316      13.316      14.100      15.449      17.030      18.530      19.760      20.671      21.260      21.495    
  21.324      20.590      19.151      17.067      14.670      12.524      11.249      11.249      12.525      14.670    
  17.717      19.150      20.125      20.671      20.852      20.671      20.125      19.150      17.717      15.962    
  14.212      12.903      12.416      12.903      14.212      15.962      17.717      19.150      20.124      20.671    
  20.852      20.671      20.124      19.150      17.717      15.962      14.212      12.903      12.416      12.903    
  14.212      15.962      17.232      18.317      19.146      19.686      19.904      19.760      19.150      17.954    
  16.214      14.208      12.412      11.344      11.344      12.412      14.208      16.214      17.954      19.150    
  19.760      19.904      19.686      19.145      18.317      17.232      15.936      14.586      13.440      12.776    
  12.776      13.439      14.585      15.936      16.135      17.121      17.924      18.478      18.719      18.530    
  17.717      16.214      14.194      12.089      10.482      9.8782      10.481      12.089      14.194      16.214    
  17.717      18.530      18.719      18.478      17.924      17.121      16.135      15.049      13.958      12.992    
  12.316      12.072      12.316      12.992      13.958      15.049      14.830      15.782      16.581      17.145    
  17.368      17.030      15.962      14.208      12.089      10.152      8.9898      8.9897      10.152      12.089    
  14.208      15.962      17.030      17.368      17.145      16.581      15.782      14.830      13.811      12.814    
  11.937      11.278      10.922      10.922      11.278      11.937      12.814      13.811      13.482      14.427    
  15.233      15.802      15.952      15.449      14.212      12.412      10.482      8.9898      8.4278      8.9897    
  10.481      12.412      14.212      15.449      15.952      15.802      15.233      14.427      13.482      12.489    
  11.530      10.684      10.020      9.5951      9.4489      9.5951      10.020      10.684      11.530      12.489    
  12.217      13.175      14.001      14.574      14.665      14.100      12.903      11.344      9.8782      8.9897    
  8.9897      9.8781      11.344      12.903      14.100      14.665      14.574      14.001      13.175      12.217    
  11.220      10.267      9.4267      8.7519      8.2809      8.0391      8.0392      8.2810      8.7519      9.4265    
  10.267      11.220      11.135      12.131      13.006      13.617      13.751      13.316      12.416      11.344    
  10.481      10.152      10.481      11.344      12.416      13.316      13.751      13.617      13.006      12.131    