unknown system                          
   1.00000000000000     
     0.000000    2.515555    2.515555
     2.515555    0.000000    2.515555
     2.515555    2.515555    0.000000
   Si
     2
Direct
  0.000000  0.000000  0.000000
  0.250000  0.250000  0.250000
 
   32   32   32
 -.66039235546E+01 -.53075812829E+01 -.17866975562E+01 0.29992628448E+01 0.78614608483E+01
 0.11783855133E+02 0.14194038170E+02 0.15028133455E+02 0.14624229443E+02 0.13528378548E+02
 0.12222498567E+02 0.10911509841E+02 0.97241945643E+01 0.87479303564E+01 0.80316559645E+01
 0.75973004047E+01 0.74520791467E+01 0.75973137306E+01 0.80316673592E+01 0.87479254776E+01
 0.97241895744E+01 0.10911549939E+02 0.12222598288E+02 0.13528476379E+02 0.14624235827E+02
 0.15028017399E+02 0.14193841705E+02 0.11783643927E+02 0.78612972922E+01 0.29992002421E+01
 -.17866560649E+01 -.53075140730E+01 -.53075812829E+01 -.26914961355E+01 0.17756225928E+01
 0.68854981039E+01 0.11445552598E+02 0.14647452034E+02 0.16214008695E+02 0.16337059281E+02
 0.15498508400E+02 0.14248573624E+02 0.12898743260E+02 0.11594370663E+02 0.10448031520E+02
 0.95380644169E+01 0.89119296631E+01 0.85939822557E+01 0.85938477901E+01 0.89117527969E+01
 0.95381495540E+01 0.10448255860E+02 0.11594390207E+02 0.12898573152E+02 0.14248567977E+02
 0.15498745057E+02 0.16337155872E+02 0.16213728665E+02 0.14647130961E+02 0.11445587653E+02
 0.68856647736E+01 0.17753643654E+01 -.26921624298E+01 -.53079516400E+01 -.17866975562E+01
 0.17756225928E+01 0.65296374338E+01 0.11237010067E+02 0.14912190182E+02 0.17067138185E+02
 0.17717073456E+02 0.17231877419E+02 0.16135215147E+02 0.14830041812E+02 0.13482369531E+02
 0.12216875691E+02 0.11134895845E+02 0.10312361748E+02 0.98001582700E+01 0.96264795814E+01
 0.98001663133E+01 0.10312378471E+02 0.11134915907E+02 0.12216888265E+02 0.13482375458E+02
 0.14830064852E+02 0.16135271513E+02 0.17231929332E+02 0.17717049135E+02 0.17067021723E+02
 0.14912061437E+02 0.11236961710E+02 0.65296745770E+01 0.17756798894E+01 -.17866672221E+01
 -.31111093976E+01 0.29992628448E+01 0.68854981039E+01 0.11237010067E+02 0.15000704123E+02
 0.17517817885E+02 0.18619223244E+02 0.18529942462E+02 0.17689512504E+02 0.16525579588E+02
 0.15229168777E+02 0.13924311530E+02 0.12723538496E+02 0.11725704841E+02 0.11011885082E+02
 0.10639985658E+02 0.10640062069E+02 0.11012000146E+02 0.11725696141E+02 0.12723448204E+02
 0.13924308162E+02 0.15229270901E+02 0.16525636273E+02 0.17689469318E+02 0.18529932758E+02
 0.18619310879E+02 0.17517839476E+02 0.15000546144E+02 0.11236903941E+02 0.68857694348E+01
 0.29998055351E+01 0.69462517346E+00 0.69434039175E+00 0.78614608483E+01 0.11445552598E+02
 0.14912190182E+02 0.17517817885E+02 0.18933966718E+02 0.19227139498E+02 0.18719201343E+02
 0.17795746545E+02 0.16656721352E+02 0.15414468107E+02 0.14178560309E+02 0.13058694711E+02
 0.12161320688E+02 0.11579268805E+02 0.11377267171E+02 0.11579277101E+02 0.12161355560E+02
 0.13058739762E+02 0.14178574235E+02 0.15414449905E+02 0.16656708926E+02 0.17795754141E+02
 0.18719217658E+02 0.19227172639E+02 0.18934022886E+02 0.17517851834E+02 0.14912150521E+02
 0.11445468249E+02 0.78614077638E+01 0.51367333873E+01 0.41166119629E+01 0.51367397961E+01
 0.11783855133E+02 0.14647452034E+02 0.17067138185E+02 0.18619223244E+02 0.19227139498E+02
 0.19080188404E+02 0.18478196248E+02 0.17595977837E+02 0.16525607268E+02 0.15360278080E+02
 0.14203896631E+02 0.13171732892E+02 0.12382642725E+02 0.11951622289E+02 0.11951628999E+02
 0.12382674378E+02 0.13171792349E+02 0.14203948427E+02 0.15360287549E+02 0.16525583504E+02
 0.17595951908E+02 0.18478182817E+02 0.19080196318E+02 0.19227180477E+02 0.18619266403E+02
 0.17067093460E+02 0.14647250235E+02 0.11783541109E+02 0.91898625014E+01 0.76395531495E+01
 0.76396657141E+01 0.91901455643E+01 0.14194038170E+02 0.16214008695E+02 0.17717073456E+02
 0.18529942462E+02 0.18719201343E+02 0.18478196248E+02 0.17924154463E+02 0.17120808084E+02
 0.16135224360E+02 0.15049173207E+02 0.13957813730E+02 0.12991626496E+02 0.12315901002E+02
 0.12072066977E+02 0.12315973319E+02 0.12991707123E+02 0.13957862714E+02 0.15049205213E+02
 0.16135251904E+02 0.17120815351E+02 0.17924141244E+02 0.18478189210E+02 0.18719203850E+02
 0.18529924010E+02 0.17717015282E+02 0.16213924841E+02 0.14193943397E+02 0.12089278560E+02
 0.10481486579E+02 0.98781751117E+01 0.10481555006E+02 0.12089375586E+02 0.15028133455E+02
 0.16337059281E+02 0.17231877419E+02 0.17689512504E+02 0.17795746545E+02 0.17595977837E+02
 0.17120808084E+02 0.16405615256E+02 0.15498497982E+02 0.14454532003E+02 0.13388094114E+02
 0.12491847859E+02 0.11975128157E+02 0.11975161844E+02 0.12491925104E+02 0.13388176021E+02
 0.14454599068E+02 0.15498537375E+02 0.16405627032E+02 0.17120826754E+02 0.17596023082E+02
 0.17795760448E+02 0.17689444871E+02 0.17231825287E+02 0.16337165294E+02 0.15028337201E+02
 0.13511497736E+02 0.12148882776E+02 0.11337242258E+02 0.11337332550E+02 0.12148999276E+02
 0.13511424483E+02 0.14624229443E+02 0.15498508400E+02 0.16135215147E+02 0.16525579588E+02
 0.16656721352E+02 0.16525607268E+02 0.16135224360E+02 0.15498497982E+02 0.14624243412E+02
 0.13580456196E+02 0.12548974002E+02 0.11780311580E+02 0.11494803100E+02 0.11780378681E+02
 0.12549040700E+02 0.13580489416E+02 0.14624267480E+02 0.15498522704E+02 0.16135238468E+02
 0.16525632431E+02 0.16656788202E+02 0.16525653765E+02 0.16135235713E+02 0.15498496045E+02
 0.14624262656E+02 0.13580506568E+02 0.12549034246E+02 0.11780348315E+02 0.11494793900E+02
 0.11780323229E+02 0.12548961073E+02 0.13580419371E+02 0.13528378548E+02 0.14248573624E+02
 0.14830041812E+02 0.15229168777E+02 0.15414468107E+02 0.15360278080E+02 0.15049173207E+02
 0.14454532003E+02 0.13580456196E+02 0.12558249011E+02 0.11633680597E+02 0.11080790674E+02
 0.11080816031E+02 0.11633726643E+02 0.12558268925E+02 0.13580446007E+02 0.14454512821E+02
 0.15049152186E+02 0.15360272470E+02 0.15414530198E+02 0.15229315510E+02 0.14830164737E+02
 0.14248519707E+02 0.13528163118E+02 0.12733798572E+02 0.11949755038E+02 0.11302271059E+02
 0.10931828897E+02 0.10931658404E+02 0.11301945237E+02 0.11949609468E+02 0.12733937204E+02
 0.12222498567E+02 0.12898743260E+02 0.13482369531E+02 0.13924311530E+02 0.14178560309E+02
 0.14203896631E+02 0.13957813730E+02 0.13388094114E+02 0.12548974002E+02 0.11633680597E+02
 0.10918122907E+02 0.10646981545E+02 0.10918128725E+02 0.11633706743E+02 0.12548998973E+02
 0.13388074377E+02 0.13957754005E+02 0.14203852149E+02 0.14178560471E+02 0.13924334930E+02
 0.13482398838E+02 0.12898784086E+02 0.12222545384E+02 0.11509403041E+02 0.10826387931E+02
 0.10251786443E+02 0.98649415899E+01 0.97278103936E+01 0.98649037359E+01 0.10251748508E+02
 0.10826363146E+02 0.11509369972E+02 0.10911509841E+02 0.11594370663E+02 0.12216875691E+02
 0.12723538496E+02 0.13058694711E+02 0.13171732892E+02 0.12991626496E+02 0.12491847859E+02
 0.11780311580E+02 0.11080790674E+02 0.10646981545E+02 0.10646995052E+02 0.11080824165E+02
 0.11780343265E+02 0.12491856500E+02 0.12991616696E+02 0.13171715135E+02 0.13058643946E+02
 0.12723426807E+02 0.12216768996E+02 0.11594413716E+02 0.10911751119E+02 0.10221851272E+02
 0.95765335103E+01 0.90276360613E+01 0.86253950284E+01 0.84120155345E+01 0.84121496079E+01
 0.86256822000E+01 0.90278246454E+01 0.95764533084E+01 0.10221572116E+02 0.97241945643E+01
 0.10448031520E+02 0.11134895845E+02 0.11725704841E+02 0.12161320688E+02 0.12382642725E+02
 0.12315901002E+02 0.11975128157E+02 0.11494803100E+02 0.11080816031E+02 0.10918128725E+02
 0.11080824165E+02 0.11494818555E+02 0.11975147973E+02 0.12315919571E+02 0.12382652313E+02
 0.12161317238E+02 0.11725692732E+02 0.11134886878E+02 0.10448036642E+02 0.97242103944E+01
 0.90162921435E+01 0.83692180275E+01 0.78206198881E+01 0.74020973709E+01 0.71392493265E+01
 0.70495521518E+01 0.71393047675E+01 0.74021782813E+01 0.78206861387E+01 0.83692457296E+01
 0.90162861281E+01 0.87479303564E+01 0.95380644169E+01 0.10312361748E+02 0.11011885082E+02
 0.11579268805E+02 0.11951622289E+02 0.12072066977E+02 0.11975161844E+02 0.11780378681E+02
 0.11633726643E+02 0.11633706743E+02 0.11780343265E+02 0.11975147973E+02 0.12072075529E+02
 0.11951634567E+02 0.11579305834E+02 0.11011993661E+02 0.10312514807E+02 0.95381297334E+01
 0.87478010692E+01 0.79932648449E+01 0.73152160761E+01 0.67432052100E+01 0.62977178369E+01
 0.59928315593E+01 0.58379184465E+01 0.58378723477E+01 0.59927086441E+01 0.62975933789E+01
 0.67432087082E+01 0.73154046862E+01 0.79935207824E+01 0.80316559645E+01 0.89119296631E+01
 0.98001582700E+01 0.10639985658E+02 0.11377267171E+02 0.11951628999E+02 0.12315973319E+02
 0.12491925104E+02 0.12549040700E+02 0.12558268925E+02 0.12548998973E+02 0.12491856500E+02
 0.12315919571E+02 0.11951634567E+02 0.11377329792E+02 0.10640053964E+02 0.98001892131E+01
 0.89119325520E+01 0.80316674372E+01 0.72083058749E+01 0.64782072876E+01 0.58647414886E+01
 0.53808116425E+01 0.50325672478E+01 0.48227570971E+01 0.47526827687E+01 0.48227667547E+01
 0.50325749730E+01 0.53808036517E+01 0.58647114915E+01 0.64781636126E+01 0.72082704405E+01
 0.75973004047E+01 0.85939822557E+01 0.96264795814E+01 0.10640062069E+02 0.11579277101E+02
 0.12382674378E+02 0.12991707123E+02 0.13388176021E+02 0.13580489416E+02 0.13580446007E+02
 0.13388074377E+02 0.12991616696E+02 0.12382652313E+02 0.11579305834E+02 0.10640053964E+02
 0.96263828108E+01 0.85938797343E+01 0.75973483878E+01 0.66827436611E+01 0.58819284152E+01
 0.52122526195E+01 0.46798566559E+01 0.42843382397E+01 0.40228694280E+01 0.38928208639E+01
 0.38928317285E+01 0.40229293458E+01 0.42844504401E+01 0.46799111210E+01 0.52121212630E+01
 0.58816443537E+01 0.66825018280E+01 0.74520791467E+01 0.85938477901E+01 0.98001663133E+01
 0.11012000146E+02 0.12161355560E+02 0.13171792349E+02 0.13957862714E+02 0.14454599068E+02
 0.14624267480E+02 0.14454512821E+02 0.13957754005E+02 0.13171715135E+02 0.12161317238E+02
 0.11011993661E+02 0.98001892131E+01 0.85938797343E+01 0.74520848662E+01 0.64204137793E+01
 0.55275791771E+01 0.47856101764E+01 0.41940196691E+01 0.37457563962E+01 0.34323664422E+01
 0.32470387957E+01 0.31856904551E+01 0.32470050515E+01 0.34323149525E+01 0.37457027282E+01
 0.41939785883E+01 0.47856006619E+01 0.55276037540E+01 0.64204406577E+01 0.75973137306E+01
 0.89117527969E+01 0.10312378471E+02 0.11725696141E+02 0.13058739762E+02 0.14203948427E+02
 0.15049205213E+02 0.15498537375E+02 0.15498522704E+02 0.15049152186E+02 0.14203852149E+02
 0.13058643946E+02 0.11725692732E+02 0.10312514807E+02 0.89119325520E+01 0.75973483878E+01
 0.64204137793E+01 0.54102644651E+01 0.45756270283E+01 0.39103368005E+01 0.34006831085E+01
 0.30319502310E+01 0.27923575460E+01 0.26743403442E+01 0.26743272151E+01 0.27922975011E+01
 0.30318237171E+01 0.34005481231E+01 0.39103262721E+01 0.45758220076E+01 0.54105689764E+01
 0.64206114171E+01 0.80316673592E+01 0.95381495540E+01 0.11134915907E+02 0.12723448204E+02
 0.14178574235E+02 0.15360287549E+02 0.16135251904E+02 0.16405627032E+02 0.16135238468E+02
 0.15360272470E+02 0.14178560471E+02 0.12723426807E+02 0.11134886878E+02 0.95381297334E+01
 0.80316674372E+01 0.66827436611E+01 0.55275791771E+01 0.45756270283E+01 0.38172124038E+01
 0.32327735643E+01 0.28011013264E+01 0.25045810623E+01 0.23311301964E+01 0.22740199391E+01
 0.23311261410E+01 0.25045824061E+01 0.28011198721E+01 0.32328136510E+01 0.38172638904E+01
 0.45756680500E+01 0.55275933427E+01 0.66827382973E+01 0.87479254776E+01 0.10448255860E+02
 0.12216888265E+02 0.13924308162E+02 0.15414449905E+02 0.16525583504E+02 0.17120815351E+02
 0.17120826754E+02 0.16525632431E+02 0.15414530198E+02 0.13924334930E+02 0.12216768996E+02
 0.10448036642E+02 0.87478010692E+01 0.72083058749E+01 0.58819284152E+01 0.47856101764E+01
 0.39103368005E+01 0.32327735643E+01 0.27257679508E+01 0.23654126840E+01 0.21341612530E+01
 0.20210982337E+01 0.20211007104E+01 0.21341804070E+01 0.23654828834E+01 0.27259070589E+01
 0.32329093258E+01 0.39103234109E+01 0.47853878306E+01 0.58816414853E+01 0.72081861842E+01
 0.97241895744E+01 0.11594390207E+02 0.13482375458E+02 0.15229270901E+02 0.16656708926E+02
 0.17595951908E+02 0.17924141244E+02 0.17596023082E+02 0.16656788202E+02 0.15229315510E+02
 0.13482398838E+02 0.11594413716E+02 0.97242103944E+01 0.79932648449E+01 0.64782072876E+01
 0.52122526195E+01 0.41940196691E+01 0.34006831085E+01 0.28011013264E+01 0.23654126840E+01
 0.20699932501E+01 0.18987661544E+01 0.18426658183E+01 0.18987844331E+01 0.20700220241E+01
 0.23654458820E+01 0.28011278471E+01 0.34006802068E+01 0.41939776908E+01 0.52121969386E+01
 0.64781699033E+01 0.79932452575E+01 0.10911549939E+02 0.12898573152E+02 0.14830064852E+02
 0.16525636273E+02 0.17795754141E+02 0.18478182817E+02 0.18478189210E+02 0.17795760448E+02
 0.16525653765E+02 0.14830164737E+02 0.12898784086E+02 0.10911751119E+02 0.90162921435E+01
 0.73152160761E+01 0.58647414886E+01 0.46798566559E+01 0.37457563962E+01 0.30319502310E+01
 0.25045810623E+01 0.21341612530E+01 0.18987661544E+01 0.17844172494E+01 0.17844242569E+01
 0.18987872683E+01 0.21341737856E+01 0.25045318424E+01 0.30318277203E+01 0.37456594735E+01
 0.46799194611E+01 0.58649607025E+01 0.73154081288E+01 0.90162772928E+01 0.12222598288E+02
 0.14248567977E+02 0.16135271513E+02 0.17689469318E+02 0.18719217658E+02 0.19080196318E+02
 0.18719203850E+02 0.17689444871E+02 0.16135235713E+02 0.14248519707E+02 0.12222545384E+02
 0.10221851272E+02 0.83692180275E+01 0.67432052100E+01 0.53808116425E+01 0.42843382397E+01
 0.34323664422E+01 0.27923575460E+01 0.23311301964E+01 0.20210982337E+01 0.18426658183E+01
 0.17844242569E+01 0.18426617469E+01 0.20210913580E+01 0.23311125403E+01 0.27923201807E+01
 0.34323204268E+01 0.42843097906E+01 0.53808138414E+01 0.67432292163E+01 0.83692532164E+01
 0.10221897020E+02 0.13528476379E+02 0.15498745057E+02 0.17231929332E+02 0.18529932758E+02
 0.19227172639E+02 0.19227180477E+02 0.18529924010E+02 0.17231825287E+02 0.15498496045E+02
 0.13528163118E+02 0.11509403041E+02 0.95765335103E+01 0.78206198881E+01 0.62977178369E+01
 0.50325672478E+01 0.40228694280E+01 0.32470387957E+01 0.26743403442E+01 0.22740199391E+01
 0.20211007104E+01 0.18987844331E+01 0.18987872683E+01 0.20210913580E+01 0.22739815592E+01
 0.26743088397E+01 0.32470731751E+01 0.40229521716E+01 0.50325811925E+01 0.62975799130E+01
 0.78204227752E+01 0.95764816923E+01 0.11509591226E+02 0.14624235827E+02 0.16337155872E+02
 0.17717049135E+02 0.18619310879E+02 0.18934022886E+02 0.18619266403E+02 0.17717015282E+02
 0.16337165294E+02 0.14624262656E+02 0.12733798572E+02 0.10826387931E+02 0.90276360613E+01
 0.74020973709E+01 0.59928315593E+01 0.48227570971E+01 0.38928208639E+01 0.31856904551E+01
 0.26743272151E+01 0.23311261410E+01 0.21341804070E+01 0.20700220241E+01 0.21341737856E+01
 0.23311125403E+01 0.26743088397E+01 0.31856791080E+01 0.38928338127E+01 0.48227969582E+01
 0.59928787080E+01 0.74021337378E+01 0.90276614945E+01 0.10826403023E+02 0.12733791547E+02
 0.15028017399E+02 0.16213728665E+02 0.17067021723E+02 0.17517839476E+02 0.17517851834E+02
 0.17067093460E+02 0.16213924841E+02 0.15028337201E+02 0.13580506568E+02 0.11949755038E+02
 0.10251786443E+02 0.86253950284E+01 0.71392493265E+01 0.58379184465E+01 0.47526827687E+01
 0.38928317285E+01 0.32470050515E+01 0.27922975011E+01 0.25045824061E+01 0.23654828834E+01
 0.23654458820E+01 0.25045318424E+01 0.27923201807E+01 0.32470731751E+01 0.38928338127E+01
 0.47525977630E+01 0.58378804442E+01 0.71393870884E+01 0.86256435200E+01 0.10251926016E+02
 0.11949636426E+02 0.13580193313E+02 0.14193841705E+02 0.14647130961E+02 0.14912061437E+02
 0.15000546144E+02 0.14912150521E+02 0.14647250235E+02 0.14193943397E+02 0.13511497736E+02
 0.12549034246E+02 0.11302271059E+02 0.98649415899E+01 0.84120155345E+01 0.70495521518E+01
 0.58378723477E+01 0.48227667547E+01 0.40229293458E+01 0.34323149525E+01 0.30318237171E+01
 0.28011198721E+01 0.27259070589E+01 0.28011278471E+01 0.30318277203E+01 0.34323204268E+01
 0.40229521716E+01 0.48227969582E+01 0.58378804442E+01 0.70495324982E+01 0.84119884420E+01
 0.98649143840E+01 0.11302229379E+02 0.12548972085E+02 0.13511418592E+02 0.11783643927E+02
 0.11445587653E+02 0.11236961710E+02 0.11236903941E+02 0.11445468249E+02 0.11783541109E+02
 0.12089278560E+02 0.12148882776E+02 0.11780348315E+02 0.10931828897E+02 0.97278103936E+01
 0.84121496079E+01 0.71393047675E+01 0.59927086441E+01 0.50325749730E+01 0.42844504401E+01
 0.37457027282E+01 0.34005481231E+01 0.32328136510E+01 0.32329093258E+01 0.34006802068E+01
 0.37456594735E+01 0.42843097906E+01 0.50325811925E+01 0.59928787080E+01 0.71393870884E+01
 0.84119884420E+01 0.97275564687E+01 0.10931717497E+02 0.11780414741E+02 0.12148998556E+02
 0.12089370994E+02 0.78612972922E+01 0.68856647736E+01 0.65296745770E+01 0.68857694348E+01
 0.78614077638E+01 0.91898625014E+01 0.10481486579E+02 0.11337242258E+02 0.11494793900E+02
 0.10931658404E+02 0.98649037359E+01 0.86256822000E+01 0.74021782813E+01 0.62975933789E+01
 0.53808036517E+01 0.46799111210E+01 0.41939785883E+01 0.39103262721E+01 0.38172638904E+01
 0.39103234109E+01 0.41939776908E+01 0.46799194611E+01 0.53808138414E+01 0.62975799130E+01
 0.74021337378E+01 0.86256435200E+01 0.98649143840E+01 0.10931717497E+02 0.11494869092E+02
 0.11337309230E+02 0.10481521690E+02 0.91898268180E+01 0.29992002421E+01 0.17753643654E+01
 0.17756798894E+01 0.29998055351E+01 0.51367333873E+01 0.76395531495E+01 0.98781751117E+01
 0.11337332550E+02 0.11780323229E+02 0.11301945237E+02 0.10251748508E+02 0.90278246454E+01
 0.78206861387E+01 0.67432087082E+01 0.58647114915E+01 0.52121212630E+01 0.47856006619E+01
 0.45758220076E+01 0.45756680500E+01 0.47853878306E+01 0.52121969386E+01 0.58649607025E+01
 0.67432292163E+01 0.78204227752E+01 0.90276614945E+01 0.10251926016E+02 0.11302229379E+02
 0.11780414741E+02 0.11337309230E+02 0.98782477080E+01 0.76395866585E+01 0.51364023937E+01
 -.17866560649E+01 -.26921624298E+01 -.17866672221E+01 0.69462517346E+00 0.41166119629E+01
 0.76396657141E+01 0.10481555006E+02 0.12148999276E+02 0.12548961073E+02 0.11949609468E+02
 0.10826363146E+02 0.95764533084E+01 0.83692457296E+01 0.73154046862E+01 0.64781636126E+01
 0.58816443537E+01 0.55276037540E+01 0.54105689764E+01 0.55275933427E+01 0.58816414853E+01
 0.64781699033E+01 0.73154081288E+01 0.83692532164E+01 0.95764816923E+01 0.10826403023E+02
 0.11949636426E+02 0.12548972085E+02 0.12148998556E+02 0.10481521690E+02 0.76395866585E+01
 0.41165299212E+01 0.69459521967E+00 -.53075140730E+01 -.53079516400E+01 -.31111093976E+01
 0.69434039175E+00 0.51367397961E+01 0.91901455643E+01 0.12089375586E+02 0.13511424483E+02
 0.13580419371E+02 0.12733937204E+02 0.11509369972E+02 0.10221572116E+02 0.90162861281E+01
 0.79935207824E+01 0.72082704405E+01 0.66825018280E+01 0.64204406577E+01 0.64206114171E+01
 0.66827382973E+01 0.72081861842E+01 0.79932452575E+01 0.90162772928E+01 0.10221897020E+02
 0.11509591226E+02 0.12733791547E+02 0.13580193313E+02 0.13511418592E+02 0.12089370994E+02
 0.91898268180E+01 0.51364023937E+01 0.69459521967E+00 -.31103323190E+01 -.53075853993E+01
 -.26915127898E+01 0.17756054557E+01 0.68854847721E+01 0.11445533841E+02 0.14647426957E+02
 0.16213989925E+02 0.16337050862E+02 0.15498500508E+02 0.14248564474E+02 0.12898743992E+02
 0.11594382992E+02 0.10448042688E+02 0.95380699235E+01 0.89119391532E+01 0.85939977016E+01
 0.85938581303E+01 0.89117556889E+01 0.95381562600E+01 0.10448268974E+02 0.11594398483E+02
 0.12898573750E+02 0.14248571767E+02 0.15498754556E+02 0.16337160176E+02 0.16213725753E+02
 0.14647132833E+02 0.11445597707E+02 0.68856719308E+01 0.17753648551E+01 -.26921595922E+01
 -.53079460240E+01 -.26915127898E+01 0.10538878608E+01 0.60549900757E+01 0.11015319079E+02
 0.14904845072E+02 0.17213415192E+02 0.17953600246E+02 0.17504611065E+02 0.16405640512E+02
 0.15084709847E+02 0.13716621021E+02 0.12428616736E+02 0.11324909950E+02 0.10484309541E+02
 0.99601475183E+01 0.97822705926E+01 0.99601299814E+01 0.10484323370E+02 0.11324962589E+02
 0.12428651716E+02 0.13716613708E+02 0.15084717570E+02 0.16405702002E+02 0.17504661696E+02
 0.17953585200E+02 0.17213426506E+02 0.14904977626E+02 0.11015388074E+02 0.60546261875E+01
 0.10530592754E+01 -.26922472415E+01 -.40840891500E+01 0.17756054557E+01 0.60549900757E+01
 0.10855110950E+02 0.15027267211E+02 0.17854803009E+02 0.19150800531E+02 0.19150267609E+02
 0.18317118860E+02 0.17120805378E+02 0.15781642472E+02 0.14427371125E+02 0.13175354774E+02
 0.12130657845E+02 0.11380948108E+02 0.10989591128E+02 0.10989682539E+02 0.11381095596E+02
 0.12130674446E+02 0.13175267166E+02 0.14427350331E+02 0.15781724583E+02 0.17120855554E+02
 0.18317078347E+02 0.19150267487E+02 0.19150955007E+02 0.17855006962E+02 0.15027309773E+02
 0.10854935272E+02 0.60547382253E+01 0.17754322715E+01 -.76143090220E+00 -.76137659934E+00
 0.68854847721E+01 0.11015319079E+02 0.15027267211E+02 0.18077513417E+02 0.19791978539E+02
 0.20236802651E+02 0.19760029533E+02 0.18795704245E+02 0.17595950225E+02 0.16279189325E+02
 0.14960209066E+02 0.13757114692E+02 0.12787517430E+02 0.12154940340E+02 0.11934645140E+02
 0.12155106426E+02 0.12787668280E+02 0.13757124060E+02 0.14960139840E+02 0.16279154901E+02
 0.17595950435E+02 0.18795691201E+02 0.19760055710E+02 0.20236950809E+02 0.19792166387E+02
 0.18077550659E+02 0.15027159743E+02 0.11015333785E+02 0.68857788600E+01 0.37511210160E+01
 0.25778409160E+01 0.37507900585E+01 0.11445533841E+02 0.14904845072E+02 0.17854803009E+02
 0.19791978539E+02 0.20617367054E+02 0.20538392812E+02 0.19903687696E+02 0.18955637930E+02
 0.17795745395E+02 0.16521347170E+02 0.15244102440E+02 0.14086393942E+02 0.13189970781E+02
 0.12696846659E+02 0.12696947630E+02 0.13190191260E+02 0.14086565183E+02 0.15244125250E+02
 0.16521263687E+02 0.17795653639E+02 0.18955582262E+02 0.19903671482E+02 0.20538448027E+02
 0.20617517557E+02 0.19792143014E+02 0.17854843339E+02 0.14904738283E+02 0.11445404586E+02
 0.83236860714E+01 0.64601172530E+01 0.64601203162E+01 0.83237381970E+01 0.14647426957E+02
 0.17213415192E+02 0.19150800531E+02 0.20236802651E+02 0.20538392812E+02 0.20291999280E+02
 0.19686358444E+02 0.18795725043E+02 0.17689535295E+02 0.16447317059E+02 0.15165348618E+02
 0.14010648060E+02 0.13195317655E+02 0.12899921277E+02 0.13195549859E+02 0.14010933076E+02
 0.15165503808E+02 0.16447304090E+02 0.17689436216E+02 0.18795623191E+02 0.19686285055E+02
 0.20291973936E+02 0.20538445616E+02 0.20236925514E+02 0.19150897027E+02 0.17213347320E+02
 0.14647138529E+02 0.11990632717E+02 0.99668408399E+01 0.92082242313E+01 0.99671299727E+01
 0.11991032602E+02 0.16213989925E+02 0.17953600246E+02 0.19150267609E+02 0.19760029533E+02
 0.19903687696E+02 0.19686358444E+02 0.19145550794E+02 0.18317106630E+02 0.17231873079E+02
 0.15935868172E+02 0.14585458552E+02 0.13439296450E+02 0.12775548538E+02 0.12775695845E+02
 0.13439615367E+02 0.14585723234E+02 0.15935974121E+02 0.17231854696E+02 0.18317025483E+02
 0.19145458982E+02 0.19686311228E+02 0.19903697706E+02 0.19760036183E+02 0.19150220579E+02
 0.17953529775E+02 0.16213944877E+02 0.14208420147E+02 0.12412196051E+02 0.11343661770E+02
 0.11343682445E+02 0.12412232935E+02 0.14208449309E+02 0.16337050862E+02 0.17504611065E+02
 0.18317118860E+02 0.18795704245E+02 0.18955637930E+02 0.18795725043E+02 0.18317106630E+02
 0.17504566799E+02 0.16337030623E+02 0.14919356697E+02 0.13510376784E+02 0.12458442934E+02
 0.12067505432E+02 0.12458581651E+02 0.13510588264E+02 0.14919560135E+02 0.16337155437E+02
 0.17504568819E+02 0.18317022897E+02 0.18795665382E+02 0.18955646218E+02 0.18795693014E+02
 0.18317023820E+02 0.17504542745E+02 0.16337156293E+02 0.14919588054E+02 0.13510589950E+02
 0.12458558743E+02 0.12067513880E+02 0.12458483654E+02 0.13510394968E+02 0.14919350239E+02
 0.15498500508E+02 0.16405640512E+02 0.17120805378E+02 0.17595950225E+02 0.17795745395E+02
 0.17689535295E+02 0.17231873079E+02 0.16337030623E+02 0.15028132205E+02 0.13511448990E+02
 0.12148999214E+02 0.11337310603E+02 0.11337248823E+02 0.12148914103E+02 0.13511501605E+02
 0.15028315496E+02 0.16337168948E+02 0.17231851924E+02 0.17689443665E+02 0.17795734137E+02
 0.17596022837E+02 0.17120850076E+02 0.16405622910E+02 0.15498508469E+02 0.14454596686E+02
 0.13388198107E+02 0.12491921355E+02 0.11975135569E+02 0.11975130711E+02 0.12491876221E+02
 0.13388096158E+02 0.14454509127E+02 0.14248564474E+02 0.15084709847E+02 0.15781642472E+02
 0.16279189325E+02 0.16521347170E+02 0.16447317059E+02 0.15935868172E+02 0.14919356697E+02
 0.13511448990E+02 0.12022714150E+02 0.10877173142E+02 0.10445909979E+02 0.10876900651E+02
 0.12022453178E+02 0.13511422615E+02 0.14919497425E+02 0.15935965009E+02 0.16447287236E+02
 0.16521294142E+02 0.16279237257E+02 0.15781781143E+02 0.15084805391E+02 0.14248507630E+02
 0.13344262340E+02 0.12461046887E+02 0.11700205613E+02 0.11176275060E+02 0.10988413073E+02
 0.11176152327E+02 0.11700132441E+02 0.12461135364E+02 0.13344421125E+02 0.12898743992E+02
 0.13716621021E+02 0.14427371125E+02 0.14960209066E+02 0.15244102440E+02 0.15165348618E+02
 0.14585458552E+02 0.13510376784E+02 0.12148999214E+02 0.10877173142E+02 0.10106272270E+02
 0.10106046538E+02 0.10876721908E+02 0.12148721040E+02 0.13510395672E+02 0.14585587815E+02
 0.15165400708E+02 0.15244067947E+02 0.14960162893E+02 0.14427353977E+02 0.13716638248E+02
 0.12898785294E+02 0.12044107154E+02 0.11224508521E+02 0.10514578244E+02 0.99878486722E+01
 0.97063394702E+01 0.97063284093E+01 0.99878319879E+01 0.10514571488E+02 0.11224494034E+02
 0.12044069579E+02 0.11594382992E+02 0.12428616736E+02 0.13175354774E+02 0.13757114692E+02
 0.14086393942E+02 0.14010648060E+02 0.13439296450E+02 0.12458442934E+02 0.11337310603E+02
 0.10445909979E+02 0.10106046538E+02 0.10445478611E+02 0.11336856401E+02 0.12458301742E+02
 0.13439414320E+02 0.14010773242E+02 0.14086399526E+02 0.13757034083E+02 0.13175239013E+02
 0.12428513608E+02 0.11594391068E+02 0.10745454475E+02 0.99465899608E+01 0.92547280195E+01
 0.87190688264E+01 0.83796302740E+01 0.82633824709E+01 0.83798408788E+01 0.87192406164E+01
 0.92546603905E+01 0.99463524010E+01 0.10745273109E+02 0.10448042688E+02 0.11324909950E+02
 0.12130657845E+02 0.12787517430E+02 0.13189970781E+02 0.13195317655E+02 0.12775548538E+02
 0.12067505432E+02 0.11337248823E+02 0.10876900651E+02 0.10876721908E+02 0.11336856401E+02
 0.12067190987E+02 0.12775483662E+02 0.13195439283E+02 0.13190103899E+02 0.12787562143E+02
 0.12130640209E+02 0.11324892683E+02 0.10448044512E+02 0.95730215162E+01 0.87614578308E+01
 0.80613372364E+01 0.75077752312E+01 0.71253610568E+01 0.69301238627E+01 0.69301527367E+01
 0.71254288017E+01 0.75078450962E+01 0.80613852829E+01 0.87614784712E+01 0.95730209847E+01
 0.95380699235E+01 0.10484309541E+02 0.11380948108E+02 0.12154940340E+02 0.12696846659E+02
 0.12899921277E+02 0.12775695845E+02 0.12458581651E+02 0.12148914103E+02 0.12022453178E+02
 0.12148721040E+02 0.12458301742E+02 0.12775483662E+02 0.12899879415E+02 0.12696959556E+02
 0.12155116321E+02 0.11381114294E+02 0.10484433020E+02 0.95381087207E+01 0.86114939783E+01
 0.77622149036E+01 0.70321143964E+01 0.64477430346E+01 0.60237852906E+01 0.57673736996E+01
 0.56815638492E+01 0.57672511430E+01 0.60236790459E+01 0.64477898811E+01 0.70323110871E+01
 0.77624263951E+01 0.86115911368E+01 0.89119391532E+01 0.99601475183E+01 0.10989591128E+02
 0.11934645140E+02 0.12696947630E+02 0.13195549859E+02 0.13439615367E+02 0.13510588264E+02
 0.13511501605E+02 0.13511422615E+02 0.13510395672E+02 0.13439414320E+02 0.13195439283E+02
 0.12696959556E+02 0.11934735602E+02 0.10989686369E+02 0.99601994370E+01 0.89119480862E+01
 0.79075770324E+01 0.69988249791E+01 0.62211987209E+01 0.55941302093E+01 0.51249157754E+01
 0.48139680064E+01 0.46592999112E+01 0.46593074661E+01 0.48139752231E+01 0.51248973536E+01
 0.55940853956E+01 0.62211542290E+01 0.69988055684E+01 0.79075785337E+01 0.85939977016E+01
 0.97822705926E+01 0.10989682539E+02 0.12155106426E+02 0.13190191260E+02 0.14010933076E+02
 0.14585723234E+02 0.14919560135E+02 0.15028315496E+02 0.14919497425E+02 0.14585587815E+02
 0.14010773242E+02 0.13190103899E+02 0.12155116321E+02 0.10989686369E+02 0.97821717327E+01
 0.85938683916E+01 0.74812453048E+01 0.64892873946E+01 0.56464478658E+01 0.49649053574E+01
 0.44449455656E+01 0.40807945119E+01 0.38655930782E+01 0.37944372346E+01 0.38656239900E+01
 0.40808615125E+01 0.44449743629E+01 0.49647794586E+01 0.56461802679E+01 0.64890639461E+01
 0.74812252095E+01 0.85938581303E+01 0.99601299814E+01 0.11381095596E+02 0.12787668280E+02
 0.14086565183E+02 0.15165503808E+02 0.15935974121E+02 0.16337155437E+02 0.16337168948E+02
 0.15935965009E+02 0.15165400708E+02 0.14086399526E+02 0.12787562143E+02 0.11381114294E+02
 0.99601994370E+01 0.85938683916E+01 0.73386872183E+01 0.62353798904E+01 0.53060401489E+01
 0.45554588885E+01 0.39765112281E+01 0.35568969180E+01 0.32845319460E+01 0.31505699036E+01
 0.31505278111E+01 0.32844570067E+01 0.35568613844E+01 0.39765051836E+01 0.45554374268E+01
 0.53060219243E+01 0.62354117209E+01 0.73387387084E+01 0.89117556889E+01 0.10484323370E+02
 0.12130674446E+02 0.13757124060E+02 0.15244125250E+02 0.16447304090E+02 0.17231854696E+02
 0.17504568819E+02 0.17231851924E+02 0.16447287236E+02 0.15244067947E+02 0.13757034083E+02
 0.12130640209E+02 0.10484433020E+02 0.89119480862E+01 0.74812453048E+01 0.62353798904E+01
 0.51934744781E+01 0.43544585195E+01 0.37039933266E+01 0.32225886146E+01 0.28920909169E+01
 0.26990605509E+01 0.26355827222E+01 0.26990433782E+01 0.28920093689E+01 0.32224710873E+01
 0.37039808738E+01 0.43546510133E+01 0.51937696845E+01 0.62355459081E+01 0.74811701368E+01
 0.95381562600E+01 0.11324962589E+02 0.13175267166E+02 0.14960139840E+02 0.16521263687E+02
 0.17689436216E+02 0.18317025483E+02 0.18317022897E+02 0.17689443665E+02 0.16521294142E+02
 0.14960162893E+02 0.13175239013E+02 0.11324892683E+02 0.95381087207E+01 0.79075770324E+01
 0.64892873946E+01 0.53060401489E+01 0.43544585195E+01 0.36146440067E+01 0.30602328876E+01
 0.26663036462E+01 0.24137314926E+01 0.22903355253E+01 0.22903460798E+01 0.24137494278E+01
 0.26663159628E+01 0.30602572719E+01 0.36146971321E+01 0.43545112620E+01 0.53060453664E+01