   2   2   0   0
  0.1591847E+02  0.3557532E-09  0.3557532E-09  0.3557532E-09  0.5000000E-15
  1.000000000000000E-004
  CAR 
 unknown system                          
     21.36779969     -7.23646277  301      8.43014160      1.00000000
     -7.236  0.0000E+00  0.0000E+00
     -7.141  0.0000E+00  0.0000E+00
     -7.046  0.0000E+00  0.0000E+00
     -6.950  0.0000E+00  0.0000E+00
     -6.855  0.0000E+00  0.0000E+00
     -6.760  0.0000E+00  0.0000E+00
     -6.664  0.0000E+00  0.0000E+00
     -6.569  0.0000E+00  0.0000E+00
     -6.474  0.0000E+00  0.0000E+00
     -6.378  0.1819E-17  0.1735E-18
     -6.283  0.3699E-15  0.3545E-16
     -6.188  0.4734E-13  0.4549E-14
     -6.092  0.3873E-11  0.3738E-12
     -5.997  0.2029E-09  0.1972E-10
     -5.902  0.6823E-08  0.6703E-09
     -5.806  0.1476E-06  0.1475E-07
     -5.711  0.2065E-05  0.2116E-06
     -5.616  0.1883E-04  0.2007E-05
     -5.520  0.1138E-03  0.1286E-04
     -5.425  0.4683E-03  0.5751E-04
     -5.330  0.1371E-02  0.1883E-03
     -5.234  0.3014E-02  0.4756E-03
     -5.139  0.5216E-02  0.9729E-03
     -5.043  0.7399E-02  0.1678E-02
     -4.948  0.9088E-02  0.2545E-02
     -4.853  0.1049E-01  0.3545E-02
     -4.757  0.1213E-01  0.4702E-02
     -4.662  0.1394E-01  0.6032E-02
     -4.567  0.1505E-01  0.7467E-02
     -4.471  0.1500E-01  0.8897E-02
     -4.376  0.1504E-01  0.1033E-01
     -4.281  0.1686E-01  0.1194E-01
     -4.185  0.1989E-01  0.1384E-01
     -4.090  0.2162E-01  0.1590E-01
     -3.995  0.2071E-01  0.1787E-01
     -3.899  0.1923E-01  0.1970E-01
     -3.804  0.1990E-01  0.2160E-01
     -3.709  0.2237E-01  0.2374E-01
     -3.613  0.2436E-01  0.2606E-01
     -3.518  0.2528E-01  0.2847E-01
     -3.423  0.2634E-01  0.3098E-01
     -3.327  0.2796E-01  0.3365E-01
     -3.232  0.2895E-01  0.3641E-01
     -3.137  0.2846E-01  0.3912E-01
     -3.041  0.2678E-01  0.4167E-01
     -2.946  0.2556E-01  0.4411E-01
     -2.850  0.2763E-01  0.4674E-01
     -2.755  0.3373E-01  0.4996E-01
     -2.660  0.3973E-01  0.5375E-01
     -2.564  0.4141E-01  0.5770E-01
     -2.469  0.4016E-01  0.6153E-01
     -2.374  0.3929E-01  0.6527E-01
     -2.278  0.3946E-01  0.6904E-01
     -2.183  0.4070E-01  0.7292E-01
     -2.088  0.4315E-01  0.7703E-01
     -1.992  0.4431E-01  0.8126E-01
     -1.897  0.4144E-01  0.8521E-01
     -1.802  0.3747E-01  0.8878E-01
     -1.706  0.3814E-01  0.9242E-01
     -1.611  0.4331E-01  0.9655E-01
     -1.516  0.4653E-01  0.1010E+00
     -1.420  0.4291E-01  0.1051E+00
     -1.325  0.3450E-01  0.1084E+00
     -1.230  0.2639E-01  0.1109E+00
     -1.134  0.2081E-01  0.1129E+00
     -1.039  0.1839E-01  0.1146E+00
     -0.944  0.2025E-01  0.1165E+00
     -0.848  0.2619E-01  0.1190E+00
     -0.753  0.3282E-01  0.1222E+00
     -0.657  0.3511E-01  0.1255E+00
     -0.562  0.3126E-01  0.1285E+00
     -0.467  0.2375E-01  0.1308E+00
     -0.371  0.1530E-01  0.1322E+00
     -0.276  0.7810E-02  0.1330E+00
     -0.181  0.2920E-02  0.1332E+00
     -0.085  0.8594E-03  0.1333E+00
      0.010  0.8508E-03  0.1334E+00
      0.105  0.3306E-02  0.1337E+00
      0.201  0.1085E-01  0.1348E+00
      0.296  0.2615E-01  0.1373E+00
      0.391  0.4624E-01  0.1417E+00
      0.487  0.6137E-01  0.1475E+00
      0.582  0.6570E-01  0.1538E+00
      0.677  0.6402E-01  0.1599E+00
      0.773  0.6070E-01  0.1657E+00
      0.868  0.5534E-01  0.1709E+00
      0.963  0.5059E-01  0.1758E+00
      1.059  0.4819E-01  0.1804E+00
      1.154  0.4503E-01  0.1847E+00
      1.249  0.4140E-01  0.1886E+00
      1.345  0.4148E-01  0.1926E+00
      1.440  0.4525E-01  0.1969E+00
      1.536  0.4761E-01  0.2014E+00
      1.631  0.4312E-01  0.2055E+00
      1.726  0.3141E-01  0.2085E+00
      1.822  0.1985E-01  0.2104E+00
      1.917  0.1644E-01  0.2120E+00
      2.012  0.2201E-01  0.2141E+00
      2.108  0.3039E-01  0.2170E+00
      2.203  0.3288E-01  0.2201E+00
      2.298  0.2592E-01  0.2226E+00
      2.394  0.1567E-01  0.2241E+00
      2.489  0.1086E-01  0.2251E+00
      2.584  0.1396E-01  0.2264E+00
      2.680  0.2228E-01  0.2286E+00
      2.775  0.3316E-01  0.2317E+00
      2.870  0.4394E-01  0.2359E+00
      2.966  0.4998E-01  0.2407E+00
      3.061  0.4869E-01  0.2453E+00
      3.156  0.4320E-01  0.2494E+00
      3.252  0.3914E-01  0.2532E+00
      3.347  0.4105E-01  0.2571E+00
      3.442  0.5150E-01  0.2620E+00
      3.538  0.6669E-01  0.2684E+00
      3.633  0.7433E-01  0.2755E+00
      3.729  0.6695E-01  0.2818E+00
      3.824  0.5406E-01  0.2870E+00
      3.919  0.4961E-01  0.2917E+00
      4.015  0.5264E-01  0.2967E+00
      4.110  0.5302E-01  0.3018E+00
      4.205  0.5041E-01  0.3066E+00
      4.301  0.5261E-01  0.3116E+00
      4.396  0.6170E-01  0.3175E+00
      4.491  0.7237E-01  0.3244E+00
      4.587  0.7783E-01  0.3318E+00
      4.682  0.7512E-01  0.3390E+00
      4.777  0.6802E-01  0.3455E+00
      4.873  0.6310E-01  0.3515E+00
      4.968  0.6413E-01  0.3576E+00
      5.063  0.7201E-01  0.3645E+00
      5.159  0.8357E-01  0.3724E+00
      5.254  0.9141E-01  0.3812E+00
      5.349  0.8990E-01  0.3897E+00
      5.445  0.7967E-01  0.3973E+00
      5.540  0.6862E-01  0.4039E+00
      5.635  0.6582E-01  0.4101E+00
      5.731  0.7120E-01  0.4169E+00
      5.826  0.7685E-01  0.4243E+00
      5.921  0.7703E-01  0.4316E+00
      6.017  0.7242E-01  0.4385E+00
      6.112  0.6594E-01  0.4448E+00
      6.208  0.6026E-01  0.4505E+00
      6.303  0.5908E-01  0.4562E+00
      6.398  0.6407E-01  0.4623E+00
      6.494  0.7138E-01  0.4691E+00
      6.589  0.7415E-01  0.4762E+00
      6.684  0.6798E-01  0.4826E+00
      6.780  0.5615E-01  0.4880E+00
      6.875  0.4698E-01  0.4925E+00
      6.970  0.4506E-01  0.4968E+00
      7.066  0.4885E-01  0.5014E+00
      7.161  0.5350E-01  0.5065E+00
      7.256  0.5203E-01  0.5115E+00
      7.352  0.4096E-01  0.5154E+00
      7.447  0.2672E-01  0.5179E+00
      7.542  0.1900E-01  0.5197E+00
      7.638  0.2010E-01  0.5217E+00
      7.733  0.2454E-01  0.5240E+00
      7.828  0.2524E-01  0.5264E+00
      7.924  0.2044E-01  0.5284E+00
      8.019  0.1449E-01  0.5297E+00
      8.114  0.1114E-01  0.5308E+00
      8.210  0.9758E-02  0.5317E+00
      8.305  0.8306E-02  0.5325E+00
      8.401  0.6604E-02  0.5332E+00
      8.496  0.6291E-02  0.5338E+00
      8.591  0.7974E-02  0.5345E+00
      8.687  0.1003E-01  0.5355E+00
      8.782  0.1160E-01  0.5366E+00
      8.877  0.1408E-01  0.5379E+00
      8.973  0.1823E-01  0.5397E+00
      9.068  0.2301E-01  0.5419E+00
      9.163  0.2716E-01  0.5444E+00
      9.259  0.2950E-01  0.5473E+00
      9.354  0.2981E-01  0.5501E+00
      9.449  0.3038E-01  0.5530E+00
      9.545  0.3340E-01  0.5562E+00
      9.640  0.3648E-01  0.5597E+00
      9.735  0.3608E-01  0.5631E+00
      9.831  0.3374E-01  0.5663E+00
      9.926  0.3453E-01  0.5696E+00
     10.021  0.4004E-01  0.5734E+00
     10.117  0.4625E-01  0.5778E+00
     10.212  0.5096E-01  0.5827E+00
     10.307  0.5586E-01  0.5880E+00
     10.403  0.5995E-01  0.5937E+00
     10.498  0.6090E-01  0.5995E+00
     10.594  0.6068E-01  0.6053E+00
     10.689  0.6373E-01  0.6114E+00
     10.784  0.6907E-01  0.6180E+00
     10.880  0.7026E-01  0.6247E+00
     10.975  0.6762E-01  0.6311E+00
     11.070  0.7032E-01  0.6378E+00
     11.166  0.8262E-01  0.6457E+00
     11.261  0.9680E-01  0.6549E+00
     11.356  0.1026E+00  0.6647E+00
     11.452  0.9977E-01  0.6742E+00
     11.547  0.9509E-01  0.6833E+00
     11.642  0.9267E-01  0.6921E+00
     11.738  0.9508E-01  0.7012E+00
     11.833  0.1027E+00  0.7110E+00
     11.928  0.1080E+00  0.7213E+00
     12.024  0.1015E+00  0.7310E+00
     12.119  0.8527E-01  0.7391E+00
     12.214  0.7361E-01  0.7461E+00
     12.310  0.7533E-01  0.7533E+00
     12.405  0.8450E-01  0.7614E+00
     12.500  0.9268E-01  0.7702E+00
     12.596  0.9775E-01  0.7795E+00
     12.691  0.9936E-01  0.7890E+00
     12.787  0.9488E-01  0.7980E+00
     12.882  0.8247E-01  0.8059E+00
     12.977  0.6531E-01  0.8121E+00
     13.073  0.5003E-01  0.8169E+00
     13.168  0.4170E-01  0.8209E+00
     13.263  0.4157E-01  0.8248E+00
     13.359  0.4858E-01  0.8295E+00
     13.454  0.6087E-01  0.8353E+00
     13.549  0.7508E-01  0.8424E+00
     13.645  0.8549E-01  0.8506E+00
     13.740  0.8747E-01  0.8589E+00
     13.835  0.8227E-01  0.8668E+00
     13.931  0.7507E-01  0.8739E+00
     14.026  0.7087E-01  0.8807E+00
     14.121  0.6933E-01  0.8873E+00
     14.217  0.6377E-01  0.8934E+00
     14.312  0.5356E-01  0.8985E+00
     14.407  0.4929E-01  0.9032E+00
     14.503  0.5893E-01  0.9088E+00
     14.598  0.7525E-01  0.9160E+00
     14.693  0.7995E-01  0.9236E+00
     14.789  0.6528E-01  0.9298E+00
     14.884  0.4613E-01  0.9342E+00
     14.980  0.4041E-01  0.9381E+00
     15.075  0.5062E-01  0.9429E+00
     15.170  0.6771E-01  0.9494E+00
     15.266  0.7990E-01  0.9570E+00
     15.361  0.8049E-01  0.9647E+00
     15.456  0.7127E-01  0.9715E+00
     15.552  0.5901E-01  0.9771E+00
     15.647  0.5024E-01  0.9819E+00
     15.742  0.4423E-01  0.9861E+00
     15.838  0.3503E-01  0.9894E+00
     15.933  0.2377E-01  0.9917E+00
     16.028  0.1829E-01  0.9934E+00
     16.124  0.2201E-01  0.9955E+00
     16.219  0.3371E-01  0.9988E+00
     16.314  0.5136E-01  0.1004E+01
     16.410  0.6819E-01  0.1010E+01
     16.505  0.7537E-01  0.1017E+01
     16.600  0.7127E-01  0.1024E+01
     16.696  0.5994E-01  0.1030E+01
     16.791  0.4609E-01  0.1034E+01
     16.886  0.3429E-01  0.1038E+01
     16.982  0.2612E-01  0.1040E+01
     17.077  0.1959E-01  0.1042E+01
     17.173  0.1420E-01  0.1043E+01
     17.268  0.1189E-01  0.1044E+01
     17.363  0.1267E-01  0.1046E+01
     17.459  0.1441E-01  0.1047E+01
     17.554  0.1583E-01  0.1048E+01
     17.649  0.1734E-01  0.1050E+01
     17.745  0.1985E-01  0.1052E+01
     17.840  0.2272E-01  0.1054E+01
     17.935  0.2363E-01  0.1056E+01
     18.031  0.2028E-01  0.1058E+01
     18.126  0.1317E-01  0.1060E+01
     18.221  0.6103E-02  0.1060E+01
     18.317  0.1959E-02  0.1060E+01
     18.412  0.5405E-03  0.1060E+01
     18.507  0.7379E-03  0.1060E+01
     18.603  0.2433E-02  0.1061E+01
     18.698  0.5624E-02  0.1061E+01
     18.793  0.8513E-02  0.1062E+01
     18.889  0.8775E-02  0.1063E+01
     18.984  0.7108E-02  0.1064E+01
     19.079  0.6002E-02  0.1064E+01
     19.175  0.5885E-02  0.1065E+01
     19.270  0.5890E-02  0.1065E+01
     19.366  0.5622E-02  0.1066E+01
     19.461  0.4595E-02  0.1066E+01
     19.556  0.2781E-02  0.1067E+01
     19.652  0.1143E-02  0.1067E+01
     19.747  0.3080E-03  0.1067E+01
     19.842  0.5377E-04  0.1067E+01
     19.938  0.6051E-05  0.1067E+01
     20.033  0.4380E-06  0.1067E+01
     20.128  0.2037E-07  0.1067E+01
     20.224  0.6074E-09  0.1067E+01
     20.319  0.1161E-10  0.1067E+01
     20.414  0.1419E-12  0.1067E+01
     20.510  0.1110E-14  0.1067E+01
     20.605  0.5458E-17  0.1067E+01
     20.700  0.0000E+00  0.1067E+01
     20.796  0.0000E+00  0.1067E+01
     20.891  0.0000E+00  0.1067E+01
     20.986  0.0000E+00  0.1067E+01
     21.082  0.0000E+00  0.1067E+01
     21.177  0.0000E+00  0.1067E+01
     21.272  0.0000E+00  0.1067E+01
     21.368  0.0000E+00  0.1067E+01
