    2    2   15    1
  0.1591847E+02  0.3557532E-09  0.3557532E-09  0.3557532E-09  0.5000000E-15
  1.000000000000000E-004
  CAR 
 unknown system                          
      8     60      8
 
  0.6250000E-01  0.6250000E-01  0.6250000E-01  0.3906250E-02
    1       -5.236463   1.000000
    2        7.834605   0.999987
    3        8.294460   0.831325
    4        8.294460   0.831325
    5       11.187191   0.000000
    6       11.187191   0.000000
    7       11.219862   0.000000
    8       14.860203   0.000000
 
  0.1875000E+00  0.6250000E-01  0.6250000E-01  0.1171875E-01
    1       -4.907385   1.000000
    2        6.184357   1.000000
    3        7.263407   1.000000
    4        8.186971   0.957236
    5       11.464514   0.000000
    6       11.595946   0.000000
    7       11.998969   0.000000
    8       14.995072   0.000000
 
  0.3125000E+00  0.6250000E-01  0.6250000E-01  0.1171875E-01
    1       -4.105065   1.000000
    2        3.535100   1.000000
    3        6.726521   1.000000
    4        7.635774   1.000000
    5       11.410236   0.000000
    6       11.891242   0.000000
    7       12.250630   0.000000
    8       15.182821   0.000000
 
  0.4375000E+00  0.6250000E-01  0.6250000E-01  0.1171875E-01
    1       -2.941348   1.000000
    2        1.212021   1.000000
    3        6.515644   1.000000
    4        7.145836   1.000000
    5       11.131375   0.000000
    6       11.741574   0.000000
    7       11.783292   0.000000
    8       16.756330   0.000000
 
 -0.4375000E+00  0.6250000E-01  0.6250000E-01  0.1171875E-01
    1       -2.301330   1.000000
    2        0.274567   1.000000
    3        6.612967   1.000000
    4        6.863182   1.000000
    5       10.995603   0.000000
    6       11.536691   0.000000
    7       11.802665   0.000000
    8       16.666741   0.000000
 
 -0.3125000E+00  0.6250000E-01  0.6250000E-01  0.1171875E-01
    1       -3.350265   1.000000
    2        1.914614   1.000000
    3        6.853226   1.000000
    4        6.968967   1.000000
    5       11.087391   0.000000
    6       11.680529   0.000000
    7       12.227210   0.000000
    8       15.812021   0.000000
 
 -0.1875000E+00  0.6250000E-01  0.6250000E-01  0.1171875E-01
    1       -4.421545   1.000000
    2        4.408882   1.000000
    3        7.153075   1.000000
    4        7.513871   1.000000
    5       11.234501   0.000000
    6       11.923776   0.000000
    7       12.561802   0.000000
    8       14.401537   0.000000
 
 -0.6250000E-01  0.6250000E-01  0.6250000E-01  0.1171875E-01
    1       -5.071332   1.000000
    2        7.046417   1.000000
    3        7.727728   1.000000
    4        8.029547   0.997692
    5       10.846586   0.000000
    6       11.814296   0.000000
    7       11.935319   0.000000
    8       14.721831   0.000000
 
  0.1875000E+00  0.1875000E+00  0.6250000E-01  0.1171875E-01
    1       -4.742355   1.000000
    2        6.153295   1.000000
    3        7.024475   1.000000
    4        7.273333   1.000000
    5       10.313496   0.000000
    6       12.836917   0.000000
    7       12.989763   0.000000
    8       13.359035   0.000000
 
  0.3125000E+00  0.1875000E+00  0.6250000E-01  0.2343750E-01
    1       -4.095238   1.000000
    2        4.438464   1.000000
    3        5.849717   1.000000
    4        6.923096   1.000000
    5       10.512089   0.000000
    6       12.537302   0.000000
    7       13.224076   0.000000
    8       13.908027   0.000000
 
  0.4375000E+00  0.1875000E+00  0.6250000E-01  0.2343750E-01
    1       -3.027761   1.000000
    2        2.100591   1.000000
    3        5.379526   1.000000
    4        6.357326   1.000000
    5       10.677389   0.000000
    6       12.556188   0.000000
    7       13.725860   0.000000
    8       14.139161   0.000000
 
 -0.4375000E+00  0.1875000E+00  0.6250000E-01  0.2343750E-01
    1       -1.977412   1.000000
    2        0.497440   1.000000
    3        5.065410   1.000000
    4        6.220603   1.000000
    5       10.804693   0.000000
    6       12.085245   0.000000
    7       13.633668   0.000000
    8       16.461720   0.000000
 
 -0.3125000E+00  0.1875000E+00  0.6250000E-01  0.2343750E-01
    1       -2.624569   1.000000
    2        1.430087   1.000000
    3        4.915648   1.000000
    4        6.606345   1.000000
    5       11.312444   0.000000
    6       11.846614   0.000000
    7       13.606731   0.000000
    8       15.437681   0.000000
 
 -0.1875000E+00  0.1875000E+00  0.6250000E-01  0.2343750E-01
    1       -3.783861   1.000000
    2        3.633274   1.000000
    3        5.153205   1.000000
    4        7.274075   1.000000
    5       11.668714   0.000000
    6       12.081799   0.000000
    7       13.542442   0.000000
    8       13.624894   0.000000
 
 -0.6250000E-01  0.1875000E+00  0.6250000E-01  0.2343750E-01
    1       -4.580978   1.000000
    2        5.298545   1.000000
    3        6.549366   1.000000
    4        7.756772   0.999999
    5       11.053331   0.000000
    6       12.337828   0.000000
    7       12.735725   0.000000
    8       13.803661   0.000000
 
  0.3125000E+00  0.3125000E+00  0.6250000E-01  0.1171875E-01
    1       -3.605606   1.000000
    2        4.083502   1.000000
    3        5.666676   1.000000
    4        5.814801   1.000000
    5        9.270532   0.000000
    6       10.853585   0.000000
    7       15.339027   0.000000
    8       15.340132   0.000000
 
  0.4375000E+00  0.3125000E+00  0.6250000E-01  0.2343750E-01
    1       -2.669878   1.000000
    2        2.610546   1.000000
    3        4.646380   1.000000
    4        5.355090   1.000000
    5        9.592528   0.000000
    6       10.768394   0.000000
    7       15.196333   0.000000
    8       16.553378   0.000000
 
 -0.4375000E+00  0.3125000E+00  0.6250000E-01  0.2343750E-01
    1       -1.488716   1.000000
    2        1.038181   1.000000
    3        3.593966   1.000000
    4        5.323970   1.000000
    5        9.788089   0.000000
    6       12.797748   0.000000
    7       14.650919   0.000000
    8       16.532014   0.000000
 
 -0.3125000E+00  0.3125000E+00  0.6250000E-01  0.2343750E-01
    1       -1.557321   1.000000
    2        1.142192   1.000000
    3        3.103213   1.000000
    4        5.773233   1.000000
    5       10.314949   0.000000
    6       13.845255   0.000000
    7       15.182135   0.000000
    8       15.726720   0.000000
 
 -0.1875000E+00  0.3125000E+00  0.6250000E-01  0.2343750E-01
    1       -2.728037   1.000000
    2        2.220046   1.000000
    3        3.935939   1.000000
    4        6.538562   1.000000
    5       11.210830   0.000000
    6       12.633351   0.000000
    7       14.225285   0.000000
    8       14.639308   0.000000
 
 -0.6250000E-01  0.3125000E+00  0.6250000E-01  0.2343750E-01
    1       -3.637052   1.000000
    2        2.760652   1.000000
    3        6.090917   1.000000
    4        7.164120   1.000000
    5       11.270687   0.000000
    6       11.977423   0.000000
    7       12.824668   0.000000
    8       14.568416   0.000000
 
  0.4375000E+00  0.4375000E+00  0.6250000E-01  0.1171875E-01
    1       -1.872162   1.000000
    2        1.597482   1.000000
    3        4.783529   1.000000
    4        5.101138   1.000000
    5        8.681030   0.038027
    6        9.356535   0.000000
    7       17.804511   0.000000
    8       18.017327   0.000000
 
 -0.4375000E+00  0.4375000E+00  0.6250000E-01  0.2343750E-01
    1       -0.722807   1.000000
    2        0.399914   1.000000
    3        4.008570   1.000000
    4        4.752077   1.000000
    5        9.149547   0.000000
    6       10.047320   0.000000
    7       17.520769   0.000000
    8       18.784879   0.000000
 
 -0.3125000E+00  0.4375000E+00  0.6250000E-01  0.2343750E-01
    1       -0.745191   1.000000
    2        0.539273   1.000000
    3        3.016617   1.000000
    4        5.149376   1.000000
    5        9.602209   0.000000
    6       12.667843   0.000000
    7       15.738156   0.000000
    8       17.014518   0.000000
 
 -0.1875000E+00  0.4375000E+00  0.6250000E-01  0.2343750E-01
    1       -1.666634   1.000000
    2        0.683359   1.000000
    3        3.995482   1.000000
    4        5.917394   1.000000
    5       10.481968   0.000000
    6       12.923861   0.000000
    7       14.697808   0.000000
    8       16.339147   0.000000
 
 -0.6250000E-01  0.4375000E+00  0.6250000E-01  0.2343750E-01
    1       -2.451988   1.000000
    2        0.710357   1.000000
    3        5.950891   1.000000
    4        6.717753   1.000000
    5       11.230624   0.000000
    6       11.481391   0.000000
    7       12.549891   0.000000
    8       16.658439   0.000000
 
 -0.4375000E+00 -0.4375000E+00  0.6250000E-01  0.1171875E-01
    1       -0.809880   1.000000
    2        0.358116   1.000000
    3        4.613771   1.000000
    4        4.955984   1.000000
    5        8.597109   0.118873
    6        9.023720   0.000014
    7       19.110695   0.000000
    8       19.367800   0.000000
 
 -0.3125000E+00 -0.4375000E+00  0.6250000E-01  0.2343750E-01
    1       -1.751441   1.000000
    2        1.532416   1.000000
    3        4.224725   1.000000
    4        4.942322   1.000000
    5        9.300467   0.000000
    6       10.283474   0.000000
    7       16.308581   0.000000
    8       17.922392   0.000000
 
 -0.1875000E+00 -0.4375000E+00  0.6250000E-01  0.2343750E-01
    1       -2.297038   1.000000
    2        1.542968   1.000000
    3        4.497146   1.000000
    4        5.702851   1.000000
    5       10.153590   0.000000
    6       12.941299   0.000000
    7       13.840413   0.000000
    8       15.234546   0.000000
 
 -0.3125000E+00 -0.3125000E+00  0.6250000E-01  0.1171875E-01
    1       -2.808949   1.000000
    2        2.862148   1.000000
    3        5.129296   1.000000
    4        5.389129   1.000000
    5        8.903989   0.000403
    6        9.968781   0.000000
    7       16.552886   0.000000
    8       16.665905   0.000000
 
 -0.1875000E+00 -0.3125000E+00  0.6250000E-01  0.2343750E-01
    1       -3.455462   1.000000
    2        3.568862   1.000000
    3        5.210573   1.000000
    4        6.039857   1.000000
    5       10.006603   0.000000
    6       11.520634   0.000000
    7       14.172100   0.000000
    8       15.203695   0.000000
 
 -0.1875000E+00 -0.1875000E+00  0.6250000E-01  0.1171875E-01
    1       -4.252310   1.000000
    2        5.184853   1.000000
    3        6.367430   1.000000
    4        6.406719   1.000000
    5        9.756694   0.000000
    6       12.000347   0.000000
    7       14.049470   0.000000
    8       14.147542   0.000000
 
  0.1875000E+00  0.1875000E+00  0.1875000E+00  0.3906250E-02
    1       -4.744842   1.000000
    2        5.292081   1.000000
    3        7.753671   0.999999
    4        7.753671   0.999999
    5       11.310810   0.000000
    6       11.912920   0.000000
    7       11.912921   0.000000
    8       15.415038   0.000000
 
  0.3125000E+00  0.1875000E+00  0.1875000E+00  0.1171875E-01
    1       -4.260088   1.000000
    2        4.436081   1.000000
    3        5.837862   1.000000
    4        7.837671   0.999986
    5       11.957958   0.000000
    6       12.018400   0.000000
    7       12.446315   0.000000
    8       14.398807   0.000000
 
  0.4375000E+00  0.1875000E+00  0.1875000E+00  0.1171875E-01
    1       -3.324296   1.000000
    2        2.885081   1.000000
    3        4.490835   1.000000
    4        7.194569   1.000000
    5       11.333565   0.000000
    6       12.865235   0.000000
    7       13.294699   0.000000
    8       14.607760   0.000000
 
 -0.4375000E+00  0.1875000E+00  0.1875000E+00  0.1171875E-01
    1       -2.141064   1.000000
    2        0.930919   1.000000
    3        4.430743   1.000000
    4        6.512784   1.000000
    5       10.531780   0.000000
    6       13.097765   0.000000
    7       13.425768   0.000000
    8       16.799772   0.000000
 
 -0.3125000E+00  0.1875000E+00  0.1875000E+00  0.1171875E-01
    1       -2.126449   1.000000
    2        0.902491   1.000000
    3        4.845379   1.000000
    4        6.096183   1.000000
    5       10.100169   0.000000
    6       13.456954   0.000000
    7       13.505393   0.000000
    8       15.086460   0.000000
 
 -0.1875000E+00  0.1875000E+00  0.1875000E+00  0.1171875E-01
    1       -3.310593   1.000000
    2        2.870226   1.000000
    3        5.591119   1.000000
    4        6.040844   1.000000
    5       10.048349   0.000000
    6       12.421240   0.000000
    7       14.111711   0.000000
    8       14.114248   0.000000
 
  0.3125000E+00  0.3125000E+00  0.1875000E+00  0.1171875E-01
    1       -3.941246   1.000000
    2        3.602963   1.000000
    3        6.557348   1.000000
    4        6.662905   1.000000
    5       10.680604   0.000000
    6       12.760698   0.000000
    7       13.294710   0.000000
    8       13.406000   0.000000
 
  0.4375000E+00  0.3125000E+00  0.1875000E+00  0.2343750E-01
    1       -3.159524   1.000000
    2        2.888711   1.000000
    3        4.559111   1.000000
    4        6.331547   1.000000
    5       11.183485   0.000000
    6       12.295629   0.000000
    7       13.098995   0.000000
    8       14.949599   0.000000
 
 -0.4375000E+00  0.3125000E+00  0.1875000E+00  0.2343750E-01
    1       -2.015778   1.000000
    2        1.627733   1.000000
    3        3.524584   1.000000
    4        5.550943   1.000000
    5       11.561768   0.000000
    6       12.341746   0.000000
    7       13.790871   0.000000
    8       16.121571   0.000000
 
 -0.3125000E+00  0.3125000E+00  0.1875000E+00  0.2343750E-01
    1       -1.345503   1.000000
    2        0.773076   1.000000
    3        3.611108   1.000000
    4        5.121218   1.000000
    5       11.014926   0.000000
    6       12.674312   0.000000
    7       14.623705   0.000000
    8       16.383109   0.000000
 
 -0.1875000E+00  0.3125000E+00  0.1875000E+00  0.2343750E-01
    1       -2.399314   1.000000
    2        2.155906   1.000000
    3        4.073904   1.000000
    4        5.367611   1.000000
    5       10.769774   0.000000
    6       11.938448   0.000000
    7       13.629394   0.000000
    8       16.398673   0.000000
 
  0.4375000E+00  0.4375000E+00  0.1875000E+00  0.1171875E-01
    1       -2.540902   1.000000
    2        2.155544   1.000000
    3        4.551265   1.000000
    4        5.636360   1.000000
    5        9.505321   0.000000
    6       11.836089   0.000000
    7       15.036590   0.000000
    8       15.394311   0.000000
 
 -0.4375000E+00  0.4375000E+00  0.1875000E+00  0.2343750E-01
    1       -1.524418   1.000000
    2        1.353945   1.000000
    3        3.704950   1.000000
    4        4.649795   1.000000
    5       10.475093   0.000000
    6       11.582248   0.000000
    7       14.561297   0.000000
    8       17.726949   0.000000
 
 -0.3125000E+00  0.4375000E+00  0.1875000E+00  0.2343750E-01
    1       -0.458758   1.000000
    2        0.470176   1.000000
    3        3.219475   1.000000
    4        3.971829   1.000000
    5       11.738656   0.000000
    6       12.713335   0.000000
    7       14.117101   0.000000
    8       15.161793   0.000000
 
 -0.1875000E+00  0.4375000E+00  0.1875000E+00  0.2343750E-01
    1       -1.227282   1.000000
    2        1.061159   1.000000
    3        3.283291   1.000000
    4        4.598546   1.000000
    5       11.794276   0.000000
    6       12.458439   0.000000
    7       13.634720   0.000000
    8       16.367354   0.000000
 
 -0.4375000E+00 -0.4375000E+00  0.1875000E+00  0.1171875E-01
    1       -0.703936   1.000000
    2        0.438463   1.000000
    3        3.367773   1.000000
    4        5.220388   1.000000
    5        8.926216   0.000226
    6       11.271033   0.000000
    7       17.270327   0.000000
    8       17.968804   0.000000
 
 -0.3125000E+00 -0.4375000E+00  0.1875000E+00  0.2343750E-01
    1       -0.580272   1.000000
    2        0.449752   1.000000
    3        3.490427   1.000000
    4        4.300673   1.000000
    5       10.322694   0.000000
    6       11.399170   0.000000
    7       15.673805   0.000000
    8       16.922193   0.000000
 
 -0.3125000E+00 -0.3125000E+00  0.1875000E+00  0.1171875E-01
    1       -1.652882   1.000000
    2        1.354380   1.000000
    3        3.763641   1.000000
    4        5.360172   1.000000
    5        9.122006   0.000000
    6       11.456686   0.000000
    7       16.087834   0.000000
    8       16.704160   0.000000
 
  0.3125000E+00  0.3125000E+00  0.3125000E+00  0.3906250E-02
    1       -3.798795   1.000000
    2        2.663446   1.000000
    3        7.279147   1.000000
    4        7.279147   1.000000
    5       10.994035   0.000000
    6       11.931233   0.000000
    7       11.931233   0.000000
    8       16.399883   0.000000
 
  0.4375000E+00  0.3125000E+00  0.3125000E+00  0.1171875E-01
    1       -3.191812   1.000000
    2        2.024834   1.000000
    3        5.504006   1.000000
    4        7.187902   1.000000
    5       11.354487   0.000000
    6       12.216854   0.000000
    7       12.427931   0.000000
    8       15.722471   0.000000
 
 -0.4375000E+00  0.3125000E+00  0.3125000E+00  0.1171875E-01
    1       -2.180999   1.000000
    2        1.630301   1.000000
    3        3.431357   1.000000
    4        6.425042   1.000000
    5       10.377059   0.000000
    6       14.031158   0.000000
    7       14.380185   0.000000
    8       15.503450   0.000000
 
 -0.3125000E+00  0.3125000E+00  0.3125000E+00  0.1171875E-01
    1       -1.096774   1.000000
    2        0.767488   1.000000
    3        2.902301   1.000000
    4        5.728105   1.000000
    5        9.530073   0.000000
    6       13.990259   0.000000
    7       15.516327   0.000000
    8       16.566765   0.000000
 
  0.4375000E+00  0.4375000E+00  0.3125000E+00  0.1171875E-01
    1       -2.778603   1.000000
    2        1.318335   1.000000
    3        6.012574   1.000000
    4        6.440260   1.000000
    5       10.624431   0.000000
    6       12.471926   0.000000
    7       12.762090   0.000000
    8       15.299916   0.000000
 
 -0.4375000E+00  0.4375000E+00  0.3125000E+00  0.2343750E-01
    1       -1.976612   1.000000
    2        1.001638   1.000000
    3        4.307548   1.000000
    4        5.767555   1.000000
    5       11.280045   0.000000
    6       11.945470   0.000000
    7       14.684008   0.000000
    8       15.351949   0.000000
 
 -0.3125000E+00  0.4375000E+00  0.3125000E+00  0.2343750E-01
    1       -0.932716   1.000000
    2        0.753489   1.000000
    3        3.014034   1.000000
    4        4.826751   1.000000
    5       10.866733   0.000000
    6       13.442305   0.000000
    7       14.627262   0.000000
    8       15.407928   0.000000
 
 -0.4375000E+00 -0.4375000E+00  0.3125000E+00  0.1171875E-01
    1       -1.497063   1.000000
    2        0.713533   1.000000
    3        3.717175   1.000000
    4        5.853118   1.000000
    5        9.722802   0.000000
    6       13.950907   0.000000
    7       14.435681   0.000000
    8       15.557744   0.000000
 
  0.4375000E+00  0.4375000E+00  0.4375000E+00  0.3906250E-02
    1       -2.613331   1.000000
    2        0.591549   1.000000
    3        7.036498   1.000000
    4        7.036498   1.000000
    5       10.782935   0.000000
    6       11.596136   0.000000
    7       11.596136   0.000000
    8       16.436836   0.000000
 
 -0.4375000E+00  0.4375000E+00  0.4375000E+00  0.1171875E-01
    1       -2.140212   1.000000
    2        0.393072   1.000000
    3        5.592386   1.000000
    4        6.670888   1.000000
    5       10.806194   0.000000
    6       12.322643   0.000000
    7       12.342689   0.000000
    8       17.367023   0.000000
