       N       E                     dE             d eps       ncg     rms          rms(c)
DAV:   1     0.445486790070E+01    0.44549E+01   -0.28491E+03   960   0.578E+02
DAV:   2    -0.101935488926E+02   -0.14648E+02   -0.13739E+02  1528   0.759E+01
DAV:   3    -0.103424648979E+02   -0.14892E+00   -0.14892E+00  1200   0.960E+00
DAV:   4    -0.103429390936E+02   -0.47420E-03   -0.47420E-03  1592   0.573E-01
DAV:   5    -0.103429393448E+02   -0.25124E-06   -0.25197E-06  1280   0.974E-03    0.362E+00
DAV:   6    -0.100923364581E+02    0.25060E+00   -0.18549E-01  1048   0.231E+00    0.207E+00
DAV:   7    -0.999244650474E+01    0.99890E-01   -0.27656E-01  1216   0.294E+00    0.200E-01
DAV:   8    -0.999372426811E+01   -0.12778E-02   -0.61704E-03  1176   0.626E-01    0.314E-02
DAV:   9    -0.999376136133E+01   -0.37093E-04   -0.12258E-04   832   0.900E-02
   1 F= -.99937614E+01 E0= -.99928500E+01  d E =-.999376E+01
