 vasp.5.4.4.18Apr17-6-g9f103f2a35 (build Dec 09 2018 21:25:21) complex          
  
 executed on IFC18.0.1.163_CrayMP date 2019.03.20  09:10:51
 running on    8 total cores
 distrk:  each k-point on    8 cores,    1 groups
 distr:  one band on NCORES_PER_BAND=   1 cores,    8 groups


--------------------------------------------------------------------------------------------------------


 INCAR:
 POTCAR:   PAW_PBE Si 05Jan2001                   

 ----------------------------------------------------------------------------- 
|                                                                             |
|           W    W    AA    RRRRR   N    N  II  N    N   GGGG   !!!           |
|           W    W   A  A   R    R  NN   N  II  NN   N  G    G  !!!           |
|           W    W  A    A  R    R  N N  N  II  N N  N  G       !!!           |
|           W WW W  AAAAAA  RRRRR   N  N N  II  N  N N  G  GGG   !            |
|           WW  WW  A    A  R   R   N   NN  II  N   NN  G    G                |
|           W    W  A    A  R    R  N    N  II  N    N   GGGG   !!!           |
|                                                                             |
|      For optimal performance we recommend to set                            |
|        NCORE= 4 - approx SQRT( number of cores)                             |
|      NCORE specifies how many cores store one orbital (NPAR=cpu/NCORE).     |
|      This setting can  greatly improve the performance of VASP for DFT.     |
|      The default,   NCORE=1            might be grossly inefficient         |
|      on modern multi-core architectures or massively parallel machines.     |
|      Do your own testing !!!!                                               |
|      Unfortunately you need to use the default for GW and RPA calculations. |
|      (for HF NCORE is supported but not extensively tested yet)             |
|                                                                             |
 ----------------------------------------------------------------------------- 

 POTCAR:   PAW_PBE Si 05Jan2001                   
   VRHFIN =Si: s2p2                                                             
   LEXCH  = PE                                                                  
   EATOM  =   103.0669 eV,    7.5752 Ry                                         
                                                                                
   TITEL  = PAW_PBE Si 05Jan2001                                                
   LULTRA =        F    use ultrasoft PP ?                                      
   IUNSCR =        1    unscreen: 0-lin 1-nonlin 2-no                           
   RPACOR =    1.500    partial core radius                                     
   POMASS =   28.085; ZVAL   =    4.000    mass and valenz                      
   RCORE  =    1.900    outmost cutoff radius                                   
   RWIGS  =    2.480; RWIGS  =    1.312    wigner-seitz radius (au A)           
   ENMAX  =  245.345; ENMIN  =  184.009 eV                                      
   ICORE  =        2    local potential                                         
   LCOR   =        T    correct aug charges                                     
   LPAW   =        T    paw PP                                                  
   EAUG   =  322.069                                                            
   DEXC   =    -.007                                                            
   RMAX   =    2.944    core radius for proj-oper                               
   RAUG   =    1.300    factor for augmentation sphere                          
   RDEP   =    1.993    radius for radial grids                                 
   QCUT   =   -4.246; QGAM   =    8.493    optimization parameters              
                                                                                
   Description                                                                  
     l     E      TYP  RCUT    TYP  RCUT                                        
     0   .000     23  1.900                                                     
     0   .000     23  1.900                                                     
     1   .000     23  1.900                                                     
     1   .000     23  1.900                                                     
     2   .000      7  1.900                                                     
  local pseudopotential read in
  partial core-charges read in
  atomic valenz-charges read in
  non local Contribution for L=           0  read in
    real space projection operators read in
  non local Contribution for L=           0  read in
    real space projection operators read in
  non local Contribution for L=           1  read in
    real space projection operators read in
  non local Contribution for L=           1  read in
    real space projection operators read in
    PAW grid and wavefunctions read in
 
   number of l-projection  operators is LMAX  =           4
   number of lm-projection operators is LMMAX =           8
 
 PAW_PBE Si 05Jan2001                   :
 energy of atom  1       EATOM= -103.0669
 kinetic energy error for atom=    0.0107 (will be added to EATOM!!)
 
 
 POSCAR: Si2                                     
  positions in direct lattice
  No initial velocities read in
 exchange correlation table for  LEXCH =        8
   RHO(1)=    0.500       N(1)  =     2000
   RHO(2)=  100.500       N(2)  =     4000
 


--------------------------------------------------------------------------------------------------------


 ion  position               nearest neighbor table
   1  0.250  0.750  0.500-   2 2.53   2 2.53   2 2.53   2 2.53   2 3.11   2 3.11   2 3.11   2 3.11

   2  0.000  0.000  0.000-   1 2.53   1 2.53   1 2.53   1 2.53   1 3.11   1 3.11   1 3.11   1 3.11

 
  LATTYP: Found a body centered tetragonal cell.
 ALAT       =     4.9000000000
 C/A-ratio  =     0.5200000000
  
  Lattice vectors:
  
 A1 = (  -2.4500000000,   2.4500000000,   1.2740000000)
 A2 = (   2.4500000000,  -2.4500000000,   1.2740000000)
 A3 = (   2.4500000000,   2.4500000000,  -1.2740000000)


Analysis of symmetry for initial positions (statically):
=====================================================================
 Subroutine PRICEL returns:
 Original cell was already a primitive cell.
 

 Routine SETGRP: Setting up the symmetry group for a 
 body centered tetragonal supercell.


 Subroutine GETGRP returns: Found 16 space group operations
 (whereof  8 operations were pure point group operations)
 out of a pool of 16 trial point group operations.


The static configuration has the point symmetry D_2d.
 The point group associated with its full space group is D_4h.


Analysis of symmetry for dynamics (positions and initial velocities):
=====================================================================
 Subroutine PRICEL returns:
 Original cell was already a primitive cell.
 

 Routine SETGRP: Setting up the symmetry group for a 
 body centered tetragonal supercell.


 Subroutine GETGRP returns: Found 16 space group operations
 (whereof  8 operations were pure point group operations)
 out of a pool of 16 trial point group operations.


The dynamic configuration has the point symmetry D_2d.
 The point group associated with its full space group is D_4h.


 Subroutine INISYM returns: Found 16 space group operations
 (whereof  8 operations are pure point group operations),
 and found     1 'primitive' translations

 
 
 KPOINTS: Automatic kpoint scheme                 

Automatic generation of k-mesh.
Space group operators:
 irot       det(A)        alpha          n_x          n_y          n_z        tau_x        tau_y        tau_z
    1     1.000000     0.000000     1.000000     0.000000     0.000000     0.000000     0.000000     0.000000
    2    -1.000000    90.000000    -0.000000    -0.000000    -1.000000     0.000000     0.000000     0.000000
    3     1.000000   180.000000    -0.000000    -0.000000    -1.000000     0.000000     0.000000     0.000000
    4    -1.000000    90.000000    -0.000000     0.000000     1.000000     0.000000     0.000000     0.000000
    5    -1.000000   180.000000     0.000000    -1.000000     0.000000     0.000000     0.000000     0.000000
    6     1.000000   180.000000     0.707107     0.707107    -0.000000     0.000000     0.000000     0.000000
    7    -1.000000   180.000000     1.000000     0.000000     0.000000     0.000000     0.000000     0.000000
    8     1.000000   180.000000     0.707107    -0.707107     0.000000     0.000000     0.000000     0.000000
    9    -1.000000     0.000000     1.000000     0.000000     0.000000     0.250000     0.750000     0.500000
   10     1.000000    90.000000    -0.000000    -0.000000    -1.000000     0.250000     0.750000     0.500000
   11    -1.000000   180.000000    -0.000000    -0.000000    -1.000000     0.250000     0.750000     0.500000
   12     1.000000    90.000000    -0.000000     0.000000     1.000000     0.250000     0.750000     0.500000
   13     1.000000   180.000000     0.000000    -1.000000     0.000000     0.250000     0.750000     0.500000
   14    -1.000000   180.000000     0.707107     0.707107    -0.000000     0.250000     0.750000     0.500000
   15     1.000000   180.000000     1.000000     0.000000     0.000000     0.250000     0.750000     0.500000
   16    -1.000000   180.000000     0.707107    -0.707107     0.000000     0.250000     0.750000     0.500000
 
 Subroutine IBZKPT returns following result:
 ===========================================
 
 Found    126 irreducible k-points:
 
 Following reciprocal coordinates:
            Coordinates               Weight
  0.000000  0.000000  0.000000      1.000000
  0.090909 -0.000000  0.000000      8.000000
  0.181818 -0.000000  0.000000      8.000000
  0.272727 -0.000000  0.000000      8.000000
  0.363636 -0.000000  0.000000      8.000000
  0.454545 -0.000000 -0.000000      8.000000
  0.090909  0.090909  0.000000      8.000000
  0.181818  0.090909 -0.000000     16.000000
  0.272727  0.090909  0.000000     16.000000
  0.363636  0.090909  0.000000     16.000000
  0.454545  0.090909 -0.000000     16.000000
 -0.454545  0.090909 -0.000000     16.000000
 -0.363636  0.090909  0.000000     16.000000
 -0.272727  0.090909  0.000000     16.000000
 -0.181818  0.090909  0.000000     16.000000
 -0.090909  0.090909  0.000000      4.000000
  0.181818  0.181818  0.000000      8.000000
  0.272727  0.181818  0.000000     16.000000
  0.363636  0.181818 -0.000000     16.000000
  0.454545  0.181818 -0.000000     16.000000
 -0.454545  0.181818 -0.000000     16.000000
 -0.363636  0.181818  0.000000     16.000000
 -0.272727  0.181818 -0.000000     16.000000
 -0.181818  0.181818  0.000000      4.000000
  0.272727  0.272727 -0.000000      8.000000
  0.363636  0.272727 -0.000000     16.000000
  0.454545  0.272727  0.000000     16.000000
 -0.454545  0.272727  0.000000     16.000000
 -0.363636  0.272727 -0.000000     16.000000
 -0.272727  0.272727 -0.000000      4.000000
  0.363636  0.363636  0.000000      8.000000
  0.454545  0.363636 -0.000000     16.000000
 -0.454545  0.363636 -0.000000     16.000000
 -0.363636  0.363636  0.000000      4.000000
  0.454545  0.454545 -0.000000      8.000000
 -0.454545  0.454545 -0.000000      4.000000
  0.090909  0.090909  0.090909      8.000000
  0.181818  0.090909  0.090909     16.000000
  0.272727  0.090909  0.090909     16.000000
  0.363636  0.090909  0.090909     16.000000
 -0.090909  0.090909  0.090909      4.000000
  0.181818  0.181818  0.090909      8.000000
  0.272727  0.181818  0.090909     16.000000
  0.363636  0.181818  0.090909     16.000000
  0.454545  0.181818  0.090909     16.000000
 -0.454545  0.181818  0.090909     16.000000
 -0.363636  0.181818  0.090909      8.000000
 -0.181818  0.181818  0.090909      8.000000
 -0.090909  0.181818  0.090909      8.000000
  0.272727  0.272727  0.090909      8.000000
  0.363636  0.272727  0.090909     16.000000
  0.454545  0.272727  0.090909     16.000000
 -0.454545  0.272727  0.090909      8.000000
 -0.272727  0.272727  0.090909      8.000000
 -0.181818  0.272727  0.090909     16.000000
 -0.090909  0.272727  0.090909      8.000000
  0.363636  0.363636  0.090909      8.000000
  0.454545  0.363636  0.090909      8.000000
 -0.363636  0.363636  0.090909      8.000000
 -0.272727  0.363636  0.090909     16.000000
 -0.181818  0.363636  0.090909     16.000000
 -0.090909  0.363636  0.090909      8.000000
 -0.454545  0.454545  0.090909      8.000000
 -0.363636  0.454545  0.090909     16.000000
 -0.272727  0.454545  0.090909     16.000000
 -0.181818  0.454545  0.090909     16.000000
 -0.090909  0.454545  0.090909      8.000000
 -0.454545 -0.454545  0.090909      8.000000
 -0.363636 -0.454545  0.090909     16.000000
 -0.272727 -0.454545  0.090909     16.000000
 -0.181818 -0.454545  0.090909     16.000000
 -0.090909 -0.454545  0.090909      8.000000
 -0.363636 -0.363636  0.090909      8.000000
 -0.272727 -0.363636  0.090909     16.000000
 -0.181818 -0.363636  0.090909     16.000000
 -0.090909 -0.363636  0.090909      8.000000
 -0.272727 -0.272727  0.090909      8.000000
 -0.181818 -0.272727  0.090909     16.000000
 -0.090909 -0.272727  0.090909      8.000000
 -0.181818 -0.181818  0.090909      8.000000
 -0.090909 -0.181818  0.090909      8.000000
 -0.090909 -0.090909  0.090909      2.000000
  0.181818  0.181818  0.181818      8.000000
  0.272727  0.181818  0.181818     16.000000
 -0.181818  0.181818  0.181818      4.000000
  0.272727  0.272727  0.181818      8.000000
  0.363636  0.272727  0.181818      8.000000
 -0.272727  0.272727  0.181818      8.000000
 -0.181818  0.272727  0.181818      8.000000
 -0.363636  0.363636  0.181818      8.000000
 -0.272727  0.363636  0.181818     16.000000
 -0.181818  0.363636  0.181818      8.000000
 -0.454545  0.454545  0.181818      8.000000
 -0.363636  0.454545  0.181818     16.000000
 -0.272727  0.454545  0.181818     16.000000
 -0.181818  0.454545  0.181818      8.000000
 -0.454545 -0.454545  0.181818      8.000000
 -0.363636 -0.454545  0.181818     16.000000
 -0.272727 -0.454545  0.181818     16.000000
 -0.181818 -0.454545  0.181818      8.000000
 -0.363636 -0.363636  0.181818      8.000000
 -0.272727 -0.363636  0.181818     16.000000
 -0.181818 -0.363636  0.181818      8.000000
 -0.272727 -0.272727  0.181818      8.000000
 -0.181818 -0.272727  0.181818      8.000000
 -0.181818 -0.181818  0.181818      2.000000
 -0.272727  0.272727  0.272727      4.000000
 -0.363636  0.363636  0.272727      8.000000
 -0.272727  0.363636  0.272727      8.000000
 -0.454545  0.454545  0.272727      8.000000
 -0.363636  0.454545  0.272727     16.000000
 -0.272727  0.454545  0.272727      8.000000
 -0.454545 -0.454545  0.272727      8.000000
 -0.363636 -0.454545  0.272727     16.000000
 -0.272727 -0.454545  0.272727      8.000000
 -0.363636 -0.363636  0.272727      8.000000
 -0.272727 -0.363636  0.272727      8.000000
 -0.272727 -0.272727  0.272727      2.000000
 -0.363636  0.363636  0.363636      4.000000
 -0.454545  0.454545  0.363636      8.000000
 -0.363636  0.454545  0.363636      8.000000
 -0.454545 -0.454545  0.363636      8.000000
 -0.363636 -0.454545  0.363636      8.000000
 -0.363636 -0.363636  0.363636      2.000000
 -0.454545  0.454545  0.454545      4.000000
 -0.454545 -0.454545  0.454545      2.000000
 
 Following cartesian coordinates:
            Coordinates               Weight
  0.000000  0.000000  0.000000      1.000000
  0.000000  0.018553  0.035679      8.000000
  0.000000  0.037106  0.071357      8.000000
  0.000000  0.055659  0.107036      8.000000
  0.000000  0.074212  0.142714      8.000000
 -0.000000  0.092764  0.178393      8.000000
  0.018553  0.018553  0.071357      8.000000
  0.018553  0.037106  0.107036     16.000000
  0.018553  0.055659  0.142714     16.000000
  0.018553  0.074212  0.178393     16.000000
  0.018553  0.092764  0.214072     16.000000
  0.018553 -0.092764 -0.142714     16.000000
  0.018553 -0.074212 -0.107036     16.000000
  0.018553 -0.055659 -0.071357     16.000000
  0.018553 -0.037106 -0.035679     16.000000
  0.018553 -0.018553  0.000000      4.000000
  0.037106  0.037106  0.142714      8.000000
  0.037106  0.055659  0.178393     16.000000
  0.037106  0.074212  0.214072     16.000000
  0.037106  0.092764  0.249750     16.000000
  0.037106 -0.092764 -0.107036     16.000000
  0.037106 -0.074212 -0.071357     16.000000
  0.037106 -0.055659 -0.035679     16.000000
  0.037106 -0.037106  0.000000      4.000000
  0.055659  0.055659  0.214072      8.000000
  0.055659  0.074212  0.249750     16.000000
  0.055659  0.092764  0.285429     16.000000
  0.055659 -0.092764 -0.071357     16.000000
  0.055659 -0.074212 -0.035679     16.000000
  0.055659 -0.055659  0.000000      4.000000
  0.074212  0.074212  0.285429      8.000000
  0.074212  0.092764  0.321107     16.000000
  0.074212 -0.092764 -0.035679     16.000000
  0.074212 -0.074212  0.000000      4.000000
  0.092764  0.092764  0.356786      8.000000
  0.092764 -0.092764 -0.000000      4.000000
  0.037106  0.037106  0.071357      8.000000
  0.037106  0.055659  0.107036     16.000000
  0.037106  0.074212  0.142714     16.000000
  0.037106  0.092764  0.178393     16.000000
  0.037106  0.000000  0.000000      4.000000
  0.055659  0.055659  0.142714      8.000000
  0.055659  0.074212  0.178393     16.000000
  0.055659  0.092764  0.214072     16.000000
  0.055659  0.111317  0.249750     16.000000
  0.055659 -0.074212 -0.107036     16.000000
  0.055659 -0.055659 -0.071357      8.000000
  0.055659 -0.018553 -0.000000      8.000000
  0.055659 -0.000000  0.035679      8.000000
  0.074212  0.074212  0.214072      8.000000
  0.074212  0.092764  0.249750     16.000000
  0.074212  0.111317  0.285429     16.000000
  0.074212 -0.074212 -0.071357      8.000000
  0.074212 -0.037106  0.000000      8.000000
  0.074212 -0.018553  0.035679     16.000000
  0.074212  0.000000  0.071357      8.000000
  0.092764  0.092764  0.285429      8.000000
  0.092764  0.111317  0.321107      8.000000
  0.092764 -0.055659  0.000000      8.000000
  0.092764 -0.037106  0.035679     16.000000
  0.092764 -0.018553  0.071357     16.000000
  0.092764  0.000000  0.107036      8.000000
  0.111317 -0.074212 -0.000000      8.000000
  0.111317 -0.055659  0.035679     16.000000
  0.111317 -0.037106  0.071357     16.000000
  0.111317 -0.018553  0.107036     16.000000
  0.111317 -0.000000  0.142714      8.000000
 -0.074212 -0.074212 -0.356786      8.000000
 -0.074212 -0.055659 -0.321107     16.000000
 -0.074212 -0.037106 -0.285429     16.000000
 -0.074212 -0.018553 -0.249750     16.000000
 -0.074212  0.000000 -0.214072      8.000000
 -0.055659 -0.055659 -0.285429      8.000000
 -0.055659 -0.037106 -0.249750     16.000000
 -0.055659 -0.018553 -0.214072     16.000000
 -0.055659  0.000000 -0.178393      8.000000
 -0.037106 -0.037106 -0.214072      8.000000
 -0.037106 -0.018553 -0.178393     16.000000
 -0.037106  0.000000 -0.142714      8.000000
 -0.018553 -0.018553 -0.142714      8.000000
 -0.018553  0.000000 -0.107036      8.000000
  0.000000 -0.000000 -0.071357      2.000000
  0.074212  0.074212  0.142714      8.000000
  0.074212  0.092764  0.178393     16.000000
  0.074212  0.000000  0.000000      4.000000
  0.092764  0.092764  0.214072      8.000000
  0.092764  0.111317  0.249750      8.000000
  0.092764 -0.018553 -0.000000      8.000000
  0.092764  0.000000  0.035679      8.000000
  0.111317 -0.037106 -0.000000      8.000000
  0.111317 -0.018553  0.035679     16.000000
  0.111317 -0.000000  0.071357      8.000000
  0.129870 -0.055659 -0.000000      8.000000
  0.129870 -0.037106  0.035679     16.000000
  0.129870 -0.018553  0.071357     16.000000
  0.129870  0.000000  0.107036      8.000000
 -0.055659 -0.055659 -0.356786      8.000000
 -0.055659 -0.037106 -0.321107     16.000000
 -0.055659 -0.018553 -0.285429     16.000000
 -0.055659  0.000000 -0.249750      8.000000
 -0.037106 -0.037106 -0.285429      8.000000
 -0.037106 -0.018553 -0.249750     16.000000
 -0.037106  0.000000 -0.214072      8.000000
 -0.018553 -0.018553 -0.214072      8.000000
 -0.018553  0.000000 -0.178393      8.000000
  0.000000 -0.000000 -0.142714      2.000000
  0.111317  0.000000  0.000000      4.000000
  0.129870 -0.018553 -0.000000      8.000000
  0.129870 -0.000000  0.035679      8.000000
  0.148423 -0.037106 -0.000000      8.000000
  0.148423 -0.018553  0.035679     16.000000
  0.148423 -0.000000  0.071357      8.000000
 -0.037106 -0.037106 -0.356786      8.000000
 -0.037106 -0.018553 -0.321107     16.000000
 -0.037106  0.000000 -0.285429      8.000000
 -0.018553 -0.018553 -0.285429      8.000000
 -0.018553 -0.000000 -0.249750      8.000000
 -0.000000  0.000000 -0.214072      2.000000
  0.148423  0.000000  0.000000      4.000000
  0.166976 -0.018553 -0.000000      8.000000
  0.166976 -0.000000  0.035679      8.000000
 -0.018553 -0.018553 -0.356786      8.000000
 -0.018553 -0.000000 -0.321107      8.000000
  0.000000 -0.000000 -0.285429      2.000000
  0.185529 -0.000000 -0.000000      4.000000
 -0.000000 -0.000000 -0.356786      2.000000
 


--------------------------------------------------------------------------------------------------------




 Dimension of arrays:
   k-points           NKPTS =    126   k-points in BZ     NKDIM =    126   number of bands    NBANDS=      8
   number of dos      NEDOS =    301   number of ions     NIONS =      2
   non local maximal  LDIM  =      4   non local SUM 2l+1 LMDIM =      8
   total plane-waves  NPLWV =   2744
   max r-space proj   IRMAX =      1   max aug-charges    IRDMAX=   3198
   dimension x,y,z NGX =    14 NGY =   14 NGZ =   14
   dimension x,y,z NGXF=    28 NGYF=   28 NGZF=   28
   support grid    NGXF=    28 NGYF=   28 NGZF=   28
   ions per type =               2
   NGX,Y,Z   is equivalent  to a cutoff of   6.30,  6.30,  6.30 a.u.
   NGXF,Y,Z  is equivalent  to a cutoff of  12.61, 12.61, 12.61 a.u.

 SYSTEM =  unknown system                          
 POSCAR =  Si2                                     

 Startparameter for this run:
   NWRITE =      2    write-flag & timer
   PREC   = normal    normal or accurate (medium, high low for compatibility)
   ISTART =      0    job   : 0-new  1-cont  2-samecut
   ICHARG =      2    charge: 1-file 2-atom 10-const
   ISPIN  =      1    spin polarized calculation?
   LNONCOLLINEAR =      F non collinear calculations
   LSORBIT =      F    spin-orbit coupling
   INIWAV =      1    electr: 0-lowe 1-rand  2-diag
   LASPH  =      F    aspherical Exc in radial PAW
   METAGGA=      F    non-selfconsistent MetaGGA calc.

 Electronic Relaxation 1
   ENCUT  =  200.0 eV  14.70 Ry    3.83 a.u.   4.26  4.26  4.26*2*pi/ulx,y,z
   ENINI  =  200.0     initial cutoff
   ENAUG  =  322.1 eV  augmentation charge cutoff
   NELM   =     60;   NELMIN=  2; NELMDL= -5     # of ELM steps 
   EDIFF  = 0.4E-03   stopping-criterion for ELM
   LREAL  =      F    real-space projection
   NLSPLINE    = F    spline interpolate recip. space projectors
   LCOMPAT=      F    compatible to vasp.4.4
   GGA_COMPAT  = T    GGA compatible to vasp.4.4-vasp.4.6
   LMAXPAW     = -100 max onsite density
   LMAXMIX     =    2 max onsite mixed and CHGCAR
   VOSKOWN=      0    Vosko Wilk Nusair interpolation
   ROPT   =    0.00000
 Ionic relaxation
   EDIFFG = -.1E-01   stopping-criterion for IOM
   NSW    =     15    number of steps for IOM
   NBLOCK =      1;   KBLOCK =     15    inner block; outer block 
   IBRION =      2    ionic relax: 0-MD 1-quasi-New 2-CG
   NFREE  =      1    steps in history (QN), initial steepest desc. (CG)
   ISIF   =      3    stress and relaxation
   IWAVPR =     11    prediction:  0-non 1-charg 2-wave 3-comb
   ISYM   =      2    0-nonsym 1-usesym 2-fastsym
   LCORR  =      T    Harris-Foulkes like correction to forces

   POTIM  = 0.5000    time-step for ionic-motion
   TEIN   =    0.0    initial temperature
   TEBEG  =    0.0;   TEEND  =   0.0 temperature during run
   SMASS  =  -3.00    Nose mass-parameter (am)
   estimated Nose-frequenzy (Omega)   =  0.10E-29 period in steps =****** mass=  -0.311E-27a.u.
   SCALEE = 1.0000    scale energy and forces
   NPACO  =    256;   APACO  = 16.0  distance and # of slots for P.C.
   PSTRESS=    0.0 pullay stress

  Mass of Ions in am
   POMASS =  28.09
  Ionic Valenz
   ZVAL   =   4.00
  Atomic Wigner-Seitz radii
   RWIGS  =  -1.00
  virtual crystal weights 
   VCA    =   1.00
   NELECT =       8.0000    total number of electrons
   NUPDOWN=      -1.0000    fix difference up-down

 DOS related values:
   EMIN   =  10.00;   EMAX   =-10.00  energy-range for DOS
   EFERMI =   0.00
   ISMEAR =     0;   SIGMA  =   0.20  broadening in eV -4-tet -1-fermi 0-gaus

 Electronic relaxation 2 (details)
   IALGO  =     38    algorithm
   LDIAG  =      T    sub-space diagonalisation (order eigenvalues)
   LSUBROT=      F    optimize rotation matrix (better conditioning)
   TURBO    =      0    0=normal 1=particle mesh
   IRESTART =      0    0=no restart 2=restart with 2 vectors
   NREBOOT  =      0    no. of reboots
   NMIN     =      0    reboot dimension
   EREF     =   0.00    reference energy to select bands
   IMIX   =      4    mixing-type and parameters
     AMIX     =   0.40;   BMIX     =  1.00
     AMIX_MAG =   1.60;   BMIX_MAG =  1.00
     AMIN     =   0.10
     WC   =   100.;   INIMIX=   1;  MIXPRE=   1;  MAXMIX= -45

 Intra band minimization:
   WEIMIN = 0.0010     energy-eigenvalue tresh-hold
   EBREAK =  0.13E-04  absolut break condition
   DEPER  =   0.30     relativ break condition  

   TIME   =   0.40     timestep for ELM

  volume/ion in A,a.u.               =      15.29       103.21
  Fermi-wavevector in a.u.,A,eV,Ry     =   1.046930  1.978411 14.912834  1.096062
  Thomas-Fermi vector in A             =   2.181789
 
 Write flags
   LWAVE        =      T    write WAVECAR
   LDOWNSAMPLE  =      F    k-point downsampling of WAVECAR
   LCHARG       =      T    write CHGCAR
   LVTOT        =      F    write LOCPOT, total local potential
   LVHAR        =      F    write LOCPOT, Hartree potential only
   LELF         =      F    write electronic localiz. function (ELF)
   LORBIT       =      0    0 simple, 1 ext, 2 COOP (PROOUT), +10 PAW based schemes


 Dipole corrections
   LMONO  =      F    monopole corrections only (constant potential shift)
   LDIPOL =      F    correct potential (dipole corrections)
   IDIPOL =      0    1-x, 2-y, 3-z, 4-all directions 
   EPSILON=  1.0000000 bulk dielectric constant

 Exchange correlation treatment:
   GGA     =    --    GGA type
   LEXCH   =     8    internal setting for exchange type
   VOSKOWN=      0    Vosko Wilk Nusair interpolation
   LHFCALC =     F    Hartree Fock is set to
   LHFONE  =     F    Hartree Fock one center treatment
   AEXX    =    0.0000 exact exchange contribution

 Linear response parameters
   LEPSILON=     F    determine dielectric tensor
   LRPA    =     F    only Hartree local field effects (RPA)
   LNABLA  =     F    use nabla operator in PAW spheres
   LVEL    =     F    velocity operator in full k-point grid
   LINTERFAST=   F  fast interpolation
   KINTER  =     0    interpolate to denser k-point grid
   CSHIFT  =0.1000    complex shift for real part using Kramers Kronig
   OMEGAMAX=  -1.0    maximum frequency
   DEG_THRESHOLD= 0.2000000E-02 threshold for treating states as degnerate
   RTIME   =   -0.100 relaxation time in fs
  (WPLASMAI=    0.000 imaginary part of plasma frequency in eV, 0.658/RTIME)
   DFIELD  = 0.0000000 0.0000000 0.0000000 field for delta impulse in time
 
 Orbital magnetization related:
   ORBITALMAG=     F  switch on orbital magnetization
   LCHIMAG   =     F  perturbation theory with respect to B field
   DQ        =  0.001000  dq finite difference perturbation B field
   LLRAUG    =     F  two centre corrections for induced B field



--------------------------------------------------------------------------------------------------------


 conjugate gradient relaxation of ions
 charge density and potential will be updated during run
 non-spin polarized calculation
 Variant of blocked Davidson
 Davidson routine will perform the subspace rotation
 perform sub-space diagonalisation
    after iterative eigenvector-optimisation
 modified Broyden-mixing scheme, WC =      100.0
 initial mixing is a Kerker type mixing with AMIX =  0.4000 and BMIX =      1.0000
 Hartree-type preconditioning will be used
 using additional bands            4
 reciprocal scheme for non local part
 use partial core corrections
 calculate Harris-corrections to forces 
   (improved forces if not selfconsistent)
 use gradient corrections 
 use of overlap-Matrix (Vanderbilt PP)
 Gauss-broadening in eV      SIGMA  =   0.20


--------------------------------------------------------------------------------------------------------


  energy-cutoff  :      200.00
  volume of cell :       30.59
      direct lattice vectors                 reciprocal lattice vectors
    -2.450000000  2.450000000  1.274000000     0.000000000  0.204081633  0.392464678
     2.450000000 -2.450000000  1.274000000     0.204081633  0.000000000  0.392464678
     2.450000000  2.450000000 -1.274000000     0.204081633  0.204081633 -0.000000000

  length of vectors
     3.691622408  3.691622408  3.691622408     0.442354876  0.442354876  0.288615013


 
 k-points in units of 2pi/SCALE and weight: Automatic kpoint scheme                 
   0.00000000  0.00000000  0.00000000       0.001
   0.00000000  0.01855288  0.03567861       0.006
   0.00000000  0.03710575  0.07135721       0.006
   0.00000000  0.05565863  0.10703582       0.006
   0.00000000  0.07421150  0.14271443       0.006
  -0.00000000  0.09276438  0.17839304       0.006
   0.01855288  0.01855288  0.07135721       0.006
   0.01855288  0.03710575  0.10703582       0.012
   0.01855288  0.05565863  0.14271443       0.012
   0.01855288  0.07421150  0.17839304       0.012
   0.01855288  0.09276438  0.21407164       0.012
   0.01855288 -0.09276438 -0.14271443       0.012
   0.01855288 -0.07421150 -0.10703582       0.012
   0.01855288 -0.05565863 -0.07135721       0.012
   0.01855288 -0.03710575 -0.03567861       0.012
   0.01855288 -0.01855288  0.00000000       0.003
   0.03710575  0.03710575  0.14271443       0.006
   0.03710575  0.05565863  0.17839304       0.012
   0.03710575  0.07421150  0.21407164       0.012
   0.03710575  0.09276438  0.24975025       0.012
   0.03710575 -0.09276438 -0.10703582       0.012
   0.03710575 -0.07421150 -0.07135721       0.012
   0.03710575 -0.05565863 -0.03567861       0.012
   0.03710575 -0.03710575  0.00000000       0.003
   0.05565863  0.05565863  0.21407164       0.006
   0.05565863  0.07421150  0.24975025       0.012
   0.05565863  0.09276438  0.28542886       0.012
   0.05565863 -0.09276438 -0.07135721       0.012
   0.05565863 -0.07421150 -0.03567861       0.012
   0.05565863 -0.05565863  0.00000000       0.003
   0.07421150  0.07421150  0.28542886       0.006
   0.07421150  0.09276438  0.32110746       0.012
   0.07421150 -0.09276438 -0.03567861       0.012
   0.07421150 -0.07421150  0.00000000       0.003
   0.09276438  0.09276438  0.35678607       0.006
   0.09276438 -0.09276438 -0.00000000       0.003
   0.03710575  0.03710575  0.07135721       0.006
   0.03710575  0.05565863  0.10703582       0.012
   0.03710575  0.07421150  0.14271443       0.012
   0.03710575  0.09276438  0.17839304       0.012
   0.03710575 -0.00000000 -0.00000000       0.003
   0.05565863  0.05565863  0.14271443       0.006
   0.05565863  0.07421150  0.17839304       0.012
   0.05565863  0.09276438  0.21407164       0.012
   0.05565863  0.11131725  0.24975025       0.012
   0.05565863 -0.07421150 -0.10703582       0.012
   0.05565863 -0.05565863 -0.07135721       0.006
   0.05565863 -0.01855288  0.00000000       0.006
   0.05565863 -0.00000000  0.03567861       0.006
   0.07421150  0.07421150  0.21407164       0.006
   0.07421150  0.09276438  0.24975025       0.012
   0.07421150  0.11131725  0.28542886       0.012
   0.07421150 -0.07421150 -0.07135721       0.006
   0.07421150 -0.03710575 -0.00000000       0.006
   0.07421150 -0.01855288  0.03567861       0.012
   0.07421150 -0.00000000  0.07135721       0.006
   0.09276438  0.09276438  0.28542886       0.006
   0.09276438  0.11131725  0.32110746       0.006
   0.09276438 -0.05565863  0.00000000       0.006
   0.09276438 -0.03710575  0.03567861       0.012
   0.09276438 -0.01855288  0.07135721       0.012
   0.09276438  0.00000000  0.10703582       0.006
   0.11131725 -0.07421150 -0.00000000       0.006
   0.11131725 -0.05565863  0.03567861       0.012
   0.11131725 -0.03710575  0.07135721       0.012
   0.11131725 -0.01855288  0.10703582       0.012
   0.11131725 -0.00000000  0.14271443       0.006
  -0.07421150 -0.07421150 -0.35678607       0.006
  -0.07421150 -0.05565863 -0.32110746       0.012
  -0.07421150 -0.03710575 -0.28542886       0.012
  -0.07421150 -0.01855288 -0.24975025       0.012
  -0.07421150 -0.00000000 -0.21407164       0.006
  -0.05565863 -0.05565863 -0.28542886       0.006
  -0.05565863 -0.03710575 -0.24975025       0.012
  -0.05565863 -0.01855288 -0.21407164       0.012
  -0.05565863 -0.00000000 -0.17839304       0.006
  -0.03710575 -0.03710575 -0.21407164       0.006
  -0.03710575 -0.01855288 -0.17839304       0.012
  -0.03710575  0.00000000 -0.14271443       0.006
  -0.01855288 -0.01855288 -0.14271443       0.006
  -0.01855288 -0.00000000 -0.10703582       0.006
   0.00000000 -0.00000000 -0.07135721       0.002
   0.07421150  0.07421150  0.14271443       0.006
   0.07421150  0.09276438  0.17839304       0.012
   0.07421150 -0.00000000 -0.00000000       0.003
   0.09276438  0.09276438  0.21407164       0.006
   0.09276438  0.11131725  0.24975025       0.006
   0.09276438 -0.01855288  0.00000000       0.006
   0.09276438  0.00000000  0.03567861       0.006
   0.11131725 -0.03710575  0.00000000       0.006
   0.11131725 -0.01855288  0.03567861       0.012
   0.11131725 -0.00000000  0.07135721       0.006
   0.12987013 -0.05565863 -0.00000000       0.006
   0.12987013 -0.03710575  0.03567861       0.012
   0.12987013 -0.01855288  0.07135721       0.012
   0.12987013 -0.00000000  0.10703582       0.006
  -0.05565863 -0.05565863 -0.35678607       0.006
  -0.05565863 -0.03710575 -0.32110746       0.012
  -0.05565863 -0.01855288 -0.28542886       0.012
  -0.05565863  0.00000000 -0.24975025       0.006
  -0.03710575 -0.03710575 -0.28542886       0.006
  -0.03710575 -0.01855288 -0.24975025       0.012
  -0.03710575 -0.00000000 -0.21407164       0.006
  -0.01855288 -0.01855288 -0.21407164       0.006
  -0.01855288 -0.00000000 -0.17839304       0.006
   0.00000000 -0.00000000 -0.14271443       0.002
   0.11131725  0.00000000 -0.00000000       0.003
   0.12987013 -0.01855288  0.00000000       0.006
   0.12987013 -0.00000000  0.03567861       0.006
   0.14842301 -0.03710575 -0.00000000       0.006
   0.14842301 -0.01855288  0.03567861       0.012
   0.14842301 -0.00000000  0.07135721       0.006
  -0.03710575 -0.03710575 -0.35678607       0.006
  -0.03710575 -0.01855288 -0.32110746       0.012
  -0.03710575 -0.00000000 -0.28542886       0.006
  -0.01855288 -0.01855288 -0.28542886       0.006
  -0.01855288 -0.00000000 -0.24975025       0.006
   0.00000000  0.00000000 -0.21407164       0.002
   0.14842301 -0.00000000 -0.00000000       0.003
   0.16697588 -0.01855288 -0.00000000       0.006
   0.16697588 -0.00000000  0.03567861       0.006
  -0.01855288 -0.01855288 -0.35678607       0.006
  -0.01855288 -0.00000000 -0.32110746       0.006
   0.00000000 -0.00000000 -0.28542886       0.002
   0.18552876 -0.00000000 -0.00000000       0.003
  -0.00000000 -0.00000000 -0.35678607       0.002
 
 k-points in reciprocal lattice and weights: Automatic kpoint scheme                 
   0.00000000  0.00000000  0.00000000       0.001
   0.09090909 -0.00000000  0.00000000       0.006
   0.18181818 -0.00000000  0.00000000       0.006
   0.27272727 -0.00000000  0.00000000       0.006
   0.36363636 -0.00000000  0.00000000       0.006
   0.45454545 -0.00000000 -0.00000000       0.006
   0.09090909  0.09090909  0.00000000       0.006
   0.18181818  0.09090909 -0.00000000       0.012
   0.27272727  0.09090909  0.00000000       0.012
   0.36363636  0.09090909  0.00000000       0.012
   0.45454545  0.09090909 -0.00000000       0.012
  -0.45454545  0.09090909 -0.00000000       0.012
  -0.36363636  0.09090909  0.00000000       0.012
  -0.27272727  0.09090909  0.00000000       0.012
  -0.18181818  0.09090909  0.00000000       0.012
  -0.09090909  0.09090909  0.00000000       0.003
   0.18181818  0.18181818  0.00000000       0.006
   0.27272727  0.18181818  0.00000000       0.012
   0.36363636  0.18181818 -0.00000000       0.012
   0.45454545  0.18181818 -0.00000000       0.012
  -0.45454545  0.18181818 -0.00000000       0.012
  -0.36363636  0.18181818  0.00000000       0.012
  -0.27272727  0.18181818 -0.00000000       0.012
  -0.18181818  0.18181818  0.00000000       0.003
   0.27272727  0.27272727 -0.00000000       0.006
   0.36363636  0.27272727 -0.00000000       0.012
   0.45454545  0.27272727  0.00000000       0.012
  -0.45454545  0.27272727  0.00000000       0.012
  -0.36363636  0.27272727 -0.00000000       0.012
  -0.27272727  0.27272727 -0.00000000       0.003
   0.36363636  0.36363636  0.00000000       0.006
   0.45454545  0.36363636 -0.00000000       0.012
  -0.45454545  0.36363636 -0.00000000       0.012
  -0.36363636  0.36363636  0.00000000       0.003
   0.45454545  0.45454545 -0.00000000       0.006
  -0.45454545  0.45454545 -0.00000000       0.003
   0.09090909  0.09090909  0.09090909       0.006
   0.18181818  0.09090909  0.09090909       0.012
   0.27272727  0.09090909  0.09090909       0.012
   0.36363636  0.09090909  0.09090909       0.012
  -0.09090909  0.09090909  0.09090909       0.003
   0.18181818  0.18181818  0.09090909       0.006
   0.27272727  0.18181818  0.09090909       0.012
   0.36363636  0.18181818  0.09090909       0.012
   0.45454545  0.18181818  0.09090909       0.012
  -0.45454545  0.18181818  0.09090909       0.012
  -0.36363636  0.18181818  0.09090909       0.006
  -0.18181818  0.18181818  0.09090909       0.006
  -0.09090909  0.18181818  0.09090909       0.006
   0.27272727  0.27272727  0.09090909       0.006
   0.36363636  0.27272727  0.09090909       0.012
   0.45454545  0.27272727  0.09090909       0.012
  -0.45454545  0.27272727  0.09090909       0.006
  -0.27272727  0.27272727  0.09090909       0.006
  -0.18181818  0.27272727  0.09090909       0.012
  -0.09090909  0.27272727  0.09090909       0.006
   0.36363636  0.36363636  0.09090909       0.006
   0.45454545  0.36363636  0.09090909       0.006
  -0.36363636  0.36363636  0.09090909       0.006
  -0.27272727  0.36363636  0.09090909       0.012
  -0.18181818  0.36363636  0.09090909       0.012
  -0.09090909  0.36363636  0.09090909       0.006
  -0.45454545  0.45454545  0.09090909       0.006
  -0.36363636  0.45454545  0.09090909       0.012
  -0.27272727  0.45454545  0.09090909       0.012
  -0.18181818  0.45454545  0.09090909       0.012
  -0.09090909  0.45454545  0.09090909       0.006
  -0.45454545 -0.45454545  0.09090909       0.006
  -0.36363636 -0.45454545  0.09090909       0.012
  -0.27272727 -0.45454545  0.09090909       0.012
  -0.18181818 -0.45454545  0.09090909       0.012
  -0.09090909 -0.45454545  0.09090909       0.006
  -0.36363636 -0.36363636  0.09090909       0.006
  -0.27272727 -0.36363636  0.09090909       0.012
  -0.18181818 -0.36363636  0.09090909       0.012
  -0.09090909 -0.36363636  0.09090909       0.006
  -0.27272727 -0.27272727  0.09090909       0.006
  -0.18181818 -0.27272727  0.09090909       0.012
  -0.09090909 -0.27272727  0.09090909       0.006
  -0.18181818 -0.18181818  0.09090909       0.006
  -0.09090909 -0.18181818  0.09090909       0.006
  -0.09090909 -0.09090909  0.09090909       0.002
   0.18181818  0.18181818  0.18181818       0.006
   0.27272727  0.18181818  0.18181818       0.012
  -0.18181818  0.18181818  0.18181818       0.003
   0.27272727  0.27272727  0.18181818       0.006
   0.36363636  0.27272727  0.18181818       0.006
  -0.27272727  0.27272727  0.18181818       0.006
  -0.18181818  0.27272727  0.18181818       0.006
  -0.36363636  0.36363636  0.18181818       0.006
  -0.27272727  0.36363636  0.18181818       0.012
  -0.18181818  0.36363636  0.18181818       0.006
  -0.45454545  0.45454545  0.18181818       0.006
  -0.36363636  0.45454545  0.18181818       0.012
  -0.27272727  0.45454545  0.18181818       0.012
  -0.18181818  0.45454545  0.18181818       0.006
  -0.45454545 -0.45454545  0.18181818       0.006
  -0.36363636 -0.45454545  0.18181818       0.012
  -0.27272727 -0.45454545  0.18181818       0.012
  -0.18181818 -0.45454545  0.18181818       0.006
  -0.36363636 -0.36363636  0.18181818       0.006
  -0.27272727 -0.36363636  0.18181818       0.012
  -0.18181818 -0.36363636  0.18181818       0.006
  -0.27272727 -0.27272727  0.18181818       0.006
  -0.18181818 -0.27272727  0.18181818       0.006
  -0.18181818 -0.18181818  0.18181818       0.002
  -0.27272727  0.27272727  0.27272727       0.003
  -0.36363636  0.36363636  0.27272727       0.006
  -0.27272727  0.36363636  0.27272727       0.006
  -0.45454545  0.45454545  0.27272727       0.006
  -0.36363636  0.45454545  0.27272727       0.012
  -0.27272727  0.45454545  0.27272727       0.006
  -0.45454545 -0.45454545  0.27272727       0.006
  -0.36363636 -0.45454545  0.27272727       0.012
  -0.27272727 -0.45454545  0.27272727       0.006
  -0.36363636 -0.36363636  0.27272727       0.006
  -0.27272727 -0.36363636  0.27272727       0.006
  -0.27272727 -0.27272727  0.27272727       0.002
  -0.36363636  0.36363636  0.36363636       0.003
  -0.45454545  0.45454545  0.36363636       0.006
  -0.36363636  0.45454545  0.36363636       0.006
  -0.45454545 -0.45454545  0.36363636       0.006
  -0.36363636 -0.45454545  0.36363636       0.006
  -0.36363636 -0.36363636  0.36363636       0.002
  -0.45454545  0.45454545  0.45454545       0.003
  -0.45454545 -0.45454545  0.45454545       0.002
 
 position of ions in fractional coordinates (direct lattice) 
   0.25000000  0.75000000  0.50000000
   0.00000000  0.00000000  0.00000000
 
 position of ions in cartesian coordinates  (Angst):
   2.45000000  0.00000000  0.63700000
   0.00000000  0.00000000  0.00000000
 


--------------------------------------------------------------------------------------------------------


 k-point  1 :   0.0000 0.0000 0.0000  plane waves:     183
 k-point  2 :   0.0909-0.0000 0.0000  plane waves:     188
 k-point  3 :   0.1818-0.0000 0.0000  plane waves:     196
 k-point  4 :   0.2727-0.0000 0.0000  plane waves:     196
 k-point  5 :   0.3636-0.0000 0.0000  plane waves:     198
 k-point  6 :   0.4545-0.0000-0.0000  plane waves:     200
 k-point  7 :   0.0909 0.0909 0.0000  plane waves:     196
 k-point  8 :   0.1818 0.0909-0.0000  plane waves:     196
 k-point  9 :   0.2727 0.0909 0.0000  plane waves:     201
 k-point 10 :   0.3636 0.0909 0.0000  plane waves:     202
 k-point 11 :   0.4545 0.0909-0.0000  plane waves:     200
 k-point 12 :  -0.4545 0.0909-0.0000  plane waves:     203
 k-point 13 :  -0.3636 0.0909 0.0000  plane waves:     201
 k-point 14 :  -0.2727 0.0909 0.0000  plane waves:     198
 k-point 15 :  -0.1818 0.0909 0.0000  plane waves:     193
 k-point 16 :  -0.0909 0.0909 0.0000  plane waves:     190
 k-point 17 :   0.1818 0.1818 0.0000  plane waves:     202
 k-point 18 :   0.2727 0.1818 0.0000  plane waves:     201
 k-point 19 :   0.3636 0.1818-0.0000  plane waves:     199
 k-point 20 :   0.4545 0.1818-0.0000  plane waves:     201
 k-point 21 :  -0.4545 0.1818-0.0000  plane waves:     202
 k-point 22 :  -0.3636 0.1818 0.0000  plane waves:     198
 k-point 23 :  -0.2727 0.1818-0.0000  plane waves:     195
 k-point 24 :  -0.1818 0.1818 0.0000  plane waves:     192
 k-point 25 :   0.2727 0.2727-0.0000  plane waves:     199
 k-point 26 :   0.3636 0.2727-0.0000  plane waves:     200
 k-point 27 :   0.4545 0.2727 0.0000  plane waves:     197
 k-point 28 :  -0.4545 0.2727 0.0000  plane waves:     196
 k-point 29 :  -0.3636 0.2727-0.0000  plane waves:     193
 k-point 30 :  -0.2727 0.2727-0.0000  plane waves:     192
 k-point 31 :   0.3636 0.3636 0.0000  plane waves:     196
 k-point 32 :   0.4545 0.3636-0.0000  plane waves:     195
 k-point 33 :  -0.4545 0.3636-0.0000  plane waves:     194
 k-point 34 :  -0.3636 0.3636 0.0000  plane waves:     190
 k-point 35 :   0.4545 0.4545-0.0000  plane waves:     194
 k-point 36 :  -0.4545 0.4545-0.0000  plane waves:     190
 k-point 37 :   0.0909 0.0909 0.0909  plane waves:     195
 k-point 38 :   0.1818 0.0909 0.0909  plane waves:     200
 k-point 39 :   0.2727 0.0909 0.0909  plane waves:     198
 k-point 40 :   0.3636 0.0909 0.0909  plane waves:     203
 k-point 41 :  -0.0909 0.0909 0.0909  plane waves:     191
 k-point 42 :   0.1818 0.1818 0.0909  plane waves:     198
 k-point 43 :   0.2727 0.1818 0.0909  plane waves:     201
 k-point 44 :   0.3636 0.1818 0.0909  plane waves:     198
 k-point 45 :   0.4545 0.1818 0.0909  plane waves:     200
 k-point 46 :  -0.4545 0.1818 0.0909  plane waves:     197
 k-point 47 :  -0.3636 0.1818 0.0909  plane waves:     197
 k-point 48 :  -0.1818 0.1818 0.0909  plane waves:     196
 k-point 49 :  -0.0909 0.1818 0.0909  plane waves:     194
 k-point 50 :   0.2727 0.2727 0.0909  plane waves:     199
 k-point 51 :   0.3636 0.2727 0.0909  plane waves:     197
 k-point 52 :   0.4545 0.2727 0.0909  plane waves:     196
 k-point 53 :  -0.4545 0.2727 0.0909  plane waves:     196
 k-point 54 :  -0.2727 0.2727 0.0909  plane waves:     191
 k-point 55 :  -0.1818 0.2727 0.0909  plane waves:     197
 k-point 56 :  -0.0909 0.2727 0.0909  plane waves:     196
 k-point 57 :   0.3636 0.3636 0.0909  plane waves:     195
 k-point 58 :   0.4545 0.3636 0.0909  plane waves:     194
 k-point 59 :  -0.3636 0.3636 0.0909  plane waves:     191
 k-point 60 :  -0.2727 0.3636 0.0909  plane waves:     192
 k-point 61 :  -0.1818 0.3636 0.0909  plane waves:     196
 k-point 62 :  -0.0909 0.3636 0.0909  plane waves:     200
 k-point 63 :  -0.4545 0.4545 0.0909  plane waves:     190
 k-point 64 :  -0.3636 0.4545 0.0909  plane waves:     191
 k-point 65 :  -0.2727 0.4545 0.0909  plane waves:     193
 k-point 66 :  -0.1818 0.4545 0.0909  plane waves:     195
 k-point 67 :  -0.0909 0.4545 0.0909  plane waves:     197
 k-point 68 :  -0.4545-0.4545 0.0909  plane waves:     191
 k-point 69 :  -0.3636-0.4545 0.0909  plane waves:     195
 k-point 70 :  -0.2727-0.4545 0.0909  plane waves:     195
 k-point 71 :  -0.1818-0.4545 0.0909  plane waves:     197
 k-point 72 :  -0.0909-0.4545 0.0909  plane waves:     203
 k-point 73 :  -0.3636-0.3636 0.0909  plane waves:     198
 k-point 74 :  -0.2727-0.3636 0.0909  plane waves:     199
 k-point 75 :  -0.1818-0.3636 0.0909  plane waves:     198
 k-point 76 :  -0.0909-0.3636 0.0909  plane waves:     201
 k-point 77 :  -0.2727-0.2727 0.0909  plane waves:     193
 k-point 78 :  -0.1818-0.2727 0.0909  plane waves:     198
 k-point 79 :  -0.0909-0.2727 0.0909  plane waves:     206
 k-point 80 :  -0.1818-0.1818 0.0909  plane waves:     206
 k-point 81 :  -0.0909-0.1818 0.0909  plane waves:     205
 k-point 82 :  -0.0909-0.0909 0.0909  plane waves:     195
 k-point 83 :   0.1818 0.1818 0.1818  plane waves:     199
 k-point 84 :   0.2727 0.1818 0.1818  plane waves:     200
 k-point 85 :  -0.1818 0.1818 0.1818  plane waves:     196
 k-point 86 :   0.2727 0.2727 0.1818  plane waves:     199
 k-point 87 :   0.3636 0.2727 0.1818  plane waves:     192
 k-point 88 :  -0.2727 0.2727 0.1818  plane waves:     193
 k-point 89 :  -0.1818 0.2727 0.1818  plane waves:     197
 k-point 90 :  -0.3636 0.3636 0.1818  plane waves:     192
 k-point 91 :  -0.2727 0.3636 0.1818  plane waves:     192
 k-point 92 :  -0.1818 0.3636 0.1818  plane waves:     194
 k-point 93 :  -0.4545 0.4545 0.1818  plane waves:     192
 k-point 94 :  -0.3636 0.4545 0.1818  plane waves:     191
 k-point 95 :  -0.2727 0.4545 0.1818  plane waves:     191
 k-point 96 :  -0.1818 0.4545 0.1818  plane waves:     198
 k-point 97 :  -0.4545-0.4545 0.1818  plane waves:     190
 k-point 98 :  -0.3636-0.4545 0.1818  plane waves:     195
 k-point 99 :  -0.2727-0.4545 0.1818  plane waves:     197
 k-point ** :  -0.1818-0.4545 0.1818  plane waves:     193
 k-point ** :  -0.3636-0.3636 0.1818  plane waves:     198
 k-point ** :  -0.2727-0.3636 0.1818  plane waves:     195
 k-point ** :  -0.1818-0.3636 0.1818  plane waves:     194
 k-point ** :  -0.2727-0.2727 0.1818  plane waves:     193
 k-point ** :  -0.1818-0.2727 0.1818  plane waves:     194
 k-point ** :  -0.1818-0.1818 0.1818  plane waves:     211
 k-point ** :  -0.2727 0.2727 0.2727  plane waves:     194
 k-point ** :  -0.3636 0.3636 0.2727  plane waves:     190
 k-point ** :  -0.2727 0.3636 0.2727  plane waves:     193
 k-point ** :  -0.4545 0.4545 0.2727  plane waves:     190
 k-point ** :  -0.3636 0.4545 0.2727  plane waves:     194
 k-point ** :  -0.2727 0.4545 0.2727  plane waves:     197
 k-point ** :  -0.4545-0.4545 0.2727  plane waves:     197
 k-point ** :  -0.3636-0.4545 0.2727  plane waves:     198
 k-point ** :  -0.2727-0.4545 0.2727  plane waves:     198
 k-point ** :  -0.3636-0.3636 0.2727  plane waves:     197
 k-point ** :  -0.2727-0.3636 0.2727  plane waves:     191
 k-point ** :  -0.2727-0.2727 0.2727  plane waves:     191
 k-point ** :  -0.3636 0.3636 0.3636  plane waves:     194
 k-point ** :  -0.4545 0.4545 0.3636  plane waves:     198
 k-point ** :  -0.3636 0.4545 0.3636  plane waves:     197
 k-point ** :  -0.4545-0.4545 0.3636  plane waves:     199
 k-point ** :  -0.3636-0.4545 0.3636  plane waves:     201
 k-point ** :  -0.3636-0.3636 0.3636  plane waves:     191
 k-point ** :  -0.4545 0.4545 0.4545  plane waves:     198
 k-point ** :  -0.4545-0.4545 0.4545  plane waves:     199

 maximum and minimum number of plane-waves per node :       211      183

 maximum number of plane-waves:       211
 maximum index in each direction: 
   IXMAX=    4   IYMAX=    4   IZMAX=    4
   IXMIN=   -4   IYMIN=   -4   IZMIN=   -4


 serial   3D FFT for wavefunctions
 parallel 3D FFT for charge:
    minimum data exchange during FFTs selected (reduces bandwidth)


 total amount of memory used by VASP MPI-rank0    32610. kBytes
=======================================================================

   base      :      30000. kBytes
   nonl-proj :       1748. kBytes
   fftplans  :        119. kBytes
   grid      :        270. kBytes
   one-center:          6. kBytes
   wavefun   :        467. kBytes
 
     INWAV:  cpu time    0.0000: real time    0.0278
 Broyden mixing: mesh for mixing (old mesh)
   NGX =  9   NGY =  9   NGZ =  9
  (NGX  = 28   NGY  = 28   NGZ  = 28)
  gives a total of    729 points

 initial charge density was supplied:
 charge density of overlapping atoms calculated
 number of electron       8.0000000 magnetization 
 keeping initial charge density in first step


--------------------------------------------------------------------------------------------------------


 Maximum index for augmentation-charges          442 (set IRDMAX)


--------------------------------------------------------------------------------------------------------


 First call to EWALD:  gamma=   0.567
 Maximum number of real-space cells 4x 4x 3
 Maximum number of reciprocal cells 3x 3x 3

    FEWALD:  cpu time    0.0080: real time    0.0072


--------------------------------------- Iteration      1(   1)  ---------------------------------------


    POTLOK:  cpu time    0.0240: real time    0.0497
    SETDIJ:  cpu time    0.0080: real time    0.0090
     EDDAV:  cpu time    1.0000: real time    1.0066
       DOS:  cpu time    0.0040: real time    0.0054
    --------------------------------------------
      LOOP:  cpu time    1.0360: real time    1.0716

 eigenvalue-minimisations  :  2088
 total energy-change (2. order) :-0.3187424E+01  (-0.2063076E+03)
 number of electron       8.0000000 magnetization 
 augmentation part        8.0000000 magnetization 

 Free energy of the ion-electron system (eV)
  ---------------------------------------------------
  alpha Z        PSCENC =         4.40202223
  Ewald energy   TEWEN  =      -265.18101312
  -Hartree energ DENC   =        -2.30415367
  -exchange      EXHF   =         0.00000000
  -V(xc)+E(xc)   XCENC  =       -17.81545108
  PAW double counting   =        65.95520812      -30.76852678
  entropy T*S    EENTRO =        -0.01376776
  eigenvalues    EBANDS =        36.42578570
  atomic energy  EATOM  =       206.11247263
  Solvation  Ediel_sol  =         0.00000000
  ---------------------------------------------------
  free energy    TOTEN  =        -3.18742373 eV

  energy without entropy =       -3.17365597  energy(sigma->0) =       -3.18053985


--------------------------------------------------------------------------------------------------------




--------------------------------------- Iteration      1(   2)  ---------------------------------------


     EDDAV:  cpu time    1.6200: real time    1.7674
       DOS:  cpu time    0.0080: real time    0.0056
    --------------------------------------------
      LOOP:  cpu time    1.6280: real time    1.7728

 eigenvalue-minimisations  :  3168
 total energy-change (2. order) :-0.6959352E+01  (-0.6599100E+01)
 number of electron       8.0000000 magnetization 
 augmentation part        8.0000000 magnetization 

 Free energy of the ion-electron system (eV)
  ---------------------------------------------------
  alpha Z        PSCENC =         4.40202223
  Ewald energy   TEWEN  =      -265.18101312
  -Hartree energ DENC   =        -2.30415367
  -exchange      EXHF   =         0.00000000
  -V(xc)+E(xc)   XCENC  =       -17.81545108
  PAW double counting   =        65.95520812      -30.76852678
  entropy T*S    EENTRO =        -0.01535950
  eigenvalues    EBANDS =        29.46802555
  atomic energy  EATOM  =       206.11247263
  Solvation  Ediel_sol  =         0.00000000
  ---------------------------------------------------
  free energy    TOTEN  =       -10.14677562 eV

  energy without entropy =      -10.13141612  energy(sigma->0) =      -10.13909587


--------------------------------------------------------------------------------------------------------




--------------------------------------- Iteration      1(   3)  ---------------------------------------


     EDDAV:  cpu time    1.2000: real time    1.5044
       DOS:  cpu time    0.0040: real time    0.0091
    --------------------------------------------
      LOOP:  cpu time    1.2040: real time    1.5136

 eigenvalue-minimisations  :  2448
 total energy-change (2. order) :-0.5867991E-01  (-0.5851447E-01)
 number of electron       8.0000000 magnetization 
 augmentation part        8.0000000 magnetization 

 Free energy of the ion-electron system (eV)
  ---------------------------------------------------
  alpha Z        PSCENC =         4.40202223
  Ewald energy   TEWEN  =      -265.18101312
  -Hartree energ DENC   =        -2.30415367
  -exchange      EXHF   =         0.00000000
  -V(xc)+E(xc)   XCENC  =       -17.81545108
  PAW double counting   =        65.95520812      -30.76852678
  entropy T*S    EENTRO =        -0.01552538
  eigenvalues    EBANDS =        29.40951152
  atomic energy  EATOM  =       206.11247263
  Solvation  Ediel_sol  =         0.00000000
  ---------------------------------------------------
  free energy    TOTEN  =       -10.20545553 eV

  energy without entropy =      -10.18993015  energy(sigma->0) =      -10.19769284


--------------------------------------------------------------------------------------------------------




--------------------------------------- Iteration      1(   4)  ---------------------------------------


     EDDAV:  cpu time    1.7560: real time    1.8507
       DOS:  cpu time    0.0040: real time    0.0053
    --------------------------------------------
      LOOP:  cpu time    1.7600: real time    1.8559

 eigenvalue-minimisations  :  3280
 total energy-change (2. order) :-0.1176352E-03  (-0.1176317E-03)
 number of electron       8.0000000 magnetization 
 augmentation part        8.0000000 magnetization 

 Free energy of the ion-electron system (eV)
  ---------------------------------------------------
  alpha Z        PSCENC =         4.40202223
  Ewald energy   TEWEN  =      -265.18101312
  -Hartree energ DENC   =        -2.30415367
  -exchange      EXHF   =         0.00000000
  -V(xc)+E(xc)   XCENC  =       -17.81545108
  PAW double counting   =        65.95520812      -30.76852678
  entropy T*S    EENTRO =        -0.01552689
  eigenvalues    EBANDS =        29.40939539
  atomic energy  EATOM  =       206.11247263
  Solvation  Ediel_sol  =         0.00000000
  ---------------------------------------------------
  free energy    TOTEN  =       -10.20557317 eV

  energy without entropy =      -10.19004628  energy(sigma->0) =      -10.19780972


--------------------------------------------------------------------------------------------------------




--------------------------------------- Iteration      1(   5)  ---------------------------------------


     EDDAV:  cpu time    1.2400: real time    1.3628
       DOS:  cpu time    0.0080: real time    0.0065
    CHARGE:  cpu time    0.0280: real time    0.0291
    MIXING:  cpu time    0.0000: real time    0.0022
    --------------------------------------------
      LOOP:  cpu time    1.2760: real time    1.4008

 eigenvalue-minimisations  :  2360
 total energy-change (2. order) :-0.3570610E-06  (-0.3577968E-06)
 number of electron       7.9999993 magnetization 
 augmentation part       -0.4670194 magnetization 

 Broyden mixing:
  rms(total) = 0.14985E+00    rms(broyden)= 0.14984E+00
  rms(prec ) = 0.33591E+00
  weight for this iteration     100.00

 Free energy of the ion-electron system (eV)
  ---------------------------------------------------
  alpha Z        PSCENC =         4.40202223
  Ewald energy   TEWEN  =      -265.18101312
  -Hartree energ DENC   =        -2.30415367
  -exchange      EXHF   =         0.00000000
  -V(xc)+E(xc)   XCENC  =       -17.81545108
  PAW double counting   =        65.95520812      -30.76852678
  entropy T*S    EENTRO =        -0.01552689
  eigenvalues    EBANDS =        29.40939503
  atomic energy  EATOM  =       206.11247263
  Solvation  Ediel_sol  =         0.00000000
  ---------------------------------------------------
  free energy    TOTEN  =       -10.20557352 eV

  energy without entropy =      -10.19004664  energy(sigma->0) =      -10.19781008


--------------------------------------------------------------------------------------------------------




--------------------------------------- Iteration      1(   6)  ---------------------------------------


    POTLOK:  cpu time    0.0200: real time    0.0479
    SETDIJ:  cpu time    0.0120: real time    0.0086
     EDDAV:  cpu time    1.2440: real time    1.2466
       DOS:  cpu time    0.0080: real time    0.0057
    CHARGE:  cpu time    0.0280: real time    0.0280
    MIXING:  cpu time    0.0000: real time    0.0016
    --------------------------------------------
      LOOP:  cpu time    1.3120: real time    1.3384

 eigenvalue-minimisations  :  2536
 total energy-change (2. order) : 0.6251490E-02  (-0.1798985E-03)
 number of electron       7.9999993 magnetization 
 augmentation part       -0.4686548 magnetization 

 Broyden mixing:
  rms(total) = 0.93726E-01    rms(broyden)= 0.93725E-01
  rms(prec ) = 0.21032E+00
  weight for this iteration     100.00

 eigenvalues of (default mixing * dielectric matrix)
  average eigenvalue GAMMA=   2.6655
  2.6655

 Free energy of the ion-electron system (eV)
  ---------------------------------------------------
  alpha Z        PSCENC =         4.40202223
  Ewald energy   TEWEN  =      -265.18101312
  -Hartree energ DENC   =        -2.33331468
  -exchange      EXHF   =         0.00000000
  -V(xc)+E(xc)   XCENC  =       -17.72654465
  PAW double counting   =        68.13209905      -32.98571724
  entropy T*S    EENTRO =        -0.01555255
  eigenvalues    EBANDS =        29.39622629
  atomic energy  EATOM  =       206.11247263
  Solvation  Ediel_sol  =         0.00000000
  ---------------------------------------------------
  free energy    TOTEN  =       -10.19932203 eV

  energy without entropy =      -10.18376949  energy(sigma->0) =      -10.19154576


--------------------------------------------------------------------------------------------------------




--------------------------------------- Iteration      1(   7)  ---------------------------------------


    POTLOK:  cpu time    0.0200: real time    0.0297
    SETDIJ:  cpu time    0.0080: real time    0.0087
     EDDAV:  cpu time    1.1040: real time    1.1014
       DOS:  cpu time    0.0040: real time    0.0059
    CHARGE:  cpu time    0.0280: real time    0.0270
    MIXING:  cpu time    0.0000: real time    0.0017
    --------------------------------------------
      LOOP:  cpu time    1.1640: real time    1.1745

 eigenvalue-minimisations  :  2272
 total energy-change (2. order) : 0.4875464E-02  (-0.5335749E-03)
 number of electron       7.9999993 magnetization 
 augmentation part       -0.4717138 magnetization 

 Broyden mixing:
  rms(total) = 0.34129E-02    rms(broyden)= 0.34084E-02
  rms(prec ) = 0.88135E-02
  weight for this iteration     100.00

 eigenvalues of (default mixing * dielectric matrix)
  average eigenvalue GAMMA=   2.6103
  2.6103  2.6103

 Free energy of the ion-electron system (eV)
  ---------------------------------------------------
  alpha Z        PSCENC =         4.40202223
  Ewald energy   TEWEN  =      -265.18101312
  -Hartree energ DENC   =        -2.47888104
  -exchange      EXHF   =         0.00000000
  -V(xc)+E(xc)   XCENC  =       -17.56212719
  PAW double counting   =        71.63545347      -36.55813467
  entropy T*S    EENTRO =        -0.01560429
  eigenvalues    EBANDS =        29.45136540
  atomic energy  EATOM  =       206.11247263
  Solvation  Ediel_sol  =         0.00000000
  ---------------------------------------------------
  free energy    TOTEN  =       -10.19444657 eV

  energy without entropy =      -10.17884228  energy(sigma->0) =      -10.18664443


--------------------------------------------------------------------------------------------------------




--------------------------------------- Iteration      1(   8)  ---------------------------------------


    POTLOK:  cpu time    0.0200: real time    0.0298
    SETDIJ:  cpu time    0.0080: real time    0.0086
     EDDAV:  cpu time    0.7680: real time    0.7693
       DOS:  cpu time    0.0040: real time    0.0073
    --------------------------------------------
      LOOP:  cpu time    0.8000: real time    0.8149

 eigenvalue-minimisations  :  1416
 total energy-change (2. order) : 0.1843407E-04  (-0.8161994E-05)
 number of electron       7.9999993 magnetization 
 augmentation part       -0.4717138 magnetization 

 Free energy of the ion-electron system (eV)
  ---------------------------------------------------
  alpha Z        PSCENC =         4.40202223
  Ewald energy   TEWEN  =      -265.18101312
  -Hartree energ DENC   =        -2.49871300
  -exchange      EXHF   =         0.00000000
  -V(xc)+E(xc)   XCENC  =       -17.56265198
  PAW double counting   =        71.42732617      -36.35043745
  entropy T*S    EENTRO =        -0.01559095
  eigenvalues    EBANDS =        29.47215732
  atomic energy  EATOM  =       206.11247263
  Solvation  Ediel_sol  =         0.00000000
  ---------------------------------------------------
  free energy    TOTEN  =       -10.19442814 eV

  energy without entropy =      -10.17883718  energy(sigma->0) =      -10.18663266


--------------------------------------------------------------------------------------------------------




 average (electrostatic) potential at core
  the test charge radii are     0.9892
  (the norm of the test charge is              1.0000)
       1 -80.5502       2 -80.5502
 
 
 
 E-fermi :   9.1285     XC(G=0): -10.8933     alpha+bet :-15.6819


 k-point     1 :       0.0000    0.0000    0.0000
  band No.  band energies     occupation 
      1      -4.6145      2.00000
      2       6.1996      2.00000
      3       6.3030      2.00000
      4       6.3030      2.00000
      5      10.6009      0.00000
      6      16.9507      0.00000
      7      17.3765      0.00000
      8      17.3765      0.00000

 k-point     2 :       0.0909   -0.0000    0.0000
  band No.  band energies     occupation 
      1      -4.3812      2.00000
      2       5.4372      2.00000
      3       6.2602      2.00000
      4       7.4750      2.00000
      5      11.0792      0.00000
      6      15.6222      0.00000
      7      16.7042      0.00000
      8      17.3915      0.00000

 k-point     3 :       0.1818   -0.0000    0.0000
  band No.  band energies     occupation 
      1      -3.6828      2.00000
      2       5.0550      2.00000
      3       6.2624      2.00000
      4       9.0115      1.59197
      5      12.3620      0.00000
      6      13.4598      0.00000
      7      13.8744      0.00000
      8      15.8512      0.00000

 k-point     4 :       0.2727   -0.0000    0.0000
  band No.  band energies     occupation 
      1      -2.5254      2.00000
      2       5.1044      2.00000
      3       6.4885      2.00000
      4       9.3225      0.17029
      5      11.4136      0.00000
      6      12.1088      0.00000
      7      13.6693      0.00000
      8      14.5584      0.00000

 k-point     5 :       0.3636   -0.0000    0.0000
  band No.  band energies     occupation 
      1      -0.9193      2.00000
      2       5.5249      2.00000
      3       6.5288      2.00000
      4       7.0010      2.00000
      5       9.6649      0.00015
      6      12.0877      0.00000
      7      13.7066      0.00000
      8      13.8504      0.00000

 k-point     6 :       0.4545   -0.0000   -0.0000
  band No.  band energies     occupation 
      1       1.1056      2.00000
      2       3.6151      2.00000
      3       6.4826      2.00000
      4       7.6364      2.00000
      5       8.0498      2.00000
      6      10.6647      0.00000
      7      13.5393      0.00000
      8      14.5800      0.00000

 k-point     7 :       0.0909    0.0909    0.0000
  band No.  band energies     occupation 
      1      -3.7809      2.00000
      2       5.3677      2.00000
      3       7.0192      2.00000
      4       8.0831      2.00000
      5      11.9063      0.00000
      6      13.9028      0.00000
      7      14.0343      0.00000
      8      16.3876      0.00000

 k-point     8 :       0.1818    0.0909   -0.0000
  band No.  band energies     occupation 
      1      -2.7200      2.00000
      2       5.3954      2.00000
      3       7.5001      2.00000
      4       9.2372      0.44229
      5      11.0450      0.00000
      6      11.5733      0.00000
      7      13.4903      0.00000
      8      14.6899      0.00000

 k-point     9 :       0.2727    0.0909    0.0000
  band No.  band energies     occupation 
      1      -1.2079      2.00000
      2       5.7812      2.00000
      3       7.1239      2.00000
      4       7.8585      2.00000
      5       9.3062      0.20907
      6      12.0767      0.00000
      7      12.5221      0.00000
      8      13.9867      0.00000

 k-point    10 :       0.3636    0.0909    0.0000
  band No.  band energies     occupation 
      1       0.7337      2.00000
      2       4.2480      2.00000
      3       6.5951      2.00000
      4       6.9940      2.00000
      5       8.7986      1.98036
      6      10.9130      0.00000
      7      12.8409      0.00000
      8      14.9859      0.00000

 k-point    11 :       0.4545    0.0909   -0.0000
  band No.  band energies     occupation 
      1       1.6521      2.00000
      2       3.1669      2.00000
      3       5.6159      2.00000
      4       7.4406      2.00000
      5       8.5724      1.99992
      6      11.2478      0.00000
      7      12.5901      0.00000
      8      15.6044      0.00000

 k-point    12 :      -0.4545    0.0909   -0.0000
  band No.  band energies     occupation 
      1      -0.4399      2.00000
      2       4.5138      2.00000
      3       5.9569      2.00000
      4       7.0220      2.00000
      5       9.6593      0.00017
      6      12.3725      0.00000
      7      13.0575      0.00000
      8      14.8221      0.00000

 k-point    13 :      -0.3636    0.0909    0.0000
  band No.  band energies     occupation 
      1      -2.1370      2.00000
      2       3.9447      2.00000
      3       6.4436      2.00000
      4       8.9364      1.82578
      5      11.3002      0.00000
      6      12.5403      0.00000
      7      13.3950      0.00000
      8      14.8100      0.00000

 k-point    14 :      -0.2727    0.0909    0.0000
  band No.  band energies     occupation 
      1      -3.3892      2.00000
      2       3.7764      2.00000
      3       6.2129      2.00000
      4       9.9010      0.00000
      5      12.6125      0.00000
      6      13.1183      0.00000
      7      13.7531      0.00000
      8      15.3169      0.00000

 k-point    15 :      -0.1818    0.0909    0.0000
  band No.  band energies     occupation 
      1      -4.1846      2.00000
      2       4.0353      2.00000
      3       6.2812      2.00000
      4       8.4488      2.00000
      5      12.1668      0.00000
      6      14.1096      0.00000
      7      16.0522      0.00000
      8      17.0704      0.00000

 k-point    16 :      -0.0909    0.0909    0.0000
  band No.  band energies     occupation 
      1      -4.5161      2.00000
      2       4.6888      2.00000
      3       6.3945      2.00000
      4       7.4615      2.00000
      5      11.2103      0.00000
      6      15.3349      0.00000
      7      16.6390      0.00000
      8      18.9682      0.00000

 k-point    17 :       0.1818    0.1818    0.0000
  band No.  band energies     occupation 
      1      -1.3043      2.00000
      2       5.7755      2.00000
      3       7.7500      2.00000
      4       7.8674      2.00000
      5       9.5134      0.00650
      6      11.3538      0.00000
      7      12.9731      0.00000
      8      13.1144      0.00000

 k-point    18 :       0.2727    0.1818    0.0000
  band No.  band energies     occupation 
      1       0.5459      2.00000
      2       5.0482      2.00000
      3       5.9891      2.00000
      4       6.5299      2.00000
      5       9.7934      0.00000
      6      11.5617      0.00000
      7      12.2432      0.00000
      8      13.6329      0.00000

 k-point    19 :       0.3636    0.1818   -0.0000
  band No.  band energies     occupation 
      1       2.3094      2.00000
      2       2.9617      2.00000
      3       4.4836      2.00000
      4       7.4293      2.00000
      5       9.1081      1.11472
      6      11.1805      0.00000
      7      12.8577      0.00000
      8      15.9733      0.00000

 k-point    20 :       0.4545    0.1818   -0.0000
  band No.  band energies     occupation 
      1       0.2267      2.00000
      2       3.2655      2.00000
      3       5.5818      2.00000
      4       7.4859      2.00000
      5       9.3872      0.06741
      6      11.4049      0.00000
      7      14.1635      0.00000
      8      15.7033      0.00000

 k-point    21 :      -0.4545    0.1818   -0.0000
  band No.  band energies     occupation 
      1      -1.5565      2.00000
      2       2.5694      2.00000
      3       6.8896      2.00000
      4       8.5737      1.99991
      5      10.4976      0.00000
      6      12.4840      0.00000
      7      13.3093      0.00000
      8      15.9519      0.00000

 k-point    22 :      -0.3636    0.1818    0.0000
  band No.  band energies     occupation 
      1      -2.9012      2.00000
      2       2.2999      2.00000
      3       6.6140      2.00000
      4      10.4793      0.00000
      5      11.4498      0.00000
      6      12.6528      0.00000
      7      14.4805      0.00000
      8      16.0018      0.00000

 k-point    23 :      -0.2727    0.1818   -0.0000
  band No.  band energies     occupation 
      1      -3.7920      2.00000
      2       2.4680      2.00000
      3       6.6306      2.00000
      4       9.1578      0.83625
      5      12.5715      0.00000
      6      14.0148      0.00000
      7      14.9843      0.00000
      8      16.5788      0.00000

 k-point    24 :      -0.1818    0.1818    0.0000
  band No.  band energies     occupation 
      1      -4.2211      2.00000
      2       3.0629      2.00000
      3       6.6695      2.00000
      4       8.2463      2.00000
      5      12.8142      0.00000
      6      13.6567      0.00000
      7      15.3304      0.00000
      8      19.3354      0.00000

 k-point    25 :       0.2727    0.2727   -0.0000
  band No.  band energies     occupation 
      1       2.5874      2.00000
      2       3.3659      2.00000
      3       3.5580      2.00000
      4       7.4205      2.00000
      5       9.5235      0.00523
      6      10.6095      0.00000
      7      14.0616      0.00000
      8      14.8647      0.00000

 k-point    26 :       0.3636    0.2727   -0.0000
  band No.  band energies     occupation 
      1       1.0750      2.00000
      2       2.0957      2.00000
      3       5.3978      2.00000
      4       8.0227      2.00000
      5       9.0392      1.47225
      6      10.7393      0.00000
      7      15.4367      0.00000
      8      16.2526      0.00000

 k-point    27 :       0.4545    0.2727    0.0000
  band No.  band energies     occupation 
      1      -0.7872      2.00000
      2       1.2901      2.00000
      3       7.5332      2.00000
      4       8.3457      2.00000
      5       9.5256      0.00500
      6      12.0998      0.00000
      7      14.0129      0.00000
      8      15.8976      0.00000

 k-point    28 :      -0.4545    0.2727    0.0000
  band No.  band energies     occupation 
      1      -2.2213      2.00000
      2       0.9224      2.00000
      3       7.2341      2.00000
      4      10.1145      0.00000
      5      11.0125      0.00000
      6      12.5505      0.00000
      7      14.2342      0.00000
      8      14.9818      0.00000

 k-point    29 :      -0.3636    0.2727   -0.0000
  band No.  band energies     occupation 
      1      -3.2053      2.00000
      2       1.0013      2.00000
      3       7.1774      2.00000
      4       9.8438      0.00000
      5      11.1636      0.00000
      6      13.7628      0.00000
      7      15.7846      0.00000
      8      16.3968      0.00000

 k-point    30 :      -0.2727    0.2727   -0.0000
  band No.  band energies     occupation 
      1      -3.7306      2.00000
      2       1.5222      2.00000
      3       7.1270      2.00000
      4       8.9079      1.88129
      5      12.1369      0.00000
      6      13.9765      0.00000
      7      14.9704      0.00000
      8      19.0779      0.00000

 k-point    31 :       0.3636    0.3636    0.0000
  band No.  band energies     occupation 
      1       0.1603      2.00000
      2       0.1690      2.00000
      3       8.0354      2.00000
      4       8.3298      2.00000
      5       8.8327      1.96353
      6      11.9764      0.00000
      7      14.5695      0.00000
      8      15.3573      0.00000

 k-point    32 :       0.4545    0.3636   -0.0000
  band No.  band energies     occupation 
      1      -1.3527      2.00000
      2      -0.3015      2.00000
      3       8.0386      2.00000
      4       9.0152      1.57718
      5      11.1741      0.00000
      6      12.8323      0.00000
      7      14.0732      0.00000
      8      14.1056      0.00000

 k-point    33 :      -0.4545    0.3636   -0.0000
  band No.  band energies     occupation 
      1      -2.4272      2.00000
      2      -0.3158      2.00000
      3       7.9086      2.00000
      4       9.9069      0.00000
      5      10.6320      0.00000
      6      12.6077      0.00000
      7      15.7990      0.00000
      8      16.5578      0.00000

 k-point    34 :      -0.3636    0.3636    0.0000
  band No.  band energies     occupation 
      1      -3.0468      2.00000
      2       0.1215      2.00000
      3       7.7690      2.00000
      4       9.6448      0.00026
      5      10.7764      0.00000
      6      12.6921      0.00000
      7      17.3009      0.00000
      8      18.8855      0.00000

 k-point    35 :       0.4545    0.4545   -0.0000
  band No.  band energies     occupation 
      1      -1.4623      2.00000
      2      -1.4616      2.00000
      3       8.8099      1.97576
      4       8.8324      1.96375
      5      11.4911      0.00000
      6      11.6102      0.00000
      7      15.7308      0.00000
      8      16.5229      0.00000

 k-point    36 :      -0.4545    0.4545   -0.0000
  band No.  band energies     occupation 
      1      -2.1731      2.00000
      2      -1.1145      2.00000
      3       8.5908      1.99986
      4       9.5962      0.00094
      5      10.5148      0.00000
      6      11.5331      0.00000
      7      18.7952      0.00000
      8      18.8318      0.00000

 k-point    37 :       0.0909    0.0909    0.0909
  band No.  band energies     occupation 
      1      -3.4868      2.00000
      2       3.7590      2.00000
      3       7.2866      2.00000
      4       8.8528      1.94882
      5      12.8696      0.00000
      6      13.4783      0.00000
      7      13.7883      0.00000
      8      15.5103      0.00000

 k-point    38 :       0.1818    0.0909    0.0909
  band No.  band energies     occupation 
      1      -2.3306      2.00000
      2       3.8623      2.00000
      3       7.7989      2.00000
      4       9.3707      0.08689
      5      10.8676      0.00000
      6      11.3198      0.00000
      7      14.3232      0.00000
      8      15.1838      0.00000

 k-point    39 :       0.2727    0.0909    0.0909
  band No.  band energies     occupation 
      1      -0.7260      2.00000
      2       4.3719      2.00000
      3       6.6206      2.00000
      4       7.9141      2.00000
      5       9.3742      0.08237
      6      12.7945      0.00000
      7      13.3999      0.00000
      8      14.1669      0.00000

 k-point    40 :       0.3636    0.0909    0.0909
  band No.  band energies     occupation 
      1       1.2959      2.00000
      2       3.7864      2.00000
      3       5.3642      2.00000
      4       6.6504      2.00000
      5       9.6140      0.00060
      6      11.8006      0.00000
      7      13.7487      0.00000
      8      14.5008      0.00000

 k-point    41 :      -0.0909    0.0909    0.0909
  band No.  band energies     occupation 
      1      -4.4178      2.00000
      2       4.3712      2.00000
      3       5.6103      2.00000
      4       8.4561      2.00000
      5      11.6703      0.00000
      6      14.1099      0.00000
      7      17.5396      0.00000
      8      18.2583      0.00000

 k-point    42 :       0.1818    0.1818    0.0909
  band No.  band energies     occupation 
      1      -0.8219      2.00000
      2       4.3085      2.00000
      3       7.3599      2.00000
      4       7.4483      2.00000
      5      10.0051      0.00000
      6      11.8948      0.00000
      7      14.0328      0.00000
      8      14.2860      0.00000

 k-point    43 :       0.2727    0.1818    0.0909
  band No.  band energies     occupation 
      1       1.1132      2.00000
      2       4.5642      2.00000
      3       5.1993      2.00000
      4       5.6465      2.00000
      5      10.7647      0.00000
      6      12.7430      0.00000
      7      13.2513      0.00000
      8      14.1855      0.00000

 k-point    44 :       0.3636    0.1818    0.0909
  band No.  band energies     occupation 
[...]
      2       1.7563      2.00000
      3       4.4217      2.00000
      4       9.3568      0.10728
      5      12.0296      0.00000
      6      15.6956      0.00000
      7      16.8485      0.00000
      8      18.4971      0.00000

 k-point    89 :      -0.1818    0.2727    0.1818
  band No.  band energies     occupation 
      1      -3.2075      2.00000
      2       2.3906      2.00000
      3       4.0513      2.00000
      4       9.4703      0.01581
      5      12.2475      0.00000
      6      15.0411      0.00000
      7      15.5126      0.00000
      8      18.6025      0.00000

 k-point    90 :      -0.3636    0.3636    0.1818
  band No.  band energies     occupation 
      1      -2.6627      2.00000
      2       0.4508      2.00000
      3       4.9753      2.00000
      4       7.9900      2.00000
      5      12.8967      0.00000
      6      15.7707      0.00000
      7      17.6258      0.00000
      8      18.2140      0.00000

 k-point    91 :      -0.2727    0.3636    0.1818
  band No.  band energies     occupation 
      1      -2.6267      2.00000
      2       1.4069      2.00000
      3       4.1148      2.00000
      4       8.0285      2.00000
      5      13.0700      0.00000
      6      14.9315      0.00000
      7      17.3356      0.00000
      8      17.9914      0.00000

 k-point    92 :      -0.1818    0.3636    0.1818
  band No.  band energies     occupation 
      1      -2.1291      2.00000
      2       2.3916      2.00000
      3       4.0919      2.00000
      4       8.4515      2.00000
      5      10.7910      0.00000
      6      14.7768      0.00000
      7      16.3764      0.00000
      8      16.9917      0.00000

 k-point    93 :      -0.4545    0.4545    0.1818
  band No.  band energies     occupation 
      1      -1.7972      2.00000
      2      -0.7533      2.00000
      3       5.7828      2.00000
      4       6.7935      2.00000
      5      13.7784      0.00000
      6      14.7341      0.00000
      7      17.9588      0.00000
      8      18.0343      0.00000

 k-point    94 :      -0.3636    0.4545    0.1818
  band No.  band energies     occupation 
      1      -1.8586      2.00000
      2       0.1977      2.00000
      3       4.7510      2.00000
      4       6.7486      2.00000
      5      13.3775      0.00000
      6      15.2228      0.00000
      7      17.0990      0.00000
      8      18.5614      0.00000

 k-point    95 :      -0.2727    0.4545    0.1818
  band No.  band energies     occupation 
      1      -1.4598      2.00000
      2       1.5090      2.00000
      3       4.2300      2.00000
      4       7.1096      2.00000
      5      10.5040      0.00000
      6      15.8899      0.00000
      7      16.5061      0.00000
      8      18.1777      0.00000

 k-point    96 :      -0.1818    0.4545    0.1818
  band No.  band energies     occupation 
      1      -0.6052      2.00000
      2       2.8374      2.00000
      3       4.5510      2.00000
      4       7.4715      2.00000
      5       8.0115      2.00000
      6      14.1225      0.00000
      7      15.7640      0.00000
      8      16.9202      0.00000

 k-point    97 :      -0.4545   -0.4545    0.1818
  band No.  band energies     occupation 
      1      -0.9127      2.00000
      2      -0.9095      2.00000
      3       5.6480      2.00000
      4       5.6486      2.00000
      5      13.4302      0.00000
      6      15.6017      0.00000
      7      16.5250      0.00000
      8      18.5962      0.00000

 k-point    98 :      -0.3636   -0.4545    0.1818
  band No.  band energies     occupation 
      1      -0.6110      2.00000
      2       0.3992      2.00000
      3       4.9517      2.00000
      4       5.9310      2.00000
      5      10.3426      0.00000
      6      16.3869      0.00000
      7      16.8279      0.00000
      8      17.9805      0.00000

 k-point    99 :      -0.2727   -0.4545    0.1818
  band No.  band energies     occupation 
      1       0.1425      2.00000
      2       2.0585      2.00000
      3       4.7689      2.00000
      4       6.5814      2.00000
      5       7.4031      2.00000
      6      14.3758      0.00000
      7      16.7177      0.00000
      8      17.9277      0.00000

 k-point   100 :      -0.1818   -0.4545    0.1818
  band No.  band energies     occupation 
      1       1.3352      2.00000
      2       3.6522      2.00000
      3       4.7750      2.00000
      4       5.4214      2.00000
      5       7.7117      2.00000
      6      12.4491      0.00000
      7      13.9605      0.00000
      8      17.4987      0.00000

 k-point   101 :      -0.3636   -0.3636    0.1818
  band No.  band energies     occupation 
      1       1.0399      2.00000
      2       1.0628      2.00000
      3       5.5505      2.00000
      4       5.5705      2.00000
      5       7.2876      2.00000
      6      14.3839      0.00000
      7      17.7363      0.00000
      8      17.9179      0.00000

 k-point   102 :      -0.2727   -0.3636    0.1818
  band No.  band energies     occupation 
      1       2.1311      2.00000
      2       3.0164      2.00000
      3       4.5379      2.00000
      4       5.7465      2.00000
      5       6.6215      2.00000
      6      12.7071      0.00000
      7      14.9928      0.00000
      8      16.5737      0.00000

 k-point   103 :      -0.1818   -0.3636    0.1818
  band No.  band energies     occupation 
      1       2.0309      2.00000
      2       3.7548      2.00000
      3       5.1276      2.00000
      4       6.6509      2.00000
      5       7.8816      2.00000
      6      11.2168      0.00000
      7      12.4576      0.00000
      8      14.8556      0.00000

 k-point   104 :      -0.2727   -0.2727    0.1818
  band No.  band energies     occupation 
      1       1.9464      2.00000
      2       4.5074      2.00000
      3       4.5877      2.00000
      4       6.9911      2.00000
      5       7.0780      2.00000
      6      11.4366      0.00000
      7      13.2500      0.00000
      8      13.8783      0.00000

 k-point   105 :      -0.1818   -0.2727    0.1818
  band No.  band energies     occupation 
      1      -0.0249      2.00000
      2       6.3429      2.00000
      3       6.8162      2.00000
      4       7.9972      2.00000
      5       8.2700      2.00000
      6      10.5683      0.00000
      7      11.5190      0.00000
      8      12.2655      0.00000

 k-point   106 :      -0.1818   -0.1818    0.1818
  band No.  band energies     occupation 
      1      -1.6921      2.00000
      2       8.1936      2.00000
      3       8.3893      2.00000
      4       8.3893      2.00000
      5       9.0161      1.57555
      6      10.0378      0.00000
      7      12.0207      0.00000
      8      12.0207      0.00000

 k-point   107 :      -0.2727    0.2727    0.2727
  band No.  band energies     occupation 
      1      -2.8582      2.00000
      2       1.6794      2.00000
      3       3.4037      2.00000
      4       7.8266      2.00000
      5      13.6026      0.00000
      6      16.8846      0.00000
      7      17.2070      0.00000
      8      18.1744      0.00000

 k-point   108 :      -0.3636    0.3636    0.2727
  band No.  band energies     occupation 
      1      -2.1867      2.00000
      2       0.7935      2.00000
      3       3.5410      2.00000
      4       6.4537      2.00000
      5      14.7120      0.00000
      6      16.7683      0.00000
      7      17.9039      0.00000
      8      18.7337      0.00000

 k-point   109 :      -0.2727    0.3636    0.2727
  band No.  band energies     occupation 
      1      -2.0535      2.00000
      2       1.4203      2.00000
      3       3.1794      2.00000
      4       6.5768      2.00000
      5      13.3933      0.00000
      6      15.9746      0.00000
      7      18.5335      0.00000
      8      19.3404      0.00000

 k-point   110 :      -0.4545    0.4545    0.2727
  band No.  band energies     occupation 
      1      -1.3349      2.00000
      2      -0.3208      2.00000
      3       4.2687      2.00000
      4       5.2593      2.00000
      5      15.5336      0.00000
      6      16.2119      0.00000
      7      17.9628      0.00000
      8      18.2570      0.00000

 k-point   111 :      -0.3636    0.4545    0.2727
  band No.  band energies     occupation 
      1      -1.2995      2.00000
      2       0.6341      2.00000
      3       3.4000      2.00000
      4       5.2950      2.00000
      5      13.3017      0.00000
      6      17.0327      0.00000
      7      19.0072      0.00000
      8      19.5525      0.00000

 k-point   112 :      -0.2727    0.4545    0.2727
  band No.  band energies     occupation 
      1      -0.8048      2.00000
      2       1.6160      2.00000
      3       3.3863      2.00000
      4       5.7535      2.00000
      5      10.1869      0.00000
      6      17.1848      0.00000
      7      17.8744      0.00000
      8      18.6686      0.00000

 k-point   113 :      -0.4545   -0.4545    0.2727
  band No.  band energies     occupation 
      1      -0.3851      2.00000
      2      -0.3802      2.00000
      3       4.2121      2.00000
      4       4.2139      2.00000
      5      13.2503      0.00000
      6      17.6726      0.00000
      7      18.4734      0.00000
      8      19.5797      0.00000

 k-point   114 :      -0.3636   -0.4545    0.2727
  band No.  band energies     occupation 
      1       0.0128      2.00000
      2       0.9300      2.00000
      3       3.6930      2.00000
      4       4.5928      2.00000
      5      10.0171      0.00000
      6      17.6342      0.00000
      7      18.7212      0.00000
      8      19.4479      0.00000

 k-point   115 :      -0.2727   -0.4545    0.2727
  band No.  band energies     occupation 
      1       0.8589      2.00000
      2       2.2598      2.00000
      3       4.0234      2.00000
      4       5.3848      2.00000
      5       7.0990      2.00000
      6      15.4335      0.00000
      7      16.9527      0.00000
      8      18.5634      0.00000

 k-point   116 :      -0.3636   -0.3636    0.2727
  band No.  band energies     occupation 
      1       1.6577      2.00000
      2       1.6914      2.00000
      3       4.4086      2.00000
      4       4.4196      2.00000
      5       7.0032      2.00000
      6      15.7464      0.00000
      7      17.7254      0.00000
      8      17.9895      0.00000

 k-point   117 :      -0.2727   -0.3636    0.2727
  band No.  band energies     occupation 
      1       2.8125      2.00000
      2       3.2871      2.00000
      3       4.4429      2.00000
      4       5.0784      2.00000
      5       5.5780      2.00000
      6      13.8789      0.00000
      7      15.0218      0.00000
      8      15.8611      0.00000

 k-point   118 :      -0.2727   -0.2727    0.2727
  band No.  band energies     occupation 
      1       1.8578      2.00000
      2       4.8973      2.00000
      3       4.9940      2.00000
      4       6.4984      2.00000
      5       6.4985      2.00000
      6      12.4773      0.00000
      7      13.1482      0.00000
      8      13.1482      0.00000

 k-point   119 :      -0.3636    0.3636    0.3636
  band No.  band energies     occupation 
      1      -1.5297      2.00000
      2       0.8984      2.00000
      3       2.6933      2.00000
      4       5.0790      2.00000
      5      15.8318      0.00000
      6      16.6782      0.00000
      7      18.3408      0.00000
      8      19.8656      0.00000

 k-point   120 :      -0.4545    0.4545    0.3636
  band No.  band energies     occupation 
      1      -0.7095      2.00000
      2       0.2104      2.00000
      3       2.9995      2.00000
      4       3.9041      2.00000
      5      16.2523      0.00000
      6      16.4668      0.00000
      7      19.0188      0.00000
      8      19.7136      0.00000

 k-point   121 :      -0.3636    0.4545    0.3636
  band No.  band energies     occupation 
      1      -0.5771      2.00000
      2       0.8337      2.00000
      3       2.6419      2.00000
      4       4.0329      2.00000
      5      13.1277      0.00000
      6      18.6068      0.00000
      7      19.9334      0.00000
      8      20.3471      0.00000

 k-point   122 :      -0.4545   -0.4545    0.3636
  band No.  band energies     occupation 
      1       0.2416      2.00000
      2       0.2484      2.00000
      3       3.0360      2.00000
      4       3.0375      2.00000
      5      13.0596      0.00000
      6      19.3072      0.00000
      7      20.2122      0.00000
      8      20.2754      0.00000

 k-point   123 :      -0.3636   -0.4545    0.3636
  band No.  band energies     occupation 
      1       0.7360      2.00000
      2       1.2263      2.00000
      3       3.0270      2.00000
      4       3.5125      2.00000
      5       9.8430      0.00000
      6      18.5507      0.00000
      7      19.8343      0.00000
      8      19.9401      0.00000

 k-point   124 :      -0.3636   -0.3636    0.3636
  band No.  band energies     occupation 
      1       2.0438      2.00000
      2       2.0902      2.00000
      3       3.8466      2.00000
      4       3.8466      2.00000
      5       6.9101      2.00000
      6      16.6218      0.00000
      7      17.6470      0.00000
      8      17.6471      0.00000

 k-point   125 :      -0.4545    0.4545    0.4545
  band No.  band energies     occupation 
      1       0.0153      2.00000
      2       0.5057      2.00000
      3       2.3320      2.00000
      4       2.8173      2.00000
      5      16.3435      0.00000
      6      16.3928      0.00000
      7      20.3871      0.00000
      8      20.8970      0.00000

 k-point   126 :      -0.4545   -0.4545    0.4545
  band No.  band energies     occupation 
      1       0.6330      2.00000
      2       0.6418      2.00000
      3       2.4609      2.00000
      4       2.4609      2.00000
      5      12.9898      0.00000
      6      19.7117      0.00000
      7      21.0493      0.00000
      8      21.0909      0.00000


--------------------------------------------------------------------------------------------------------


 soft charge-density along one line, spin component           1
         0         1         2         3         4         5         6         7         8         9
 total charge-density along one line
 
 pseudopotential strength for first ion, spin component:           1
 18.067  -0.003   0.000  -0.000  -0.000  -0.000   0.000   0.000
 -0.003   0.005  -0.000   0.000   0.000   0.000  -0.000  -0.000
  0.000  -0.000   4.117   0.000   0.000  -0.006  -0.000  -0.000
 -0.000   0.000   0.000   4.118   0.000  -0.000  -0.006  -0.000
 -0.000   0.000   0.000   0.000   4.117  -0.000  -0.000  -0.006
 -0.000   0.000  -0.006  -0.000  -0.000   0.005   0.000   0.000
  0.000  -0.000  -0.000  -0.006  -0.000   0.000   0.005   0.000
  0.000  -0.000  -0.000  -0.000  -0.006   0.000   0.000   0.005
 total augmentation occupancy for first ion, spin component:           1
  1.614  -0.639  -0.000   0.000   0.000   0.000   0.000  -0.000
 -0.639   1.065   0.000   0.000   0.000   0.000   0.000  -0.000
 -0.000   0.000   0.890   0.000  -0.000  -0.635   0.000   0.000
  0.000   0.000   0.000   0.859   0.000   0.000  -0.634   0.000
  0.000   0.000  -0.000   0.000   0.890   0.000   0.000  -0.635
  0.000   0.000  -0.635   0.000   0.000   0.537   0.000  -0.000
  0.000   0.000   0.000  -0.634   0.000  -0.000   0.566  -0.000
  0.000  -0.000   0.000   0.000  -0.635  -0.000  -0.000   0.537


------------------------ aborting loop because EDIFF is reached ----------------------------------------


    CHARGE:  cpu time    0.0120: real time    0.0148
    FORLOC:  cpu time    0.0000: real time    0.0003
    FORNL :  cpu time    0.0080: real time    0.0105
    STRESS:  cpu time    0.1200: real time    0.1194
    FORCOR:  cpu time    0.0080: real time    0.0068
    FORHAR:  cpu time    0.0000: real time    0.0017
    MIXING:  cpu time    0.0000: real time    0.0006
    OFIELD:  cpu time    0.0000: real time    0.0004

  FORCE on cell =-STRESS in cart. coord.  units (eV):
  Direction    XX          YY          ZZ          XY          YZ          ZX
  --------------------------------------------------------------------------------------
  Alpha Z     4.40202     4.40202     4.40202
  Ewald     -90.96023   -90.96023   -83.26083    -0.00000     0.00000     0.00000
  Hartree     0.55597     0.55597     1.39010     0.00000     0.00000     0.00000
  E(xc)     -25.44192   -25.44192   -25.39004     0.00003     0.00001     0.00001
  Local     -11.34899   -11.34899   -17.55471    -0.00005    -0.00005    -0.00005
  n-local    77.31974    77.03973    76.76252     1.09919    -0.33787    -0.46962
  augment   -12.03228   -12.03228   -11.93248     0.00004     0.00005     0.00005
  Kinetic    59.62741    54.81289    56.56205     3.69062    -1.71859    -3.36781
  Fock        0.00000     0.00000     0.00000     0.00000     0.00000     0.00000
  -------------------------------------------------------------------------------------
  Total      -0.42554    -0.42554     0.97863    -0.00000     0.00000     0.00000
  in kB     -22.28901   -22.28901    51.25856    -0.00000     0.00000     0.00000
  external pressure =        2.23 kB  Pullay stress =        0.00 kB


 VOLUME and BASIS-vectors are now :
 -----------------------------------------------------------------------------
  energy-cutoff  :      200.00
  volume of cell :       30.59
      direct lattice vectors                 reciprocal lattice vectors
    -2.450000000  2.450000000  1.274000000     0.000000000  0.204081633  0.392464678
     2.450000000 -2.450000000  1.274000000     0.204081633  0.000000000  0.392464678
     2.450000000  2.450000000 -1.274000000     0.204081633  0.204081633 -0.000000000

  length of vectors
     3.691622408  3.691622408  3.691622408     0.442354876  0.442354876  0.288615013


 FORCES acting on ions
    electron-ion (+dipol)            ewald-force                    non-local-force                 convergence-correction
 -----------------------------------------------------------------------------------------------
   0.124E-05 -.124E-05 0.139E-14   0.198E-14 0.156E-15 0.342E-17   0.636E-16 -.583E-17 -.940E-17   -.170E-06 0.170E-06 -.880E-16
   -.124E-05 0.124E-05 0.523E-15   -.185E-14 0.943E-16 0.891E-15   -.849E-16 0.157E-16 0.571E-17   0.170E-06 -.170E-06 0.686E-16
 -----------------------------------------------------------------------------------------------
   -.133E-13 0.123E-13 0.192E-14   0.139E-15 0.250E-15 0.894E-15   -.213E-16 0.989E-17 -.368E-17   0.262E-16 -.129E-15 -.194E-16
 
 
 POSITION                                       TOTAL-FORCE (eV/Angst)
 -----------------------------------------------------------------------------------
      2.45000      0.00000      0.63700        -0.000000      0.000000     -0.000000
     -0.00000      0.00000      0.00000         0.000000     -0.000000      0.000000
 -----------------------------------------------------------------------------------
    total drift:                               -0.000000      0.000000      0.000000


--------------------------------------------------------------------------------------------------------



  FREE ENERGIE OF THE ION-ELECTRON SYSTEM (eV)
  ---------------------------------------------------
  free  energy   TOTEN  =       -10.19442862 eV

  energy  without entropy=      -10.17885434  energy(sigma->0) =      -10.18664148
 
 d Force = 0.0000000E+00[ 0.000E+00, 0.000E+00]  d Energy =-0.1560318E-01 0.156E-01
 d Force = 0.0000000E+00[ 0.000E+00, 0.000E+00]  d Ewald  = 0.1621736E+00-0.162E+00


--------------------------------------------------------------------------------------------------------


    POTLOK:  cpu time    0.0200: real time    0.0320


--------------------------------------------------------------------------------------------------------


