unknown system                          
   1.00000000000000     
    -2.450000    2.450000    1.274000
     2.450000   -2.450000    1.274000
     2.450000    2.450000   -1.274000
   Si
     2
Direct
  0.250000  0.750000  0.500000
  0.000000  0.000000  0.000000
 
   28   28   28
 -.55856522498E+01 -.40454199471E+01 -.33642593007E-01 0.49287018928E+01 0.91428194423E+01
 0.11474707736E+02 0.11726656956E+02 0.10514400192E+02 0.87927988759E+01 0.71611573252E+01
 0.57974132151E+01 0.47616439082E+01 0.40508356575E+01 0.36394630562E+01 0.35051018747E+01
 0.36394493872E+01 0.40508387738E+01 0.47616659549E+01 0.57974227188E+01 0.71611456960E+01
 0.87927913847E+01 0.10514406978E+02 0.11726661606E+02 0.11474707050E+02 0.91428267382E+01
 0.49287094639E+01 -.33656099179E-01 -.40454435808E+01 -.40454435808E+01 -.48487445179E+01
 -.26953138046E+01 0.15574381321E+01 0.63102978192E+01 0.99842310851E+01 0.11685280802E+02
 0.11448918700E+02 0.10015179314E+02 0.82978710665E+01 0.67361685452E+01 0.54648954142E+01
 0.45231947162E+01 0.38990557118E+01 0.35661598757E+01 0.35051009070E+01 0.37115353273E+01
 0.41973916575E+01 0.49869405618E+01 0.61030816108E+01 0.75382841280E+01 0.92123017279E+01
 0.10898162102E+02 0.11882266337E+02 0.11246891165E+02 0.85354696606E+01 0.41573118445E+01
 -.60028578400E+00 -.33656099179E-01 -.26953294234E+01 -.27716498594E+01 -.24153552184E+00
 0.38727507578E+01 0.80201247209E+01 0.10852297090E+02 0.11768564718E+02 0.11024906827E+02
 0.94292736928E+01 0.77564072603E+01 0.62884572174E+01 0.51247132578E+01 0.42848405812E+01
 0.37502180496E+01 0.34955169764E+01 0.35051093705E+01 0.37785259536E+01 0.43305406179E+01
 0.51859245622E+01 0.63633809604E+01 0.78443317945E+01 0.95313865669E+01 0.11154471881E+02
 0.11953499506E+02 0.11102950109E+02 0.83144082309E+01 0.41573118445E+01 0.49287094639E+01
 0.15574317792E+01 -.24153781816E+00 0.27593241962E+00 0.28807495561E+01 0.64921547947E+01
 0.97252100596E+01 0.11539937929E+02 0.11640788942E+02 0.10459925949E+02 0.87965589999E+01
 0.71988533100E+01 0.58429370808E+01 0.47951783661E+01 0.40589748091E+01 0.36118958928E+01
 0.34311273851E+01 0.35051334415E+01 0.38368244042E+01 0.44427574020E+01 0.53467379045E+01
 0.65620916078E+01 0.80599543862E+01 0.97308617944E+01 0.11281816844E+02 0.11972996594E+02
 0.11102950109E+02 0.85354696606E+01 0.91428267382E+01 0.63102986819E+01 0.38727535605E+01
 0.28807613909E+01 0.37735669554E+01 0.61477767221E+01 0.89732624282E+01 0.11121500817E+02
 0.11894181078E+02 0.11271948967E+02 0.97959348764E+01 0.81519339933E+01 0.66548447604E+01
 0.54224250220E+01 0.44924367667E+01 0.38563044684E+01 0.34905860134E+01 0.33760712610E+01
 0.35051741176E+01 0.38833548894E+01 0.45277022873E+01 0.54596732054E+01 0.66866265512E+01
 0.81713508300E+01 0.97987147511E+01 0.11281816844E+02 0.11953499506E+02 0.11246891165E+02
 0.11474707050E+02 0.99842276305E+01 0.80201183677E+01 0.64921655837E+01 0.61477987685E+01
 0.71671210633E+01 0.90634018105E+01 0.10949423514E+02 0.12002506974E+02 0.11853390871E+02
 0.10697313615E+02 0.91021902642E+01 0.75290303702E+01 0.61512002483E+01 0.50462959545E+01
 0.42296537722E+01 0.36853781927E+01 0.33914392248E+01 0.33327813070E+01 0.35052227005E+01
 0.39157258980E+01 0.45806223904E+01 0.55178992198E+01 0.67290421014E+01 0.81713508300E+01
 0.97308617944E+01 0.11154471881E+02 0.11882266337E+02 0.11726661606E+02 0.11685284250E+02
 0.10852284166E+02 0.97251982601E+01 0.89732772875E+01 0.90634268922E+01 0.99870906037E+01
 0.11261488466E+02 0.12203004015E+02 0.12299232052E+02 0.11458436082E+02 0.10009835585E+02
 0.84302934398E+01 0.69591827044E+01 0.57105737417E+01 0.47298169415E+01 0.40167376424E+01
 0.35524821036E+01 0.33182080137E+01 0.33030075853E+01 0.35052628094E+01 0.39323181065E+01
 0.45985911316E+01 0.55178992198E+01 0.66866265512E+01 0.80599543862E+01 0.95313865669E+01
 0.10898162102E+02 0.10514406978E+02 0.11448937815E+02 0.11768571448E+02 0.11539920026E+02
 0.11121486943E+02 0.10949437258E+02 0.11261508824E+02 0.11938585896E+02 0.12569687626E+02
 0.12697085635E+02 0.12083011463E+02 0.10836314684E+02 0.93214834997E+01 0.78186911558E+01
 0.64697264956E+01 0.53508565016E+01 0.44841282727E+01 0.38605327741E+01 0.34618340567E+01
 0.32733599905E+01 0.32878562187E+01 0.35052784014E+01 0.39323181065E+01 0.45806223904E+01
 0.54596732054E+01 0.65620916078E+01 0.78443317945E+01 0.92123017279E+01 0.87927913847E+01
 0.10015191646E+02 0.11024933609E+02 0.11640797412E+02 0.11894164250E+02 0.12002494806E+02
 0.12203012194E+02 0.12569697775E+02 0.12942739641E+02 0.13022003685E+02 0.12561334541E+02
 0.11533751666E+02 0.10158759052E+02 0.86956234116E+01 0.73025093809E+01 0.60829805234E+01
 0.50852090934E+01 0.43166922159E+01 0.37653101069E+01 0.34159380505E+01 0.32582654408E+01
 0.32878562187E+01 0.35052628094E+01 0.39157258980E+01 0.45277022873E+01 0.53467379045E+01
 0.63633809604E+01 0.75382841280E+01 0.71611456960E+01 0.82978592188E+01 0.94292861063E+01
 0.10459951597E+02 0.11271957504E+02 0.11853380445E+02 0.12299224510E+02 0.12697086253E+02
 0.13022002280E+02 0.13124029970E+02 0.12822424054E+02 0.12040452111E+02 0.10883325504E+02
 0.95442864260E+01 0.81791509461E+01 0.69112876338E+01 0.58157888147E+01 0.49224726617E+01
 0.42319536333E+01 0.37333356714E+01 0.34159380505E+01 0.32733599905E+01 0.33030075853E+01
 0.35052227005E+01 0.38833548894E+01 0.44427574020E+01 0.51859245622E+01 0.61030816108E+01
 0.57974227188E+01 0.67361561399E+01 0.77563940148E+01 0.87965661446E+01 0.97959519015E+01
 0.10697320781E+02 0.11458434612E+02 0.12083009748E+02 0.12561328737E+02 0.12822413970E+02
 0.12752874575E+02 0.12274377093E+02 0.11419469161E+02 0.10301916565E+02 0.90555581677E+01
 0.78112504108E+01 0.66673040828E+01 0.56793862204E+01 0.48676838916E+01 0.42319536333E+01
 0.37653101069E+01 0.34618340567E+01 0.33182080137E+01 0.33327813070E+01 0.35051741176E+01
 0.38368244042E+01 0.43305406179E+01 0.49869405618E+01 0.47616659549E+01 0.54649072700E+01
 0.62884489416E+01 0.71988415480E+01 0.81519329373E+01 0.91021950875E+01 0.10009840276E+02
 0.10836321079E+02 0.11533755138E+02 0.12040443444E+02 0.12274363683E+02 0.12162977540E+02
 0.11687367740E+02 0.10890528025E+02 0.98685170659E+01 0.87413862417E+01 0.76199857655E+01
 0.65844094216E+01 0.56793862204E+01 0.49224726617E+01 0.43166922159E+01 0.38605327741E+01
 0.35524821036E+01 0.33914392248E+01 0.33760712610E+01 0.35051334415E+01 0.37785259536E+01
 0.41973916575E+01 0.40508387738E+01 0.45232117662E+01 0.51247255701E+01 0.58429357732E+01
 0.66548365956E+01 0.75290219578E+01 0.84302872568E+01 0.93214849226E+01 0.10158769319E+02
 0.10883332291E+02 0.11419461802E+02 0.11687356109E+02 0.11628606777E+02 0.11231104379E+02
 0.10538354348E+02 0.96375075595E+01 0.86330718708E+01 0.76199857655E+01 0.66673040828E+01
 0.58157888147E+01 0.50852090934E+01 0.44841282727E+01 0.40167376424E+01 0.36853781927E+01
 0.34905860134E+01 0.34311273851E+01 0.35051093705E+01 0.37115353273E+01 0.36394493872E+01
 0.38990509239E+01 0.42848481523E+01 0.47951891658E+01 0.54224302814E+01 0.61511967705E+01
 0.69591712755E+01 0.78186787798E+01 0.86956211005E+01 0.95442957180E+01 0.10301924571E+02
 0.10890524721E+02 0.11231097023E+02 0.11266635137E+02 0.10982818003E+02 0.10414984507E+02
 0.96375075595E+01 0.87413862417E+01 0.78112504108E+01 0.69112876338E+01 0.60829805234E+01
 0.53508565016E+01 0.47298169415E+01 0.42296537722E+01 0.38563044684E+01 0.36118958928E+01
 0.34955169764E+01 0.35051009070E+01 0.35051018747E+01 0.35661479181E+01 0.37502059146E+01
 0.40589726872E+01 0.44924440477E+01 0.50463044234E+01 0.57105751239E+01 0.64697179463E+01
 0.73024966483E+01 0.81791448968E+01 0.90555631649E+01 0.98685248910E+01 0.10538355177E+02
 0.10982813969E+02 0.11138877477E+02 0.10982818003E+02 0.10538354348E+02 0.98685170659E+01
 0.90555581677E+01 0.81791509461E+01 0.73025093809E+01 0.64697264956E+01 0.57105737417E+01
 0.50462959545E+01 0.44924367667E+01 0.40589748091E+01 0.37502180496E+01 0.35661598757E+01
 0.36394630562E+01 0.35051078782E+01 0.34955085302E+01 0.36118807724E+01 0.38562961939E+01
 0.42296557263E+01 0.47298239401E+01 0.53508622418E+01 0.60829795203E+01 0.69112786192E+01
 0.78112412581E+01 0.87413866724E+01 0.96375148984E+01 0.10414987050E+02 0.10982813969E+02
 0.11266635137E+02 0.11231104379E+02 0.10890528025E+02 0.10301916565E+02 0.95442864260E+01
 0.86956234116E+01 0.78186911558E+01 0.69591827044E+01 0.61512002483E+01 0.54224250220E+01
 0.47951783661E+01 0.42848405812E+01 0.38990557118E+01 0.40508356575E+01 0.37115482362E+01
 0.35051200908E+01 0.34311236309E+01 0.34905745295E+01 0.36853690550E+01 0.40167331431E+01
 0.44841300239E+01 0.50852182307E+01 0.58157965071E+01 0.66672994567E+01 0.76199748309E+01
 0.86330703818E+01 0.96375148984E+01 0.10538355177E+02 0.11231097023E+02 0.11628606777E+02
 0.11687367740E+02 0.11419469161E+02 0.10883325504E+02 0.10158759052E+02 0.93214834997E+01
 0.84302934398E+01 0.75290303702E+01 0.66548447604E+01 0.58429370808E+01 0.51247132578E+01
 0.45231947162E+01 0.47616439082E+01 0.41973837002E+01 0.37785352520E+01 0.35051429252E+01
 0.33760728317E+01 0.33914374727E+01 0.35524765717E+01 0.38605219287E+01 0.43166876321E+01
 0.49224839409E+01 0.56793996264E+01 0.65844066831E+01 0.76199748309E+01 0.87413866724E+01
 0.98685248910E+01 0.10890524721E+02 0.11687356109E+02 0.12162977540E+02 0.12274377093E+02
 0.12040452111E+02 0.11533751666E+02 0.10836314684E+02 0.10009835585E+02 0.91021902642E+01
 0.81519339933E+01 0.71988533100E+01 0.62884572174E+01 0.54648954142E+01 0.57974132151E+01
 0.49869209606E+01 0.43305328486E+01 0.38368275834E+01 0.35051778267E+01 0.33327881582E+01
 0.33182187263E+01 0.34618338191E+01 0.37652945609E+01 0.42319448170E+01 0.48676959003E+01
 0.56793996264E+01 0.66672994567E+01 0.78112412581E+01 0.90555631649E+01 0.10301924571E+02
 0.11419461802E+02 0.12274363683E+02 0.12752874575E+02 0.12822424054E+02 0.12561334541E+02
 0.12083011463E+02 0.11458436082E+02 0.10697313615E+02 0.97959348764E+01 0.87965589999E+01
 0.77564072603E+01 0.67361685452E+01 0.71611573252E+01 0.61030761843E+01 0.51859150640E+01
 0.44427544754E+01 0.38833506937E+01 0.35052185205E+01 0.33030187719E+01 0.32733810400E+01
 0.34159415296E+01 0.37333183847E+01 0.42319448170E+01 0.49224839409E+01 0.58157965071E+01
 0.69112786192E+01 0.81791448968E+01 0.95442957180E+01 0.10883332291E+02 0.12040443444E+02
 0.12822413970E+02 0.13124029970E+02 0.13022003685E+02 0.12697085635E+02 0.12299232052E+02
 0.11853390871E+02 0.11271948967E+02 0.10459925949E+02 0.94292736928E+01 0.82978710665E+01
 0.87927988759E+01 0.75382900483E+01 0.63633807927E+01 0.53467432497E+01 0.45277064643E+01
 0.39157150137E+01 0.35052519702E+01 0.32878698694E+01 0.32582904872E+01 0.34159415296E+01
 0.37652945609E+01 0.43166876321E+01 0.50852182307E+01 0.60829795203E+01 0.73024966483E+01
 0.86956211005E+01 0.10158769319E+02 0.11533755138E+02 0.12561328737E+02 0.13022002280E+02
 0.12942739641E+02 0.12569687626E+02 0.12203004015E+02 0.12002506974E+02 0.11894181078E+02
 0.11640788942E+02 0.11024906827E+02 0.10015179314E+02 0.10514400192E+02 0.92123027616E+01
 0.78443290408E+01 0.65620967940E+01 0.54596930531E+01 0.45806326633E+01 0.39323032323E+01
 0.35052649727E+01 0.32878698694E+01 0.32733810400E+01 0.34618338191E+01 0.38605219287E+01
 0.44841300239E+01 0.53508622418E+01 0.64697179463E+01 0.78186787798E+01 0.93214849226E+01
 0.10836321079E+02 0.12083009748E+02 0.12697086253E+02 0.12569697775E+02 0.11938585896E+02
 0.11261488466E+02 0.10949423514E+02 0.11121500817E+02 0.11539937929E+02 0.11768564718E+02
 0.11448918700E+02 0.11726656956E+02 0.10898164201E+02 0.95313807251E+01 0.80599431362E+01
 0.66866357708E+01 0.55179279696E+01 0.45986037830E+01 0.39323032323E+01 0.35052519702E+01
 0.33030187719E+01 0.33182187263E+01 0.35524765717E+01 0.40167331431E+01 0.47298239401E+01
 0.57105751239E+01 0.69591712755E+01 0.84302872568E+01 0.10009840276E+02 0.11458434612E+02
 0.12299224510E+02 0.12203012194E+02 0.11261508824E+02 0.99870906037E+01 0.90634018105E+01
 0.89732624282E+01 0.97252100596E+01 0.10852297090E+02 0.11685280802E+02 0.11474707736E+02
 0.11882278254E+02 0.11154482790E+02 0.97308506927E+01 0.81713343736E+01 0.67290528235E+01
 0.55179279696E+01 0.45806326633E+01 0.39157150137E+01 0.35052185205E+01 0.33327881582E+01
 0.33914374727E+01 0.36853690550E+01 0.42296557263E+01 0.50463044234E+01 0.61511967705E+01
 0.75290219578E+01 0.91021950875E+01 0.10697320781E+02 0.11853380445E+02 0.12002494806E+02
 0.10949437258E+02 0.90634268922E+01 0.71671210633E+01 0.61477767221E+01 0.64921547947E+01
 0.80201247209E+01 0.99842310851E+01 0.91428194423E+01 0.11246895680E+02 0.11953524421E+02
 0.11281833162E+02 0.97987016793E+01 0.81713343736E+01 0.66866357708E+01 0.54596930531E+01
 0.45277064643E+01 0.38833506937E+01 0.35051778267E+01 0.33760728317E+01 0.34905745295E+01
 0.38562961939E+01 0.44924440477E+01 0.54224302814E+01 0.66548365956E+01 0.81519329373E+01
 0.97959519015E+01 0.11271957504E+02 0.11894164250E+02 0.11121486943E+02 0.89732772875E+01
 0.61477987685E+01 0.37735669554E+01 0.28807495561E+01 0.38727507578E+01 0.63102978192E+01
 0.49287018928E+01 0.85354539952E+01 0.11102956926E+02 0.11973026414E+02 0.11281833162E+02
 0.97308506927E+01 0.80599431362E+01 0.65620967940E+01 0.53467432497E+01 0.44427544754E+01
 0.38368275834E+01 0.35051429252E+01 0.34311236309E+01 0.36118807724E+01 0.40589726872E+01
 0.47951891658E+01 0.58429357732E+01 0.71988415480E+01 0.87965661446E+01 0.10459951597E+02
 0.11640797412E+02 0.11539920026E+02 0.97251982601E+01 0.64921655837E+01 0.28807613909E+01
 0.27593241962E+00 -.24153552184E+00 0.15574381321E+01 -.33642593007E-01 0.41573002548E+01
 0.83143894203E+01 0.11102956926E+02 0.11953524421E+02 0.11154482790E+02 0.95313807251E+01
 0.78443290408E+01 0.63633807927E+01 0.51859150640E+01 0.43305328486E+01 0.37785352520E+01
 0.35051200908E+01 0.34955085302E+01 0.37502059146E+01 0.42848481523E+01 0.51247255701E+01
 0.62884489416E+01 0.77563940148E+01 0.94292861063E+01 0.11024933609E+02 0.11768571448E+02
 0.10852284166E+02 0.80201183677E+01 0.38727535605E+01 -.24153781816E+00 -.27716498594E+01
 -.26953138046E+01 -.40454199471E+01 -.60026958701E+00 0.41573002548E+01 0.85354539952E+01
 0.11246895680E+02 0.11882278254E+02 0.10898164201E+02 0.92123027616E+01 0.75382900483E+01
 0.61030761843E+01 0.49869209606E+01 0.41973837002E+01 0.37115482362E+01 0.35051078782E+01
 0.35661479181E+01 0.38990509239E+01 0.45232117662E+01 0.54649072700E+01 0.67361561399E+01
 0.82978592188E+01 0.10015191646E+02 0.11448937815E+02 0.11685284250E+02 0.99842276305E+01
 0.63102986819E+01 0.15574317792E+01 -.26953294234E+01 -.48487445179E+01 -.40453661188E+01
 -.29253282503E+01 0.58550285722E+00 0.51274437374E+01 0.90905102023E+01 0.11336935293E+02
 0.11602139614E+02 0.10423437212E+02 0.87101134060E+01 0.70716265947E+01 0.56919551019E+01
 0.46345761661E+01 0.38983395902E+01 0.34574503590E+01 0.32877698690E+01 0.33787540522E+01
 0.37365921997E+01 0.43823806413E+01 0.53429282798E+01 0.66283245885E+01 0.81947242038E+01
 0.98998947806E+01 0.11271483631E+02 0.11409426968E+02 0.96450701535E+01 0.60329125292E+01
 0.15231069285E+01 -.23306993832E+01 -.29253479415E+01 -.40453760711E+01 -.23307002197E+01
 0.15230955179E+01 0.60328868018E+01 0.96450431262E+01 0.11409402948E+02 0.11271458986E+02
 0.98998761136E+01 0.81947194642E+01 0.66283233840E+01 0.53429157254E+01 0.43823629632E+01
 0.37365853458E+01 0.33787568094E+01 0.32877723199E+01 0.34574579970E+01 0.38983630375E+01
 0.46346064106E+01 0.56919745100E+01 0.70716361140E+01 0.87101255556E+01 0.10423452538E+02
 0.11602153427E+02 0.11336955062E+02 0.90905404881E+01 0.51274661415E+01 0.58549831987E+00
 0.68448484089E+00 -.22252083765E+01 -.26952847532E+01 -.55530777492E+00 0.33083921349E+01
 0.74028729091E+01 0.10343899832E+02 0.11435659504E+02 0.10837832676E+02 0.93064353312E+01
 0.76453942468E+01 0.61731102358E+01 0.49968764114E+01 0.41415078185E+01 0.35899729803E+01
 0.33161686792E+01 0.33029471237E+01 0.35486183380E+01 0.40675075658E+01 0.48854690043E+01
 0.60255069431E+01 0.74786717510E+01 0.91633249458E+01 0.10852458409E+02 0.11852803516E+02
 0.11311437750E+02 0.88438891022E+01 0.48902914418E+01 0.53845982465E+01 0.18076926946E+01
 -.35755434904E+00 -.24152421488E+00 0.20726503747E+01 0.55972753388E+01 0.89453309331E+01
 0.10991739890E+02 0.11326184387E+02 0.10295161165E+02 0.86788996935E+01 0.70903318748E+01
 0.57292926417E+01 0.46709901086E+01 0.39235094525E+01 0.34653418206E+01 0.32726636608E+01
 0.33327616645E+01 0.36480755122E+01 0.42357078857E+01 0.51217084099E+01 0.63247254255E+01
 0.78254804396E+01 0.95275653810E+01 0.11171896768E+02 0.12046339623E+02 0.11397325099E+02
 0.89907841205E+01 0.95141367711E+01 0.65163674876E+01 0.37442172782E+01 0.23390802061E+01
 0.28807422481E+01 0.50879204978E+01 0.79728728190E+01 0.10353072941E+02 0.11415328939E+02
 0.11026537414E+02 0.96663074385E+01 0.80492451170E+01 0.65562332945E+01 0.53178695857E+01
 0.43801735842E+01 0.37380919755E+01 0.33682700840E+01 0.32503646322E+01 0.33761015364E+01
 0.37512760377E+01 0.43944508420E+01 0.53302350711E+01 0.65717279292E+01 0.80901750610E+01
 0.97793844557E+01 0.11370343093E+02 0.12190546782E+02 0.11607407955E+02 0.11896657429E+02
 0.10297697524E+02 0.80576377410E+01 0.61352433010E+01 0.53940108595E+01 0.61477528208E+01
 0.79948798439E+01 0.10042281538E+02 0.11377803280E+02 0.11509571112E+02 0.10537860015E+02
 0.90048553178E+01 0.74460711016E+01 0.60671160954E+01 0.49566229533E+01 0.41365072310E+01
 0.35928234915E+01 0.33028246765E+01 0.32503772750E+01 0.34312045795E+01 0.38533597951E+01
 0.45353725361E+01 0.54988722324E+01 0.67507698992E+01 0.82546887660E+01 0.99005989357E+01
 0.11435644757E+02 0.12270507910E+02 0.12251470005E+02 0.12174808002E+02 0.11156968457E+02
 0.97031856966E+01 0.85588119534E+01 0.83115841221E+01 0.90633669816E+01 0.10375723481E+02
 0.11521930237E+02 0.11885006983E+02 0.11262860737E+02 0.99201527088E+01 0.83640547430E+01
 0.68964041695E+01 0.56434547675E+01 0.46596188726E+01 0.39489725408E+01 0.34929651750E+01
 0.32714464876E+01 0.32726959114E+01 0.34956250868E+01 0.39492652138E+01 0.46506303830E+01
 0.56171432964E+01 0.68495671189E+01 0.83065541653E+01 0.98803758233E+01 0.11354819249E+02
 0.11118625559E+02 0.12091286032E+02 0.12333742446E+02 0.11888418899E+02 0.11144927908E+02
 0.10626087180E+02 0.10678413841E+02 0.11261451376E+02 0.11972659720E+02 0.12290187058E+02
 0.11876185823E+02 0.10755648817E+02 0.92742945734E+01 0.77774611027E+01 0.64245835092E+01
 0.53017260541E+01 0.44371330522E+01 0.38235249018E+01 0.34415512302E+01 0.32749828013E+01
 0.33162059654E+01 0.35662733772E+01 0.40339084854E+01 0.47333527406E+01 0.56771126487E+01
 0.68605628150E+01 0.82405038040E+01 0.97170493756E+01 0.94191733152E+01 0.10729059873E+02
 0.11758114573E+02 0.12281179711E+02 0.12322915450E+02 0.12143891271E+02 0.12064072866E+02
 0.12243717804E+02 0.12569657422E+02 0.12725261176E+02 0.12396262765E+02 0.11475071039E+02
 0.10134214888E+02 0.86747330165E+01 0.72765413069E+01 0.60513776009E+01 0.50543456011E+01
 0.42959305024E+01 0.37634304175E+01 0.34396438662E+01 0.33128365922E+01 0.33787819055E+01
 0.36395543797E+01 0.41024717893E+01 0.47781811187E+01 0.56742242461E+01 0.67819809423E+01
 0.80595595673E+01 0.77752384999E+01 0.90053279552E+01 0.10206522492E+02 0.11247149160E+02
 0.11970343888E+02 0.12368453417E+02 0.12581021135E+02 0.12764596125E+02 0.12954637110E+02
 0.13021986546E+02 0.12757814395E+02 0.12027383201E+02 0.10884735388E+02 0.95400075039E+01
 0.81656569040E+01 0.68897404704E+01 0.57933884220E+01 0.49098890611E+01 0.42397626871E+01
 0.37697392306E+01 0.34866633279E+01 0.33831693421E+01 0.34574506268E+01 0.37115964942E+01
 0.41507895862E+01 0.47818505570E+01 0.56079927140E+01 0.66184035574E+01 0.63806193809E+01
 0.74066326959E+01 0.85024805487E+01 0.95903187214E+01 0.10590373756E+02 0.11416701112E+02
 0.12030883340E+02 0.12474908109E+02 0.12789862194E+02 0.12941988578E+02 0.12822420773E+02
 0.12325382467E+02 0.11447112285E+02 0.10307127390E+02 0.90431221000E+01 0.77868599829E+01
 0.66405242965E+01 0.56626738711E+01 0.48734362184E+01 0.42699052891E+01 0.38417356593E+01
 0.35806728917E+01 0.34830802287E+01 0.35485731539E+01 0.37785323663E+01 0.41757712148E+01
 0.47436848695E+01 0.54823446772E+01 0.53054341474E+01 0.60846294447E+01 0.69784050490E+01
 0.79431225559E+01 0.89213424744E+01 0.98548139399E+01 0.10696953981E+02 0.11408114681E+02
 0.11964396148E+02 0.12337370552E+02 0.12465450913E+02 0.12274383335E+02 0.11736088956E+02
 0.10894710554E+02 0.98418465637E+01 0.86962883792E+01 0.75704050394E+01 0.65457810054E+01
 0.56664749753E+01 0.49468675303E+01 0.43855504430E+01 0.39772058151E+01 0.37185100862E+01
 0.36086969715E+01 0.36480011246E+01 0.38367791809E+01 0.41757651329E+01 0.46658544875E+01
 0.45532793497E+01 0.50888741949E+01 0.57499238958E+01 0.65180643609E+01 0.73617850780E+01
 0.82396371357E+01 0.91080346677E+01 0.99275067372E+01 0.10660833934E+02 0.11263634177E+02
 0.11677281324E+02 0.11835656084E+02 0.11687376865E+02 0.11221648922E+02 0.10480938193E+02
 0.95517747635E+01 0.85389818790E+01 0.75374938229E+01 0.66145764009E+01 0.58069599913E+01
 0.51289641879E+01 0.45838943801E+01 0.41724062126E+01 0.38957035748E+01 0.37551540618E+01
 0.37511890773E+01 0.38832717704E+01 0.41507705970E+01 0.41024383838E+01 0.44131505299E+01
 0.48464947843E+01 0.53973635996E+01 0.60530948955E+01 0.67916910984E+01 0.75836814892E+01
 0.83962181347E+01 0.91949662406E+01 0.99404011667E+01 0.10581040024E+02 0.11051855430E+02
 0.11284985695E+02 0.11231111029E+02 0.10880520801E+02 0.10271177028E+02 0.94785893510E+01
 0.85930826995E+01 0.76963177419E+01 0.68472932850E+01 0.60809346627E+01 0.54152079453E+01
 0.48598356093E+01 0.44217061783E+01 0.41061954782E+01 0.39164932855E+01 0.38532793363E+01
 0.39156230831E+01 0.39322126752E+01 0.40338602217E+01 0.42541566211E+01 0.45928812586E+01
 0.50471121662E+01 0.56085250895E+01 0.62621858812E+01 0.69875948694E+01 0.77603953272E+01
 0.85515107409E+01 0.93222180055E+01 0.10018535376E+02 0.10571930758E+02 0.10911193044E+02
 0.10982820134E+02 0.10770188023E+02 0.10300913099E+02 0.96381235856E+01 0.88604161236E+01
 0.80409770084E+01 0.72351931246E+01 0.64794886147E+01 0.57972545769E+01 0.52053193748E+01
 0.47169976507E+01 0.43419818663E+01 0.40855798701E+01 0.39492069416E+01 0.40338805821E+01
 0.39322234308E+01 0.39492048622E+01 0.40855872499E+01 0.43420063498E+01 0.47170236465E+01
 0.52053387015E+01 0.57972735503E+01 0.64795048184E+01 0.72351965030E+01 0.80409745204E+01
 0.88604254511E+01 0.96381422810E+01 0.10300922269E+02 0.10770184563E+02 0.10982816297E+02
 0.10911187336E+02 0.10571910377E+02 0.10018505843E+02 0.93221996541E+01 0.85515062708E+01
 0.77603891352E+01 0.69875819419E+01 0.62621730494E+01 0.56085086150E+01 0.50470849993E+01
 0.45928580695E+01 0.42541591413E+01 0.44131619805E+01 0.41024737303E+01 0.39156521363E+01
 0.38532945723E+01 0.39165110371E+01 0.41062194791E+01 0.44217250601E+01 0.48598504427E+01
 0.54152283954E+01 0.60809531275E+01 0.68472948530E+01 0.76963097956E+01 0.85930837119E+01
 0.94785955940E+01 0.10271171194E+02 0.10880505077E+02 0.11231099823E+02 0.11284974256E+02
 0.11051828535E+02 0.10581004372E+02 0.99403772767E+01 0.91949553665E+01 0.83962072275E+01
 0.75836713085E+01 0.67916884896E+01 0.60530886286E+01 0.53973416937E+01 0.48464756617E+01
 0.50888628091E+01 0.45532986116E+01 0.41508139326E+01 0.38833105658E+01 0.37512169353E+01
 0.37551812695E+01 0.38957256818E+01 0.41724141454E+01 0.45839001078E+01 0.51289820674E+01
 0.58069775563E+01 0.66145753256E+01 0.75374829645E+01 0.85389781073E+01 0.95517695962E+01
 0.10480916130E+02 0.11221620349E+02 0.11687359425E+02 0.11835641235E+02 0.11677252317E+02
 0.11263599636E+02 0.10660811597E+02 0.99274922694E+01 0.91080179207E+01 0.82396289070E+01
 0.73617948511E+01 0.65180727237E+01 0.57499123698E+01 0.60846307403E+01 0.53054340686E+01
 0.46658800046E+01 0.41758074196E+01 0.38368167003E+01 0.36480345091E+01 0.36087303486E+01
 0.37185283825E+01 0.39772019524E+01 0.43855466126E+01 0.49468801855E+01 0.56664869433E+01
 0.65457749669E+01 0.75703936331E+01 0.86962837590E+01 0.98418326416E+01 0.10894674920E+02
 0.11736051149E+02 0.12274362129E+02 0.12465433743E+02 0.12337343064E+02 0.11964370692E+02
 0.11408102155E+02 0.10696940286E+02 0.98547924917E+01 0.89213362245E+01 0.79431439329E+01
 0.69784276476E+01 0.74066642378E+01 0.63806326373E+01 0.54823577934E+01 0.47437141170E+01
 0.41758037354E+01 0.37785586611E+01 0.35486042390E+01 0.34831138222E+01 0.35806845576E+01
 0.38417220032E+01 0.42698951856E+01 0.48734426300E+01 0.56626757702E+01 0.66405110009E+01
 0.77868493628E+01 0.90431188063E+01 0.10307107952E+02 0.11447069820E+02 0.12325343354E+02
 0.12822399836E+02 0.12941969883E+02 0.12789839167E+02 0.12474898091E+02 0.12030886826E+02
 0.11416692776E+02 0.10590351472E+02 0.95903156271E+01 0.85025096280E+01 0.90053585108E+01
 0.77752705165E+01 0.66184248765E+01 0.56080177788E+01 0.47818796974E+01 0.41508061999E+01
 0.37116056093E+01 0.34574726048E+01 0.33831955281E+01 0.34866651074E+01 0.37697195754E+01
 0.42397513827E+01 0.49098896082E+01 0.57933780823E+01 0.68897194933E+01 0.81656473425E+01
 0.95400052161E+01 0.10884713651E+02 0.12027343322E+02 0.12757784238E+02 0.13021971012E+02
 0.12954618627E+02 0.12764580081E+02 0.12581029223E+02 0.12368474510E+02 0.11970344298E+02
 0.11247131740E+02 0.10206524281E+02 0.10729067673E+02 0.94191984889E+01 0.80595832805E+01
 0.67820043992E+01 0.56742562815E+01 0.47782052319E+01 0.41024703675E+01 0.36395457284E+01
 0.33787904817E+01 0.33128482897E+01 0.34396333332E+01 0.37634088711E+01 0.42959223012E+01
 0.50543414749E+01 0.60513565294E+01 0.72765153408E+01 0.86747244769E+01 0.10134211673E+02
 0.11475049970E+02 0.12396234858E+02 0.12725249207E+02 0.12569652364E+02 0.12243702884E+02
 0.12064065995E+02 0.12143915556E+02 0.12322950336E+02 0.12281189938E+02 0.11758107498E+02
 0.12091292254E+02 0.11118638887E+02 0.97170637007E+01 0.82405130108E+01 0.68605819906E+01
 0.56771437684E+01 0.47333667504E+01 0.40338910488E+01 0.35662512162E+01 0.33162002732E+01
 0.32749760895E+01 0.34415282384E+01 0.38235046131E+01 0.44371296031E+01 0.53017187032E+01
 0.64245568539E+01 0.77774357870E+01 0.92742876157E+01 0.10755642958E+02 0.11876168152E+02
 0.12290177537E+02 0.11972670797E+02 0.11261460338E+02 0.10678407062E+02 0.10626091041E+02
 0.11144962420E+02 0.11888459439E+02 0.12333760720E+02 0.12174830014E+02 0.12251488391E+02
 0.11354835651E+02 0.98803768542E+01 0.83065471529E+01 0.68495768191E+01 0.56171648694E+01
 0.46506304528E+01 0.39492368513E+01 0.34955964531E+01 0.32726784819E+01 0.32714224019E+01
 0.34929328131E+01 0.39489552881E+01 0.46596188872E+01 0.56434455665E+01 0.68963790988E+01
 0.83640369453E+01 0.99201489369E+01 0.11262852449E+02 0.11884995240E+02 0.11521940595E+02
 0.10375756243E+02 0.90633907083E+01 0.83115897461E+01 0.85588267097E+01 0.97032220767E+01
 0.11157004705E+02 0.10297720759E+02 0.11896677422E+02 0.12270533181E+02 0.11435660299E+02
 0.99005878585E+01 0.82546686025E+01 0.67507675969E+01 0.54988777301E+01 0.45353574828E+01
 0.38533268490E+01 0.34311765537E+01 0.32503530688E+01 0.33027893907E+01 0.35927880408E+01
 0.41364938807E+01 0.49566234906E+01 0.60671063103E+01 0.74460542971E+01 0.90048505590E+01
 0.10537861716E+02 0.11509563208E+02 0.11377799696E+02 0.10042308103E+02 0.79949269387E+01
 0.61477884974E+01 0.53940307111E+01 0.61352669617E+01 0.80576675458E+01 0.65163844064E+01
 0.95141420644E+01 0.11607420385E+02 0.12190571048E+02 0.11370353482E+02 0.97793654509E+01
 0.80901482709E+01 0.65717144630E+01 0.53302224671E+01 0.43944229958E+01 0.37512443713E+01
 0.33760790557E+01 0.32503395344E+01 0.33682332372E+01 0.37380615876E+01 0.43801649175E+01
 0.53178681597E+01 0.65562242957E+01 0.80492404675E+01 0.96663176091E+01 0.11026546551E+02
 0.11415326048E+02 0.10353078989E+02 0.79729080345E+01 0.50879706660E+01 0.28807836548E+01
 0.23391120546E+01 0.37442454437E+01 0.18077191621E+01 0.53845996191E+01 0.89907716370E+01
 0.11397326315E+02 0.12046354953E+02 0.11171898726E+02 0.95275440632E+01 0.78254545673E+01
 0.63247046001E+01 0.51216811618E+01 0.42356730946E+01 0.36480495267E+01 0.33327466531E+01
 0.32726429415E+01 0.34653135614E+01 0.39234918657E+01 0.46709873386E+01 0.57292889971E+01
 0.70903254005E+01 0.86789071763E+01 0.10295183530E+02 0.11326201344E+02 0.10991746412E+02
 0.89453465500E+01 0.55973100151E+01 0.20726916814E+01 -.24148548913E+00 -.35751704786E+00
 -.22251750492E+01 0.68450298852E+00 0.48902786244E+01 0.88438637675E+01 0.11311427161E+02
 0.11852804651E+02 0.10852450853E+02 0.91633065072E+01 0.74786527572E+01 0.60254841979E+01
 0.48854351840E+01 0.40674741113E+01 0.35486007956E+01 0.33029390823E+01 0.33161560074E+01
 0.35899608604E+01 0.41415078331E+01 0.49968809533E+01 0.61731068973E+01 0.76453924127E+01
 0.93064513156E+01 0.10837860497E+02 0.11435682201E+02 0.10343917647E+02 0.74028958491E+01
 0.33084179256E+01 -.55528461495E+00 -.26952572435E+01 -.33503190554E-01 0.68458909086E+00
 0.33988265982E+01 0.70085803360E+01 0.10146031036E+02 0.11816435593E+02 0.11776840755E+02
 0.10497062517E+02 0.87828847458E+01 0.71542651476E+01 0.57768005847E+01 0.47104482335E+01
 0.39541999123E+01 0.34831704432E+01 0.32733759617E+01 0.33128973708E+01 0.36048422553E+01
 0.41665331107E+01 0.50231815358E+01 0.61902210335E+01 0.76417695408E+01 0.92729383376E+01
 0.10789510671E+02 0.11456896635E+02 0.10601053879E+02 0.81150141058E+01 0.46697272865E+01
 0.15231811609E+01 0.58559178445E+00 -.60011884775E+00 0.58559919196E+00 0.36427938409E+01
 0.73303238044E+01 0.10284868781E+02 0.11639602295E+02 0.11319252836E+02 0.99114588580E+01
 0.82238801314E+01 0.66731109779E+01 0.53932708478E+01 0.44272058058E+01 0.37658345111E+01
 0.33832503448E+01 0.32582814019E+01 0.33832544591E+01 0.37658396374E+01 0.44272055687E+01
 0.53932618352E+01 0.66730988123E+01 0.82238733904E+01 0.99114586003E+01 0.11319254523E+02
 0.11639604846E+02 0.10284873210E+02 0.73303259374E+01 0.36427888065E+01 0.33988222603E+01
 0.68458137142E+00 -.33504649767E-01 0.15231847877E+01 0.46697307185E+01 0.81150173826E+01