unknown system                          
   1.00000000000000     
    -0.000000    2.750373    2.750373
     2.750373   -0.000000    2.750373
     2.750373    2.750373    0.000000
   Si
     2
Direct
  0.500000  0.500000  0.500000
  0.750000  0.750000  0.750000
 
   36   36   36
 0.85037     0.86674     0.91693      1.0040      1.1327      1.3089      1.5390      1.8295      2.1860      2.6117    
  3.1053      3.6586      4.2540      4.8635      5.4500      5.9703      6.3809      6.6443      6.7351      6.6443    
  6.3809      5.9703      5.4500      4.8636      4.2541      3.6587      3.1053      2.6116      2.1859      1.8294    
  1.5389      1.3089      1.1327      1.0040     0.91693     0.86674     0.86674     0.89533     0.95428      1.0469    
  1.1777      1.3518      1.5745      1.8504      2.1827      2.5715      3.0124      3.4941      3.9978      4.4966    
  4.9575      5.3447      5.6249      5.7721      5.7721      5.6249      5.3447      4.9575      4.4967      3.9979    
  3.4942      3.0124      2.5715      2.1826      1.8504      1.5744      1.3518      1.1777      1.0469     0.95428    
 0.89533     0.86674     0.91693     0.95428      1.0189      1.1142      1.2442      1.4132      1.6252      1.8831    
  2.1878      2.5370      2.9237      3.3352      3.7525      4.1510      4.5026      4.7790      4.9560      5.0169    
  4.9560      4.7790      4.5026      4.1511      3.7526      3.3353      2.9237      2.5370      2.1877      1.8830    
  1.6251      1.4132      1.2442      1.1142      1.0189     0.95427     0.91692     0.90472      1.0040      1.0469    
  1.1142      1.2091      1.3351      1.4957      1.6935      1.9300      2.2042      2.5118      2.8444      3.1888    
  3.5269      3.8372      4.0967      4.2840      4.3822      4.3822      4.2840      4.0967      3.8372      3.5269    
  3.1887      2.8444      2.5118      2.2042      1.9300      1.6935      1.4957      1.3351      1.2091      1.1142    
  1.0469      1.0040     0.98318     0.98319      1.1327      1.1777      1.2442      1.3351      1.4535      1.6018    
  1.7817      1.9932      2.2340      2.4986      2.7779      3.0592      3.3262      3.5607      3.7446      3.8622    
  3.9026      3.8622      3.7446      3.5607      3.3261      3.0591      2.7779      2.4986      2.2340      1.9932    
  1.7817      1.6018      1.4535      1.3351      1.2442      1.1777      1.1327      1.1068      1.0983      1.1068    
  1.3089      1.3518      1.4132      1.4957      1.6018      1.7333      1.8909      2.0736      2.2781      2.4986    
  2.7261      2.9488      3.1528      3.3233      3.4462      3.5107      3.5107      3.4462      3.3232      3.1528    
  2.9488      2.7260      2.4986      2.2781      2.0736      1.8909      1.7333      1.6018      1.4957      1.4132    
  1.3518      1.3089      1.2819      1.2689      1.2689      1.2819      1.5390      1.5745      1.6252      1.6935    
  1.7817      1.8909      2.0211      2.1708      2.3363      2.5118      2.6892      2.8580      3.0068      3.1238    
  3.1987      3.2245      3.1987      3.1238      3.0068      2.8580      2.6892      2.5119      2.3363      2.1708    
  2.0211      1.8909      1.7817      1.6935      1.6251      1.5745      1.5390      1.5160      1.5033      1.4993    
  1.5033      1.5160      1.8295      1.8504      1.8831      1.9300      1.9932      2.0736      2.1708      2.2831    
  2.4069      2.5370      2.6662      2.7859      2.8869      2.9602      2.9988      2.9988      2.9602      2.8869    
  2.7859      2.6662      2.5370      2.4069      2.2831      2.1708      2.0736      1.9932      1.9300      1.8830    
  1.8504      1.8295      1.8174      1.8113      1.8089      1.8089      1.8113      1.8174      2.1860      2.1827    
  2.1878      2.2042      2.2340      2.2781      2.3363      2.4069      2.4869      2.5715      2.6550      2.7306    
  2.7911      2.8304      2.8440      2.8304      2.7911      2.7306      2.6551      2.5715      2.4869      2.4069    
  2.3363      2.2781      2.2340      2.2042      2.1878      2.1827      2.1860      2.1941      2.2035      2.2106    
  2.2133      2.2106      2.2035      2.1941      2.6117      2.5715      2.5370      2.5118      2.4986      2.4986    
  2.5118      2.5370      2.5715      2.6117      2.6528      2.6899      2.7180      2.7331      2.7332      2.7180    
  2.6899      2.6528      2.6117      2.5715      2.5370      2.5118      2.4985      2.4985      2.5118      2.5370    
  2.5715      2.6117      2.6528      2.6899      2.7180      2.7332      2.7331      2.7180      2.6899      2.6528    
  3.1053      3.0124      2.9237      2.8444      2.7779      2.7261      2.6892      2.6662      2.6550      2.6528    
  2.6561      2.6616      2.6663      2.6681      2.6663      2.6617      2.6562      2.6528      2.6550      2.6661    
  2.6891      2.7260      2.7779      2.8444      2.9237      3.0124      3.1053      3.1962      3.2778      3.3428    
  3.3848      3.3994      3.3848      3.3428      3.2778      3.1962      3.6586      3.4941      3.3352      3.1888    
  3.0592      2.9488      2.8580      2.7859      2.7306      2.6899      2.6616      2.6440      2.6355      2.6355    
  2.6440      2.6617      2.6899      2.7305      2.7858      2.8579      2.9487      3.0591      3.1888      3.3353    
  3.4942      3.6586      3.8199      3.9676      4.0911      4.1801      4.2268      4.2268      4.1801      4.0910    
  3.9676      3.8198      4.2540      3.9978      3.7525      3.5269      3.3262      3.1528      3.0068      2.8869    
  2.7911      2.7180      2.6663      2.6355      2.6253      2.6355      2.6663      2.7180      2.7911      2.8867    
  3.0067      3.1527      3.3261      3.5269      3.7526      3.9979      4.2540      4.5091      4.7488      4.9575    
  5.1200      5.2233      5.2588      5.2234      5.1200      4.9575      4.7488      4.5090      4.8635      4.4966    
  4.1510      3.8372      3.5607      3.3233      3.1238      2.9602      2.8304      2.7331      2.6681      2.6355    
  2.6355      2.6682      2.7331      2.8303      2.9601      3.1237      3.3232      3.5607      3.8372      4.1511    
  4.4967      4.8636      5.2365      5.5962      5.9210      6.1890      6.3805      6.4804      6.4804      6.3806    
  6.1891      5.9210      5.5962      5.2364      5.4500      4.9575      4.5026      4.0967      3.7446      3.4462    
  3.1987      2.9988      2.8440      2.7332      2.6663      2.6440      2.6663      2.7331      2.8439      2.9987    
  3.1986      3.4461      3.7446      4.0968      4.5027      4.9575      5.4500      5.9620      6.4689      6.9420    
  7.3512      7.6679      7.8685      7.9372      7.8685      7.6680      7.3512      6.9420      6.4689      5.9620    
  5.9703      5.3447      4.7790      4.2840      3.8622      3.5107      3.2245      2.9988      2.8304      2.7180    
  2.6617      2.6617      2.7180      2.8303      2.9987      3.2244      3.5106      3.8622      4.2841      4.7791    
  5.3447      5.9703      6.6358      7.3121      7.9631      8.5493      9.0317      9.3755      9.5545      9.5545    
  9.3755      9.0317      8.5493      7.9631      7.3121      6.6358      6.3809      5.6249      4.9560      4.3822    
  3.9026      3.5107      3.1987      2.9602      2.7911      2.6899      2.6562      2.6899      2.7911      2.9601    
  3.1986      3.5106      3.9026      4.3823      4.9560      5.6249      6.3809      7.2041      8.0624      8.9135    
  9.7084      10.396      10.930      11.268      11.384      11.268      10.930      10.396      9.7084      8.9135    
  8.0625      7.2042      6.6443      5.7721      5.0169      4.3822      3.8622      3.4462      3.1238      2.8869    
  2.7306      2.6528      2.6528      2.7305      2.8867      3.1237      3.4461      3.8622      4.3823      5.0169    
  5.7721      6.6443      7.6164      8.6560      9.7168      10.742      11.670      12.438      12.989      13.277    
  13.277      12.989      12.438      11.670      10.742      9.7168      8.6561      7.6165      6.7351      5.7721    
  4.9560      4.2840      3.7446      3.3232      3.0068      2.7859      2.6551      2.6117      2.6550      2.7858    
  3.0067      3.3232      3.7446      4.2841      4.9560      5.7721      6.7351      7.8333      9.0375      10.301    
  11.562      12.752      13.793      14.608      15.130      15.309      15.130      14.608      13.792      12.751    
  11.562      10.301      9.0375      7.8334      6.6443      5.6249      4.7790      4.0967      3.5607      3.1528    
  2.8580      2.6662      2.5715      2.5715      2.6661      2.8579      3.1527      3.5607      4.0968      4.7791    
  5.6249      6.6443      7.8333      9.1691      10.608      12.091      13.542      14.875      15.995      16.801    
  17.223      17.223      16.801      15.995      14.875      13.541      12.091      10.608      9.1691      7.8334    
  6.3809      5.3447      4.5026      3.8372      3.3261      2.9488      2.6892      2.5370      2.4869      2.5370    
  2.6891      2.9487      3.3261      3.8372      4.5027      5.3447      6.3809      7.6164      9.0375      10.608    
  12.273      13.960      15.578      17.010      18.133      18.849      19.095      18.849      18.133      17.010    
  15.578      13.959      12.273      10.608      9.0375      7.6164      5.9703      4.9575      4.1511      3.5269    
  3.0591      2.7260      2.5119      2.4069      2.4069      2.5118      2.7260      3.0591      3.5269      4.1511    
  4.9575      5.9703      7.2041      8.6560      10.301      12.091      13.960      15.821      17.547      18.993    
  20.037      20.584      20.584      20.037      18.993      17.547      15.821      13.959      12.091      10.301    
  8.6560      7.2041      5.4500      4.4967      3.7526      3.1887      2.7779      2.4986      2.3363      2.2831    
  2.3363      2.4985      2.7779      3.1888      3.7526      4.4967      5.4500      6.6358      8.0624      9.7168    
  11.562      13.542      15.578      17.547      19.291      20.665      21.546      21.850      21.546      20.665    
  19.291      17.547      15.578      13.542      11.562      9.7167      8.0624      6.6358      4.8636      3.9979    
  3.3353      2.8444      2.4986      2.2781      2.1708      2.1708      2.2781      2.4985      2.8444      3.3353    
  3.9979      4.8636      5.9620      7.3121      8.9135      10.742      12.752      14.875      17.010      18.993    
  20.665      21.879      22.521      22.521      21.879      20.665      18.993      17.010      14.875      12.751    
  10.742      8.9134      7.3121      5.9620      4.2541      3.4942      2.9237      2.5118      2.2340      2.0736    
  2.0211      2.0736      2.2340      2.5118      2.9237      3.4942      4.2540      5.2365      6.4689      7.9631    
  9.7084      11.670      13.793      15.995      18.133      20.037      21.546      22.521      22.858      22.521    
  21.546      20.037      18.133      15.995      13.792      11.670      9.7083      7.9630      6.4689      5.2365    
  3.6587      3.0124      2.5370      2.2042      1.9932      1.8909      1.8909      1.9932      2.2042      2.5370    
  3.0124      3.6586      4.5091      5.5962      6.9420      8.5493      10.396      12.438      14.608      16.801    
  18.849      20.584      21.850      22.521      22.521      21.850      20.584      18.849      16.801      14.608    
  12.438      10.396      8.5493      6.9420      5.5963      4.5092      3.1053      2.5715      2.1877      1.9300    
  1.7817      1.7333      1.7817      1.9300      2.1878      2.5715      3.1053      3.8199      4.7488      5.9210    
  7.3512      9.0317      10.930      12.989      15.130      17.223      19.095      20.584      21.546      21.879    
  21.546      20.584      19.095      17.223      15.130      12.989      10.930      9.0316      7.3512      5.9211    
  4.7489      3.8199      2.6116      2.1826      1.8830      1.6935      1.6018      1.6018      1.6935      1.8830    
  2.1827      2.6117      3.1962      3.9676      4.9575      6.1890      7.6679      9.3755      11.268      13.277    
  15.309      17.223      18.849      20.037      20.665      20.665      20.037      18.849      17.223      15.309    
  13.277      11.268      9.3754      7.6679      6.1891      4.9576      3.9677      3.1962      2.1859      1.8504    
  1.6251      1.4957      1.4535      1.4957      1.6251      1.8504      2.1860      2.6528      3.2778      4.0911    
  5.1200      6.3805      7.8685      9.5545      11.384      13.277      15.130      16.801      18.133      18.993    
  19.291      18.993      18.133      16.801      15.130      13.277      11.384      9.5545      7.8685      6.3806    
  5.1201      4.0912      3.2779      2.6528      1.8294      1.5744      1.4132      1.3351      1.3351      1.4132    
  1.5745      1.8295      2.1941      2.6899      3.3428      4.1801      5.2233      6.4804      7.9372      9.5545    
  11.268      12.989      14.608      15.995      17.010      17.547      17.547      17.010      15.995      14.608    
  12.989      11.268      9.5545      7.9372      6.4804      5.2235      4.1802      3.3429      2.6899      2.1941    
  1.5389      1.3518      1.2442      1.2091      1.2442      1.3518      1.5390      1.8174      2.2035      2.7180    
  3.3848      4.2268      5.2588      6.4804      7.8685      9.3755      10.930      12.438      13.792      14.875    
  15.578      15.821      15.578      14.875      13.792      12.438      10.930      9.3754      7.8685      6.4804    
  5.2590      4.2269      3.3849      2.7180      2.2034      1.8174      1.3089      1.1777      1.1142      1.1142    
  1.1777      1.3089      1.5160      1.8113      2.2106      2.7332      3.3994      4.2268      5.2234      6.3806    
  7.6680      9.0317      10.396      11.670      12.751      13.541      13.959      13.959      13.542      12.751    
  11.670      10.396      9.0316      7.6679      6.3806      5.2235      4.2269      3.3994      2.7332      2.2106    
  1.8113      1.5160      1.1327      1.0469      1.0189      1.0469      1.1327      1.2819      1.5033      1.8089    
  2.2133      2.7331      3.3848      4.1801      5.1200      6.1891      7.3512      8.5493      9.7084      10.742    
  11.562      12.091      12.273      12.091      11.562      10.742      9.7083      8.5493      7.3512      6.1891    
  5.1201      4.1802      3.3849      2.7332      2.2133      1.8089      1.5033      1.2819      1.0040     0.95428    
 0.95427      1.0040      1.1068      1.2689      1.4993      1.8089      2.2106      2.7180      3.3428      4.0910    
  4.9575      5.9210      6.9420      7.9631      8.9135      9.7168      10.301      10.608      10.608      10.301    
  9.7167      8.9134      7.9630      6.9420      5.9211      4.9576      4.0912      3.3429      2.7180      2.2106    
  1.8089      1.4993      1.2689      1.1068     0.91693     0.89533     0.91692     0.98318      1.0983      1.2689    
  1.5033      1.8113      2.2035      2.6899      3.2778      3.9676      4.7488      5.5962      6.4689      7.3121    
  8.0625      8.6561      9.0375      9.1691      9.0375      8.6560      8.0624      7.3121      6.4689      5.5963    
  4.7489      3.9677      3.2779      2.6899      2.2034      1.8113      1.5033      1.2689      1.0983     0.98320    
 0.86674     0.86674     0.90472     0.98319      1.1068      1.2819      1.5160      1.8174      2.1941      2.6528    
  3.1962      3.8198      4.5090      5.2364      5.9620      6.6358      7.2042      7.6165      7.8334      7.8334    
  7.6164      7.2041      6.6358      5.9620      5.2365      4.5092      3.8199      3.1962      2.6528      2.1941    
  1.8174      1.5160      1.2819      1.1068     0.98320     0.90473     0.86674     0.89533     0.95428      1.0469    
  1.1777      1.3518      1.5745      1.8504      2.1827      2.5715      3.0124      3.4941      3.9978      4.4966    
  4.9575      5.3447      5.6249      5.7721      5.7721      5.6249      5.3447      4.9575      4.4967      3.9979    
  3.4942      3.0124      2.5715      2.1826      1.8504      1.5744      1.3518      1.1777      1.0469     0.95428    
 0.89533     0.86674     0.89533     0.93205     0.99556      1.0891      1.2165      1.3823      1.5903      1.8437    
  2.1433      2.4869      2.8675      3.2726      3.6833      4.0752      4.4209      4.6925      4.8662      4.9261    
  4.8662      4.6925      4.4209      4.0753      3.6833      3.2726      2.8675      2.4868      2.1432      1.8436    
  1.5903      1.3823      1.2166      1.0891     0.99556     0.93205     0.89532     0.88333     0.95428     0.99556    
  1.0602      1.1512      1.2721      1.4262      1.6165      1.8445      2.1093      2.4069      2.7289      3.0622    
  3.3892      3.6890      3.9394      4.1199      4.2145      4.2145      4.1199      3.9394      3.6890      3.3892    
  3.0622      2.7289      2.4069      2.1093      1.8444      1.6165      1.4262      1.2721      1.1513      1.0602    
 0.99556     0.95427     0.93420     0.93420      1.0469      1.0891      1.1512      1.2362      1.3469      1.4861    
  1.6557      1.8559      2.0845      2.3363      2.6023      2.8699      3.1235      3.3459      3.5199      3.6310    
  3.6691      3.6310      3.5199      3.3459      3.1235      2.8698      2.6022      2.3363      2.0845      1.8559    
  1.6557      1.4861      1.3470      1.2362      1.1513      1.0891      1.0469      1.0225      1.0146      1.0226    
  1.1777      1.2165      1.2721      1.3469      1.4437      1.5644      1.7101      1.8802      2.0715      2.2781    
  2.4914      2.6998      2.8903      3.0491      3.1633      3.2231      3.2231      3.1633      3.0491      2.8903    
  2.6998      2.4913      2.2781      2.0715      1.8802      1.7102      1.5644      1.4437      1.3469      1.2721    
  1.2165      1.1777      1.1532      1.1414      1.1414      1.1532      1.3518      1.3823      1.4262      1.4861    
  1.5644      1.6626      1.7811      1.9186      2.0715      2.2340      2.3981      2.5541      2.6911      2.7985    
  2.8672      2.8908      2.8672      2.7985      2.6911      2.5541      2.3981      2.2340      2.0715      1.9186    
  1.7811      1.6626      1.5644      1.4861      1.4262      1.3823      1.3518      1.3322      1.3214      1.3179    
  1.3214      1.3322      1.5745      1.5903      1.6165      1.6557      1.7101      1.7811      1.8686      1.9709    
  2.0845      2.2042      2.3230      2.4329      2.5253      2.5922      2.6274      2.6274      2.5922      2.5253    
  2.4329      2.3230      2.2042      2.0845      1.9709      1.8686      1.7811      1.7102      1.6557      1.6165    
  1.5903      1.5745      1.5660      1.5622      1.5608      1.5608      1.5622      1.5660      1.8504      1.8437    
  1.8445      1.8559      1.8802      1.9186      1.9709      2.0355      2.1093      2.1878      2.2653      2.3352    
  2.3912      2.4274      2.4400      2.4274      2.3912      2.3352      2.2653      2.1878      2.1093      2.0355    
  1.9709      1.9186      1.8802      1.8559      1.8444      1.8436      1.8504      1.8611      1.8721      1.8802    
  1.8832      1.8802      1.8721      1.8611      2.1827      2.1433      2.1093      2.0845      2.0715      2.0715    
  2.0845      2.1093      2.1433      2.1827      2.2231      2.2594      2.2869      2.3018      2.3018      2.2869    
  2.2594      2.2231      2.1827      2.1432      2.1093      2.0845      2.0715      2.0715      2.0845      2.1093    
  2.1432      2.1827      2.2231      2.2594      2.2869      2.3018      2.3018      2.2869      2.2594      2.2231    
  2.5715      2.4869      2.4069      2.3363      2.2781      2.2340      2.2042      2.1878      2.1827      2.1860    
  2.1941      2.2035      2.2106      2.2133      2.2106      2.2035      2.1941      2.1860      2.1827      2.1878    
  2.2042      2.2340      2.2781      2.3363      2.4069      2.4869      2.5715      2.6551      2.7306      2.7911    
  2.8304      2.8440      2.8304      2.7911      2.7306      2.6550      3.0124      2.8675      2.7289      2.6023    
  2.4914      2.3981      2.3230      2.2653      2.2231      2.1941      2.1758      2.1653      2.1607      2.1607    
  2.1653      2.1758      2.1941      2.2230      2.2652      2.3230      2.3981      2.4914      2.6023      2.7289    
  2.8676      3.0124      3.1558      3.2884      3.4001      3.4812      3.5240      3.5240      3.4812      3.4001    
  3.2884      3.1557      3.4941      3.2726      3.0622      2.8699      2.6998      2.5541      2.4329      2.3352    
  2.2594      2.2035      2.1653      2.1433      2.1361      2.1433      2.1653      2.2034      2.2594      2.3352    
  2.4328      2.5541      2.6998      2.8699      3.0623      3.2727      3.4942      3.7169      3.9284      4.1146    
  4.2608      4.3545      4.3868      4.3545      4.2608      4.1146      3.9284      3.7169      3.9978      3.6833    
  3.3892      3.1235      2.8903      2.6911      2.5253      2.3912      2.2869      2.2106      2.1607      2.1361    
  2.1361      2.1607      2.2106      2.2869      2.3911      2.5252      2.6911      2.8904      3.1235      3.3893    
  3.6834      3.9979      4.3208      4.6360      4.9242      5.1648      5.3383      5.4293      5.4293      5.3383    
  5.1648      4.9242      4.6360      4.3208      4.4966      4.0752      3.6890      3.3459      3.0491      2.7985    
  2.5922      2.4274      2.3018      2.2133      2.1607      2.1433      2.1607      2.2133      2.3017      2.4273    
  2.5921      2.7985      3.0491      3.3459      3.6891      4.0753      4.4967      4.9393      5.3834      5.8039    
  6.1726      6.4614      6.6458      6.7093      6.6459      6.4614      6.1726      5.8039      5.3834      4.9393    
  4.9575      4.4209      3.9394      3.5199      3.1633      2.8672      2.6274      2.4400      2.3018      2.2106    
  2.1653      2.1653      2.2106      2.3017      2.4399      2.6273      2.8671      3.1634      3.5200      3.9395    
  4.4209      4.9575      5.5348      6.1298      6.7117      7.2441      7.6883      8.0082      8.1760      8.1760    
  8.0082      7.6883      7.2441      6.7117      6.1298      5.5347      5.3447      4.6925      4.1199      3.6310    
  3.2231      2.8908      2.6274      2.4274      2.2869      2.2035      2.1758      2.2034      2.2869      2.4273    
  2.6273      2.8908      3.2232      3.6310      4.1200      4.6925      5.3447      6.0633      6.8239      7.5910    
  8.3196      8.9600      9.4621      9.7830      9.8935      9.7830      9.4620      8.9599      8.3196      7.5910    
  6.8239      6.0633      5.6249      4.8662      4.2145      3.6691      3.2231      2.8672      2.5922      2.3912    
  2.2594      2.1941      2.1941      2.2594      2.3911      2.5921      2.8671      3.2232      3.6692      4.2146    
  4.8663      5.6249      6.4807      7.4101      8.3752      9.3243      10.197      10.927      11.455      11.733    
  11.733      11.455      10.927      10.197      9.3243      8.3751      7.4101      6.4806      5.7721      4.9261    
  4.2145      3.6310      3.1633      2.7985      2.5253      2.3352      2.2231      2.1860      2.2230      2.3352    
  2.5252      2.7985      3.1634      3.6310      4.2146      4.9261      5.7721      6.7485      7.8358      8.9966    
  10.176      11.304      12.303      13.091      13.597      13.772      13.597      13.091      12.303      11.304    
  10.176      8.9966      7.8358      6.7485      5.7721      4.8662      4.1199      3.5199      3.0491      2.6911    
  2.4329      2.2653      2.1827      2.1827      2.2652      2.4328      2.6911      3.0491      3.5200      4.1200    
  4.8663      5.7721      6.8409      8.0599      9.3965      10.796      12.186      13.476      14.567      15.362    
  15.782      15.782      15.361      14.566      13.475      12.186      10.796      9.3964      8.0598      6.8408    
  5.6249      4.6925      3.9394      3.3459      2.8903      2.5541      2.3230      2.1878      2.1432      2.1878    
  2.3230      2.5541      2.8904      3.3459      3.9395      4.6925      5.6249      6.7485      8.0599      9.5345    
  11.124      12.755      14.335      15.750      16.881      17.614      17.868      17.613      16.880      15.750    
  14.335      12.755      11.124      9.5344      8.0598      6.7485      5.3447      4.4209      3.6890      3.1235    
  2.6998      2.3981      2.2042      2.1093      2.1093      2.2042      2.3981      2.6998      3.1235      3.6891    
  4.4209      5.3447      6.4807      7.8358      9.3965      11.124      12.952      14.790      16.519      18.003    
  19.094      19.674      19.674      19.094      18.003      16.519      14.790      12.952      11.124      9.3963    
  7.8357      6.4806      4.9575      4.0753      3.3892      2.8698      2.4913      2.2340      2.0845      2.0355    
  2.0845      2.2340      2.4914      2.8699      3.3893      4.0753      4.9575      6.0633      7.4101      8.9966    
  10.796      12.755      14.790      16.787      18.600      20.060      21.009      21.338      21.009      20.060    
  18.601      16.787      14.790      12.755      10.796      8.9965      7.4101      6.0633      4.4967      3.6833    
  3.0622      2.6022      2.2781      2.0715      1.9709      1.9709      2.0715      2.2781      2.6023      3.0623    
  3.6834      4.4967      5.5348      6.8239      8.3752      10.176      12.186      14.335      16.519      18.600    
  20.396      21.719      22.423      22.423      21.720      20.396      18.601      16.519      14.335      12.186    
  10.176      8.3751      6.8239      5.5348      3.9979      3.2726      2.7289      2.3363      2.0715      1.9186    
  1.8686      1.9186      2.0715      2.3363      2.7289      3.2727      3.9979      4.9393      6.1298      7.5910    
  9.3243      11.304      13.476      15.750      18.003      20.060      21.719      22.801      23.177      22.801    
  21.720      20.060      18.003      15.750      13.476      11.304      9.3243      7.5910      6.1298      4.9394    
  3.4942      2.8675      2.4069      2.0845      1.8802      1.7811      1.7811      1.8802      2.0845      2.4069    
  2.8676      3.4942      4.3208      5.3834      6.7117      8.3196      10.197      12.303      14.567      16.881    
  19.094      21.009      22.423      23.177      23.177      22.423      21.009      19.095      16.881      14.566    
  12.303      10.197      8.3196      6.7118      5.3835      4.3209      3.0124      2.4868      2.1093      1.8559    
  1.7102      1.6626      1.7102      1.8559      2.1093      2.4869      3.0124      3.7169      4.6360      5.8039    
  7.2441      8.9600      10.927      13.091      15.362      17.614      19.674      21.338      22.423      22.801    
  22.423      21.338      19.674      17.614      15.362      13.091      10.927      8.9599      7.2442      5.8040    
  4.6361      3.7169      2.5715      2.1432      1.8444      1.6557      1.5644      1.5644      1.6557      1.8444    
  2.1432      2.5715      3.1558      3.9284      4.9242      6.1726      7.6883      9.4621      11.455      13.597    
  15.782      17.868      19.674      21.009      21.720      21.720      21.009      19.674      17.868      15.782    
  13.597      11.455      9.4621      7.6883      6.1727      4.9244      3.9285      3.1558      2.1826      1.8436    
  1.6165      1.4861      1.4437      1.4861      1.6165      1.8436      2.1827      2.6551      3.2884      4.1146    
  5.1648      6.4614      8.0082      9.7830      11.733      13.772      15.782      17.613      19.094      20.060    
  20.396      20.060      19.095      17.614      15.782      13.772      11.733      9.7830      8.0083      6.4615    
  5.1650      4.1147      3.2884      2.6550      1.8504      1.5903      1.4262      1.3470      1.3469      1.4262    
  1.5903      1.8504      2.2231      2.7306      3.4001      4.2608      5.3383      6.6458      8.1760      9.8935    
  11.733      13.597      15.361      16.880      18.003      18.601      18.601      18.003      16.881      15.362    
  13.597      11.733      9.8935      8.1760      6.6460      5.3384      4.2609      3.4001      2.7306      2.2230    
  1.5744      1.3823      1.2721      1.2362      1.2721      1.3823      1.5745      1.8611      2.2594      2.7911    
  3.4812      4.3545      5.4293      6.7093      8.1760      9.7830      11.455      13.091      14.566      15.750    
  16.519      16.787      16.519      15.750      14.566      13.091      11.455      9.7830      8.1760      6.7095    
  5.4294      4.3546      3.4812      2.7911      2.2594      1.8611      1.3518      1.2166      1.1513      1.1513    
  1.2165      1.3518      1.5660      1.8721      2.2869      2.8304      3.5240      4.3868      5.4293      6.6459    
  8.0082      9.4620      10.927      12.303      13.475      14.335      14.790      14.790      14.335      13.476    
  12.303      10.927      9.4621      8.0083      6.6460      5.4294      4.3868      3.5240      2.8303      2.2869    
  1.8721      1.5660      1.1777      1.0891      1.0602      1.0891      1.1777      1.3322      1.5622      1.8802    
  2.3018      2.8440      3.5240      4.3545      5.3383      6.4614      7.6883      8.9599      10.197      11.304    
  12.186      12.755      12.952      12.755      12.186      11.304      10.197      8.9599      7.6883      6.4615    
  5.3384      4.3546      3.5240      2.8439      2.3017      1.8802      1.5621      1.3322      1.0469     0.99556    