unknown system                          
   1.00000000000000     
    -0.000000    2.736255    2.736255
     2.736255   -0.000000    2.736255
     2.736255    2.736255    0.000000
   Si
     2
Direct
  0.500000  0.500000  0.500000
  0.750000  0.750000  0.750000
 
   36   36   36
 0.82362502383E+00 0.83965015769E+00 0.88881023122E+00 0.97421146887E+00 0.11006017539E+01
 0.12738647955E+01 0.15004833584E+01 0.17869417029E+01 0.21388649316E+01 0.25596093135E+01
 0.30481555483E+01 0.35965350853E+01 0.41874883574E+01 0.47933453963E+01 0.53770059668E+01
 0.58953623540E+01 0.63047746734E+01 0.65675707334E+01 0.66581886563E+01 0.65675719758E+01
 0.63047709643E+01 0.58953513862E+01 0.53769950663E+01 0.47933443693E+01 0.41874984213E+01
 0.35965477724E+01 0.30481621508E+01 0.25596088640E+01 0.21388624549E+01 0.17869411235E+01
 0.15004841487E+01 0.12738646789E+01 0.11006003688E+01 0.97421043838E+00 0.88881060999E+00
 0.83965107020E+00 0.83965015769E+00 0.86761488334E+00 0.92531950678E+00 0.10160980303E+01
 0.11444539585E+01 0.13155639525E+01 0.15347127568E+01 0.18066104441E+01 0.21344460402E+01
 0.25185253337E+01 0.29545022075E+01 0.34315161551E+01 0.39308519529E+01 0.44258527532E+01
 0.48836223116E+01 0.52685743871E+01 0.55473046604E+01 0.56937980454E+01 0.56937982906E+01
 0.55473030999E+01 0.52685693966E+01 0.48836190062E+01 0.44258577211E+01 0.39308636207E+01
 0.34315258378E+01 0.29545045194E+01 0.25185230222E+01 0.21344441272E+01 0.18066098830E+01
 0.15347115519E+01 0.13155614243E+01 0.11444514461E+01 0.10160966590E+01 0.92531911632E+00
 0.86761484437E+00 0.83965015885E+00 0.88881023122E+00 0.92531950678E+00 0.98857605531E+00
 0.10818956779E+01 0.12093608896E+01 0.13753264867E+01 0.15838297830E+01 0.18378599302E+01
 0.21384026775E+01 0.24832236556E+01 0.28655103825E+01 0.32727032179E+01 0.36859976078E+01
 0.40809920309E+01 0.44297421347E+01 0.47040986104E+01 0.48797759285E+01 0.49402832157E+01
 0.48797756431E+01 0.47040982730E+01 0.44297439927E+01 0.40809979865E+01 0.36860046509E+01
 0.32727053848E+01 0.28655063701E+01 0.24832186898E+01 0.21384013602E+01 0.18378608133E+01
 0.15838290354E+01 0.13753237709E+01 0.12093588378E+01 0.10818955023E+01 0.98857644771E+00
 0.92531919970E+00 0.88880959669E+00 0.87688967243E+00 0.97421146887E+00 0.10160980303E+01
 0.10818956779E+01 0.11747585369E+01 0.12982539841E+01 0.14558708884E+01 0.16504260014E+01
 0.18833370591E+01 0.21537385728E+01 0.24574886375E+01 0.27862402851E+01 0.31268679965E+01
 0.34615830449E+01 0.37690044353E+01 0.40262670521E+01 0.42119631159E+01 0.43093951525E+01
 0.43093946572E+01 0.42119629553E+01 0.40262691768E+01 0.37690078506E+01 0.34615836596E+01
 0.31268632329E+01 0.27862330522E+01 0.24574847509E+01 0.21537401971E+01 0.18833407872E+01
 0.16504278975E+01 0.14558710714E+01 0.12982548905E+01 0.11747607119E+01 0.10818974147E+01
 0.10160981793E+01 0.97421069925E+00 0.95389144071E+00 0.95389187516E+00 0.11006017539E+01
 0.11444539585E+01 0.12093608896E+01 0.12982539841E+01 0.14141600139E+01 0.15597252822E+01
 0.17366501426E+01 0.19450224853E+01 0.21825735527E+01 0.24439482469E+01 0.27201627097E+01
 0.29984709228E+01 0.32628503957E+01 0.34952421443E+01 0.36775370544E+01 0.37940782494E+01
 0.38341894736E+01 0.37940771548E+01 0.36775368849E+01 0.34952423875E+01 0.32628476141E+01
 0.29984644200E+01 0.27201572610E+01 0.24439487268E+01 0.21825789445E+01 0.19450277749E+01
 0.17366527873E+01 0.15597270626E+01 0.14141629709E+01 0.12982573070E+01 0.12093625839E+01
 0.11444536999E+01 0.11006008372E+01 0.10753693122E+01 0.10671471011E+01 0.10753698516E+01
 0.12738647955E+01 0.13155639525E+01 0.13753264867E+01 0.14558708884E+01 0.15597252822E+01
 0.16887887526E+01 0.18438305785E+01 0.20239346171E+01 0.22259363262E+01 0.24439481685E+01
 0.26691132124E+01 0.28897435979E+01 0.30919793142E+01 0.32610422414E+01 0.33830379460E+01
 0.34470509071E+01 0.34470504003E+01 0.33830369299E+01 0.32610406250E+01 0.30919756697E+01
 0.28897385434E+01 0.26691109265E+01 0.24439514028E+01 0.22259419869E+01 0.20239376072E+01
 0.18438304208E+01 0.16887890238E+01 0.15597276196E+01 0.14558731054E+01 0.13753264420E+01
 0.13155622704E+01 0.12738632574E+01 0.12477147287E+01 0.12351724725E+01 0.12351726112E+01
 0.12477154092E+01 0.15004833584E+01 0.15347127568E+01 0.15838297830E+01 0.16504260014E+01
 0.17366501426E+01 0.18438305785E+01 0.19720720908E+01 0.21198416876E+01 0.22835907590E+01
 0.24574886073E+01 0.26333686299E+01 0.28010042298E+01 0.29488228792E+01 0.30651107894E+01
 0.31396231710E+01 0.31653019817E+01 0.31396229290E+01 0.30651092349E+01 0.29488192771E+01
 0.28010001036E+01 0.26333671279E+01 0.24574905383E+01 0.22835927180E+01 0.21198403482E+01
 0.19720690005E+01 0.18438297981E+01 0.17366521128E+01 0.16504271522E+01 0.15838279627E+01
 0.15347096744E+01 0.15004813040E+01 0.14784784225E+01 0.14663616794E+01 0.14625157794E+01
 0.14663620304E+01 0.14784792716E+01 0.17869417029E+01 0.18066104441E+01 0.18378599302E+01
 0.18833370591E+01 0.19450224853E+01 0.20239346171E+01 0.21198416876E+01 0.22309924694E+01
 0.23538995712E+01 0.24832238679E+01 0.26118342095E+01 0.27311472991E+01 0.28318515132E+01
 0.29050407131E+01 0.29436161247E+01 0.29436163283E+01 0.29050401778E+01 0.28318489615E+01
 0.27311440840E+01 0.26118326738E+01 0.24832235649E+01 0.23538977024E+01 0.22309885442E+01
 0.21198392047E+01 0.20239364683E+01 0.19450265116E+01 0.18833384911E+01 0.18378573181E+01
 0.18066067003E+01 0.17869395785E+01 0.17758710756E+01 0.17704937272E+01 0.17684638647E+01
 0.17684642711E+01 0.17704944223E+01 0.17758718708E+01 0.21388649316E+01 0.21344460402E+01
 0.21384026775E+01 0.21537385728E+01 0.21825735527E+01 0.22259363262E+01 0.22835907590E+01
 0.23538995712E+01 0.24337441208E+01 0.25185255605E+01 0.26023063306E+01 0.26781940256E+01
 0.27390567513E+01 0.27785479138E+01 0.27922426313E+01 0.27785481390E+01 0.27390561126E+01
 0.26781930976E+01 0.26023065116E+01 0.25185255243E+01 0.24337411903E+01 0.23538951932E+01
 0.22835902844E+01 0.22259416620E+01 0.21825797070E+01 0.21537397972E+01 0.21383992478E+01
 0.21344425259E+01 0.21388639129E+01 0.21480506237E+01 0.21582030891E+01 0.21659060019E+01
 0.21687624686E+01 0.21659067332E+01 0.21582034324E+01 0.21480504031E+01 0.25596093135E+01
 0.25185253337E+01 0.24832236556E+01 0.24574886375E+01 0.24439482469E+01 0.24439481685E+01
 0.24574886073E+01 0.24832238679E+01 0.25185255605E+01 0.25596093456E+01 0.26017657273E+01
 0.26397798368E+01 0.26685936357E+01 0.26841402823E+01 0.26841404315E+01 0.26685941969E+01
 0.26397814299E+01 0.26017684066E+01 0.25596105052E+01 0.25185221770E+01 0.24832181526E+01
 0.24574872146E+01 0.24439533100E+01 0.24439537791E+01 0.24574882779E+01 0.24832192621E+01
 0.25185231501E+01 0.25596112545E+01 0.26017686065E+01 0.26397809406E+01 0.26685934205E+01
 0.26841397968E+01 0.26841397447E+01 0.26685930614E+01 0.26397794303E+01 0.26017656441E+01
 0.30481555483E+01 0.29545022075E+01 0.28655103825E+01 0.27862402851E+01 0.27201627097E+01
 0.26691132124E+01 0.26333686299E+01 0.26118342095E+01 0.26023063306E+01 0.26017657273E+01
 0.26067031657E+01 0.26135286929E+01 0.26190862918E+01 0.26211981544E+01 0.26190864983E+01
 0.26135309259E+01 0.26067070912E+01 0.26017667391E+01 0.26023001997E+01 0.26118239588E+01
 0.26333629739E+01 0.26691160909E+01 0.27201680831E+01 0.27862406725E+01 0.28655070058E+01
 0.29545018968E+01 0.30481603275E+01 0.31400318455E+01 0.32227416775E+01 0.32887603037E+01
 0.33314550925E+01 0.33462345727E+01 0.33314538675E+01 0.32887586547E+01 0.32227385707E+01
 0.31400262967E+01 0.35965350853E+01 0.34315161551E+01 0.32727032179E+01 0.31268679965E+01
 0.29984709228E+01 0.28897435979E+01 0.28010042298E+01 0.27311472991E+01 0.26781940256E+01
 0.26397798368E+01 0.26135286929E+01 0.25973464842E+01 0.25896716107E+01 0.25896715454E+01
 0.25973480532E+01 0.26135324950E+01 0.26397800486E+01 0.26781842308E+01 0.27311311460E+01
 0.28009943242E+01 0.28897475265E+01 0.29984826227E+01 0.31268760858E+01 0.32727043477E+01
 0.34315157770E+01 0.35965374664E+01 0.37588737410E+01 0.39080530547E+01 0.40329705040E+01
 0.41232105782E+01 0.41705918858E+01 0.41705911620E+01 0.41232095169E+01 0.40329699868E+01
 0.39080515207E+01 0.37588704071E+01 0.41874883574E+01 0.39308519529E+01 0.36859976078E+01
 0.34615830449E+01 0.32628503957E+01 0.30919793142E+01 0.29488228792E+01 0.28318515132E+01
 0.27390567513E+01 0.26685936357E+01 0.26190862918E+01 0.25896716107E+01 0.25799100309E+01
 0.25896732878E+01 0.26190902240E+01 0.26685939296E+01 0.27390448121E+01 0.28318306758E+01
 0.29488107094E+01 0.30919891770E+01 0.32628756119E+01 0.34616046147E+01 0.36860040195E+01
 0.39308464677E+01 0.41874800131E+01 0.44439568564E+01 0.46857096228E+01 0.48967668572E+01
 0.50614417659E+01 0.51663404942E+01 0.52023808286E+01 0.51663401300E+01 0.50614418693E+01
 0.48967682763E+01 0.46857129747E+01 0.44439629271E+01 0.47933453963E+01 0.44258527532E+01
 0.40809920309E+01 0.37690044353E+01 0.34952421443E+01 0.32610422414E+01 0.30651107894E+01
 0.29050407131E+01 0.27785479138E+01 0.26841402823E+01 0.26211981544E+01 0.25896715454E+01
 0.25896732878E+01 0.26212026032E+01 0.26841413256E+01 0.27785354754E+01 0.29050165928E+01
 0.30650964589E+01 0.32610584105E+01 0.34952825951E+01 0.37690401110E+01 0.40810005055E+01
 0.44258361126E+01 0.47933207782E+01 0.51682131383E+01 0.55310316800E+01 0.58596394382E+01
 0.61314386387E+01 0.63259462802E+01 0.64274745070E+01 0.64274746583E+01 0.63259458241E+01
 0.61314371332E+01 0.58596399113E+01 0.55310394762E+01 0.51682314453E+01 0.53770059668E+01
 0.48836223116E+01 0.44297421347E+01 0.40262670521E+01 0.36775370544E+01 0.33830379460E+01
 0.31396231710E+01 0.29436161247E+01 0.27922426313E+01 0.26841404315E+01 0.26190864983E+01
 0.25973480532E+01 0.26190902240E+01 0.26841413256E+01 0.27922299893E+01 0.29435898826E+01
 0.31396059074E+01 0.33830567575E+01 0.36775887991E+01 0.40263142645E+01 0.44297501992E+01
 0.48835921036E+01 0.53769654190E+01 0.58917446624E+01 0.64032443590E+01 0.68821764893E+01
 0.72974760546E+01 0.76195794420E+01 0.78238612690E+01 0.78938859394E+01 0.78238624731E+01
 0.76195782473E+01 0.72974710995E+01 0.68821727721E+01 0.64032517658E+01 0.58917712101E+01
 0.58953623540E+01 0.52685743871E+01 0.47040986104E+01 0.42119631159E+01 0.37940782494E+01
 0.34470509071E+01 0.31653019817E+01 0.29436163283E+01 0.27785481390E+01 0.26685941969E+01
 0.26135309259E+01 0.26135324950E+01 0.26685939296E+01 0.27785354754E+01 0.29435898826E+01
 0.31652832105E+01 0.34470700825E+01 0.37941365128E+01 0.42120192309E+01 0.47041075198E+01
 0.52685338362E+01 0.58953101447E+01 0.65646814441E+01 0.72473696679E+01 0.79067180868E+01
 0.85021393718E+01 0.89931649439E+01 0.93437191496E+01 0.95264262548E+01 0.95264278418E+01
 0.93437219723E+01 0.89931647295E+01 0.85021331076E+01 0.79067091532E+01 0.72473717575E+01
 0.65647105819E+01 0.63047746734E+01 0.55473046604E+01 0.48797759285E+01 0.43093951525E+01
 0.38341894736E+01 0.34470504003E+01 0.31396229290E+01 0.29050401778E+01 0.27390561126E+01
 0.26397814299E+01 0.26067070912E+01 0.26397800486E+01 0.27390448121E+01 0.29050165928E+01
 0.31396059074E+01 0.34470700825E+01 0.38342505834E+01 0.43094572034E+01 0.48797876499E+01
 0.55472588928E+01 0.63047145845E+01 0.71328535341E+01 0.79995536507E+01 0.88618066166E+01
 0.96695478147E+01 0.10370322240E+02 0.10914277529E+02 0.11259575606E+02 0.11378008438E+02
 0.11259574332E+02 0.10914277276E+02 0.10370322068E+02 0.96695414723E+01 0.88617931564E+01
 0.79995502479E+01 0.71328839815E+01 0.65675707334E+01 0.56937980454E+01 0.49402832157E+01
 0.43093946572E+01 0.37940771548E+01 0.33830369299E+01 0.30651092349E+01 0.28318489615E+01
 0.26781930976E+01 0.26017684066E+01 0.26017667391E+01 0.26781842308E+01 0.28318306758E+01
 0.30650964589E+01 0.33830567575E+01 0.37941365128E+01 0.43094572034E+01 0.49402965835E+01
 0.56937500393E+01 0.65675044010E+01 0.75453457045E+01 0.85951206610E+01 0.96699504571E+01
 0.10711999213E+02 0.11657322306E+02 0.12441053002E+02 0.13003500640E+02 0.13297774089E+02
 0.13297766562E+02 0.13003484325E+02 0.12441040035E+02 0.11657316227E+02 0.10711990344E+02
 0.96699340251E+01 0.85951161650E+01 0.75453803348E+01 0.66581886563E+01 0.56937982906E+01
 0.48797756431E+01 0.42119629553E+01 0.36775368849E+01 0.32610406250E+01 0.29488192771E+01
 0.27311440840E+01 0.26023065116E+01 0.25596105052E+01 0.26023001997E+01 0.27311311460E+01
 0.29488107094E+01 0.32610584105E+01 0.36775887991E+01 0.42120192309E+01 0.48797876499E+01
 0.56937500393E+01 0.66581184634E+01 0.77624724318E+01 0.89780673164E+01 0.10257855775E+02
 0.11539717311E+02 0.12750951105E+02 0.13812784345E+02 0.14645971261E+02 0.15179477133E+02
 0.15363140172E+02 0.15179452688E+02 0.14645935536E+02 0.13812755486E+02 0.12750935423E+02
 0.11539703756E+02 0.10257838199E+02 0.89780659032E+01 0.77625129275E+01 0.65675719758E+01
 0.55473030999E+01 0.47040982730E+01 0.40262691768E+01 0.34952423875E+01 0.30919756697E+01
 0.28010001036E+01 0.26118326738E+01 0.25185255243E+01 0.25185221770E+01 0.26118239588E+01
 0.28009943242E+01 0.30919891770E+01 0.34952825951E+01 0.40263142645E+01 0.47041075198E+01
 0.55472588928E+01 0.65675044010E+01 0.77624724318E+01 0.91102344129E+01 0.10567787129E+02
 0.12073396392E+02 0.13550418301E+02 0.14910387977E+02 0.16054386930E+02 0.16880558668E+02
 0.17313305734E+02 0.17313294271E+02 0.16880525665E+02 0.16054342355E+02 0.14910350400E+02
 0.13550396247E+02 0.12073379717E+02 0.10567770317E+02 0.91102369147E+01 0.77625155041E+01
 0.63047709643E+01 0.52685693966E+01 0.44297439927E+01 0.37690078506E+01 0.32628476141E+01
 0.28897385434E+01 0.26333671279E+01 0.24832235649E+01 0.24337411903E+01 0.24832181526E+01
 0.26333629739E+01 0.28897475265E+01 0.32628756119E+01 0.37690401110E+01 0.44297501992E+01
 0.52685338362E+01 0.63047145845E+01 0.75453457045E+01 0.89780673164E+01 0.10567787129E+02
 0.12257898765E+02 0.13973503149E+02 0.15622868149E+02 0.17087776951E+02 0.18239064020E+02
 0.18974301612E+02 0.19227116475E+02 0.18974290293E+02 0.18239032827E+02 0.17087731271E+02
 0.15622829235E+02 0.13973481756E+02 0.12257884771E+02 0.10567774484E+02 0.89780723233E+01
 0.75453843310E+01 0.58953513862E+01 0.48836190062E+01 0.40809979865E+01 0.34615836596E+01
 0.29984644200E+01 0.26691109265E+01 0.24574905383E+01 0.23538977024E+01 0.23538951932E+01
 0.24574872146E+01 0.26691160909E+01 0.29984826227E+01 0.34616046147E+01 0.40810005055E+01
 0.48835921036E+01 0.58953101447E+01 0.71328535341E+01 0.85951206610E+01 0.10257855775E+02
 0.12073396392E+02 0.13973503149E+02 0.15869950820E+02 0.17634895560E+02 0.19117357638E+02
 0.20188214579E+02 0.20750374499E+02 0.20750374216E+02 0.20188202069E+02 0.19117319103E+02
 0.17634844014E+02 0.15869914997E+02 0.13973492216E+02 0.12073394107E+02 0.10257850851E+02
 0.85951250021E+01 0.71328814133E+01 0.53769950663E+01 0.44258577211E+01 0.36860046509E+01
 0.31268632329E+01 0.27201572610E+01 0.24439514028E+01 0.22835927180E+01 0.22309885442E+01
 0.22835902844E+01 0.24439533100E+01 0.27201680831E+01 0.31268760858E+01 0.36860040195E+01
 0.44258361126E+01 0.53769654190E+01 0.65646814441E+01 0.79995536507E+01 0.96699504571E+01
 0.11539717311E+02 0.13550418301E+02 0.15622868149E+02 0.17634895560E+02 0.19421380076E+02
 0.20830425321E+02 0.21735184193E+02 0.22047480629E+02 0.21735181518E+02 0.20830397613E+02
 0.19421322558E+02 0.17634839339E+02 0.15622846850E+02 0.13550429171E+02 0.11539730117E+02
 0.96699488101E+01 0.79995514763E+01 0.65646973845E+01 0.47933443693E+01 0.39308636207E+01
 0.32727053848E+01 0.27862330522E+01 0.24439487268E+01 0.22259419869E+01 0.21198403482E+01
 0.21198392047E+01 0.22259416620E+01 0.24439537791E+01 0.27862406725E+01 0.32727043477E+01
 0.39308464677E+01 0.47933207782E+01 0.58917446624E+01 0.72473696679E+01 0.88618066166E+01
 0.10711999213E+02 0.12750951105E+02 0.14910387977E+02 0.17087776951E+02 0.19117357638E+02
 0.20830425321E+02 0.22076353362E+02 0.22734177482E+02 0.22734182264E+02 0.22076348236E+02
 0.20830383810E+02 0.19117294136E+02 0.17087738110E+02 0.14910397214E+02 0.12750982158E+02
 0.10712011882E+02 0.88617937902E+01 0.72473572488E+01 0.58917537263E+01 0.41874984213E+01
 0.34315258378E+01 0.28655063701E+01 0.24574847509E+01 0.21825789445E+01 0.20239376072E+01
 0.19720690005E+01 0.20239364683E+01 0.21825797070E+01 0.24574882779E+01 0.28655070058E+01
 0.34315157770E+01 0.41874800131E+01 0.51682131383E+01 0.64032443590E+01 0.79067180868E+01
 0.96695478147E+01 0.11657322306E+02 0.13812784345E+02 0.16054386930E+02 0.18239064020E+02
 0.20188214579E+02 0.21735184193E+02 0.22734177482E+02 0.23080167459E+02 0.22734195390E+02
 0.21735182821E+02 0.20188178131E+02 0.18239027081E+02 0.16054390138E+02 0.13812820392E+02
 0.11657346593E+02 0.96695346680E+01 0.79066865496E+01 0.64032282373E+01 0.51682223784E+01
 0.35965477724E+01 0.29545045194E+01 0.24832186898E+01 0.21537401971E+01 0.19450277749E+01
 0.18438304208E+01 0.18438297981E+01 0.19450265116E+01 0.21537397972E+01 0.24832192621E+01
 0.29545018968E+01 0.35965374664E+01 0.44439568564E+01 0.55310316800E+01 0.68821764893E+01
 0.85021393718E+01 0.10370322240E+02 0.12441053002E+02 0.14645971261E+02 0.16880558668E+02
 0.18974301612E+02 0.20750374499E+02 0.22047480629E+02 0.22734182264E+02 0.22734195390E+02
 0.22047500696E+02 0.20750374910E+02 0.18974292409E+02 0.16880572404E+02 0.14646011063E+02
 0.12441081544E+02 0.10370308307E+02 0.85020958796E+01 0.68821416746E+01 0.55310255106E+01
 0.44439684444E+01 0.30481621508E+01 0.25185230222E+01 0.21384013602E+01 0.18833407872E+01
 0.17366527873E+01 0.16887890238E+01 0.17366521128E+01 0.18833384911E+01 0.21383992478E+01
 0.25185231501E+01 0.30481603275E+01 0.37588737410E+01 0.46857096228E+01 0.58596394382E+01
 0.72974760546E+01 0.89931649439E+01 0.10914277529E+02 0.13003500640E+02 0.15179477133E+02
 0.17313305734E+02 0.19227116475E+02 0.20750374216E+02 0.21735181518E+02 0.22076348236E+02
 0.21735182821E+02 0.20750374910E+02 0.19227126829E+02 0.17313341694E+02 0.15179531324E+02
 0.13003535923E+02 0.10914263800E+02 0.89931148586E+01 0.72974314228E+01 0.58596262990E+01
 0.46857187905E+01 0.37588832347E+01 0.25596088640E+01 0.21344441272E+01 0.18378608133E+01
 0.16504278975E+01 0.15597270626E+01 0.15597276196E+01 0.16504271522E+01 0.18378573181E+01
 0.21344425259E+01 0.25596112545E+01 0.31400318455E+01 0.39080530547E+01 0.48967668572E+01
 0.61314386387E+01 0.76195794420E+01 0.93437191496E+01 0.11259575606E+02 0.13297774089E+02
 0.15363140172E+02 0.17313294271E+02 0.18974290293E+02 0.20188202069E+02 0.20830397613E+02
 0.20830383810E+02 0.20188178131E+02 0.18974292409E+02 0.17313341694E+02 0.15363211492E+02
 0.13297820998E+02 0.11259565907E+02 0.93436672521E+01 0.76195309109E+01 0.61314249845E+01
 0.48967807225E+01 0.39080675976E+01 0.31400341633E+01 0.21388624549E+01 0.18066098830E+01
 0.15838290354E+01 0.14558710714E+01 0.14141629709E+01 0.14558731054E+01 0.15838279627E+01
 0.18066067003E+01 0.21388639129E+01 0.26017686065E+01 0.32227416775E+01 0.40329705040E+01
 0.50614417659E+01 0.63259462802E+01 0.78238612690E+01 0.95264262548E+01 0.11378008438E+02
 0.13297766562E+02 0.15179452688E+02 0.16880525665E+02 0.18239032827E+02 0.19117319103E+02
 0.19421322558E+02 0.19117294136E+02 0.18239027081E+02 0.16880572404E+02 0.15179531324E+02
 0.13297820998E+02 0.11378002202E+02 0.95263741925E+01 0.78238105393E+01 0.63259317125E+01
 0.50614597746E+01 0.40329926556E+01 0.32227483681E+01 0.26017645374E+01 0.17869411235E+01
 0.15347115519E+01 0.13753237709E+01 0.12982548905E+01 0.12982573070E+01 0.13753264420E+01
 0.15347096744E+01 0.17869395785E+01 0.21480506237E+01 0.26397809406E+01 0.32887603037E+01
 0.41232105782E+01 0.51663404942E+01 0.64274745070E+01 0.78938859394E+01 0.95264278418E+01
 0.11259574332E+02 0.13003484325E+02 0.14645935536E+02 0.16054342355E+02 0.17087731271E+02
 0.17634844014E+02 0.17634839339E+02 0.17087738110E+02 0.16054390138E+02 0.14646011063E+02
 0.13003535923E+02 0.11259565907E+02 0.95263741925E+01 0.78938334360E+01 0.64274574168E+01
 0.51663577636E+01 0.41232364193E+01 0.32887721022E+01 0.26397777866E+01 0.21480461839E+01
 0.15004841487E+01 0.13155614243E+01 0.12093588378E+01 0.11747607119E+01 0.12093625839E+01
 0.13155622704E+01 0.15004813040E+01 0.17758710756E+01 0.21582030891E+01 0.26685934205E+01
 0.33314550925E+01 0.41705918858E+01 0.52023808286E+01 0.64274746583E+01 0.78238624731E+01
 0.93437219723E+01 0.10914277276E+02 0.12441040035E+02 0.13812755486E+02 0.14910350400E+02
 0.15622829235E+02 0.15869914997E+02 0.15622846850E+02 0.14910397214E+02 0.13812820392E+02
 0.12441081544E+02 0.10914263800E+02 0.93436672521E+01 0.78238105393E+01 0.64274574168E+01
 0.52023968590E+01 0.41706181172E+01 0.33314701707E+01 0.26685928178E+01 0.21581973900E+01
 0.17758705257E+01 0.12738646789E+01 0.11444514461E+01 0.10818955023E+01 0.10818974147E+01
 0.11444536999E+01 0.12738632574E+01 0.14784784225E+01 0.17704937272E+01 0.21659060019E+01
 0.26841397968E+01 0.33462345727E+01 0.41705911620E+01 0.51663401300E+01 0.63259458241E+01
 0.76195782473E+01 0.89931647295E+01 0.10370322068E+02 0.11657316227E+02 0.12750935423E+02
 0.13550396247E+02 0.13973481756E+02 0.13973492216E+02 0.13550429171E+02 0.12750982158E+02
 0.11657346593E+02 0.10370308307E+02 0.89931148586E+01 0.76195309109E+01 0.63259317125E+01
 0.51663577636E+01 0.41706181172E+01 0.33462512696E+01 0.26841414433E+01 0.21659002721E+01
 0.17704906588E+01 0.14784803269E+01 0.11006003688E+01 0.10160966590E+01 0.98857644771E+00
 0.10160981793E+01 0.11006008372E+01 0.12477147287E+01 0.14663616794E+01 0.17684638647E+01
 0.21687624686E+01 0.26841397447E+01 0.33314538675E+01 0.41232095169E+01 0.50614418693E+01
 0.61314371332E+01 0.72974710995E+01 0.85021331076E+01 0.96695414723E+01 0.10711990344E+02
 0.11539703756E+02 0.12073379717E+02 0.12257884771E+02 0.12073394107E+02 0.11539730117E+02
 0.10712011882E+02 0.96695346680E+01 0.85020958796E+01 0.72974314228E+01 0.61314249845E+01
 0.50614597746E+01 0.41232364193E+01 0.33314701707E+01 0.26841414433E+01 0.21687565772E+01
 0.17684585700E+01 0.14663604400E+01 0.12477155266E+01 0.97421043838E+00 0.92531911632E+00
 0.92531919970E+00 0.97421069925E+00 0.10753693122E+01 0.12351724725E+01 0.14625157794E+01
 0.17684642711E+01 0.21659067332E+01 0.26685930614E+01 0.32887586547E+01 0.40329699868E+01
 0.48967682763E+01 0.58596399113E+01 0.68821727721E+01 0.79067091532E+01 0.88617931564E+01
 0.96699340251E+01 0.10257838199E+02 0.10567770317E+02 0.10567774484E+02 0.10257850851E+02
 0.96699488101E+01 0.88617937902E+01 0.79066865496E+01 0.68821416746E+01 0.58596262990E+01
 0.48967807225E+01 0.40329926556E+01 0.32887721022E+01 0.26685928178E+01 0.21659002721E+01
 0.17684585700E+01 0.14625125648E+01 0.12351709609E+01 0.10753686777E+01 0.88881060999E+00
 0.86761484437E+00 0.88880959669E+00 0.95389144071E+00 0.10671471011E+01 0.12351726112E+01
 0.14663620304E+01 0.17704944223E+01 0.21582034324E+01 0.26397794303E+01 0.32227385707E+01
 0.39080515207E+01 0.46857129747E+01 0.55310394762E+01 0.64032517658E+01 0.72473717575E+01
 0.79995502479E+01 0.85951161650E+01 0.89780659032E+01 0.91102369147E+01 0.89780723233E+01
 0.85951250021E+01 0.79995514763E+01 0.72473572488E+01 0.64032282373E+01 0.55310255106E+01
 0.46857187905E+01 0.39080675976E+01 0.32227483681E+01 0.26397777866E+01 0.21581973900E+01
 0.17704906588E+01 0.14663604400E+01 0.12351709609E+01 0.10671457437E+01 0.95389165374E+00
 0.83965107020E+00 0.83965015885E+00 0.87688967243E+00 0.95389187516E+00 0.10753698516E+01
 0.12477154092E+01 0.14784792716E+01 0.17758718708E+01 0.21480504031E+01 0.26017656441E+01
 0.31400262967E+01 0.37588704071E+01 0.44439629271E+01 0.51682314453E+01 0.58917712101E+01
 0.65647105819E+01 0.71328839815E+01 0.75453803348E+01 0.77625129275E+01 0.77625155041E+01
 0.75453843310E+01 0.71328814133E+01 0.65646973845E+01 0.58917537263E+01 0.51682223784E+01
 0.44439684444E+01 0.37588832347E+01 0.31400341633E+01 0.26017645374E+01 0.21480461839E+01
 0.17758705257E+01 0.14784803269E+01 0.12477155266E+01 0.10753686777E+01 0.95389165374E+00
 0.87689101667E+00 0.83965029123E+00 0.86761490174E+00 0.92531956649E+00 0.10160981288E+01
 0.11444539670E+01 0.13155638694E+01 0.15347127117E+01 0.18066104655E+01 0.21344460511E+01
 0.25185253564E+01 0.29545023249E+01 0.34315162654E+01 0.39308518031E+01 0.44258522314E+01
 0.48836215125E+01 0.52685734301E+01 0.55473036917E+01 0.56937973896E+01 0.56937983050E+01
 0.55473038050E+01 0.52685704232E+01 0.48836198983E+01 0.44258581158E+01 0.39308632356E+01
 0.34315246155E+01 0.29545028398E+01 0.25185215303E+01 0.21344432838E+01 0.18066098064E+01
 0.15347121989E+01 0.13155626438E+01 0.11444528777E+01 0.10160978776E+01 0.92531995295E+00
 0.86761539392E+00 0.83965050072E+00 0.86761490174E+00 0.90352157090E+00 0.96567141950E+00
 0.10572667719E+01 0.11822968650E+01 0.13450776543E+01 0.15496720020E+01 0.17991407137E+01
 0.20945531905E+01 0.24337438989E+01 0.28099560755E+01 0.32107104670E+01 0.36173691164E+01
 0.40058379619E+01 0.43486319773E+01 0.46181581487E+01 0.47906720258E+01 0.48500768865E+01
 0.47906718410E+01 0.46181573834E+01 0.43486327257E+01 0.40058432970E+01 0.36173777735E+01
 0.32107169061E+01 0.28099572123E+01 0.24337424168E+01 0.20945526544E+01 0.17991406726E+01
 0.15496701322E+01 0.13450741724E+01 0.11822941167E+01 0.10572657649E+01 0.96567105430E+00
 0.90352082155E+00 0.86761411734E+00 0.85588369296E+00 0.92531956649E+00 0.96567141950E+00
 0.10289163212E+01 0.11180233011E+01 0.12364547407E+01 0.13877154304E+01 0.15747472996E+01
 0.17991451988E+01 0.20602050706E+01 0.23538994732E+01 0.26719833476E+01 0.30015135742E+01
 0.33250736304E+01 0.36219098690E+01 0.38700095256E+01 0.40489018737E+01 0.41426976381E+01
 0.41426967173E+01 0.40489002520E+01 0.38700095800E+01 0.36219127045E+01 0.33250774671E+01
 0.30015154817E+01 0.26719827206E+01 0.23538984523E+01 0.20602050864E+01 0.17991448298E+01
 0.15747447171E+01 0.13877114788E+01 0.12364519060E+01 0.11180224514E+01 0.10289160980E+01
 0.96567051722E+00 0.92531825445E+00 0.90570680021E+00 0.90570742134E+00 0.10160981288E+01
 0.10572667719E+01 0.11180233011E+01 0.12011205451E+01 0.13095554399E+01 0.14461090993E+01
 0.16127272328E+01 0.18097571635E+01 0.20351231700E+01 0.22835908017E+01 0.25463120914E+01
 0.28108368527E+01 0.30617258058E+01 0.32818245446E+01 0.34541468705E+01 0.35641495103E+01
 0.36019796725E+01 0.35641476619E+01 0.34541456946E+01 0.32818250041E+01 0.30617258221E+01
 0.28108347886E+01 0.25463095071E+01 0.22835901125E+01 0.20351240288E+01 0.18097571433E+01
 0.16127254622E+01 0.14461072991E+01 0.13095552659E+01 0.12011214925E+01 0.11180238201E+01
 0.10572663416E+01 0.10160974073E+01 0.99233189457E+00 0.98457060461E+00 0.99233229819E+00
 0.11444539670E+01 0.11822968650E+01 0.12364547407E+01 0.13095554399E+01 0.14042275459E+01
 0.15226323723E+01 0.16658666521E+01 0.18332924810E+01 0.20219123105E+01 0.22259363391E+01
 0.24366762126E+01 0.26428544378E+01 0.28313713900E+01 0.29885319633E+01 0.31016654962E+01
 0.31609317923E+01 0.31609312966E+01 0.31016649194E+01 0.29885319724E+01 0.28313704958E+01
 0.26428516411E+01 0.24366736683E+01 0.22259366109E+01 0.20219143795E+01 0.18332933499E+01
 0.16658659908E+01 0.15226326583E+01 0.14042298902E+01 0.13095579746E+01 0.12364555107E+01
 0.11822962255E+01 0.11444534252E+01 0.11206437341E+01 0.11091851468E+01 0.11091849716E+01
 0.11206436326E+01 0.13155638694E+01 0.13450776543E+01 0.13877154304E+01 0.14461090993E+01
 0.15226323723E+01 0.16189499392E+01 0.17354972462E+01 0.18709668231E+01 0.20219122957E+01
 0.21825734925E+01 0.23449902265E+01 0.24994367775E+01 0.26351931557E+01 0.27416533746E+01
 0.28096991630E+01 0.28331179289E+01 0.28096998648E+01 0.27416539717E+01 0.26351923944E+01
 0.24994346386E+01 0.23449887992E+01 0.21825745174E+01 0.20219144700E+01 0.18709676248E+01
 0.17354968470E+01 0.16189507664E+01 0.15226349630E+01 0.14461111073E+01 0.13877151581E+01
 0.13450761689E+01 0.13155629333E+01 0.12966516068E+01 0.12862423819E+01 0.12829366393E+01
 0.12862422755E+01 0.12966517155E+01 0.15347127117E+01 0.15496720020E+01 0.15747472996E+01
 0.16127272328E+01 0.16658666521E+01 0.17354972462E+01 0.18216368130E+01 0.19226625989E+01
 0.20351231512E+01 0.21537385950E+01 0.22716141870E+01 0.23806901921E+01 0.24724602347E+01
 0.25389626577E+01 0.25739443878E+01 0.25739449196E+01 0.25389631387E+01 0.24724590434E+01
 0.23806878492E+01 0.22716129478E+01 0.21537393765E+01 0.20351243181E+01 0.19226625776E+01
 0.18216365671E+01 0.17354986089E+01 0.16658690343E+01 0.16127280399E+01 0.15747455601E+01
 0.15496695744E+01 0.15347114619E+01 0.15269161351E+01 0.15235397248E+01 0.15224419492E+01
 0.15224422044E+01 0.15235400873E+01 0.15269164676E+01 0.18066104655E+01 0.17991407137E+01
 0.17991451988E+01 0.18097571635E+01 0.18332924810E+01 0.18709668231E+01 0.19226625989E+01
 0.19867802237E+01 0.20602050895E+01 0.21384028172E+01 0.22156592761E+01 0.22855095534E+01
 0.23414056581E+01 0.23776073999E+01 0.23901484633E+01 0.23776070136E+01 0.23414039063E+01
 0.22855069696E+01 0.22156578265E+01 0.21384029181E+01 0.20602051370E+01 0.19867797766E+01
 0.19226635777E+01 0.18709702517E+01 0.18332960710E+01 0.18097578884E+01 0.17991430233E+01
 0.17991381383E+01 0.18066091679E+01 0.18179344524E+01 0.18294219785E+01 0.18378250963E+01
 0.18408953789E+01 0.18378257910E+01 0.18294226497E+01 0.18179349577E+01 0.21344460511E+01
 0.20945531905E+01 0.20602050706E+01 0.20351231700E+01 0.20219123105E+01 0.20219122957E+01
 0.20351231512E+01 0.20602050895E+01 0.20945532548E+01 0.21344461275E+01 0.21752963553E+01
 0.22120681687E+01 0.22399054184E+01 0.22549141499E+01 0.22549135931E+01 0.22399038618E+01
 0.22120664002E+01 0.21752954622E+01 0.21344457628E+01 0.20945521216E+01 0.20602040408E+01
 0.20351252053E+01 0.20219179553E+01 0.20219174894E+01 0.20351239992E+01 0.20602025991E+01
 0.20945510528E+01 0.21344454991E+01 0.21752960864E+01 0.22120676817E+01 0.22399054169E+01
 0.22549150341E+01 0.22549151976E+01 0.22399059856E+01 0.22120683565E+01 0.21752963415E+01
 0.25185253564E+01 0.24337438989E+01 0.23538994732E+01 0.22835908017E+01 0.22259363391E+01
 0.21825734925E+01 0.21537385950E+01 0.21384028172E+01 0.21344461275E+01 0.21388648947E+01