   2   2   0   0
  0.2001288E+02  0.3839590E-09  0.3839590E-09  0.3839590E-09  0.5000000E-15
  1.000000000000000E-004
  CAR 
 unknown system                          
     16.17889404     -8.19059891  301      5.90301696      1.00000000
     -8.191  0.0000E+00  0.0000E+00
     -8.109  0.0000E+00  0.0000E+00
     -8.028  0.0000E+00  0.0000E+00
     -7.947  0.0000E+00  0.0000E+00
     -7.866  0.0000E+00  0.0000E+00
     -7.784  0.0000E+00  0.0000E+00
     -7.703  0.0000E+00  0.0000E+00
     -7.622  0.0000E+00  0.0000E+00
     -7.541  0.0000E+00  0.0000E+00
     -7.460  0.0000E+00  0.0000E+00
     -7.378  0.0000E+00  0.0000E+00
     -7.297  0.3353E-16  0.2724E-17
     -7.216  0.2715E-14  0.2233E-15
     -7.135  0.1596E-12  0.1319E-13
     -7.053  0.6775E-11  0.5635E-12
     -6.972  0.2079E-09  0.1745E-10
     -6.891  0.4612E-08  0.3921E-09
     -6.810  0.7402E-07  0.6405E-08
     -6.728  0.8596E-06  0.7623E-07
     -6.647  0.7228E-05  0.6634E-06
     -6.566  0.4402E-04  0.4239E-05
     -6.485  0.1943E-03  0.2002E-04
     -6.404  0.6216E-03  0.7051E-04
     -6.322  0.1442E-02  0.1877E-03
     -6.241  0.2430E-02  0.3851E-03
     -6.160  0.2997E-02  0.6285E-03
     -6.079  0.2857E-02  0.8606E-03
     -5.997  0.2818E-02  0.1089E-02
     -5.916  0.4775E-02  0.1477E-02
     -5.835  0.1061E-01  0.2339E-02
     -5.754  0.2012E-01  0.3974E-02
     -5.672  0.2970E-01  0.6386E-02
     -5.591  0.3457E-01  0.9194E-02
     -5.510  0.3252E-01  0.1184E-01
     -5.429  0.2495E-01  0.1386E-01
     -5.347  0.1541E-01  0.1511E-01
     -5.266  0.7710E-02  0.1574E-01
     -5.185  0.4300E-02  0.1609E-01
     -5.104  0.6359E-02  0.1661E-01
     -5.023  0.1439E-01  0.1778E-01
     -4.941  0.2616E-01  0.1990E-01
     -4.860  0.3491E-01  0.2274E-01
     -4.779  0.3449E-01  0.2554E-01
     -4.698  0.2794E-01  0.2781E-01
     -4.616  0.2722E-01  0.3002E-01
     -4.535  0.4260E-01  0.3348E-01
     -4.454  0.7069E-01  0.3922E-01
     -4.373  0.9233E-01  0.4672E-01
     -4.291  0.8894E-01  0.5395E-01
     -4.210  0.6255E-01  0.5903E-01
     -4.129  0.3208E-01  0.6163E-01
     -4.048  0.1204E-01  0.6261E-01
     -3.967  0.3633E-02  0.6291E-01
     -3.885  0.2689E-02  0.6312E-01
     -3.804  0.8343E-02  0.6380E-01
     -3.723  0.2420E-01  0.6577E-01
     -3.642  0.5144E-01  0.6995E-01
     -3.560  0.7949E-01  0.7640E-01
     -3.479  0.8982E-01  0.8370E-01
     -3.398  0.7683E-01  0.8994E-01
     -3.317  0.5770E-01  0.9463E-01
     -3.235  0.5332E-01  0.9896E-01
     -3.154  0.6437E-01  0.1042E+00
     -3.073  0.7239E-01  0.1101E+00
     -2.992  0.6266E-01  0.1152E+00
     -2.911  0.3982E-01  0.1184E+00
     -2.829  0.1844E-01  0.1199E+00
     -2.748  0.6550E-02  0.1204E+00
     -2.667  0.3327E-02  0.1207E+00
     -2.586  0.6469E-02  0.1212E+00
     -2.504  0.1528E-01  0.1225E+00
     -2.423  0.2717E-01  0.1247E+00
     -2.342  0.3511E-01  0.1275E+00
     -2.261  0.3294E-01  0.1302E+00
     -2.179  0.2258E-01  0.1320E+00
     -2.098  0.1204E-01  0.1330E+00
     -2.017  0.7816E-02  0.1336E+00
     -1.936  0.1189E-01  0.1346E+00
     -1.855  0.2235E-01  0.1364E+00
     -1.773  0.3280E-01  0.1391E+00
     -1.692  0.3517E-01  0.1419E+00
     -1.611  0.2738E-01  0.1442E+00
     -1.530  0.1549E-01  0.1454E+00
     -1.448  0.6578E-02  0.1460E+00
     -1.367  0.3353E-02  0.1462E+00
     -1.286  0.6881E-02  0.1468E+00
     -1.205  0.2111E-01  0.1485E+00
     -1.123  0.5091E-01  0.1526E+00
     -1.042  0.9230E-01  0.1601E+00
     -0.961  0.1264E+00  0.1704E+00
     -0.880  0.1321E+00  0.1811E+00
     -0.799  0.1079E+00  0.1899E+00
     -0.717  0.7519E-01  0.1960E+00
     -0.636  0.5483E-01  0.2005E+00
     -0.555  0.4787E-01  0.2044E+00
     -0.474  0.4197E-01  0.2078E+00
     -0.392  0.3014E-01  0.2102E+00
     -0.311  0.1634E-01  0.2115E+00
     -0.230  0.6537E-02  0.2121E+00
     -0.149  0.1971E-02  0.2122E+00
     -0.067  0.8213E-03  0.2123E+00
      0.014  0.2225E-02  0.2125E+00
      0.095  0.8244E-02  0.2131E+00
      0.176  0.2277E-01  0.2150E+00
      0.257  0.4563E-01  0.2187E+00
      0.339  0.6634E-01  0.2241E+00
      0.420  0.6997E-01  0.2298E+00
      0.501  0.5354E-01  0.2341E+00
      0.582  0.2972E-01  0.2365E+00
      0.664  0.1199E-01  0.2375E+00
      0.745  0.3681E-02  0.2378E+00
      0.826  0.1751E-02  0.2380E+00
      0.907  0.4027E-02  0.2383E+00
      0.989  0.1098E-01  0.2392E+00
      1.070  0.2229E-01  0.2410E+00
      1.151  0.3290E-01  0.2437E+00
      1.232  0.3543E-01  0.2465E+00
      1.314  0.2888E-01  0.2489E+00
      1.395  0.2206E-01  0.2507E+00
      1.476  0.2697E-01  0.2529E+00
      1.557  0.4925E-01  0.2569E+00
      1.638  0.8105E-01  0.2634E+00
      1.720  0.1021E+00  0.2717E+00
      1.801  0.9592E-01  0.2795E+00
      1.882  0.6774E-01  0.2850E+00
      1.963  0.3959E-01  0.2883E+00
      2.045  0.2989E-01  0.2907E+00
      2.126  0.4146E-01  0.2940E+00
      2.207  0.6197E-01  0.2991E+00
      2.288  0.7291E-01  0.3050E+00
      2.370  0.6738E-01  0.3105E+00
      2.451  0.6018E-01  0.3154E+00
      2.532  0.7235E-01  0.3212E+00
      2.613  0.1049E+00  0.3298E+00
      2.694  0.1347E+00  0.3407E+00
      2.776  0.1424E+00  0.3523E+00
      2.857  0.1388E+00  0.3636E+00
      2.938  0.1461E+00  0.3754E+00
      3.019  0.1604E+00  0.3884E+00
      3.101  0.1544E+00  0.4010E+00
      3.182  0.1170E+00  0.4105E+00
      3.263  0.6765E-01  0.4160E+00
      3.344  0.3191E-01  0.4186E+00
      3.426  0.2046E-01  0.4202E+00
      3.507  0.3105E-01  0.4228E+00
      3.588  0.5456E-01  0.4272E+00
      3.669  0.7696E-01  0.4334E+00
      3.750  0.8823E-01  0.4406E+00
      3.832  0.9145E-01  0.4480E+00
      3.913  0.9343E-01  0.4556E+00
      3.994  0.9202E-01  0.4631E+00
      4.075  0.8262E-01  0.4698E+00
      4.157  0.6752E-01  0.4753E+00
      4.238  0.5241E-01  0.4796E+00
      4.319  0.4281E-01  0.4830E+00
      4.400  0.4297E-01  0.4865E+00
      4.482  0.5023E-01  0.4906E+00
      4.563  0.5556E-01  0.4951E+00
      4.644  0.5475E-01  0.4996E+00
      4.725  0.5210E-01  0.5038E+00
      4.806  0.5159E-01  0.5080E+00
      4.888  0.5308E-01  0.5123E+00
      4.969  0.5572E-01  0.5168E+00
      5.050  0.5624E-01  0.5214E+00
      5.131  0.4885E-01  0.5254E+00
      5.213  0.3335E-01  0.5281E+00
      5.294  0.1733E-01  0.5295E+00
      5.375  0.7661E-02  0.5301E+00
      5.456  0.5133E-02  0.5305E+00
      5.538  0.6706E-02  0.5311E+00
      5.619  0.8674E-02  0.5318E+00
      5.700  0.8488E-02  0.5325E+00
      5.781  0.6096E-02  0.5330E+00
      5.862  0.3433E-02  0.5332E+00
      5.944  0.2488E-02  0.5334E+00
      6.025  0.4404E-02  0.5338E+00
      6.106  0.9266E-02  0.5345E+00
      6.187  0.1508E-01  0.5358E+00
      6.269  0.1808E-01  0.5372E+00
      6.350  0.1666E-01  0.5386E+00
      6.431  0.1447E-01  0.5398E+00
      6.512  0.1732E-01  0.5412E+00
      6.594  0.2643E-01  0.5433E+00
      6.675  0.3595E-01  0.5462E+00
      6.756  0.3923E-01  0.5494E+00
      6.837  0.3750E-01  0.5525E+00
      6.918  0.3818E-01  0.5556E+00
      7.000  0.4499E-01  0.5592E+00
      7.081  0.5425E-01  0.5636E+00
      7.162  0.6155E-01  0.5686E+00
      7.243  0.6832E-01  0.5742E+00
      7.325  0.7821E-01  0.5805E+00
      7.406  0.8876E-01  0.5878E+00
      7.487  0.9494E-01  0.5955E+00
      7.568  0.9901E-01  0.6035E+00
      7.650  0.1037E+00  0.6119E+00
      7.731  0.1006E+00  0.6201E+00
      7.812  0.8100E-01  0.6267E+00
      7.893  0.5126E-01  0.6308E+00
      7.974  0.2634E-01  0.6330E+00
      8.056  0.1399E-01  0.6341E+00
      8.137  0.1177E-01  0.6351E+00
      8.218  0.1473E-01  0.6363E+00
      8.299  0.2114E-01  0.6380E+00
      8.381  0.3046E-01  0.6405E+00
      8.462  0.3897E-01  0.6436E+00
      8.543  0.4301E-01  0.6471E+00
      8.624  0.4610E-01  0.6509E+00
      8.706  0.5732E-01  0.6555E+00
      8.787  0.8312E-01  0.6623E+00
      8.868  0.1225E+00  0.6722E+00
      8.949  0.1614E+00  0.6853E+00
      9.031  0.1746E+00  0.6995E+00
      9.112  0.1502E+00  0.7117E+00
      9.193  0.1097E+00  0.7206E+00
      9.274  0.8820E-01  0.7278E+00
      9.355  0.9665E-01  0.7356E+00
      9.437  0.1183E+00  0.7453E+00
      9.518  0.1343E+00  0.7562E+00
      9.599  0.1401E+00  0.7675E+00
      9.680  0.1380E+00  0.7788E+00
      9.762  0.1320E+00  0.7895E+00
      9.843  0.1295E+00  0.8000E+00
      9.924  0.1351E+00  0.8110E+00
     10.005  0.1424E+00  0.8225E+00
     10.087  0.1435E+00  0.8342E+00
     10.168  0.1401E+00  0.8456E+00
     10.249  0.1434E+00  0.8572E+00
     10.330  0.1617E+00  0.8704E+00
     10.411  0.1831E+00  0.8852E+00
     10.493  0.1795E+00  0.8998E+00
     10.574  0.1388E+00  0.9111E+00
     10.655  0.8247E-01  0.9178E+00
     10.736  0.4207E-01  0.9212E+00
     10.818  0.3179E-01  0.9238E+00
     10.899  0.4605E-01  0.9275E+00
     10.980  0.6796E-01  0.9330E+00
     11.061  0.7982E-01  0.9395E+00
     11.143  0.7648E-01  0.9457E+00
     11.224  0.6627E-01  0.9511E+00
     11.305  0.5713E-01  0.9558E+00
     11.386  0.4953E-01  0.9598E+00
     11.467  0.4130E-01  0.9631E+00
     11.549  0.3122E-01  0.9657E+00
     11.630  0.1992E-01  0.9673E+00
     11.711  0.1005E-01  0.9681E+00
     11.792  0.3835E-02  0.9684E+00
     11.874  0.1082E-02  0.9685E+00
     11.955  0.2231E-03  0.9685E+00
     12.036  0.3346E-04  0.9685E+00
     12.117  0.3640E-05  0.9685E+00
     12.199  0.2868E-06  0.9685E+00
     12.280  0.1738E-07  0.9685E+00
     12.361  0.2716E-07  0.9685E+00
     12.442  0.4957E-06  0.9685E+00
     12.523  0.6714E-05  0.9685E+00
     12.605  0.6586E-04  0.9685E+00
     12.686  0.4684E-03  0.9686E+00
     12.767  0.2420E-02  0.9688E+00
     12.848  0.9113E-02  0.9695E+00
     12.930  0.2522E-01  0.9716E+00
     13.011  0.5210E-01  0.9758E+00
     13.092  0.8296E-01  0.9825E+00
     13.173  0.1073E+00  0.9912E+00
     13.255  0.1199E+00  0.1001E+01
     13.336  0.1200E+00  0.1011E+01
     13.417  0.1081E+00  0.1020E+01
     13.498  0.8868E-01  0.1027E+01
     13.579  0.6875E-01  0.1032E+01
     13.661  0.5111E-01  0.1036E+01
     13.742  0.3620E-01  0.1039E+01
     13.823  0.2834E-01  0.1042E+01
     13.904  0.3193E-01  0.1044E+01
     13.986  0.4412E-01  0.1048E+01
     14.067  0.5580E-01  0.1052E+01
     14.148  0.5892E-01  0.1057E+01
     14.229  0.5102E-01  0.1061E+01
     14.311  0.3545E-01  0.1064E+01
     14.392  0.1919E-01  0.1066E+01
     14.473  0.7864E-02  0.1066E+01
     14.554  0.2395E-02  0.1067E+01
     14.635  0.5354E-03  0.1067E+01
     14.717  0.8732E-04  0.1067E+01
     14.798  0.1035E-04  0.1067E+01
     14.879  0.8897E-06  0.1067E+01
     14.960  0.5539E-07  0.1067E+01
     15.042  0.2496E-08  0.1067E+01
     15.123  0.8132E-10  0.1067E+01
     15.204  0.1915E-11  0.1067E+01
     15.285  0.3259E-13  0.1067E+01
     15.367  0.4024E-15  0.1067E+01
     15.448  0.0000E+00  0.1067E+01
     15.529  0.0000E+00  0.1067E+01
     15.610  0.0000E+00  0.1067E+01
     15.692  0.0000E+00  0.1067E+01
     15.773  0.0000E+00  0.1067E+01
     15.854  0.0000E+00  0.1067E+01
     15.935  0.0000E+00  0.1067E+01
     16.016  0.0000E+00  0.1067E+01
     16.098  0.0000E+00  0.1067E+01
     16.179  0.0000E+00  0.1067E+01
