    2    2   15    1
  0.2001288E+02  0.3839590E-09  0.3839590E-09  0.3839590E-09  0.5000000E-15
  1.000000000000000E-004
  CAR 
 unknown system                          
      8     10      8
 
  0.0000000E+00  0.0000000E+00  0.0000000E+00  0.8000000E-02
    1       -6.190599   1.000000
    2        5.614401   0.979366
    3        5.614404   0.979365
    4        5.614404   0.979365
    5        8.163338   0.000000
    6        8.163341   0.000000
    7        8.163341   0.000000
    8        8.725077   0.000000
 
  0.2000000E+00  0.1993820E-16  0.3023569E-17  0.6400000E-01
    1       -5.683371   1.000000
    2        2.632120   1.000000
    3        5.046495   1.000000
    4        5.046497   1.000000
    5        7.756779   0.000000
    6        8.951690   0.000000
    7        8.951690   0.000000
    8       11.476084   0.000000
 
  0.4000000E+00  0.3987640E-16  0.6047138E-17  0.6400000E-01
    1       -4.352472   1.000000
    2       -0.570363   1.000000
    3        4.506351   1.000000
    4        4.506353   1.000000
    5        7.153640   0.000000
    6        9.029146   0.000000
    7        9.029152   0.000000
    8       13.411903   0.000000
 
  0.2000000E+00  0.2000000E+00  0.4572614E-17  0.4800000E-01
    1       -5.508577   1.000000
    2        2.977726   1.000000
    3        4.159948   1.000000
    4        4.159949   1.000000
    5        7.086325   0.000000
    6        9.458908   0.000000
    7       10.448045   0.000000
    8       10.448048   0.000000
 
  0.4000000E+00  0.2000000E+00  0.1623023E-16  0.1920000E+00
    1       -4.391373   1.000000
    2        0.352200   1.000000
    3        3.038007   1.000000
    4        3.660006   1.000000
    5        7.397454   0.000000
    6        9.677858   0.000000
    7       10.466115   0.000000
    8       11.003174   0.000000
 
 -0.4000000E+00  0.2000000E+00  0.9097260E-17  0.1920000E+00
    1       -3.532105   1.000000
    2       -1.003884   1.000000
    3        2.246303   1.000000
    4        3.934339   1.000000
    5        7.667529   0.000000
    6       10.154033   0.000000
    7       10.387821   0.000000
    8       13.099844   0.000000
 
 -0.2000000E+00  0.2000000E+00  0.1212083E-16  0.9600000E-01
    1       -4.869068   1.000000
    2        1.168011   1.000000
    3        2.682387   1.000000
    4        4.782799   1.000000
    5        8.455877   0.000000
    6        9.571100   0.000000
    7        9.879984   0.000000
    8       11.259389   0.000000
 
  0.4000000E+00  0.4000000E+00  0.9145228E-17  0.4800000E-01
    1       -3.531541   1.000000
    2       -0.521183   1.000000
    3        2.975698   1.000000
    4        2.975699   1.000000
    5        6.230351   0.010317
    6        6.962176   0.000000
    7       14.003584   0.000000
    8       14.003588   0.000000
 
 -0.4000000E+00  0.4000000E+00  0.2424166E-16  0.9600000E-01
    1       -2.358222   1.000000
    2       -1.755450   1.000000
    3        1.648104   1.000000
    4        3.091466   1.000000
    5        6.675698   0.000000
    6        8.759129   0.000000
    7       13.598177   0.000000
    8       14.178894   0.000000
 
 -0.4000000E+00  0.4000000E+00  0.2000000E+00  0.1920000E+00
    1       -3.105915   1.000000
    2       -0.898004   1.000000
    3        1.728034   1.000000
    4        2.693915   1.000000
    5        8.992168   0.000000
    6        9.391823   0.000000
    7        9.975107   0.000000
    8       13.306574   0.000000
