unknown system                          
   1.00000000000000     
    -2.450000    2.450000    1.274000
     2.450000   -2.450000    1.274000
     2.450000    2.450000   -1.274000
   Si
     2
Direct
  0.250000  0.750000  0.500000
  0.000000  0.000000  0.000000
 
   36   36   36
 -5.2562     -4.3271     -1.7750      1.7760      5.5187      8.7034      10.825      11.707      11.482      10.504    
  9.2083      7.9048      6.7099      5.6913      4.8791      4.2745      3.8631      3.6261      3.5489      3.6261    
  3.8631      4.2745      4.8791      5.6913      6.7099      7.9048      9.2083      10.504      11.482      11.707    
  10.825      8.7034      5.5186      1.7760     -1.7750     -4.3271     -4.3271     -4.8113     -3.4847     -.68469    
  2.9093      6.4963      9.3845      11.153      11.707      11.243      10.143      8.8321      7.5531      6.4035    
  5.4409      4.6868      4.1373      3.7758      3.5838      3.5488      3.6679      3.9488      4.4078      5.0631    
  5.9266      6.9914      8.2194      9.5344      10.796      11.649      11.664      10.533      8.1865      4.8778    
  1.1737     -2.1529     -1.7750     -3.4847     -3.5263     -1.8941     0.99441      4.4410      7.6889      10.133    
  11.450      11.631      10.923      9.7247      8.4182      7.1764      6.0831      5.1842      4.4930      4.0008    
  3.6897      3.5424      3.5485      3.7078      4.0301      4.5323      5.2321      6.1380      7.2376      8.4857    
  9.7999      11.016      11.754      11.613      10.332      7.9081      4.6548      1.1737      1.7760     -.68470    
 -1.8941     -1.5435     0.26903      3.0753      6.1960      8.9515      10.844      11.654      11.452      10.524    
  9.2652      7.9796      6.7876      5.7596      4.9299      4.3039      3.8692      3.6076      3.5032      3.5482    
  3.7446      4.1041      4.6438      5.3799      6.3176      7.4393      8.6942      9.9960      11.161      11.811    
  11.579      10.260      7.9081      4.8778      5.5186      2.9093     0.99440     0.26903     0.92202      2.7722    
  5.3342      7.9817      10.137      11.420      11.715      11.158      10.059      8.7804      7.5304      6.3994    
  5.4435      4.6860      4.1253      3.7467      3.5320      3.4676      3.5480      3.7774      4.1685      4.7382    
  5.5010      6.4586      7.5890      8.8376      10.116      11.233      11.829      11.579      10.332      8.1865    
  8.7034      6.4963      4.4410      3.0753      2.7722      3.6125      5.3592      7.5424      9.6162      11.120    
  11.791      11.607      10.755      9.5506      8.2849      7.0847      6.0237      5.1443      4.4594      3.9623    
  3.6364      3.4651      3.4367      3.5480      3.8050      4.2210      4.8122      5.5909      6.5556      7.6811    
  8.9105      10.156      11.233      11.811      11.613      10.533      10.825      9.3845      7.6889      6.1960    
  5.3343      5.3592      6.2641      7.7857      9.4980      10.953      11.809      11.916      11.330      10.269    
  9.0275      7.7943      6.6562      5.6718      4.8703      4.2561      3.8187      3.5413      3.4086      3.4112    
  3.5482      3.8266      4.2598      4.8630      5.6461      6.6051      7.7121      8.9105      10.116      11.161    
  11.754      11.664      11.707      11.153      10.133      8.9515      7.9817      7.5425      7.7857      8.6430    
  9.8523      11.052      11.898      12.165      11.799      10.913      9.7401      8.5083      7.3244      6.2581    
  5.3534      4.6282      4.0807      3.6978      3.4632      3.3636      3.3919      3.5485      3.8415      4.2837    
  4.8889      5.6648      6.6051      7.6811      8.8376      9.9960      11.016      11.649      11.482      11.707    
  11.450      10.844      10.137      9.6162      9.4980      9.8523      10.575      11.427      12.123      12.421    
  12.198      11.477      10.410      9.2101      8.0118      6.8906      5.9019      5.0766      4.4237      3.9368    
  3.6017      3.4036      3.3311      3.3789      3.5488      3.8491      4.2917      4.8889      5.6461      6.5556    
  7.5890      8.6942      9.7999      10.796      10.504      11.243      11.631      11.654      11.420      11.120    
  10.953      11.052      11.427      11.962      12.457      12.703      12.552      11.965      11.020      9.8845    
  8.7032      7.5565      6.5072      5.5975      4.8479      4.2607      3.8268      3.5322      3.3635      3.3114    
  3.3724      3.5490      3.8491      4.2837      4.8630      5.5909      6.4586      7.4393      8.4857      9.5344    
  9.2083      10.143      10.923      11.452      11.715      11.791      11.809      11.898      12.123      12.457    
  12.788      12.964      12.847      12.369      11.554      10.514      9.3825      8.2421      7.1597      6.1863    
  5.3530      4.6724      4.1424      3.7526      3.4901      3.3433      3.3049      3.3724      3.5488      3.8415    
  4.2598      4.8122      5.5010      6.3176      7.2376      8.2194      7.9048      8.8321      9.7247      10.524    
  11.158      11.607      11.916      12.165      12.421      12.703      12.964      13.110      13.034      12.662    
  11.987      11.074      10.029      8.9310      7.8475      6.8360      5.9374      5.1744      4.5536      4.0707    
  3.7153      3.4760      3.3433      3.3114      3.3789      3.5485      3.8266      4.2210      4.7382      5.3799    
  6.1380      6.9914      6.7099      7.5531      8.4182      9.2652      10.059      10.755      11.330      11.799    
  12.198      12.552      12.847      13.034      13.037      12.795      12.281      11.530      10.614      9.6003    
  8.5540      7.5365      6.5969      5.7678      5.0656      4.4937      4.0466      3.7153      3.4901      3.3635    
  3.3311      3.3919      3.5482      3.8050      4.1685      4.6438      5.2321      5.9266      5.6913      6.4035    
  7.1764      7.9796      8.7804      9.5506      10.269      10.913      11.477      11.965      12.369      12.662    
  12.795      12.716      12.396      11.845      11.102      10.219      9.2547      8.2709      7.3222      6.4504    
  5.6819      5.0291      4.4937      4.0707      3.7526      3.5322      3.4036      3.3636      3.4112      3.5480    
  3.7774      4.1041      4.5323      5.0631      4.8791      5.4409      6.0831      6.7876      7.5304      8.2849    
  9.0275      9.7401      10.410      11.020      11.554      11.987      12.281      12.396      12.299      11.981    
  11.453      10.748      9.9160      9.0128      8.0956      7.2130      6.4011      5.6819      5.0656      4.5536    
  4.1424      3.8268      3.6017      3.4632      3.4086      3.4367      3.5480      3.7446      4.0301      4.4078    
  4.2745      4.6868      5.1842      5.7596      6.3994      7.0847      7.7943      8.5083      9.2101      9.8845    
  10.514      11.074      11.530      11.845      11.981      11.912      11.629      11.147      10.497      9.7259    
  8.8885      8.0362      7.2130      6.4504      5.7678      5.1744      4.6724      4.2607      3.9368      3.6978    
  3.5413      3.4651      3.4676      3.5482      3.7078      3.9488      3.8631      4.1373      4.4930      4.9299    
  5.4435      6.0237      6.6562      7.3244      8.0118      8.7032      9.3825      10.029      10.614      11.102    
  11.453      11.629      11.606      11.376      10.952      10.366      9.6612      8.8885      8.0956      7.3222    
  6.5969      5.9374      5.3530      4.8479      4.4237      4.0807      3.8187      3.6364      3.5320      3.5032    
  3.5485      3.6679      3.6261      3.7758      4.0008      4.3039      4.6860      5.1443      5.6718      6.2581    
  6.8906      7.5565      8.2421      8.9310      9.6003      10.219      10.748      11.147      11.376      11.412    
  11.244      10.886      10.366      9.7259      9.0128      8.2709      7.5365      6.8360      6.1863      5.5975    
  5.0766      4.6282      4.2561      3.9623      3.7467      3.6076      3.5424      3.5488      3.5489      3.5838    
  3.6897      3.8692      4.1253      4.4595      4.8703      5.3534      5.9019      6.5072      7.1597      7.8475    
  8.5539      9.2547      9.9160      10.497      10.952      11.244      11.345      11.244      10.952      10.497    
  9.9160      9.2547      8.5540      7.8475      7.1597      6.5072      5.9019      5.3534      4.8703      4.4594    
  4.1253      3.8692      3.6897      3.5838      3.6261      3.5488      3.5424      3.6076      3.7467      3.9623    
  4.2561      4.6282      5.0766      5.5975      6.1863      6.8360      7.5365      8.2709      9.0128      9.7259    
  10.366      10.886      11.244      11.412      11.376      11.147      10.748      10.219      9.6003      8.9310    
  8.2421      7.5565      6.8906      6.2581      5.6718      5.1443      4.6860      4.3039      4.0008      3.7758    
  3.8631      3.6679      3.5485      3.5032      3.5320      3.6364      3.8187      4.0807      4.4237      4.8479    
  5.3531      5.9375      6.5969      7.3222      8.0956      8.8885      9.6612      10.366      10.952      11.376    
  11.606      11.629      11.453      11.102      10.614      10.029      9.3825      8.7032      8.0118      7.3244    
  6.6562      6.0237      5.4435      4.9299      4.4930      4.1373      4.2745      3.9488      3.7077      3.5482    
  3.4676      3.4651      3.5413      3.6978      3.9368      4.2608      4.6724      5.1744      5.7678      6.4504    
  7.2130      8.0362      8.8885      9.7259      10.497      11.147      11.629      11.912      11.981      11.845    
  11.530      11.074      10.514      9.8845      9.2101      8.5083      7.7943      7.0847      6.3994      5.7596    
  5.1842      4.6868      4.8791      4.4077      4.0300      3.7446      3.5480      3.4367      3.4085      3.4632    
  3.6017      3.8268      4.1424      4.5536      5.0657      5.6819      6.4011      7.2130      8.0956      9.0128    
  9.9160      10.748      11.453      11.981      12.299      12.396      12.281      11.987      11.554      11.020    
  10.410      9.7401      9.0275      8.2849      7.5304      6.7876      6.0831      5.4409      5.6913      5.0631    
  4.5323      4.1041      3.7774      3.5480      3.4112      3.3636      3.4036      3.5322      3.7527      4.0707    
  4.4937      5.0291      5.6819      6.4504      7.3222      8.2709      9.2547      10.219      11.102      11.845    
  12.396      12.716      12.795      12.662      12.369      11.965      11.477      10.913      10.269      9.5506    
  8.7804      7.9796      7.1764      6.4035      6.7099      5.9266      5.2321      4.6438      4.1685      3.8050    
  3.5482      3.3919      3.3311      3.3635      3.4901      3.7153      4.0467      4.4937      5.0657      5.7678    
  6.5969      7.5365      8.5539      9.6003      10.614      11.530      12.281      12.795      13.037      13.034    
  12.847      12.552      12.198      11.799      11.330      10.755      10.059      9.2652      8.4182      7.5531    
  7.9048      6.9914      6.1380      5.3799      4.7382      4.2210      3.8266      3.5485      3.3789      3.3114    
  3.3433      3.4760      3.7153      4.0707      4.5536      5.1744      5.9375      6.8360      7.8475      8.9310    
  10.029      11.074      11.987      12.662      13.034      13.110      12.964      12.703      12.421      12.165    
  11.916      11.607      11.158      10.524      9.7247      8.8321      9.2083      8.2194      7.2376      6.3176    
  5.5010      4.8122      4.2598      3.8415      3.5488      3.3724      3.3049      3.3433      3.4901      3.7527    
  4.1424      4.6724      5.3531      6.1863      7.1597      8.2421      9.3825      10.514      11.554      12.369    
  12.847      12.964      12.788      12.457      12.123      11.898      11.809      11.791      11.715      11.452    
  10.923      10.143      10.504      9.5344      8.4857      7.4393      6.4586      5.5909      4.8630      4.2837    
  3.8491      3.5490      3.3724      3.3114      3.3635      3.5322      3.8268      4.2608      4.8479      5.5975    
  6.5072      7.5565      8.7032      9.8845      11.020      11.965      12.552      12.703      12.457      11.962    
  11.427      11.052      10.953      11.120      11.420      11.654      11.631      11.243      11.482      10.796    
  9.8000      8.6943      7.5890      6.5557      5.6462      4.8889      4.2918      3.8491      3.5488      3.3789    
  3.3311      3.4036      3.6017      3.9368      4.4237      5.0766      5.9019      6.8906      8.0118      9.2101    
  10.410      11.477      12.198      12.421      12.123      11.427      10.575      9.8523      9.4980      9.6162    
  10.137      10.844      11.450      11.707      11.707      11.649      11.016      9.9960      8.8376      7.6811    
  6.6051      5.6648      4.8889      4.2837      3.8415      3.5485      3.3919      3.3636      3.4632      3.6978    
  4.0807      4.6282      5.3534      6.2581      7.3244      8.5083      9.7401      10.913      11.799      12.165    
  11.898      11.052      9.8523      8.6430      7.7857      7.5424      7.9817      8.9515      10.133      11.153    
  10.825      11.664      11.754      11.161      10.116      8.9106      7.7122      6.6051      5.6462      4.8630    
  4.2598      3.8266      3.5482      3.4112      3.4085      3.5413      3.8187      4.2561      4.8703      5.6718    
  6.6562      7.7943      9.0275      10.269      11.330      11.916      11.809      10.953      9.4980      7.7857    
  6.2641      5.3592      5.3342      6.1960      7.6889      9.3845      8.7034      10.533      11.613      11.811    
  11.233      10.156      8.9106      7.6811      6.5557      5.5909      4.8122      4.2210      3.8050      3.5480    
  3.4367      3.4651      3.6364      3.9623      4.4595      5.1443      6.0237      7.0847      8.2849      9.5506    
  10.755      11.607      11.791      11.120      9.6162      7.5425      5.3592      3.6125      2.7722      3.0753    
  4.4410      6.4963      5.5187      8.1865      10.332      11.579      11.829      11.233      10.116      8.8376    
  7.5890      6.4586      5.5010      4.7382      4.1685      3.7774      3.5480      3.4676      3.5320      3.7467    
  4.1253      4.6860      5.4435      6.3994      7.5304      8.7804      10.059      11.158      11.715      11.420    
  10.137      7.9817      5.3343      2.7722     0.92202     0.26903     0.99441      2.9093      1.7760      4.8778    
  7.9081      10.260      11.579      11.811      11.161      9.9960      8.6943      7.4393      6.3176      5.3799    
  4.6438      4.1041      3.7446      3.5482      3.5032      3.6076      3.8692      4.3039      4.9299      5.7596    
  6.7876      7.9796      9.2652      10.524      11.452      11.654      10.844      8.9515      6.1960      3.0753    
 0.26903     -1.5435     -1.8941     -.68469     -1.7750      1.1737      4.6548      7.9081      10.332      11.613    
  11.754      11.016      9.8000      8.4857      7.2376      6.1380      5.2321      4.5323      4.0300      3.7077    
  3.5485      3.5424      3.6897      4.0008      4.4930      5.1842      6.0831      7.1764      8.4182      9.7247    
  10.923      11.631      11.450      10.133      7.6889      4.4410     0.99440     -1.8941     -3.5263     -3.4847    
 -4.3271     -2.1528      1.1737      4.8778      8.1865      10.533      11.664      11.649      10.796      9.5344    
  8.2194      6.9914      5.9266      5.0631      4.4077      3.9488      3.6679      3.5488      3.5838      3.7758    
  4.1373      4.6868      5.4409      6.4035      7.5531      8.8321      10.143      11.243      11.707      11.153    
  9.3845      6.4963      2.9093     -.68470     -3.4847     -4.8113     -4.3271     -3.6379     -1.3711      1.9156    
  5.4638      8.5429      10.638      11.545      11.363      10.418      9.1350      7.8315      6.6296      5.5993    
  4.7729      4.1528      3.7249      3.4699      3.3724      3.4254      3.6332      4.0095      4.5730      5.3404    
  6.3142      7.4705      8.7486      10.046      11.101      11.491      10.857      9.0356      6.1587      2.6739    
 -.72457     -3.2657     -3.6379     -4.3271     -3.2657     -.72456      2.6739      6.1587      9.0356      10.857    
  11.491      11.101      10.046      8.7487      7.4705      6.3142      5.3404      4.5731      4.0095      3.6333    
  3.4254      3.3724      3.4699      3.7249      4.1528      4.7728      5.5993      6.6296      7.8315      9.1350    
  10.418      11.363      11.545      10.638      8.5429      5.4638      1.9156     -1.3711     -1.3003     -3.1899    
 -3.4847     -2.1154     0.56421      3.8982      7.1385      9.6577      11.093      11.394      10.778      9.6247    
  8.3306      7.0896      5.9894      5.0798      4.3765      3.8720      3.5485      3.3879      3.3789      3.5201    
  3.8206      4.2975      4.9695      5.8480      6.9249      8.1606      9.4778      10.733      11.571      11.585    
  10.494      8.2585      5.1464      1.7156      2.0995     -.51976     -1.9721     -1.8941     -.31646      2.3474    
  5.4419      8.2756      10.312      11.286      11.225      10.390      9.1681      7.8934      6.7009      5.6657    
  4.8260      4.1894      3.7446      3.4731      3.3585      3.3919      3.5746      3.9178      4.4391      5.1563    
  6.0777      7.1898      8.4466      9.7659      10.984      11.733      11.637      10.464      8.2303      5.2509    
  5.7668      3.0230     0.88187     -.12026     0.26901      1.9324      4.4253      7.1256      9.4267      10.900    
  11.379      10.963      9.9436      8.6917      7.4497      6.3164      5.3531      4.5865      4.0171      3.6308    
  3.4093      3.3382      3.4112      3.6321      4.0134      4.5729      5.3270      6.2804      7.4148      8.6794    
  9.9893      11.168      11.857      11.716      10.565      8.4683      8.9437      6.6316      4.3787      2.7474    
  2.1633      2.7722      4.3913      6.5749      8.7636      10.455      11.335      11.333      10.604      9.4565    
  8.2086      7.0125      5.9475      5.0605      4.3679      3.8643      3.5337      3.3590      3.3279      3.4367    
  3.6910      4.1045      4.6945      5.4754      6.4485      7.5914      8.8503      10.140      11.282      11.942    
  11.823      10.790      11.105      9.5929      7.7395      6.0113      4.8733      4.6382      5.3591      6.8135    
  8.5824      10.191      11.251      11.560      11.131      10.163      8.9541      7.7321      6.5943      5.6044    
  4.7958      4.1758      3.7346      3.4557      3.3234      3.3279      3.4676      3.7498      4.1884      4.7998    
  5.5962      6.5756      7.7127      8.9523      10.211      11.322      11.984      11.942      12.049      11.458    
  10.328      8.9572      7.7401      7.0384      7.0598      7.7857      8.9796      10.273      11.287      11.748    
  11.554      10.788      9.6697      8.4553      7.2762      6.2070      5.2962      4.5654      4.0144      3.6308    
  3.3984      3.3034      3.3382      3.5033      3.8066      4.2622      4.8850      5.6848      6.6568      7.7738    
  8.9810      10.199      11.283      11.970      11.886      12.109      11.789      11.048      10.143      9.3838    
  9.0343      9.2129      9.8523      10.726      11.530      11.987      11.927      11.336      10.342      9.1662    
  7.9764      6.8549      5.8613      5.0306      4.3741      3.8868      3.5547      3.3628      3.2992      3.3585    
  3.5424      3.8597      4.3234      4.9470      5.7377      6.6885      7.7716      8.9343      10.103      11.160    
  10.950      11.718      12.088      12.034      11.659      11.166      10.786      10.694      10.938      11.427    
  11.962      12.311      12.290      11.822      10.957      9.8509      8.6795      7.5343      6.4814      5.5667    
  4.8135      4.2259      3.7952      3.5076      3.3493      3.3107      3.3879      3.5839      3.9071      4.3697    
  4.9832      5.7525      6.6691      7.7056      8.8130      9.9248      9.6701      10.656      11.456      11.959    
  12.140      12.080      11.926      11.835      11.909      12.149      12.457      12.673      12.638      12.250    
  11.503      10.493      9.3697      8.2308      7.1454      6.1674      5.3308      4.6498      4.1232      3.7410    
  3.4898      3.3578      3.3371      3.4255      3.6261      3.9473      4.3995      4.9922      5.7283      6.5989    
  7.5779      8.6212      8.3657      9.3476      10.284      11.100      11.705      12.076      12.265      12.367    
  12.477      12.641      12.834      12.964      12.915      12.592      11.962      11.069      10.027      8.9275    
  7.8405      6.8246      5.9228      5.1596      4.5427      4.0679      3.7249      3.5015      3.3878      3.3777    
  3.4699      3.6679      3.9787      4.4114      4.9733      5.6659      6.4802      7.3930      7.1581      8.0559    
  8.9684      9.8502      10.656      11.327      11.834      12.200      12.479      12.716      12.920      13.050    
  13.034      12.796      12.294      11.545      10.622      9.6015      8.5492      7.5266      6.5838      5.7550    
  5.0573      4.4945      4.0610      3.7469      3.5421      3.4384      3.4313      3.5201      3.7078      4.0003    
  4.4049      4.9270      5.5673      6.3177      6.1178      6.8824      7.7034      8.5458      9.3719      10.148    
  10.845      11.433      11.913      12.303      12.613      12.828      12.906      12.795      12.454      11.881    
  11.119      10.221      9.2467      8.2559      7.3036      6.4323      5.6692      5.0268      4.5064      4.1025    
  3.8068      3.6109      3.5087      3.4967      3.5746      3.7446      4.0113      4.3801      4.8550      5.4366    
  5.2788      5.8885      6.5765      7.3213      8.0945      8.8651      9.6056      10.295      10.918      11.459    
  11.912      12.264      12.487      12.543      12.396      12.036      11.476      10.748      9.8994      8.9860    
  8.0639      7.1818      6.3760      5.6686      5.0692      4.5786      4.1922      3.9035      3.7066      3.5971    
  3.5724      3.6320      3.7774      4.0113      4.3378      4.7602      4.6461      5.1002      5.6387      6.2520    
  6.9233      7.6299      8.3469      9.0513      9.7247      10.353      10.921      11.409      11.791      12.034    
  12.105      11.981      11.655      11.139      10.466      9.6808      8.8364      7.9841      7.1675      6.4179    
  5.7541      5.1846      4.7103      4.3286      4.0356      3.8277      3.7020      3.6568      3.6910      3.8050    
  4.0003      4.2798      4.2081      4.5173      4.9078      5.3778      5.9206      6.5231      7.1678      7.8349    
  8.5057      9.1638      9.7942      10.379      10.895      11.311      11.592      11.705      11.629      11.357    
  10.903      10.297      9.5820      8.8081      8.0220      7.2627      6.5580      5.9247      5.3710      4.8993    
  4.5096      4.2008      3.9718      3.8213      3.7478      3.7498      3.8266      3.9787      3.9473      4.1255    
  4.3786      4.7086      5.1151      5.5933      6.1337      6.7232      7.3466      7.9891      8.6365      9.2737    
  9.8808      10.431      10.890      11.221      11.391      11.376      11.171      10.787      10.254      9.6113    
  8.9049      8.1779      7.4656      6.7934      6.1768      5.6248      5.1421      4.7318      4.3961      4.1362    
  3.9522      3.8430      3.8066      3.8415      3.8490      3.9071      4.0349      4.2350      4.5096      4.8590    
  5.2804      5.7671      6.3100      6.8982      7.5207      8.1655      8.8172      9.4545      10.047      10.560    
  10.951      11.188      11.244      11.113      10.804      10.343      9.7691      9.1236      8.4465      7.7701    
  7.1176      6.5044      5.9405      5.4337      4.9907      4.6172      4.3169      4.0914      3.9397      3.8597    
  3.9071      3.8491      3.8597      3.9397      4.0914      4.3169      4.6172      4.9907      5.4337      5.9405    
  6.5044      7.1176      7.7701      8.4465      9.1236      9.7691      10.343      10.804      11.113      11.244    
  11.188      10.951      10.560      10.047      9.4545      8.8172      8.1655      7.5207      6.8983      6.3100    
  5.7671      5.2804      4.8590      4.5096      4.2350      4.0349      4.1255      3.9473      3.8415      3.8066    
  3.8430      3.9522      4.1362      4.3960      4.7318      5.1421      5.6248      6.1768      6.7934      7.4656    
  8.1779      8.9049      9.6113      10.254      10.787      11.171      11.376      11.391      11.221      10.890    
  10.431      9.8808      9.2737      8.6365      7.9891      7.3466      6.7232      6.1338      5.5933      5.1151    
  4.7086      4.3786      4.5173      4.2081      3.9787      3.8266      3.7498      3.7478      3.8213      3.9718    
  4.2008      4.5095      4.8993      5.3710      5.9247      6.5580      7.2627      8.0220      8.8081      9.5820    
  10.297      10.903      11.357      11.629      11.705      11.592      11.311      10.895      10.379      9.7942    
  9.1638      8.5057      7.8350      7.1678      6.5231      5.9206      5.3779      4.9078      5.1002      4.6461    
  4.2798      4.0003      3.8050      3.6910      3.6568      3.7020      3.8277      4.0356      4.3286      4.7103    
  5.1846      5.7541      6.4179      7.1675      7.9841      8.8364      9.6808      10.466      11.139      11.655    
  11.981      12.105      12.034      11.791      11.409      10.921      10.353      9.7247      9.0513      8.3469    
  7.6299      6.9233      6.2520      5.6387      5.8885      5.2787      4.7602      4.3378      4.0113      3.7774    
  3.6321      3.5724      3.5971      3.7066      3.9035      4.1922      4.5786      5.0692      5.6686      6.3760    
  7.1818      8.0639      8.9860      9.8994      10.748      11.476      12.036      12.396      12.543      12.487    
  12.264      11.912      11.459      10.918      10.295      9.6056      8.8651      8.0945      7.3213      6.5765    
  6.8824      6.1178      5.4366      4.8550      4.3801      4.0113      3.7446      3.5746      3.4967      3.5087    
  3.6109      3.8068      4.1025      4.5064      5.0268      5.6692      6.4323      7.3036      8.2559      9.2467    
  10.221      11.119      11.881      12.454      12.795      12.906      12.828      12.613      12.303      11.913    
  11.433      10.845      10.148      9.3719      8.5458      7.7034      8.0558      7.1581      6.3177      5.5673    
  4.9270      4.4049      4.0003      3.7078      3.5201      3.4313      3.4384      3.5421      3.7469      4.0610    
  4.4945      5.0573      5.7550      6.5838      7.5266      8.5492      9.6015      10.622      11.545      12.294    
  12.796      13.034      13.050      12.920      12.716      12.479      12.200      11.834      11.327      10.656    
  9.8502      8.9684      9.3476      8.3656      7.3930      6.4802      5.6659      4.9733      4.4114      3.9787    
  3.6679      3.4699      3.3777      3.3878      3.5015      3.7249      4.0680      4.5427      5.1596      5.9228    
  6.8246      7.8405      8.9275      10.027      11.069      11.962      12.592      12.915      12.964      12.833    
  12.641      12.477      12.367      12.265      12.076      11.705      11.100      10.284      10.656      9.6701    
  8.6212      7.5779      6.5989      5.7284      4.9922      4.3995      3.9473      3.6261      3.4255      3.3371    
  3.3578      3.4898      3.7410      4.1232      4.6498      5.3308      6.1674      7.1454      8.2308      9.3697    
  10.493      11.503      12.250      12.638      12.673      12.457      12.149      11.909      11.835      11.926    
  12.080      12.140      11.959      11.456      11.718      10.950      9.9247      8.8130      7.7056      6.6691    
  5.7525      4.9832      4.3697      3.9071      3.5838      3.3879      3.3106      3.3493      3.5076      3.7952    
  4.2259      4.8135      5.5667      6.4814      7.5343      8.6795      9.8509      10.957      11.822      12.290    
  12.311      11.962      11.427      10.938      10.694      10.786      11.166      11.659      12.034      12.088    
  12.109      11.886      11.160      10.103      8.9342      7.7716      6.6885      5.7377      4.9470      4.3234    
  3.8596      3.5424      3.3585      3.2992      3.3628      3.5547      3.8868      4.3742      5.0306      5.8613    
  6.8549      7.9764      9.1662      10.342      11.336      11.927      11.987      11.530      10.726      9.8523    
  9.2129      9.0343      9.3838      10.143      11.048      11.789      11.458      12.049      11.970      11.283    
  10.199      8.9810      7.7738      6.6568      5.6848      4.8850      4.2621      3.8066      3.5032      3.3382    
  3.3034      3.3983      3.6308      4.0144      4.5654      5.2962      6.2070      7.2762      8.4553      9.6697    
  10.788      11.554      11.748      11.287      10.273      8.9796      7.7857      7.0599      7.0384      7.7401    
  8.9572      10.328      9.5929      11.105      11.942      11.984      11.322      10.211      8.9523      7.7127    
  6.5756      5.5962      4.7998      4.1883      3.7498      3.4676      3.3279      3.3234      3.4557      3.7346    
  4.1758      4.7959      5.6044      6.5943      7.7321      8.9541      10.163      11.131      11.560      11.251    
  10.191      8.5824      6.8135      5.3592      4.6382      4.8733      6.0113      7.7396      6.6316      8.9437    