unknown system                          
   1.00000000000000     
    -2.450000    2.450000    1.274000
     2.450000   -2.450000    1.274000
     2.450000    2.450000   -1.274000
   Si
     2
Direct
  0.250000  0.750000  0.500000
  0.000000  0.000000  0.000000
 
   36   36   36
 -.52508928790E+01 -.43222477426E+01 -.17713002930E+01 0.17782037808E+01 0.55194667459E+01
 0.87033477706E+01 0.10824743051E+02 0.11706762074E+02 0.11482766469E+02 0.10504394689E+02
 0.92090777695E+01 0.79055080307E+01 0.67103363517E+01 0.56912944692E+01 0.48785714351E+01
 0.42735705071E+01 0.38618078084E+01 0.36245777635E+01 0.35473080586E+01 0.36245774742E+01
 0.38618157994E+01 0.42735841532E+01 0.48785782725E+01 0.56912937935E+01 0.67103390680E+01
 0.79055150011E+01 0.92090788477E+01 0.10504389230E+02 0.11482764323E+02 0.11706764377E+02
 0.10824742144E+02 0.87033451751E+01 0.55194705073E+01 0.17782094104E+01 -.17713045161E+01
 -.43222576465E+01 -.43222576465E+01 -.48062577853E+01 -.34802577538E+01 -.68154737232E+00
 0.29109567198E+01 0.64967142905E+01 0.93842225851E+01 0.11152223242E+02 0.11706846625E+02
 0.11243473249E+02 0.10143690353E+02 0.88328826104E+01 0.75536687575E+01 0.64037588651E+01
 0.54407077235E+01 0.46861764907E+01 0.41362592009E+01 0.37744001432E+01 0.35822641368E+01
 0.35471925390E+01 0.36663588652E+01 0.39476002329E+01 0.44069005153E+01 0.50626734150E+01
 0.59266948347E+01 0.69919402244E+01 0.82201988016E+01 0.95352854519E+01 0.10796877065E+02
 0.11649011914E+02 0.11664034562E+02 0.10532367013E+02 0.81866620872E+01 0.48789527173E+01
 0.11762267432E+01 -.21489451231E+01 -.17713045161E+01 -.34802652051E+01 -.35219737989E+01
 -.18904857495E+01 0.99672533674E+00 0.44419599547E+01 0.76888674753E+01 0.10132311519E+02
 0.11449476647E+02 0.11630543388E+02 0.10923743057E+02 0.97252951518E+01 0.84188351238E+01
 0.71768988291E+01 0.60831514904E+01 0.51838508875E+01 0.44921770714E+01 0.39995830704E+01
 0.36882295927E+01 0.35407953062E+01 0.35468960206E+01 0.37062970846E+01 0.40289023208E+01
 0.45315666425E+01 0.52318109333E+01 0.61382296049E+01 0.72382261262E+01 0.84866053983E+01
 0.98008895629E+01 0.11016329210E+02 0.11754329613E+02 0.11612528938E+02 0.10331480074E+02
 0.79082993498E+01 0.46560176467E+01 0.11762267432E+01 0.17782094104E+01 -.68154972637E+00
 -.18904891378E+01 -.15401594020E+01 0.27155826376E+00 0.30766639701E+01 0.61961783459E+01
 0.89509711138E+01 0.10842798073E+02 0.11653487591E+02 0.11451639126E+02 0.10524816509E+02
 0.92657888259E+01 0.79801863555E+01 0.67879504357E+01 0.57594896516E+01 0.49293888183E+01
 0.43029514958E+01 0.38679333018E+01 0.36060561685E+01 0.35015709736E+01 0.35465589165E+01
 0.37431966829E+01 0.41030056681E+01 0.46431488567E+01 0.53797347990E+01 0.63179402354E+01
 0.74400249038E+01 0.86952309553E+01 0.99969919799E+01 0.11161779412E+02 0.11811289527E+02
 0.11579302156E+02 0.10260059035E+02 0.79082993498E+01 0.48789527173E+01 0.55194705073E+01
 0.29109594741E+01 0.99672531726E+00 0.27155922231E+00 0.92419254292E+00 0.27735742871E+01
 0.53346024840E+01 0.79812590137E+01 0.10136401795E+02 0.11419464536E+02 0.11714766573E+02
 0.11157918969E+02 0.10059163469E+02 0.87809644571E+01 0.75308683728E+01 0.63995258888E+01
 0.54432334053E+01 0.46853119634E+01 0.41242662725E+01 0.37452632808E+01 0.35303976410E+01
 0.34659056645E+01 0.35463407883E+01 0.37759679223E+01 0.41674220732E+01 0.47376415130E+01
 0.55009211379E+01 0.64590165831E+01 0.75897896472E+01 0.88386066215E+01 0.10117043455E+02
 0.11234054930E+02 0.11829147697E+02 0.11579302156E+02 0.10331480074E+02 0.81866620872E+01
 0.87033451751E+01 0.64967139366E+01 0.44419595627E+01 0.30766659542E+01 0.27735786051E+01
 0.36134803906E+01 0.53593951151E+01 0.75419185152E+01 0.96151347817E+01 0.11118380759E+02
 0.11789707622E+02 0.11606432365E+02 0.10755354927E+02 0.95510098773E+01 0.82854337776E+01
 0.70850186133E+01 0.60237449140E+01 0.51438890130E+01 0.44586280725E+01 0.39610711212E+01
 0.36349437597E+01 0.34634088516E+01 0.34349209560E+01 0.35463454287E+01 0.38036185273E+01
 0.42199734110E+01 0.48116449856E+01 0.55908436017E+01 0.65561203148E+01 0.76819320810E+01
 0.89115994927E+01 0.10157437042E+02 0.11234054930E+02 0.11811289527E+02 0.11612528938E+02
 0.10532367013E+02 0.10824742144E+02 0.93842207777E+01 0.76888636593E+01 0.61961754247E+01
 0.53346055717E+01 0.53594010487E+01 0.62639411096E+01 0.77849684795E+01 0.94967909148E+01
 0.10951137872E+02 0.11807713210E+02 0.11915440880E+02 0.11329435730E+02 0.10269037933E+02
 0.90279049429E+01 0.77947307670E+01 0.66564663004E+01 0.56717001183E+01 0.48697138514E+01
 0.42551930061E+01 0.38173995973E+01 0.35396843164E+01 0.34067989562E+01 0.34094654264E+01
 0.35465722284E+01 0.38252620872E+01 0.42588656604E+01 0.48625019297E+01 0.56461603285E+01
 0.66055978306E+01 0.77130299263E+01 0.89115994927E+01 0.10117043455E+02 0.11161779412E+02
 0.11754329613E+02 0.11664034562E+02 0.11706764377E+02 0.11152225997E+02 0.10132310964E+02
 0.89509655259E+01 0.79812547629E+01 0.75419216580E+01 0.77849742290E+01 0.86418853347E+01
 0.98508331596E+01 0.11050063850E+02 0.11896184989E+02 0.12163732876E+02 0.11798013809E+02
 0.10912900522E+02 0.97403719144E+01 0.85087511891E+01 0.73247421408E+01 0.62582042242E+01
 0.53531284316E+01 0.46275729829E+01 0.40796754796E+01 0.36963696880E+01 0.34615259726E+01
 0.33618063743E+01 0.33900901633E+01 0.35469164817E+01 0.38401534835E+01 0.42827567628E+01
 0.48883923470E+01 0.56648281543E+01 0.66055978306E+01 0.76819320810E+01 0.88386066215E+01
 0.99969919799E+01 0.11016329210E+02 0.11649011914E+02 0.11482764323E+02 0.11706849058E+02
 0.11449481930E+02 0.10842799007E+02 0.10136396393E+02 0.96151305273E+01 0.94967933138E+01
 0.98508374406E+01 0.10573007426E+02 0.11425252078E+02 0.12120908421E+02 0.12419306516E+02
 0.12196949390E+02 0.11476464072E+02 0.10409476775E+02 0.92103463573E+01 0.80121912007E+01
 0.68909192115E+01 0.59018954741E+01 0.50762114555E+01 0.44229291673E+01 0.39356273240E+01
 0.36002623645E+01 0.34018977734E+01 0.33292369412E+01 0.33770869842E+01 0.35472183354E+01
 0.38477451981E+01 0.42908145341E+01 0.48883923470E+01 0.56461603285E+01 0.65561203148E+01
 0.75897896472E+01 0.86952309553E+01 0.98008895629E+01 0.10796877065E+02 0.10504389230E+02
 0.11243468354E+02 0.11630545156E+02 0.11653493758E+02 0.11419466783E+02 0.11118377025E+02
 0.10951134652E+02 0.11050065162E+02 0.11425254367E+02 0.11959883541E+02 0.12454705932E+02
 0.12700597329E+02 0.12550004856E+02 0.11963548584E+02 0.11019636627E+02 0.98844750452E+01
 0.87035058865E+01 0.75568622963E+01 0.65074300414E+01 0.55974809178E+01 0.48475037223E+01
 0.42599314132E+01 0.38256186938E+01 0.35306466497E+01 0.33617180203E+01 0.33095510359E+01
 0.33705710587E+01 0.35473374201E+01 0.38477451981E+01 0.42827567628E+01 0.48625019297E+01
 0.55908436017E+01 0.64590165831E+01 0.74400249038E+01 0.84866053983E+01 0.95352854519E+01
 0.92090788477E+01 0.10143684723E+02 0.10923736929E+02 0.11451639694E+02 0.11714772019E+02
 0.11789710599E+02 0.11807711756E+02 0.11896183321E+02 0.12120908725E+02 0.12454706379E+02
 0.12785946230E+02 0.12961594580E+02 0.12845286532E+02 0.12367795027E+02 0.11553232703E+02
 0.10513512636E+02 0.93825711906E+01 0.82424083545E+01 0.71600065598E+01 0.61864296164E+01
 0.53529453477E+01 0.46719738653E+01 0.41415610105E+01 0.37513967015E+01 0.34885176301E+01
 0.33415115933E+01 0.33029682168E+01 0.33705710587E+01 0.35472183354E+01 0.38401534835E+01
 0.42588656604E+01 0.48116449856E+01 0.55009211379E+01 0.63179402354E+01 0.72382261262E+01
 0.82201988016E+01 0.79055150011E+01 0.88328856990E+01 0.97252910724E+01 0.10524810775E+02
 0.11157918267E+02 0.11606435975E+02 0.11915443812E+02 0.12163733480E+02 0.12419306383E+02
 0.12700596943E+02 0.12961593730E+02 0.13107262017E+02 0.13031418800E+02 0.12660385960E+02
 0.11985442315E+02 0.11072770742E+02 0.10028749283E+02 0.89310437767E+01 0.78477453175E+01
 0.68363123494E+01 0.59375939962E+01 0.51742647526E+01 0.45531287489E+01 0.40697951187E+01
 0.37140326190E+01 0.34744175664E+01 0.33415115933E+01 0.33095510359E+01 0.33770869842E+01
 0.35469164817E+01 0.38252620872E+01 0.42199734110E+01 0.47376415130E+01 0.53797347990E+01
 0.61382296049E+01 0.69919402244E+01 0.67103390680E+01 0.75536753120E+01 0.84188395115E+01
 0.92657872580E+01 0.10059159399E+02 0.10755353314E+02 0.11329437090E+02 0.11798016037E+02
 0.12196951332E+02 0.12550005849E+02 0.12845285809E+02 0.13031417310E+02 0.13035279777E+02
 0.12792879895E+02 0.12279816914E+02 0.11528941877E+02 0.10613705845E+02 0.96000623907E+01
 0.85540097979E+01 0.75367708072E+01 0.65972128387E+01 0.57679685341E+01 0.50655055063E+01
 0.44931764999E+01 0.40457527760E+01 0.37140326190E+01 0.34885176301E+01 0.33617180203E+01
 0.33292369412E+01 0.33900901633E+01 0.35465722284E+01 0.38036185273E+01 0.41674220732E+01
 0.46431488567E+01 0.52318109333E+01 0.59266948347E+01 0.56912937935E+01 0.64037594047E+01
 0.71769033504E+01 0.79801908981E+01 0.87809654036E+01 0.95510080782E+01 0.10269035969E+02
 0.10912899880E+02 0.11476465281E+02 0.11963551030E+02 0.12367796556E+02 0.12660385163E+02
 0.12792878344E+02 0.12714297967E+02 0.12394551354E+02 0.11843274368E+02 0.11101262943E+02
 0.10218353891E+02 0.92543974808E+01 0.82709033337E+01 0.73224409335E+01 0.64506748576E+01
 0.56820653581E+01 0.50290001958E+01 0.44931764999E+01 0.40697951187E+01 0.37513967015E+01
 0.35306466497E+01 0.34018977734E+01 0.33618063743E+01 0.34094654264E+01 0.35463454287E+01
 0.37759679223E+01 0.41030056681E+01 0.45315666425E+01 0.50626734150E+01 0.48785782725E+01
 0.54407068214E+01 0.60831498286E+01 0.67879519957E+01 0.75308719036E+01 0.82854364924E+01
 0.90279052997E+01 0.97403701036E+01 0.10409474817E+02 0.11019636899E+02 0.11553234971E+02
 0.11985443788E+02 0.12279816205E+02 0.12394550178E+02 0.12297295204E+02 0.11978898562E+02
 0.11451389723E+02 0.10747257174E+02 0.99152637612E+01 0.90124957869E+01 0.80955945694E+01
 0.72132118955E+01 0.64013259367E+01 0.56820653581E+01 0.50655055063E+01 0.45531287489E+01
 0.41415610105E+01 0.38256186938E+01 0.36002623645E+01 0.34615259726E+01 0.34067989562E+01
 0.34349209560E+01 0.35463407883E+01 0.37431966829E+01 0.40289023208E+01 0.44069005153E+01
 0.42735841532E+01 0.46861827654E+01 0.51838500351E+01 0.57594863534E+01 0.63995244190E+01
 0.70850203762E+01 0.77947341886E+01 0.85087530319E+01 0.92103449800E+01 0.98844726095E+01
 0.10513512315E+02 0.11072772375E+02 0.11528942827E+02 0.11843273842E+02 0.11978898035E+02
 0.11909688059E+02 0.11627443114E+02 0.11145109101E+02 0.10495347118E+02 0.97251619231E+01
 0.88881421087E+01 0.80362628294E+01 0.72132118955E+01 0.64506748576E+01 0.57679685341E+01
 0.51742647526E+01 0.46719738653E+01 0.42599314132E+01 0.39356273240E+01 0.36963696880E+01
 0.35396843164E+01 0.34634088516E+01 0.34659056645E+01 0.35465589165E+01 0.37062970846E+01
 0.39476002329E+01 0.38618157994E+01 0.41362668637E+01 0.44921812110E+01 0.49293880698E+01
 0.54432292861E+01 0.60237411126E+01 0.66564661950E+01 0.73247453151E+01 0.80121936127E+01
 0.87035049916E+01 0.93825690183E+01 0.10028748756E+02 0.10613706583E+02 0.11101263092E+02
 0.11451389437E+02 0.11627443335E+02 0.11604264909E+02 0.11374431192E+02 0.10950778924E+02
 0.10364637141E+02 0.96604295502E+01 0.88881421087E+01 0.80955945694E+01 0.73224409335E+01
 0.65972128387E+01 0.59375939962E+01 0.53529453477E+01 0.48475037223E+01 0.44229291673E+01
 0.40796754796E+01 0.38173995973E+01 0.36349437597E+01 0.35303976410E+01 0.35015709736E+01
 0.35468960206E+01 0.36663588652E+01 0.36245774742E+01 0.37743986520E+01 0.39995829585E+01
 0.43029523584E+01 0.46853111186E+01 0.51438848453E+01 0.56716951669E+01 0.62582027626E+01
 0.68909215388E+01 0.75568644308E+01 0.82424078557E+01 0.89310423629E+01 0.96000619290E+01
 0.10218353638E+02 0.10747256460E+02 0.11145109070E+02 0.11374432070E+02 0.11409552379E+02
 0.11242316186E+02 0.10884247323E+02 0.10364637141E+02 0.97251619231E+01 0.90124957869E+01
 0.82709033337E+01 0.75367708072E+01 0.68363123494E+01 0.61864296164E+01 0.55974809178E+01
 0.50762114555E+01 0.46275729829E+01 0.42551930061E+01 0.39610711212E+01 0.37452632808E+01
 0.36060561685E+01 0.35407953062E+01 0.35471925390E+01 0.35473080586E+01 0.35822567337E+01
 0.36882191583E+01 0.38679256645E+01 0.41242635849E+01 0.44586268853E+01 0.48697102420E+01
 0.53531236353E+01 0.59018935013E+01 0.65074313119E+01 0.71600078584E+01 0.78477451048E+01
 0.85540093431E+01 0.92543971816E+01 0.99152625879E+01 0.10495345686E+02 0.10950779094E+02
 0.11242317449E+02 0.11342742076E+02 0.11242316186E+02 0.10950778924E+02 0.10495347118E+02
 0.99152637612E+01 0.92543974808E+01 0.85540097979E+01 0.78477453175E+01 0.71600065598E+01
 0.65074300414E+01 0.59018954741E+01 0.53531284316E+01 0.48697138514E+01 0.44586280725E+01
 0.41242662725E+01 0.38679333018E+01 0.36882295927E+01 0.35822641368E+01 0.36245777635E+01
 0.35471874112E+01 0.35407825777E+01 0.36060395467E+01 0.37452503902E+01 0.39610657283E+01
 0.42551914926E+01 0.46275703952E+01 0.50762079135E+01 0.55974792541E+01 0.61864299056E+01
 0.68363126139E+01 0.75367708016E+01 0.82709037691E+01 0.90124956266E+01 0.97251600885E+01
 0.10364635302E+02 0.10884247570E+02 0.11242317449E+02 0.11409552379E+02 0.11374431192E+02
 0.11145109101E+02 0.10747257174E+02 0.10218353891E+02 0.96000623907E+01 0.89310437767E+01
 0.82424083545E+01 0.75568622963E+01 0.68909192115E+01 0.62582042242E+01 0.56717001183E+01
 0.51438890130E+01 0.46853119634E+01 0.43029514958E+01 0.39995830704E+01 0.37744001432E+01
 0.38618078084E+01 0.36663518712E+01 0.35468868304E+01 0.35015558625E+01 0.35303790807E+01
 0.36349293366E+01 0.38173933387E+01 0.40796740865E+01 0.44229279629E+01 0.48475021017E+01
 0.53529445162E+01 0.59375935238E+01 0.65972121785E+01 0.73224410780E+01 0.80955956221E+01
 0.88881420188E+01 0.96604274736E+01 0.10364635302E+02 0.10950779094E+02 0.11374432070E+02
 0.11604264909E+02 0.11627443114E+02 0.11451389723E+02 0.11101262943E+02 0.10613705845E+02
 0.10028749283E+02 0.93825711906E+01 0.87035058865E+01 0.80121912007E+01 0.73247421408E+01
 0.66564663004E+01 0.60237449140E+01 0.54432334053E+01 0.49293888183E+01 0.44921770714E+01
 0.41362592009E+01 0.42735705071E+01 0.39475846708E+01 0.37062845103E+01 0.35465477727E+01
 0.34658916957E+01 0.34633930492E+01 0.35396725125E+01 0.36963648480E+01 0.39356267955E+01
 0.42599318106E+01 0.46719743053E+01 0.51742648749E+01 0.57679675609E+01 0.64506735803E+01
 0.72132121242E+01 0.80362641016E+01 0.88881420188E+01 0.97251600885E+01 0.10495345686E+02
 0.11145109070E+02 0.11627443335E+02 0.11909688059E+02 0.11978898562E+02 0.11843274368E+02
 0.11528941877E+02 0.11072770742E+02 0.10513512636E+02 0.98844750452E+01 0.92103463573E+01
 0.85087511891E+01 0.77947307670E+01 0.70850186133E+01 0.63995258888E+01 0.57594896516E+01
 0.51838508875E+01 0.46861764907E+01 0.48785714351E+01 0.44068842190E+01 0.40288831841E+01
 0.37431819375E+01 0.35463306151E+01 0.34349115581E+01 0.34067899030E+01 0.34615201728E+01
 0.36002608474E+01 0.38256196758E+01 0.41415629656E+01 0.45531308861E+01 0.50655063501E+01
 0.56820641400E+01 0.64013244451E+01 0.72132121242E+01 0.80955956221E+01 0.90124956266E+01
 0.99152625879E+01 0.10747256460E+02 0.11451389437E+02 0.11978898035E+02 0.12297295204E+02
 0.12394551354E+02 0.12279816914E+02 0.11985442315E+02 0.11553232703E+02 0.11019636627E+02
 0.10409476775E+02 0.97403719144E+01 0.90279049429E+01 0.82854337776E+01 0.75308683728E+01
 0.67879504357E+01 0.60831514904E+01 0.54407077235E+01 0.56912944692E+01 0.50626675837E+01
 0.45315517109E+01 0.41029880818E+01 0.37759553680E+01 0.35463393486E+01 0.34094631600E+01
 0.33618063448E+01 0.34018995734E+01 0.35306492079E+01 0.37513993181E+01 0.40697982282E+01
 0.44931795882E+01 0.50290013050E+01 0.56820641400E+01 0.64506735803E+01 0.73224410780E+01
 0.82709037691E+01 0.92543971816E+01 0.10218353638E+02 0.11101263092E+02 0.11843273842E+02
 0.12394550178E+02 0.12714297967E+02 0.12792879895E+02 0.12660385960E+02 0.12367795027E+02
 0.11963548584E+02 0.11476464072E+02 0.10912900522E+02 0.10269037933E+02 0.95510098773E+01
 0.87809644571E+01 0.79801863555E+01 0.71768988291E+01 0.64037588651E+01 0.67103363517E+01
 0.59266950132E+01 0.52318073581E+01 0.46431389881E+01 0.41674109184E+01 0.38036122016E+01
 0.35465725984E+01 0.33900959927E+01 0.33292458794E+01 0.33617267141E+01 0.34885234981E+01
 0.37140362973E+01 0.40457563137E+01 0.44931795882E+01 0.50655063501E+01 0.57679675609E+01
 0.65972121785E+01 0.75367708016E+01 0.85540093431E+01 0.96000619290E+01 0.10613706583E+02
 0.11528942827E+02 0.12279816205E+02 0.12792878344E+02 0.13035279777E+02 0.13031418800E+02
 0.12845286532E+02 0.12550004856E+02 0.12196949390E+02 0.11798013809E+02 0.11329435730E+02
 0.10755354927E+02 0.10059163469E+02 0.92657888259E+01 0.84188351238E+01 0.75536687575E+01
 0.79055080307E+01 0.69919361052E+01 0.61382292523E+01 0.53797342325E+01 0.47376391868E+01
 0.42199718906E+01 0.38252642837E+01 0.35469239293E+01 0.33770998538E+01 0.33095665300E+01
 0.33415243628E+01 0.34744247030E+01 0.37140362973E+01 0.40697982282E+01 0.45531308861E+01
 0.51742648749E+01 0.59375935238E+01 0.68363126139E+01 0.78477451048E+01 0.89310423629E+01
 0.10028748756E+02 0.11072772375E+02 0.11985443788E+02 0.12660385163E+02 0.13031417310E+02
 0.13107262017E+02 0.12961594580E+02 0.12700597329E+02 0.12419306516E+02 0.12163732876E+02
 0.11915440880E+02 0.11606432365E+02 0.11157918969E+02 0.10524816509E+02 0.97252951518E+01
 0.88328826104E+01 0.92090777695E+01 0.82201932991E+01 0.72382219353E+01 0.63179396090E+01
 0.55009237610E+01 0.48116508634E+01 0.42588742569E+01 0.38401637751E+01 0.35472312838E+01
 0.33705880222E+01 0.33029861105E+01 0.33415243628E+01 0.34885234981E+01 0.37513993181E+01
 0.41415629656E+01 0.46719743053E+01 0.53529445162E+01 0.61864299056E+01 0.71600078584E+01
 0.82424078557E+01 0.93825690183E+01 0.10513512315E+02 0.11553234971E+02 0.12367796556E+02
 0.12845285809E+02 0.12961593730E+02 0.12785946230E+02 0.12454705932E+02 0.12120908421E+02
 0.11896184989E+02 0.11807713210E+02 0.11789707622E+02 0.11714766573E+02 0.11451639126E+02
 0.10923743057E+02 0.10143690353E+02 0.10504394689E+02 0.95352864753E+01 0.84866029483E+01
 0.74400220041E+01 0.64590160635E+01 0.55908490242E+01 0.48625146970E+01 0.42827729810E+01
 0.38477604013E+01 0.35473524426E+01 0.33705880222E+01 0.33095665300E+01 0.33617267141E+01
 0.35306492079E+01 0.38256196758E+01 0.42599318106E+01 0.48475021017E+01 0.55974792541E+01
 0.65074313119E+01 0.75568644308E+01 0.87035049916E+01 0.98844726095E+01 0.11019636899E+02
 0.11963551030E+02 0.12550005849E+02 0.12700596943E+02 0.12454706379E+02 0.11959883541E+02
 0.11425252078E+02 0.11050063850E+02 0.10951137872E+02 0.11118380759E+02 0.11419464536E+02
 0.11653487591E+02 0.11630543388E+02 0.11243473249E+02 0.11482766469E+02 0.10796880469E+02
 0.98008922642E+01 0.86952323175E+01 0.75897888090E+01 0.65561201442E+01 0.56461676625E+01
 0.48884090302E+01 0.42908335804E+01 0.38477604013E+01 0.35472312838E+01 0.33770998538E+01
 0.33292458794E+01 0.34018995734E+01 0.36002608474E+01 0.39356267955E+01 0.44229279629E+01
 0.50762079135E+01 0.59018935013E+01 0.68909215388E+01 0.80121936127E+01 0.92103449800E+01
 0.10409474817E+02 0.11476465281E+02 0.12196951332E+02 0.12419306383E+02 0.12120908725E+02
 0.11425254367E+02 0.10573007426E+02 0.98508331596E+01 0.94967909148E+01 0.96151347817E+01
 0.10136401795E+02 0.10842798073E+02 0.11449476647E+02 0.11706846625E+02 0.11706762074E+02
 0.11649010383E+02 0.11016329288E+02 0.99969957227E+01 0.88386114390E+01 0.76819330927E+01
 0.66055979527E+01 0.56648361667E+01 0.48884090302E+01 0.42827729810E+01 0.38401637751E+01
 0.35469239293E+01 0.33900959927E+01 0.33618063448E+01 0.34615201728E+01 0.36963648480E+01
 0.40796740865E+01 0.46275703952E+01 0.53531236353E+01 0.62582027626E+01 0.73247453151E+01
 0.85087530319E+01 0.97403701036E+01 0.10912899880E+02 0.11798016037E+02 0.12163733480E+02
 0.11896183321E+02 0.11050065162E+02 0.98508374406E+01 0.86418853347E+01 0.77849684795E+01
 0.75419185152E+01 0.79812590137E+01 0.89509711138E+01 0.10132311519E+02 0.11152223242E+02
 0.10824743051E+02 0.11664033075E+02 0.11754324395E+02 0.11161776103E+02 0.10117047684E+02
 0.89116063556E+01 0.77130316755E+01 0.66055979527E+01 0.56461676625E+01 0.48625146970E+01
 0.42588742569E+01 0.38252642837E+01 0.35465725984E+01 0.34094631600E+01 0.34067899030E+01
 0.35396725125E+01 0.38173933387E+01 0.42551914926E+01 0.48697102420E+01 0.56716951669E+01
 0.66564661950E+01 0.77947341886E+01 0.90279052997E+01 0.10269035969E+02 0.11329437090E+02
 0.11915443812E+02 0.11807711756E+02 0.10951134652E+02 0.94967933138E+01 0.77849742290E+01
 0.62639411096E+01 0.53593951151E+01 0.53346024840E+01 0.61961783459E+01 0.76888674753E+01
 0.93842225851E+01 0.87033477706E+01 0.10532371760E+02 0.11612528504E+02 0.11811281595E+02
 0.11234049500E+02 0.10157441401E+02 0.89116063556E+01 0.76819330927E+01 0.65561201442E+01
 0.55908490242E+01 0.48116508634E+01 0.42199718906E+01 0.38036122016E+01 0.35463393486E+01
 0.34349115581E+01 0.34633930492E+01 0.36349293366E+01 0.39610657283E+01 0.44586268853E+01
 0.51438848453E+01 0.60237411126E+01 0.70850203762E+01 0.82854364924E+01 0.95510080782E+01
 0.10755353314E+02 0.11606435975E+02 0.11789710599E+02 0.11118377025E+02 0.96151305273E+01
 0.75419216580E+01 0.53594010487E+01 0.36134803906E+01 0.27735742871E+01 0.30766639701E+01
 0.44419599547E+01 0.64967142905E+01 0.55194667459E+01 0.81866650316E+01 0.10331487723E+02
 0.11579302442E+02 0.11829138768E+02 0.11234049500E+02 0.10117047684E+02 0.88386114390E+01
 0.75897888090E+01 0.64590160635E+01 0.55009237610E+01 0.47376391868E+01 0.41674109184E+01
 0.37759553680E+01 0.35463306151E+01 0.34658916957E+01 0.35303790807E+01 0.37452503902E+01
 0.41242635849E+01 0.46853111186E+01 0.54432292861E+01 0.63995244190E+01 0.75308719036E+01
 0.87809654036E+01 0.10059159399E+02 0.11157918267E+02 0.11714772019E+02 0.11419466783E+02
 0.10136396393E+02 0.79812547629E+01 0.53346055717E+01 0.27735786051E+01 0.92419254292E+00
 0.27155826376E+00 0.99672533674E+00 0.29109567198E+01 0.17782037808E+01 0.48789456366E+01
 0.79083023876E+01 0.10260067763E+02 0.11579302442E+02 0.11811281595E+02 0.11161776103E+02
 0.99969957227E+01 0.86952323175E+01 0.74400220041E+01 0.63179396090E+01 0.53797342325E+01
 0.46431389881E+01 0.41029880818E+01 0.37431819375E+01 0.35465477727E+01 0.35015558625E+01
 0.36060395467E+01 0.38679256645E+01 0.43029523584E+01 0.49293880698E+01 0.57594863534E+01
 0.67879519957E+01 0.79801908981E+01 0.92657872580E+01 0.10524810775E+02 0.11451639694E+02
 0.11653493758E+02 0.10842799007E+02 0.89509655259E+01 0.61961754247E+01 0.30766659542E+01
 0.27155922231E+00 -.15401594020E+01 -.18904857495E+01 -.68154737232E+00 -.17713002930E+01
 0.11762193988E+01 0.46560092950E+01 0.79083023876E+01 0.10331487723E+02 0.11612528504E+02
 0.11754324395E+02 0.11016329288E+02 0.98008922642E+01 0.84866029483E+01 0.72382219353E+01
 0.61382292523E+01 0.52318073581E+01 0.45315517109E+01 0.40288831841E+01 0.37062845103E+01
 0.35468868304E+01 0.35407825777E+01 0.36882191583E+01 0.39995829585E+01 0.44921812110E+01
 0.51838500351E+01 0.60831498286E+01 0.71769033504E+01 0.84188395115E+01 0.97252910724E+01
 0.10923736929E+02 0.11630545156E+02 0.11449481930E+02 0.10132310964E+02 0.76888636593E+01
 0.44419595627E+01 0.99672531726E+00 -.18904891378E+01 -.35219737989E+01 -.34802577538E+01
 -.43222477426E+01 -.21489401863E+01 0.11762193988E+01 0.48789456366E+01 0.81866650316E+01
 0.10532371760E+02 0.11664033075E+02 0.11649010383E+02 0.10796880469E+02 0.95352864753E+01
 0.82201932991E+01 0.69919361052E+01 0.59266950132E+01 0.50626675837E+01 0.44068842190E+01
 0.39475846708E+01 0.36663518712E+01 0.35471874112E+01 0.35822567337E+01 0.37743986520E+01
 0.41362668637E+01 0.46861827654E+01 0.54407068214E+01 0.64037594047E+01 0.75536753120E+01
 0.88328856990E+01 0.10143684723E+02 0.11243468354E+02 0.11706849058E+02 0.11152225997E+02
 0.93842207777E+01 0.64967139366E+01 0.29109594741E+01 -.68154972637E+00 -.34802652051E+01
 -.48062577853E+01 -.43222517117E+01 -.36333615351E+01 -.13675382794E+01 0.19178183054E+01
 0.54646757867E+01 0.85429759379E+01 0.10637929104E+02 0.11544599705E+02 0.11363365037E+02
 0.10419080673E+02 0.91358385844E+01 0.78321968044E+01 0.66299773267E+01 0.55991939703E+01
 0.47722076010E+01 0.41516812770E+01 0.37234001128E+01 0.34682027124E+01 0.33705468827E+01
 0.34236883347E+01 0.36316984454E+01 0.40082557322E+01 0.45722497033E+01 0.53400697387E+01
 0.63143850205E+01 0.74710728523E+01 0.87494027689E+01 0.10046812364E+02 0.11101654419E+02
 0.11491405119E+02 0.10856452321E+02 0.90354512464E+01 0.61592892117E+01 0.26757861697E+01
 -.72133205657E+00 -.32613038512E+01 -.36333705623E+01 -.43222629554E+01 -.32613137474E+01
 -.72134425506E+00 0.26757689082E+01 0.61592724408E+01 0.90354446196E+01 0.10856458185E+02
 0.11491415572E+02 0.11101661378E+02 0.10046815969E+02 0.87494065619E+01 0.74710757894E+01
 0.63143841912E+01 0.53400673051E+01 0.45722499384E+01 0.40082572118E+01 0.36316965650E+01
 0.34236844289E+01 0.33705470467E+01 0.34682075945E+01 0.37234037432E+01 0.41516810158E+01
 0.47722074338E+01 0.55991959320E+01 0.66299773001E+01 0.78321920103E+01 0.91358322177E+01
 0.10419075078E+02 0.11363356932E+02 0.11544587786E+02 0.10637921143E+02 0.85429811134E+01
 0.54646917848E+01 0.19178320482E+01 -.13675368578E+01 -.12967726465E+01 -.31856274858E+01
 -.34802794031E+01 -.21116406508E+01 0.56678278228E+00 0.38994558857E+01 0.71386900242E+01
 0.96573722539E+01 0.11093111224E+02 0.11394450110E+02 0.10778101058E+02 0.96253506764E+01
 0.83312758746E+01 0.70900073501E+01 0.59893671907E+01 0.50793345849E+01 0.43755985766E+01
 0.38707084974E+01 0.35468601593E+01 0.33861093246E+01 0.33770679661E+01 0.35184094883E+01
 0.38192719023E+01 0.42965383203E+01 0.49689871256E+01 0.58480315745E+01 0.69254636112E+01
 0.81614398138E+01 0.94786752965E+01 0.10733318685E+02 0.11571044907E+02 0.11584699457E+02
 0.10493574165E+02 0.82586559451E+01 0.51475034205E+01 0.17179445551E+01 0.21016390549E+01
 -.51661734175E+00 -.19684243447E+01 -.18905082485E+01 -.31360380004E+00 0.23491375671E+01
 0.54424558709E+01 0.82753697918E+01 0.10311766243E+02 0.11285979167E+02 0.11224887435E+02
 0.10390128408E+02 0.91686596318E+01 0.78939120724E+01 0.67011620333E+01 0.56654816775E+01
 0.48253298130E+01 0.41883433605E+01 0.37431612582E+01 0.34714054565E+01 0.33566607375E+01
 0.33900798979E+01 0.35729778550E+01 0.39164826090E+01 0.44382298228E+01 0.51559872033E+01
 0.60779375825E+01 0.71905061455E+01 0.84475709309E+01 0.97668584811E+01 0.10984356105E+02
 0.11733624881E+02 0.11637148499E+02 0.10463509166E+02 0.82304299685E+01 0.52518599025E+01
 0.57675334846E+01 0.30246573408E+01 0.88431130136E+00 -.11749240163E+00 0.27153908950E+00
 0.19342150720E+01 0.44260641091E+01 0.71254721832E+01 0.94261496959E+01 0.10899182870E+02
 0.11378890926E+02 0.10963124916E+02 0.99440426886E+01 0.86922721446E+01 0.74501205480E+01
 0.63165127899E+01 0.53526996187E+01 0.45856727954E+01 0.40159305509E+01 0.36292689103E+01
 0.34075592494E+01 0.33363711203E+01 0.34094651937E+01 0.36305210176E+01 0.40121545097E+01
 0.45721622881E+01 0.53267659741E+01 0.62807046957E+01 0.74155495932E+01 0.86804226394E+01
 0.99902976169E+01 0.11168705491E+02 0.11857222105E+02 0.11716385982E+02 0.10564942109E+02
 0.84683721227E+01 0.89435085884E+01 0.66319394365E+01 0.43796764954E+01 0.27489584943E+01
 0.21649759034E+01 0.27735602396E+01 0.43920307608E+01 0.65747841735E+01 0.87628872714E+01
 0.10454303313E+02 0.11334180897E+02 0.11332255722E+02 0.10604652635E+02 0.94569599047E+01
 0.82090642377E+01 0.70127666362E+01 0.59474047183E+01 0.50600213104E+01 0.43669890290E+01
 0.38629783790E+01 0.35320853523E+01 0.33571542478E+01 0.33260178079E+01 0.34349293142E+01
 0.36895333710E+01 0.41033901859E+01 0.46938933115E+01 0.54752932881E+01 0.64488943078E+01
 0.75922073663E+01 0.88513022715E+01 0.10140678628E+02 0.11282954687E+02 0.11942527747E+02
 0.11822734681E+02 0.10789409944E+02 0.11104246382E+02 0.95924546578E+01 0.77394395894E+01
 0.60116328043E+01 0.48739110114E+01 0.46387584885E+01 0.53593860462E+01 0.68131624419E+01
 0.85815661339E+01 0.10189924796E+02 0.11250170760E+02 0.11559241211E+02 0.11130979268E+02
 0.10163138532E+02 0.89544722044E+01 0.77324714370E+01 0.65944284332E+01 0.56041790390E+01
 0.47952033732E+01 0.41747469632E+01 0.37331780733E+01 0.34539830051E+01 0.33215359643E+01
 0.33260208769E+01 0.34659194494E+01 0.37483697253E+01 0.41873271288E+01 0.47992671256E+01
 0.55961716340E+01 0.65761310905E+01 0.77136012213E+01 0.89533716719E+01 0.10211889837E+02
 0.11322877674E+02 0.11983826891E+02 0.11942091775E+02 0.12048394597E+02 0.11457906783E+02
 0.10327019837E+02 0.89566371783E+01 0.77396949919E+01 0.70380359570E+01 0.70594071966E+01
 0.77849634489E+01 0.89784531803E+01 0.10271252024E+02 0.11285311254E+02 0.11746533713E+02
 0.11553535484E+02 0.10787853519E+02 0.96699179972E+01 0.84556986470E+01 0.72764918102E+01
 0.62069952283E+01 0.52958897152E+01 0.45646275457E+01 0.40132214084E+01 0.36292843283E+01
 0.33966263623E+01 0.33015078658E+01 0.33363800043E+01 0.35015869413E+01 0.38052572595E+01
 0.42612082962E+01 0.48845485411E+01 0.56848359074E+01 0.66573621492E+01 0.77746738921E+01
 0.89820321326E+01 0.10200044018E+02 0.11283529868E+02 0.11969817943E+02 0.11886011973E+02
 0.12108375902E+02 0.11788313815E+02 0.11047462925E+02 0.10141616930E+02 0.93827804308E+01
 0.90332253836E+01 0.92116463059E+01 0.98508314205E+01 0.10724365412E+02 0.11528723209E+02
 0.11985477611E+02 0.11926172227E+02 0.11335073257E+02 0.10341750788E+02 0.91664164534E+01
 0.79767572104E+01 0.68551049981E+01 0.58612603162E+01 0.50301382302E+01 0.43733050877E+01
 0.38855648415E+01 0.35531812980E+01 0.33610022219E+01 0.32973323119E+01 0.33566742851E+01
 0.35408114418E+01 0.38583539027E+01 0.43224781116E+01 0.49465641169E+01 0.57377464914E+01
 0.66891016549E+01 0.77724866472E+01 0.89352862352E+01 0.10103910926E+02 0.11160296157E+02
 0.10950647944E+02 0.11718258110E+02 0.12087860301E+02 0.12033040700E+02 0.11657548230E+02
 0.11164292707E+02 0.10784523363E+02 0.10691928570E+02 0.10936335283E+02 0.11425253351E+02