unknown system                          
   1.00000000000000     
    -2.450000    2.450000    1.274000
     2.450000   -2.450000    1.274000
     2.450000    2.450000   -1.274000
   Si
     2
Direct
  0.250000  0.750000  0.500000
  0.000000  0.000000  0.000000
 
   36   36   36
 -.52561715921E+01 -.43270946860E+01 -.17749985138E+01 0.17760030943E+01 0.55186509554E+01
 0.87034254989E+01 0.10825084222E+02 0.11706866681E+02 0.11482434003E+02 0.10503708605E+02
 0.92082553816E+01 0.79047830892E+01 0.67099356686E+01 0.56913478247E+01 0.48790998168E+01
 0.42745314385E+01 0.38631155291E+01 0.36261138529E+01 0.35489224267E+01 0.36261105974E+01
 0.38631193463E+01 0.42745417342E+01 0.48791049829E+01 0.56913462481E+01 0.67099364725E+01
 0.79047859568E+01 0.92082506914E+01 0.10503697965E+02 0.11482429428E+02 0.11706869599E+02
 0.10825084755E+02 0.87034215768E+01 0.55186480140E+01 0.17759972020E+01 -.17750151737E+01
 -.43271126579E+01 -.43271126579E+01 -.48113012585E+01 -.34846641931E+01 -.68469131252E+00
 0.29093003371E+01 0.64963196352E+01 0.93845405049E+01 0.11152639779E+02 0.11706935829E+02
 0.11243118715E+02 0.10143029277E+02 0.88321345691E+01 0.75530716554E+01 0.64035170647E+01
 0.54409194386E+01 0.46868436012E+01 0.41373299804E+01 0.37757841797E+01 0.35838383173E+01
 0.35488046286E+01 0.36678507057E+01 0.39488282879E+01 0.44077529046E+01 0.50630694784E+01
 0.59265996590E+01 0.69913934330E+01 0.82193577542E+01 0.95343937751E+01 0.10796167469E+02
 0.11648693624E+02 0.11664138740E+02 0.10532625977E+02 0.81865362574E+01 0.48778351465E+01
 0.11737126670E+01 -.21528528972E+01 -.17750151737E+01 -.34846778769E+01 -.35263480564E+01
 -.18940798091E+01 0.99440656604E+00 0.44410035895E+01 0.76889487122E+01 0.10132860882E+02
 0.11449938480E+02 0.11630596346E+02 0.10923363706E+02 0.97246661288E+01 0.84181745580E+01
 0.71764443676E+01 0.60830782136E+01 0.51842246688E+01 0.44929843042E+01 0.40007646555E+01
 0.36896919182E+01 0.35424106659E+01 0.35485108785E+01 0.37077546760E+01 0.40300641489E+01
 0.45323243891E+01 0.52320892928E+01 0.61380033852E+01 0.72375565753E+01 0.84856740617E+01
 0.97999489652E+01 0.11015609479E+02 0.11754023089E+02 0.11612624779E+02 0.10331675178E+02
 0.79080590495E+01 0.46547946242E+01 0.11737126670E+01 0.17759972020E+01 -.68470171098E+00
 -.18940865257E+01 -.15435310441E+01 0.26902789487E+00 0.30753178566E+01 0.61959691579E+01
 0.89515044776E+01 0.10843525376E+02 0.11653949125E+02 0.11451635167E+02 0.10524413440E+02
 0.92651943925E+01 0.79796243719E+01 0.67876468127E+01 0.57595852101E+01 0.49299208416E+01
 0.43038952770E+01 0.38692245760E+01 0.36075980843E+01 0.35032305195E+01 0.35481810708E+01
 0.37446258538E+01 0.41041085680E+01 0.46438217951E+01 0.53799095273E+01 0.63176028670E+01
 0.74392571846E+01 0.86942323382E+01 0.99960172738E+01 0.11161055286E+02 0.11810990194E+02
 0.11579391168E+02 0.10260230323E+02 0.79080590495E+01 0.48778351465E+01 0.55186480140E+01
 0.29092976365E+01 0.99440377892E+00 0.26902840393E+00 0.92201517884E+00 0.27722131447E+01
 0.53342439642E+01 0.79817409088E+01 0.10137299136E+02 0.11420288659E+02 0.11715180595E+02
 0.11157844703E+02 0.10058742223E+02 0.87804093513E+01 0.75304140518E+01 0.63993752327E+01
 0.54434910798E+01 0.46859941207E+01 0.41253404276E+01 0.37466617087E+01 0.35320180773E+01
 0.34676090716E+01 0.35479697512E+01 0.37773697372E+01 0.41684700066E+01 0.47382386286E+01
 0.55010080227E+01 0.64585913728E+01 0.75889507263E+01 0.88375642343E+01 0.10116049351E+02
 0.11233329455E+02 0.11828850823E+02 0.11579391168E+02 0.10331675178E+02 0.81865362574E+01
 0.87034215768E+01 0.64963183984E+01 0.44410036179E+01 0.30753214416E+01 0.27722190491E+01
 0.36125350393E+01 0.53591653757E+01 0.75424451728E+01 0.96161727855E+01 0.11119514802E+02
 0.11790542196E+02 0.11606763031E+02 0.10755210280E+02 0.95505772053E+01 0.82849293435E+01
 0.70846794433E+01 0.60237431717E+01 0.51442968874E+01 0.44594486009E+01 0.39622665752E+01
 0.36364429389E+01 0.34651015210E+01 0.34366620660E+01 0.35479759777E+01 0.38049914389E+01
 0.42209702458E+01 0.48121782042E+01 0.55908626901E+01 0.65556343561E+01 0.76810500676E+01
 0.89105358453E+01 0.10156436773E+02 0.11233329455E+02 0.11810990194E+02 0.11612624779E+02
 0.10532625977E+02 0.10825084755E+02 0.93845412795E+01 0.76889485428E+01 0.61959706234E+01
 0.53342511735E+01 0.53591738617E+01 0.62641263539E+01 0.77857136437E+01 0.94980156262E+01
 0.10952552995E+02 0.11808948755E+02 0.11916215476E+02 0.11329666441E+02 0.10268835612E+02
 0.90274679421E+01 0.77942908912E+01 0.66562453516E+01 0.56718354372E+01 0.48702548415E+01
 0.42561356758E+01 0.38187037075E+01 0.35412732829E+01 0.34085537195E+01 0.34112352325E+01
 0.35481990163E+01 0.38266068983E+01 0.42598202037E+01 0.48629886238E+01 0.56461368243E+01
 0.66050811246E+01 0.77121335046E+01 0.89105358453E+01 0.10116049351E+02 0.11161055286E+02
 0.11754023089E+02 0.11664138740E+02 0.11706869599E+02 0.11152645613E+02 0.10132865183E+02
 0.89515048183E+01 0.79817426804E+01 0.75424531812E+01 0.77857220407E+01 0.86429949422E+01
 0.98523175252E+01 0.11051756182E+02 0.11897790743E+02 0.12164955280E+02 0.11798685748E+02
 0.10913035967E+02 0.97401257481E+01 0.85083258414E+01 0.73243772739E+01 0.62580948328E+01
 0.53533807996E+01 0.46282252127E+01 0.40807213045E+01 0.36977677722E+01 0.34631918211E+01
 0.33636123984E+01 0.33918809168E+01 0.35485381651E+01 0.38414763976E+01 0.42836837395E+01
 0.48888544273E+01 0.56647901517E+01 0.66050811246E+01 0.76810500676E+01 0.88375642343E+01
 0.99960172738E+01 0.11015609479E+02 0.11648693624E+02 0.11482429428E+02 0.11706939275E+02
 0.11449947364E+02 0.10843531686E+02 0.10137299957E+02 0.96161744224E+01 0.94980224685E+01
 0.98523240497E+01 0.10574774700E+02 0.11427207376E+02 0.12122837970E+02 0.12420942675E+02
 0.12198081274E+02 0.11477019332E+02 0.10409534598E+02 0.92100664199E+01 0.80117936582E+01
 0.68906309979E+01 0.59018796925E+01 0.50765559239E+01 0.44236690316E+01 0.39367582472E+01
 0.36017397319E+01 0.34036279483E+01 0.33310837548E+01 0.33788931840E+01 0.35488367022E+01
 0.38490566006E+01 0.42917321581E+01 0.48888544273E+01 0.56461368243E+01 0.65556343561E+01
 0.75889507263E+01 0.86942323382E+01 0.97999489652E+01 0.10796167469E+02 0.10503697965E+02
 0.11243112146E+02 0.11630599231E+02 0.11653958577E+02 0.11420295625E+02 0.11119516351E+02
 0.10952554567E+02 0.11051760964E+02 0.11427211346E+02 0.11962028428E+02 0.12456878137E+02
 0.12702571986E+02 0.12551561958E+02 0.11964555058E+02 0.11020086905E+02 0.98844679914E+01
 0.87032113721E+01 0.75565036043E+01 0.65072084786E+01 0.55975345461E+01 0.48479147191E+01
 0.42607377067E+01 0.38268180943E+01 0.35321876525E+01 0.33634973678E+01 0.33114256327E+01
 0.33723862586E+01 0.35489546095E+01 0.38490566006E+01 0.42836837395E+01 0.48629886238E+01
 0.55908626901E+01 0.64585913728E+01 0.74392571846E+01 0.84856740617E+01 0.95343937751E+01
 0.92082506914E+01 0.10143020522E+02 0.10923356691E+02 0.11451636732E+02 0.11715188523E+02
 0.11790548642E+02 0.11808951106E+02 0.11897792477E+02 0.12122840708E+02 0.12456879775E+02
 0.12788223488E+02 0.12963784667E+02 0.12847179407E+02 0.12369223492E+02 0.11554118992E+02
 0.10513879859E+02 0.93825192048E+01 0.82421198641E+01 0.71596884362E+01 0.61862557053E+01
 0.53530436497E+01 0.46724284331E+01 0.41424154486E+01 0.37526461073E+01 0.34901019487E+01
 0.33433182766E+01 0.33048530976E+01 0.33723862586E+01 0.35488367022E+01 0.38414763976E+01
 0.42598202037E+01 0.48121782042E+01 0.55010080227E+01 0.63176028670E+01 0.72375565753E+01
 0.82193577542E+01 0.79047859568E+01 0.88321349261E+01 0.97246606036E+01 0.10524407269E+02
 0.11157844505E+02 0.11606767974E+02 0.11916220415E+02 0.12164958218E+02 0.12420944759E+02
 0.12702573259E+02 0.12963784681E+02 0.13109500181E+02 0.13033510160E+02 0.12662149811E+02
 0.11986749109E+02 0.11073568445E+02 0.10029057664E+02 0.89309763419E+01 0.78474768704E+01
 0.68360242748E+01 0.59374464769E+01 0.51743856316E+01 0.45536088432E+01 0.40706790568E+01
 0.37153092322E+01 0.34760173159E+01 0.33433182766E+01 0.33114256327E+01 0.33788931840E+01
 0.35485381651E+01 0.38266068983E+01 0.42209702458E+01 0.47382386286E+01 0.53799095273E+01
 0.61380033852E+01 0.69913934330E+01 0.67099364725E+01 0.75530769726E+01 0.84181780732E+01
 0.92651920841E+01 0.10058737473E+02 0.10755208251E+02 0.11329667915E+02 0.11798688741E+02
 0.12198084497E+02 0.12551564411E+02 0.12847179878E+02 0.13033509311E+02 0.13037398530E+02
 0.12794846332E+02 0.12281470780E+02 0.11530168898E+02 0.10614447215E+02 0.96003479008E+01
 0.85539505656E+01 0.75365207612E+01 0.65969389589E+01 0.57678290296E+01 0.50656344869E+01
 0.44936678561E+01 0.40466468615E+01 0.37153092322E+01 0.34901019487E+01 0.33634973678E+01
 0.33310837548E+01 0.33918809168E+01 0.35481990163E+01 0.38049914389E+01 0.41684700066E+01
 0.46438217951E+01 0.52320892928E+01 0.59265996590E+01 0.56913462481E+01 0.64035174668E+01
 0.71764489378E+01 0.79796284770E+01 0.87804091847E+01 0.95505738946E+01 0.10268832287E+02
 0.10913034614E+02 0.11477020634E+02 0.11964558216E+02 0.12369225987E+02 0.12662149839E+02
 0.12794845213E+02 0.12716305672E+02 0.12396430493E+02 0.11844868584E+02 0.11102448224E+02
 0.10219077442E+02 0.92546883276E+01 0.82708569555E+01 0.73221991809E+01 0.64504022958E+01
 0.56819254944E+01 0.50291305474E+01 0.44936678561E+01 0.40706790568E+01 0.37526461073E+01
 0.35321876525E+01 0.34036279483E+01 0.33636123984E+01 0.34112352325E+01 0.35479759777E+01
 0.37773697372E+01 0.41041085680E+01 0.45323243891E+01 0.50630694784E+01 0.48791049829E+01
 0.54409183965E+01 0.60830770951E+01 0.67876485097E+01 0.75304166176E+01 0.82849301774E+01
 0.90274661610E+01 0.97401222489E+01 0.10409531747E+02 0.11020087021E+02 0.11554121516E+02
 0.11986751002E+02 0.12281470474E+02 0.12396429579E+02 0.12299244006E+02 0.11980741782E+02
 0.11452961950E+02 0.10748437095E+02 0.99159960190E+01 0.90127984751E+01 0.80955549496E+01
 0.72129706047E+01 0.64010520482E+01 0.56819254944E+01 0.50656344869E+01 0.45536088432E+01
 0.41424154486E+01 0.38268180943E+01 0.36017397319E+01 0.34631918211E+01 0.34085537195E+01
 0.34366620660E+01 0.35479697512E+01 0.37446258538E+01 0.40300641489E+01 0.44077529046E+01
 0.42745417342E+01 0.46868493423E+01 0.51842247099E+01 0.57595828069E+01 0.63993735006E+01
 0.70846797657E+01 0.77942922955E+01 0.85083259109E+01 0.92100638408E+01 0.98844648388E+01
 0.10513879031E+02 0.11073569669E+02 0.11530169653E+02 0.11844868203E+02 0.11980741552E+02
 0.11911619560E+02 0.11629282985E+02 0.11146689451E+02 0.10496541000E+02 0.97259066580E+01
 0.88884513699E+01 0.80362245241E+01 0.72129706047E+01 0.64504022958E+01 0.57678290296E+01
 0.51743856316E+01 0.46724284331E+01 0.42607377067E+01 0.39367582472E+01 0.36977677722E+01
 0.35412732829E+01 0.34651015210E+01 0.34676090716E+01 0.35481810708E+01 0.37077546760E+01
 0.39488282879E+01 0.38631193463E+01 0.41373374178E+01 0.44929904750E+01 0.49299225376E+01
 0.54434882831E+01 0.60237392747E+01 0.66562444388E+01 0.73243796743E+01 0.80117956875E+01
 0.87032101554E+01 0.93825163122E+01 0.10029055968E+02 0.10614446843E+02 0.11102447933E+02
 0.11452962079E+02 0.11629283887E+02 0.11606207008E+02 0.11376288321E+02 0.10952376205E+02
 0.10365842679E+02 0.96611791313E+01 0.88884513699E+01 0.80955549496E+01 0.73221991809E+01
 0.65969389589E+01 0.59374464769E+01 0.53530436497E+01 0.48479147191E+01 0.44236690316E+01
 0.40807213045E+01 0.38187037075E+01 0.36364429389E+01 0.35320180773E+01 0.35032305195E+01
 0.35485108785E+01 0.36678507057E+01 0.36261105974E+01 0.37757842745E+01 0.40007688257E+01
 0.43039009401E+01 0.46859969933E+01 0.51442948652E+01 0.56718318185E+01 0.62580948454E+01
 0.68906351147E+01 0.75565072554E+01 0.82421197592E+01 0.89309738874E+01 0.96003456358E+01
 0.10219075879E+02 0.10748436434E+02 0.11146690669E+02 0.11376290475E+02 0.11411514082E+02
 0.11244188472E+02 0.10885852088E+02 0.10365842679E+02 0.97259066580E+01 0.90127984751E+01
 0.82708569555E+01 0.75365207612E+01 0.68360242748E+01 0.61862557053E+01 0.55975345461E+01
 0.50765559239E+01 0.46282252127E+01 0.42561356758E+01 0.39622665752E+01 0.37466617087E+01
 0.36075980843E+01 0.35424106659E+01 0.35488046286E+01 0.35489224267E+01 0.35838356660E+01
 0.36896890282E+01 0.38692247424E+01 0.41253440618E+01 0.44594520542E+01 0.48702551427E+01
 0.53533803571E+01 0.59018829016E+01 0.65072147524E+01 0.71596930548E+01 0.78474774034E+01
 0.85539487175E+01 0.92546860726E+01 0.99159940643E+01 0.10496540647E+02 0.10952378570E+02
 0.11244191458E+02 0.11344712523E+02 0.11244188472E+02 0.10952376205E+02 0.10496541000E+02
 0.99159960190E+01 0.92546883276E+01 0.85539505656E+01 0.78474768704E+01 0.71596884362E+01
 0.65072084786E+01 0.59018796925E+01 0.53533807996E+01 0.48702548415E+01 0.44594486009E+01
 0.41253404276E+01 0.38692245760E+01 0.36896919182E+01 0.35838383173E+01 0.36261138529E+01
 0.35488069380E+01 0.35424079537E+01 0.36075914573E+01 0.37466569555E+01 0.39622674492E+01
 0.42561400519E+01 0.46282297433E+01 0.50765611884E+01 0.55975423888E+01 0.61862639896E+01
 0.68360291266E+01 0.75365215790E+01 0.82708558657E+01 0.90127966928E+01 0.97259048537E+01
 0.10365842754E+02 0.10885854946E+02 0.11244191458E+02 0.11411514082E+02 0.11376288321E+02
 0.11146689451E+02 0.10748437095E+02 0.10219077442E+02 0.96003479008E+01 0.89309763419E+01
 0.82421198641E+01 0.75565036043E+01 0.68906309979E+01 0.62580948328E+01 0.56718354372E+01
 0.51442968874E+01 0.46859941207E+01 0.43038952770E+01 0.40007646555E+01 0.37757841797E+01
 0.38631155291E+01 0.36678517432E+01 0.35485117627E+01 0.35032251005E+01 0.35320071718E+01
 0.36364343821E+01 0.38187032802E+01 0.40807281118E+01 0.44236793634E+01 0.48479268083E+01
 0.53530561380E+01 0.59374560217E+01 0.65969434374E+01 0.73222000728E+01 0.80955545325E+01
 0.88884500395E+01 0.96611774653E+01 0.10365842754E+02 0.10952378570E+02 0.11376290475E+02
 0.11606207008E+02 0.11629282985E+02 0.11452961950E+02 0.11102448224E+02 0.10614447215E+02
 0.10029057664E+02 0.93825192048E+01 0.87032113721E+01 0.80117936582E+01 0.73243772739E+01
 0.66562453516E+01 0.60237431717E+01 0.54434910798E+01 0.49299208416E+01 0.44929843042E+01
 0.41373299804E+01 0.42745314385E+01 0.39488189588E+01 0.37077496277E+01 0.35481766981E+01
 0.34675998674E+01 0.34650888795E+01 0.35412649568E+01 0.36977694844E+01 0.39367692278E+01
 0.42607540706E+01 0.46724464825E+01 0.51744014584E+01 0.57678389070E+01 0.64504061790E+01
 0.72129714741E+01 0.80362243800E+01 0.88884500395E+01 0.97259048537E+01 0.10496540647E+02
 0.11146690669E+02 0.11629283887E+02 0.11911619560E+02 0.11980741782E+02 0.11844868584E+02
 0.11530168898E+02 0.11073568445E+02 0.10513879859E+02 0.98844679914E+01 0.92100664199E+01
 0.85083258414E+01 0.77942908912E+01 0.70846794433E+01 0.63993752327E+01 0.57595852101E+01
 0.51842246688E+01 0.46868436012E+01 0.48790998168E+01 0.44077399562E+01 0.40300488282E+01
 0.37446138618E+01 0.35479602723E+01 0.34366516774E+01 0.34085439989E+01 0.34631886684E+01
 0.36017465576E+01 0.38268337703E+01 0.41424364179E+01 0.45536306589E+01 0.50656519333E+01
 0.56819352462E+01 0.64010556431E+01 0.72129714741E+01 0.80955545325E+01 0.90127966928E+01
 0.99159940643E+01 0.10748436434E+02 0.11452962079E+02 0.11980741552E+02 0.12299244006E+02
 0.12396430493E+02 0.12281470780E+02 0.11986749109E+02 0.11554118992E+02 0.11020086905E+02
 0.10409534598E+02 0.97401257481E+01 0.90274679421E+01 0.82849293435E+01 0.75304140518E+01
 0.67876468127E+01 0.60830782136E+01 0.54409194386E+01 0.56913478247E+01 0.50630652726E+01
 0.45323109322E+01 0.41040910772E+01 0.37773549158E+01 0.35479653248E+01 0.34112278686E+01
 0.33636096665E+01 0.34036324803E+01 0.35322000933E+01 0.37526652978E+01 0.40707024900E+01
 0.44936912412E+01 0.50291484037E+01 0.56819352462E+01 0.64504061790E+01 0.73222000728E+01
 0.82708558657E+01 0.92546860726E+01 0.10219075879E+02 0.11102447933E+02 0.11844868203E+02
 0.12396429579E+02 0.12716305672E+02 0.12794846332E+02 0.12662149811E+02 0.12369223492E+02
 0.11964555058E+02 0.11477019332E+02 0.10913035967E+02 0.10268835612E+02 0.95505772053E+01
 0.87804093513E+01 0.79796243719E+01 0.71764443676E+01 0.64035170647E+01 0.67099356686E+01
 0.59266023753E+01 0.52320879170E+01 0.46438126609E+01 0.41684569976E+01 0.38049800714E+01
 0.35481920071E+01 0.33918794883E+01 0.33310888810E+01 0.33635086618E+01 0.34901182219E+01
 0.37153300747E+01 0.40466709921E+01 0.44936912412E+01 0.50656519333E+01 0.57678389070E+01
 0.65969434374E+01 0.75365215790E+01 0.85539487175E+01 0.96003456358E+01 0.10614446843E+02
 0.11530169653E+02 0.12281470474E+02 0.12794845213E+02 0.13037398530E+02 0.13033510160E+02
 0.12847179407E+02 0.12551561958E+02 0.12198081274E+02 0.11798685748E+02 0.11329666441E+02
 0.10755210280E+02 0.10058742223E+02 0.92651943925E+01 0.84181745580E+01 0.75530716554E+01
 0.79047830892E+01 0.69913948488E+01 0.61380091925E+01 0.53799141817E+01 0.47382391379E+01
 0.42209675991E+01 0.38266035597E+01 0.35485370524E+01 0.33788975285E+01 0.33114363952E+01
 0.33433332501E+01 0.34760348678E+01 0.37153300747E+01 0.40707024900E+01 0.45536306589E+01
 0.51744014584E+01 0.59374560217E+01 0.68360291266E+01 0.78474774034E+01 0.89309738874E+01
 0.10029055968E+02 0.11073569669E+02 0.11986751002E+02 0.12662149839E+02 0.13033509311E+02
 0.13109500181E+02 0.12963784667E+02 0.12702571986E+02 0.12420942675E+02 0.12164955280E+02
 0.11916215476E+02 0.11606763031E+02 0.11157844703E+02 0.10524413440E+02 0.97246661288E+01
 0.88321345691E+01 0.92082553816E+01 0.82193607255E+01 0.72375633054E+01 0.63176139753E+01
 0.55010209890E+01 0.48121906507E+01 0.42598295359E+01 0.38414814252E+01 0.35488404442E+01
 0.33723938972E+01 0.33048658269E+01 0.33433332501E+01 0.34901182219E+01 0.37526652978E+01
 0.41424364179E+01 0.46724464825E+01 0.53530561380E+01 0.61862639896E+01 0.71596930548E+01
 0.82421197592E+01 0.93825163122E+01 0.10513879031E+02 0.11554121516E+02 0.12369225987E+02
 0.12847179878E+02 0.12963784681E+02 0.12788223488E+02 0.12456878137E+02 0.12122837970E+02
 0.11897790743E+02 0.11808948755E+02 0.11790542196E+02 0.11715180595E+02 0.11451635167E+02
 0.10923363706E+02 0.10143029277E+02 0.10503708605E+02 0.95344040582E+01 0.84856850626E+01
 0.74392710797E+01 0.64586085783E+01 0.55908835629E+01 0.48630111881E+01 0.42837020630E+01
 0.38490666634E+01 0.35489601532E+01 0.33723938972E+01 0.33114363952E+01 0.33635086618E+01
 0.35322000933E+01 0.38268337703E+01 0.42607540706E+01 0.48479268083E+01 0.55975423888E+01
 0.65072147524E+01 0.75565072554E+01 0.87032101554E+01 0.98844648388E+01 0.11020087021E+02
 0.11964558216E+02 0.12551564411E+02 0.12702573259E+02 0.12456879775E+02 0.11962028428E+02
 0.11427207376E+02 0.11051756182E+02 0.10952552995E+02 0.11119514802E+02 0.11420288659E+02
 0.11653949125E+02 0.11630596346E+02 0.11243118715E+02 0.11482434003E+02 0.10796177804E+02
 0.97999639097E+01 0.86942512899E+01 0.75889713166E+01 0.65556563770E+01 0.56461628765E+01
 0.48888825271E+01 0.42917537369E+01 0.38490666634E+01 0.35488404442E+01 0.33788975285E+01
 0.33310888810E+01 0.34036324803E+01 0.36017465576E+01 0.39367692278E+01 0.44236793634E+01
 0.50765611884E+01 0.59018829016E+01 0.68906351147E+01 0.80117956875E+01 0.92100638408E+01
 0.10409531747E+02 0.11477020634E+02 0.12198084497E+02 0.12420944759E+02 0.12122840708E+02
 0.11427211346E+02 0.10574774700E+02 0.98523175252E+01 0.94980156262E+01 0.96161727855E+01
 0.10137299136E+02 0.10843525376E+02 0.11449938480E+02 0.11706935829E+02 0.11706866681E+02
 0.11648695018E+02 0.11015617415E+02 0.99960349784E+01 0.88375890164E+01 0.76810750610E+01
 0.66051055835E+01 0.56648179237E+01 0.48888825271E+01 0.42837020630E+01 0.38414814252E+01
 0.35485370524E+01 0.33918794883E+01 0.33636096665E+01 0.34631886684E+01 0.36977694844E+01
 0.40807281118E+01 0.46282297433E+01 0.53533803571E+01 0.62580948454E+01 0.73243796743E+01
 0.85083259109E+01 0.97401222489E+01 0.10913034614E+02 0.11798688741E+02 0.12164958218E+02
 0.11897792477E+02 0.11051760964E+02 0.98523240497E+01 0.86429949422E+01 0.77857136437E+01
 0.75424451728E+01 0.79817409088E+01 0.89515044776E+01 0.10132860882E+02 0.11152639779E+02
 0.10825084222E+02 0.11664137382E+02 0.11754020934E+02 0.11161059893E+02 0.10116068028E+02
 0.89105635050E+01 0.77121599764E+01 0.66051055835E+01 0.56461628765E+01 0.48630111881E+01
 0.42598295359E+01 0.38266035597E+01 0.35481920071E+01 0.34112278686E+01 0.34085439989E+01
 0.35412649568E+01 0.38187032802E+01 0.42561400519E+01 0.48702551427E+01 0.56718318185E+01
 0.66562444388E+01 0.77942922955E+01 0.90274661610E+01 0.10268832287E+02 0.11329667915E+02
 0.11916220415E+02 0.11808951106E+02 0.10952554567E+02 0.94980224685E+01 0.77857220407E+01
 0.62641263539E+01 0.53591653757E+01 0.53342439642E+01 0.61959691579E+01 0.76889487122E+01
 0.93845405049E+01 0.87034254989E+01 0.10532631696E+02 0.11612625315E+02 0.11810985204E+02
 0.11233331668E+02 0.10156455588E+02 0.89105635050E+01 0.76810750610E+01 0.65556563770E+01
 0.55908835629E+01 0.48121906507E+01 0.42209675991E+01 0.38049800714E+01 0.35479653248E+01
 0.34366516774E+01 0.34650888795E+01 0.36364343821E+01 0.39622674492E+01 0.44594520542E+01
 0.51442948652E+01 0.60237392747E+01 0.70846797657E+01 0.82849301774E+01 0.95505738946E+01
 0.10755208251E+02 0.11606767974E+02 0.11790548642E+02 0.11119516351E+02 0.96161744224E+01
 0.75424531812E+01 0.53591738617E+01 0.36125350393E+01 0.27722131447E+01 0.30753178566E+01
 0.44410035895E+01 0.64963196352E+01 0.55186509554E+01 0.81865448288E+01 0.10331685989E+02
 0.11579392962E+02 0.11828844738E+02 0.11233331668E+02 0.10116068028E+02 0.88375890164E+01
 0.75889713166E+01 0.64586085783E+01 0.55010209890E+01 0.47382391379E+01 0.41684569976E+01
 0.37773549158E+01 0.35479602723E+01 0.34675998674E+01 0.35320071718E+01 0.37466569555E+01
 0.41253440618E+01 0.46859969933E+01 0.54434882831E+01 0.63993735006E+01 0.75304166176E+01
 0.87804091847E+01 0.10058737473E+02 0.11157844505E+02 0.11715188523E+02 0.11420295625E+02
 0.10137299957E+02 0.79817426804E+01 0.53342511735E+01 0.27722190491E+01 0.92201517884E+00
 0.26902789487E+00 0.99440656604E+00 0.29093003371E+01 0.17760030943E+01 0.48778397511E+01
 0.79080705480E+01 0.10260243098E+02 0.11579392962E+02 0.11810985204E+02 0.11161059893E+02
 0.99960349784E+01 0.86942512899E+01 0.74392710797E+01 0.63176139753E+01 0.53799141817E+01
 0.46438126609E+01 0.41040910772E+01 0.37446138618E+01 0.35481766981E+01 0.35032251005E+01
 0.36075914573E+01 0.38692247424E+01 0.43039009401E+01 0.49299225376E+01 0.57595828069E+01
 0.67876485097E+01 0.79796284770E+01 0.92651920841E+01 0.10524407269E+02 0.11451636732E+02
 0.11653958577E+02 0.10843531686E+02 0.89515048183E+01 0.61959706234E+01 0.30753214416E+01
 0.26902840393E+00 -.15435310441E+01 -.18940798091E+01 -.68469131252E+00 -.17749985138E+01
 0.11737207324E+01 0.46547999219E+01 0.79080705480E+01 0.10331685989E+02 0.11612625315E+02
 0.11754020934E+02 0.11015617415E+02 0.97999639097E+01 0.84856850626E+01 0.72375633054E+01
 0.61380091925E+01 0.52320879170E+01 0.45323109322E+01 0.40300488282E+01 0.37077496277E+01
 0.35485117627E+01 0.35424079537E+01 0.36896890282E+01 0.40007688257E+01 0.44929904750E+01
 0.51842247099E+01 0.60830770951E+01 0.71764489378E+01 0.84181780732E+01 0.97246606036E+01
 0.10923356691E+02 0.11630599231E+02 0.11449947364E+02 0.10132865183E+02 0.76889485428E+01
 0.44410036179E+01 0.99440377892E+00 -.18940865257E+01 -.35263480564E+01 -.34846641931E+01
 -.43270946860E+01 -.21528338080E+01 0.11737207324E+01 0.48778397511E+01 0.81865448288E+01
 0.10532631696E+02 0.11664137382E+02 0.11648695018E+02 0.10796177804E+02 0.95344040582E+01
 0.82193607255E+01 0.69913948488E+01 0.59266023753E+01 0.50630652726E+01 0.44077399562E+01
 0.39488189588E+01 0.36678517432E+01 0.35488069380E+01 0.35838356660E+01 0.37757842745E+01
 0.41373374178E+01 0.46868493423E+01 0.54409183965E+01 0.64035174668E+01 0.75530769726E+01
 0.88321349261E+01 0.10143020522E+02 0.11243112146E+02 0.11706939275E+02 0.11152645613E+02
 0.93845412795E+01 0.64963183984E+01 0.29092976365E+01 -.68470171098E+00 -.34846778769E+01
 -.48113012585E+01 -.43271019144E+01 -.36379117675E+01 -.13710966241E+01 0.19156169874E+01
 0.54637650813E+01 0.85429215236E+01 0.10638145709E+02 0.11544608748E+02 0.11362967812E+02
 0.10418355605E+02 0.91350055266E+01 0.78314901663E+01 0.66296280032E+01 0.55993358491E+01
 0.47728586888E+01 0.41527901969E+01 0.37248731320E+01 0.34699192187E+01 0.33723600840E+01
 0.34254428520E+01 0.36332463344E+01 0.40094748423E+01 0.45730431557E+01 0.53403756542E+01
 0.63141978321E+01 0.74704920196E+01 0.87486368599E+01 0.10046099111E+02 0.11101218046E+02
 0.11491374642E+02 0.10856701183E+02 0.90355570018E+01 0.61586677601E+01 0.26739421071E+01
 -.72456598013E+00 -.32656617653E+01 -.36379260913E+01 -.43271100131E+01 -.32656613154E+01
 -.72456427798E+00 0.26739383178E+01 0.61586623229E+01 0.90355604758E+01 0.10856718138E+02
 0.11491399750E+02 0.11101243307E+02 0.10046122609E+02 0.87486591180E+01 0.74705100961E+01
 0.63142087779E+01 0.53403830893E+01 0.45730527801E+01 0.40094850819E+01 0.36332507059E+01
 0.34254403193E+01 0.33723556125E+01 0.34699143552E+01 0.37248641540E+01 0.41527765429E+01
 0.47728450460E+01 0.55993232785E+01 0.66296107994E+01 0.78314651767E+01 0.91349776338E+01
 0.10418330081E+02 0.11362943775E+02 0.11544585360E+02 0.10638128569E+02 0.85429166216E+01
 0.54637687839E+01 0.19156169879E+01 -.13711067987E+01 -.13003098546E+01 -.31899499283E+01
 -.34846835913E+01 -.21153912653E+01 0.56420716120E+00 0.38981940984E+01 0.71384779618E+01
 0.96576857334E+01 0.11093410901E+02 0.11394405467E+02 0.10777669612E+02 0.96247040836E+01
 0.83306311246E+01 0.70895993353E+01 0.59893751183E+01 0.50798246760E+01 0.43765481341E+01
 0.38720473303E+01 0.35484871188E+01 0.33878969053E+01 0.33788663904E+01 0.35200651321E+01
 0.38206438995E+01 0.42975115529E+01 0.49694739613E+01 0.58479912446E+01 0.69249369950E+01
 0.81605908965E+01 0.94777533974E+01 0.10732560477E+02 0.11570662706E+02 0.11584726930E+02
 0.10493758448E+02 0.82584934709E+01 0.51464407093E+01 0.17156287464E+01 0.20995156702E+01
 -.51975558601E+00 -.19721193944E+01 -.18940995575E+01 -.31645762389E+00 0.23474086575E+01
 0.54418650063E+01 0.82755792687E+01 0.10312259078E+02 0.11286295497E+02 0.11224805932E+02
 0.10389691710E+02 0.91680684439E+01 0.78933826172E+01 0.67009198106E+01 0.56656711869E+01
 0.48259851486E+01 0.41894283898E+01 0.37446008116E+01 0.34730974304E+01 0.33584745127E+01
 0.33918648491E+01 0.35745810107E+01 0.39177673369E+01 0.44390847168E+01 0.51563326129E+01
 0.60777463277E+01 0.71898440423E+01 0.84466269406E+01 0.97658913259E+01 0.10983601480E+02
 0.11733280007E+02 0.11637213192E+02 0.10463707166E+02 0.82302724746E+01 0.52508535739E+01
 0.57667746970E+01 0.30229893673E+01 0.88187482519E+00 -.12026239994E+00 0.26900977123E+00
 0.19324267793E+01 0.44252600274E+01 0.71255524270E+01 0.94267355032E+01 0.10899801749E+02
 0.11379190587E+02 0.10962998758E+02 0.99436090612E+01 0.86917397827E+01 0.74497136922E+01
 0.63164357384E+01 0.53530594557E+01 0.45864782591E+01 0.40171369527E+01 0.36307988496E+01
 0.34093088129E+01 0.33382056623E+01 0.34112324709E+01 0.36320690147E+01 0.40133517569E+01
 0.45729037467E+01 0.53269823743E+01 0.62803841017E+01 0.74147804071E+01 0.86794117875E+01
 0.99893065734E+01 0.11167966641E+02 0.11856917370E+02 0.11716497013E+02 0.10565198448E+02
 0.84683297177E+01 0.89436721411E+01 0.66315755981E+01 0.43786509500E+01 0.27474176820E+01
 0.21632947677E+01 0.27721966640E+01 0.43913366571E+01 0.65748632525E+01 0.87635514478E+01
 0.10455170426E+02 0.11334855318E+02 0.11332507211E+02 0.10604480723E+02 0.94565370026E+01
 0.82085976490E+01 0.70124862658E+01 0.59474853819E+01 0.50605341872E+01 0.43679264444E+01
 0.38642907588E+01 0.35336946811E+01 0.33589522602E+01 0.33278650815E+01 0.34366711106E+01
 0.36910209930E+01 0.41044991849E+01 0.46945281735E+01 0.54753967163E+01 0.64484699010E+01
 0.75913611018E+01 0.88502517174E+01 0.10139682441E+02 0.11282238225E+02 0.11942260683E+02
 0.11822897522E+02 0.10789762558E+02 0.11104713296E+02 0.95928739358E+01 0.77395468009E+01
 0.60113336074E+01 0.48733306085E+01 0.46381874055E+01 0.53591498372E+01 0.68134658705E+01
 0.85823906392E+01 0.10191027854E+02 0.11251201190E+02 0.11559903361E+02 0.11131162594E+02
 0.10162929183E+02 0.89540629049E+01 0.77320797584E+01 0.65942743450E+01 0.56044023697E+01
 0.47958471759E+01 0.41757949704E+01 0.37345793015E+01 0.34556581464E+01 0.33233703270E+01
 0.33278697950E+01 0.34676267671E+01 0.37497926576E+01 0.41883505007E+01 0.47998073408E+01
 0.55961834876E+01 0.65756318812E+01 0.77127079525E+01 0.89523055943E+01 0.10210902932E+02
 0.11322184964E+02 0.11983589386E+02 0.11942303139E+02 0.12048639222E+02 0.11458478538E+02
 0.10327692334E+02 0.89572109340E+01 0.77400991109E+01 0.70383575266E+01 0.70598405147E+01
 0.77856997655E+01 0.89795637335E+01 0.10272624237E+02 0.11286684323E+02 0.11747614112E+02
 0.11554136525E+02 0.10787965482E+02 0.96696838718E+01 0.84553114820E+01 0.72761818065E+01
 0.62069587621E+01 0.52962317636E+01 0.45653753226E+01 0.40143558903E+01 0.36307561678E+01
 0.33983521871E+01 0.33033658271E+01 0.33382195659E+01 0.35032532792E+01 0.38066152831E+01
 0.42621544835E+01 0.48850113867E+01 0.56847819766E+01 0.66568187284E+01 0.77737630231E+01
 0.89809716724E+01 0.10199077298E+02 0.11282858494E+02 0.11969597083E+02 0.11885791275E+02
 0.12108626894E+02 0.11788953815E+02 0.11048336938E+02 0.10142581579E+02 0.93837757650E+01
 0.90342934741E+01 0.92128844706E+01 0.98523083124E+01 0.10726041173E+02 0.11530426164E+02
 0.11986959008E+02 0.11927214726E+02 0.11335587940E+02 0.10341801460E+02 0.91661615461E+01
 0.79764028016E+01 0.68548756492E+01 0.58613206490E+01 0.50305683910E+01 0.43741270468E+01
 0.38867622480E+01 0.35547058838E+01 0.33627640903E+01 0.32992015255E+01 0.33584956768E+01
 0.35424342244E+01 0.38596524013E+01 0.43233612993E+01 0.49469715054E+01 0.57376548482E+01
 0.66885444714E+01 0.77715860360E+01 0.89342506257E+01 0.10102973180E+02 0.11159642175E+02
 0.10950007933E+02 0.11718019327E+02 0.12088083372E+02 0.12033693142E+02 0.11658538447E+02
 0.11165524682E+02 0.10785941779E+02 0.10693529447E+02 0.10938128476E+02 0.11427205894E+02