 running on    8 total cores
 distrk:  each k-point on    8 cores,    1 groups
 distr:  one band on    1 cores,    8 groups
 using from now: INCAR     
 vasp.5.4.4.18Apr17-6-g9f103f2a35 (build Dec 09 2018 21:25:21) complex          
  
 POSCAR found type information on POSCAR  Si
 POSCAR found :  1 types and       2 ions
 scaLAPACK will be used

 ----------------------------------------------------------------------------- 
|                                                                             |
|           W    W    AA    RRRRR   N    N  II  N    N   GGGG   !!!           |
|           W    W   A  A   R    R  NN   N  II  NN   N  G    G  !!!           |
|           W    W  A    A  R    R  N N  N  II  N N  N  G       !!!           |
|           W WW W  AAAAAA  RRRRR   N  N N  II  N  N N  G  GGG   !            |
|           WW  WW  A    A  R   R   N   NN  II  N   NN  G    G                |
|           W    W  A    A  R    R  N    N  II  N    N   GGGG   !!!           |
|                                                                             |
|      For optimal performance we recommend to set                            |
|        NCORE= 4 - approx SQRT( number of cores)                             |
|      NCORE specifies how many cores store one orbital (NPAR=cpu/NCORE).     |
|      This setting can  greatly improve the performance of VASP for DFT.     |
|      The default,   NCORE=1            might be grossly inefficient         |
|      on modern multi-core architectures or massively parallel machines.     |
|      Do your own testing !!!!                                               |
|      Unfortunately you need to use the default for GW and RPA calculations. |
|      (for HF NCORE is supported but not extensively tested yet)             |
|                                                                             |
 ----------------------------------------------------------------------------- 

 LDA part: xc-table for Pade appr. of Perdew
 POSCAR, INCAR and KPOINTS ok, starting setup
 FFT: planning ...
 WAVECAR not read
 entering main loop
       N       E                     dE             d eps       ncg     rms          rms(c)
DAV:   1     0.131952672430E+01    0.13195E+01   -0.28084E+03  2552   0.575E+02
DAV:   2    -0.101203863140E+02   -0.11440E+02   -0.10999E+02  3808   0.668E+01
DAV:   3    -0.102595028759E+02   -0.13912E+00   -0.13837E+00  3344   0.849E+00
DAV:   4    -0.102600135072E+02   -0.51063E-03   -0.51058E-03  3920   0.451E-01
DAV:   5    -0.102600147380E+02   -0.12307E-05   -0.12300E-05  3400   0.124E-02    0.149E+00
DAV:   6    -0.102555206218E+02    0.44941E-02   -0.17864E-03  3304   0.328E-01    0.935E-01
DAV:   7    -0.102517642943E+02    0.37563E-02   -0.52726E-03  2824   0.576E-01    0.332E-02
DAV:   8    -0.102517501847E+02    0.14110E-04   -0.81236E-05  1728   0.791E-02
   1 F= -.10251750E+02 E0= -.10244740E+02  d E =-.102518E+02
 curvature:   0.00 expect dE= 0.000E+00 dE for cont linesearch  0.000E+00
 trial: gam= 0.00000 g(F)=  0.225E-47 g(S)=  0.000E+00 ort = 0.000E+00 (trialstep = 0.100E+01)
 search vector abs. value=  0.100E-09
 reached required accuracy - stopping structural energy minimisation
 writing wavefunctions
