   2   2   0   0
  0.2001288E+02  0.3839590E-09  0.3839590E-09  0.3839590E-09  0.5000000E-15
  1.000000000000000E-004
  CAR 
 unknown system                          
     16.76753325     -8.11393465  301      6.00318789      1.00000000
     -8.114  0.0000E+00  0.0000E+00
     -8.031  0.0000E+00  0.0000E+00
     -7.948  0.0000E+00  0.0000E+00
     -7.865  0.0000E+00  0.0000E+00
     -7.782  0.0000E+00  0.0000E+00
     -7.699  0.0000E+00  0.0000E+00
     -7.616  0.0000E+00  0.0000E+00
     -7.533  0.0000E+00  0.0000E+00
     -7.450  0.0000E+00  0.0000E+00
     -7.367  0.0000E+00  0.0000E+00
     -7.285  0.8263E-18  0.6853E-19
     -7.202  0.1074E-15  0.8978E-17
     -7.119  0.8874E-14  0.7449E-15
     -7.036  0.5209E-12  0.4394E-13
     -6.953  0.2179E-10  0.1851E-11
     -6.870  0.6499E-09  0.5575E-10
     -6.787  0.1383E-07  0.1203E-08
     -6.704  0.2101E-06  0.1862E-07
     -6.621  0.2279E-05  0.2077E-06
     -6.538  0.1770E-04  0.1675E-05
     -6.455  0.9854E-04  0.9849E-05
     -6.372  0.3959E-03  0.4269E-04
     -6.289  0.1164E-02  0.1392E-03
     -6.206  0.2584E-02  0.3535E-03
     -6.123  0.4602E-02  0.7352E-03
     -6.040  0.7139E-02  0.1327E-02
     -5.958  0.1013E-01  0.2167E-02
     -5.875  0.1297E-01  0.3243E-02
     -5.792  0.1483E-01  0.4472E-02
     -5.709  0.1577E-01  0.5780E-02
     -5.626  0.1652E-01  0.7150E-02
     -5.543  0.1766E-01  0.8614E-02
     -5.460  0.1955E-01  0.1024E-01
     -5.377  0.2222E-01  0.1208E-01
     -5.294  0.2526E-01  0.1417E-01
     -5.211  0.2777E-01  0.1648E-01
     -5.128  0.2821E-01  0.1882E-01
     -5.045  0.2603E-01  0.2098E-01
     -4.962  0.2325E-01  0.2290E-01
     -4.879  0.2286E-01  0.2480E-01
     -4.796  0.2637E-01  0.2699E-01
     -4.713  0.3279E-01  0.2971E-01
     -4.631  0.3934E-01  0.3297E-01
     -4.548  0.4314E-01  0.3655E-01
     -4.465  0.4239E-01  0.4006E-01
     -4.382  0.3819E-01  0.4323E-01
     -4.299  0.3482E-01  0.4612E-01
     -4.216  0.3622E-01  0.4912E-01
     -4.133  0.4207E-01  0.5261E-01
     -4.050  0.4794E-01  0.5659E-01
     -3.967  0.4981E-01  0.6072E-01
     -3.884  0.4846E-01  0.6474E-01
     -3.801  0.4867E-01  0.6877E-01
     -3.718  0.5390E-01  0.7324E-01
     -3.635  0.6207E-01  0.7839E-01
     -3.552  0.6764E-01  0.8400E-01
     -3.469  0.6749E-01  0.8960E-01
     -3.386  0.6168E-01  0.9472E-01
     -3.304  0.5055E-01  0.9891E-01
     -3.221  0.3670E-01  0.1020E+00
     -3.138  0.2647E-01  0.1041E+00
     -3.055  0.2374E-01  0.1061E+00
     -2.972  0.2574E-01  0.1083E+00
     -2.889  0.2884E-01  0.1106E+00
     -2.806  0.3424E-01  0.1135E+00
     -2.723  0.4342E-01  0.1171E+00
     -2.640  0.5197E-01  0.1214E+00
     -2.557  0.5266E-01  0.1258E+00
     -2.474  0.4303E-01  0.1293E+00
     -2.391  0.2766E-01  0.1316E+00
     -2.308  0.1370E-01  0.1328E+00
     -2.225  0.5126E-02  0.1332E+00
     -2.142  0.1425E-02  0.1333E+00
     -2.059  0.2941E-03  0.1333E+00
     -1.977  0.7905E-04  0.1333E+00
     -1.894  0.2828E-03  0.1334E+00
     -1.811  0.1545E-02  0.1335E+00
     -1.728  0.6161E-02  0.1340E+00
     -1.645  0.1769E-01  0.1355E+00
     -1.562  0.3674E-01  0.1385E+00
     -1.479  0.5577E-01  0.1431E+00
     -1.396  0.6381E-01  0.1484E+00
     -1.313  0.6020E-01  0.1534E+00
     -1.230  0.5644E-01  0.1581E+00
     -1.147  0.5976E-01  0.1631E+00
     -1.064  0.6349E-01  0.1683E+00
     -0.981  0.5940E-01  0.1733E+00
     -0.898  0.5197E-01  0.1776E+00
     -0.815  0.5224E-01  0.1819E+00
     -0.732  0.6069E-01  0.1869E+00
     -0.649  0.6531E-01  0.1923E+00
     -0.567  0.5791E-01  0.1971E+00
     -0.484  0.4425E-01  0.2008E+00
     -0.401  0.3438E-01  0.2037E+00
     -0.318  0.3094E-01  0.2062E+00
     -0.235  0.3195E-01  0.2089E+00
     -0.152  0.3733E-01  0.2120E+00
     -0.069  0.4556E-01  0.2158E+00
      0.014  0.4939E-01  0.2199E+00
      0.097  0.4234E-01  0.2234E+00
      0.180  0.2722E-01  0.2256E+00
      0.263  0.1293E-01  0.2267E+00
      0.346  0.5000E-02  0.2271E+00
      0.429  0.3629E-02  0.2274E+00
      0.512  0.7917E-02  0.2281E+00
      0.595  0.1735E-01  0.2295E+00
      0.678  0.2909E-01  0.2319E+00
      0.760  0.3692E-01  0.2350E+00
      0.843  0.3575E-01  0.2379E+00
      0.926  0.2680E-01  0.2402E+00
      1.009  0.1676E-01  0.2416E+00
      1.092  0.1154E-01  0.2425E+00
      1.175  0.1198E-01  0.2435E+00
      1.258  0.1602E-01  0.2448E+00
      1.341  0.2337E-01  0.2468E+00
      1.424  0.3592E-01  0.2498E+00
      1.507  0.5336E-01  0.2542E+00
      1.590  0.7119E-01  0.2601E+00
      1.673  0.8295E-01  0.2670E+00
      1.756  0.8360E-01  0.2739E+00
      1.839  0.7381E-01  0.2800E+00
      1.922  0.6113E-01  0.2851E+00
      2.005  0.5488E-01  0.2896E+00
      2.087  0.6008E-01  0.2946E+00
      2.170  0.7363E-01  0.3007E+00
      2.253  0.8486E-01  0.3078E+00
      2.336  0.8507E-01  0.3148E+00
      2.419  0.7648E-01  0.3212E+00
      2.502  0.6843E-01  0.3268E+00
      2.585  0.6865E-01  0.3325E+00
      2.668  0.7853E-01  0.3391E+00
      2.751  0.9120E-01  0.3466E+00
      2.834  0.9716E-01  0.3547E+00
      2.917  0.9615E-01  0.3627E+00
      3.000  0.9703E-01  0.3707E+00
      3.083  0.1031E+00  0.3793E+00
      3.166  0.1073E+00  0.3881E+00
      3.249  0.1034E+00  0.3967E+00
      3.332  0.9459E-01  0.4046E+00
      3.414  0.8811E-01  0.4119E+00
      3.497  0.8631E-01  0.4190E+00
      3.580  0.8504E-01  0.4261E+00
      3.663  0.8211E-01  0.4329E+00
      3.746  0.8102E-01  0.4396E+00
      3.829  0.8373E-01  0.4466E+00
      3.912  0.8819E-01  0.4539E+00
      3.995  0.9288E-01  0.4616E+00
      4.078  0.9598E-01  0.4695E+00
      4.161  0.9365E-01  0.4773E+00
      4.244  0.8449E-01  0.4843E+00
      4.327  0.7149E-01  0.4902E+00
      4.410  0.5840E-01  0.4951E+00
      4.493  0.4900E-01  0.4991E+00
      4.576  0.4713E-01  0.5031E+00
      4.659  0.5180E-01  0.5074E+00
      4.741  0.5571E-01  0.5120E+00
      4.824  0.5287E-01  0.5164E+00
      4.907  0.4424E-01  0.5200E+00
      4.990  0.3419E-01  0.5229E+00
      5.073  0.2563E-01  0.5250E+00
      5.156  0.1964E-01  0.5266E+00
      5.239  0.1650E-01  0.5280E+00
      5.322  0.1534E-01  0.5293E+00
      5.405  0.1442E-01  0.5305E+00
      5.488  0.1266E-01  0.5315E+00
      5.571  0.9959E-02  0.5323E+00
      5.654  0.6639E-02  0.5329E+00
      5.737  0.3514E-02  0.5332E+00
      5.820  0.1404E-02  0.5333E+00
      5.903  0.4120E-03  0.5333E+00
      5.986  0.9255E-04  0.5333E+00
      6.069  0.5739E-04  0.5333E+00
      6.151  0.2647E-03  0.5334E+00
      6.234  0.1141E-02  0.5335E+00
      6.317  0.3612E-02  0.5338E+00
      6.400  0.8426E-02  0.5345E+00
      6.483  0.1462E-01  0.5357E+00
      6.566  0.1917E-01  0.5373E+00
      6.649  0.1979E-01  0.5389E+00
      6.732  0.1834E-01  0.5404E+00
      6.815  0.1947E-01  0.5420E+00
      6.898  0.2528E-01  0.5441E+00
      6.981  0.3327E-01  0.5469E+00
      7.064  0.4054E-01  0.5503E+00
      7.147  0.4697E-01  0.5541E+00
      7.230  0.5266E-01  0.5585E+00
      7.313  0.5626E-01  0.5632E+00
      7.396  0.5752E-01  0.5680E+00
      7.478  0.5845E-01  0.5728E+00
      7.561  0.6242E-01  0.5780E+00
      7.644  0.7264E-01  0.5840E+00
      7.727  0.8831E-01  0.5913E+00
      7.810  0.1020E+00  0.5998E+00
      7.893  0.1044E+00  0.6084E+00
      7.976  0.9448E-01  0.6163E+00
      8.059  0.8168E-01  0.6230E+00
      8.142  0.7740E-01  0.6295E+00
      8.225  0.8445E-01  0.6365E+00
      8.308  0.9418E-01  0.6443E+00
      8.391  0.9519E-01  0.6522E+00
      8.474  0.8653E-01  0.6594E+00
      8.557  0.7905E-01  0.6659E+00
      8.640  0.8224E-01  0.6727E+00
      8.723  0.9398E-01  0.6805E+00
      8.805  0.1054E+00  0.6893E+00
      8.888  0.1108E+00  0.6985E+00
      8.971  0.1095E+00  0.7075E+00
      9.054  0.1045E+00  0.7162E+00
      9.137  0.1020E+00  0.7247E+00
      9.220  0.1062E+00  0.7335E+00
      9.303  0.1143E+00  0.7430E+00
      9.386  0.1200E+00  0.7529E+00
      9.469  0.1184E+00  0.7627E+00
      9.552  0.1089E+00  0.7718E+00
      9.635  0.9609E-01  0.7797E+00
      9.718  0.8577E-01  0.7868E+00
      9.801  0.7993E-01  0.7935E+00
      9.884  0.7671E-01  0.7998E+00
      9.967  0.7515E-01  0.8061E+00
     10.050  0.7825E-01  0.8126E+00
     10.132  0.8847E-01  0.8199E+00
     10.215  0.1007E+00  0.8282E+00
     10.298  0.1054E+00  0.8370E+00
     10.381  0.9986E-01  0.8453E+00
     10.464  0.9099E-01  0.8528E+00
     10.547  0.8719E-01  0.8601E+00
     10.630  0.9014E-01  0.8675E+00
     10.713  0.9354E-01  0.8753E+00
     10.796  0.8967E-01  0.8827E+00
     10.879  0.7804E-01  0.8892E+00
     10.962  0.6453E-01  0.8945E+00
     11.045  0.5306E-01  0.8989E+00
     11.128  0.4454E-01  0.9026E+00
     11.211  0.4187E-01  0.9061E+00
     11.294  0.4861E-01  0.9101E+00
     11.377  0.6341E-01  0.9154E+00
     11.459  0.8084E-01  0.9221E+00
     11.542  0.9706E-01  0.9302E+00
     11.625  0.1098E+00  0.9393E+00
     11.708  0.1137E+00  0.9487E+00
     11.791  0.1037E+00  0.9573E+00
     11.874  0.8390E-01  0.9642E+00
     11.957  0.6469E-01  0.9696E+00
     12.040  0.5174E-01  0.9739E+00
     12.123  0.4458E-01  0.9776E+00
     12.206  0.4199E-01  0.9811E+00
     12.289  0.4367E-01  0.9847E+00
     12.372  0.4738E-01  0.9886E+00
     12.455  0.4806E-01  0.9926E+00
     12.538  0.4374E-01  0.9963E+00
     12.621  0.4018E-01  0.9996E+00
     12.704  0.4348E-01  0.1003E+01
     12.786  0.5013E-01  0.1007E+01
     12.869  0.5157E-01  0.1012E+01
     12.952  0.4767E-01  0.1016E+01
     13.035  0.4770E-01  0.1020E+01
     13.118  0.5690E-01  0.1024E+01
     13.201  0.6779E-01  0.1030E+01
     13.284  0.6829E-01  0.1036E+01
     13.367  0.5630E-01  0.1040E+01
     13.450  0.4117E-01  0.1044E+01
     13.533  0.3127E-01  0.1046E+01
     13.616  0.2589E-01  0.1048E+01
     13.699  0.2018E-01  0.1050E+01
     13.782  0.1290E-01  0.1051E+01
     13.865  0.6787E-02  0.1052E+01
     13.948  0.4615E-02  0.1052E+01
     14.031  0.7326E-02  0.1053E+01
     14.114  0.1365E-01  0.1054E+01
     14.196  0.1948E-01  0.1055E+01
     14.279  0.2008E-01  0.1057E+01
     14.362  0.1510E-01  0.1058E+01
     14.445  0.9309E-02  0.1059E+01
     14.528  0.7664E-02  0.1060E+01
     14.611  0.1135E-01  0.1061E+01
     14.694  0.1725E-01  0.1062E+01
     14.777  0.2015E-01  0.1064E+01
     14.860  0.1723E-01  0.1065E+01
     14.943  0.1072E-01  0.1066E+01
     15.026  0.4845E-02  0.1066E+01
     15.109  0.1589E-02  0.1067E+01
     15.192  0.3772E-03  0.1067E+01
     15.275  0.6474E-04  0.1067E+01
     15.358  0.8018E-05  0.1067E+01
     15.441  0.7151E-06  0.1067E+01
     15.523  0.4584E-07  0.1067E+01
     15.606  0.2109E-08  0.1067E+01
     15.689  0.6952E-10  0.1067E+01
     15.772  0.1640E-11  0.1067E+01
     15.855  0.2764E-13  0.1067E+01
     15.938  0.3371E-15  0.1067E+01
     16.021  0.0000E+00  0.1067E+01
     16.104  0.0000E+00  0.1067E+01
     16.187  0.0000E+00  0.1067E+01
     16.270  0.0000E+00  0.1067E+01
     16.353  0.0000E+00  0.1067E+01
     16.436  0.0000E+00  0.1067E+01
     16.519  0.0000E+00  0.1067E+01
     16.602  0.0000E+00  0.1067E+01
     16.685  0.0000E+00  0.1067E+01
     16.768  0.0000E+00  0.1067E+01
