unknown system                          
   1.00000000000000     
    -0.000000    2.751742    2.751742
     2.751742   -0.000000    2.751742
     2.751742    2.751742   -0.000000
   Si
     2
Direct
  0.500000  0.500000  0.500000
  0.750000  0.750000  0.750000
 
   24   24   24
 0.65000586997E+00 0.68615000349E+00 0.80013124925E+00 0.10077020545E+01 0.13317294233E+01
 0.17965205587E+01 0.24189940913E+01 0.31961430208E+01 0.40897966503E+01 0.50145321252E+01
 0.58399952521E+01 0.64172020425E+01 0.66251865895E+01 0.64171737892E+01 0.58399698778E+01
 0.50145488369E+01 0.40898721271E+01 0.31962553544E+01 0.24190951883E+01 0.17965697013E+01
 0.13317209541E+01 0.10076631556E+01 0.80009459393E+00 0.68613122426E+00 0.68615000349E+00
 0.74502565369E+00 0.87142916174E+00 0.10806931567E+01 0.13908717588E+01 0.18167288156E+01
 0.23617128821E+01 0.30081543456E+01 0.37077774736E+01 0.43783741226E+01 0.49143806162E+01
 0.52139970209E+01 0.52139940851E+01 0.49144069610E+01 0.43784839616E+01 0.37079592896E+01
 0.30083233417E+01 0.23617870513E+01 0.18166971554E+01 0.13907897711E+01 0.10806278184E+01
 0.87141092518E+00 0.74503917196E+00 0.68616031697E+00 0.80013124925E+00 0.87142916174E+00
 0.10011045717E+01 0.12022726496E+01 0.14872204668E+01 0.18619307433E+01 0.23197086996E+01
 0.28345747399E+01 0.33568669149E+01 0.38158326102E+01 0.41333852896E+01 0.42472283653E+01
 0.41334413308E+01 0.38159303490E+01 0.33569734096E+01 0.28346516951E+01 0.23197384452E+01
 0.18619230784E+01 0.14871939996E+01 0.12022392570E+01 0.10010718498E+01 0.87140480111E+00
 0.80011932595E+00 0.77753810225E+00 0.10077020545E+01 0.10806931567E+01 0.12022726496E+01
 0.13826128683E+01 0.16287503536E+01 0.19401812142E+01 0.23043262201E+01 0.26927313814E+01
 0.30603916081E+01 0.33515838221E+01 0.35134958006E+01 0.35135372702E+01 0.33516701034E+01
 0.30604438714E+01 0.26927058535E+01 0.23042581614E+01 0.19401478117E+01 0.16287880532E+01
 0.13826808143E+01 0.12023013217E+01 0.10806575122E+01 0.10076401247E+01 0.97391047185E+00
 0.97394000800E+00 0.13317294233E+01 0.13908717588E+01 0.14872204668E+01 0.16287503536E+01
 0.18191062355E+01 0.20542831755E+01 0.23197162856E+01 0.25887762628E+01 0.28246619440E+01
 0.29875000585E+01 0.30457931741E+01 0.29875021171E+01 0.28246713447E+01 0.25887919358E+01
 0.23197320509E+01 0.20542996461E+01 0.18191277245E+01 0.16287710055E+01 0.14872282742E+01
 0.13908665228E+01 0.13317228225E+01 0.13008568780E+01 0.12914186497E+01 0.13008586815E+01
 0.17965205587E+01 0.18167288156E+01 0.18619307433E+01 0.19401812142E+01 0.20542831755E+01
 0.21993797980E+01 0.23617069901E+01 0.25193095294E+01 0.26456606248E+01 0.27162508353E+01
 0.27162334426E+01 0.26456372579E+01 0.25193322898E+01 0.23617926509E+01 0.21994923895E+01
 0.20543613753E+01 0.19401803944E+01 0.18618614663E+01 0.18166614959E+01 0.17965241785E+01
 0.17911144125E+01 0.17911139013E+01 0.17910764737E+01 0.17910519683E+01 0.24189940913E+01
 0.23617128821E+01 0.23197086996E+01 0.23043262201E+01 0.23197162856E+01 0.23617069901E+01
 0.24189739064E+01 0.24761354200E+01 0.25179091464E+01 0.25331882929E+01 0.25179364963E+01
 0.24761977755E+01 0.24190499543E+01 0.23617548314E+01 0.23197243279E+01 0.23043189895E+01
 0.23197023028E+01 0.23617034610E+01 0.24189881056E+01 0.24761612019E+01 0.25179313176E+01
 0.25331908673E+01 0.25179110074E+01 0.24761487093E+01 0.31961430208E+01 0.30081543456E+01
 0.28345747399E+01 0.26927313814E+01 0.25887762628E+01 0.25193095294E+01 0.24761354200E+01
 0.24513009821E+01 0.24398650815E+01 0.24398878719E+01 0.24513693185E+01 0.24762157400E+01
 0.25193249050E+01 0.25886974070E+01 0.26926388446E+01 0.28345686067E+01 0.30082314081E+01
 0.31962173179E+01 0.33728573930E+01 0.35103310221E+01 0.35855499385E+01 0.35855625745E+01
 0.35103504271E+01 0.33728399813E+01 0.40897966503E+01 0.37077774736E+01 0.33568669149E+01
 0.30603916081E+01 0.28246619440E+01 0.26456606248E+01 0.25179091464E+01 0.24398650815E+01
 0.24133956158E+01 0.24398636585E+01 0.25179198863E+01 0.26456621780E+01 0.28246224629E+01
 0.30603416110E+01 0.33568732776E+01 0.37078416110E+01 0.40898505219E+01 0.44628297058E+01
 0.47777838442E+01 0.49885170075E+01 0.50626178782E+01 0.49885202519E+01 0.47777957075E+01
 0.44628230382E+01 0.50145321252E+01 0.43783741226E+01 0.38158326102E+01 0.33515838221E+01
 0.29875000585E+01 0.27162508353E+01 0.25331882929E+01 0.24398878719E+01 0.24398636585E+01
 0.25331435492E+01 0.27162215593E+01 0.29874822981E+01 0.33515754005E+01 0.38158639365E+01
 0.43784455411E+01 0.50145772228E+01 0.56705051439E+01 0.62695448621E+01 0.67284777699E+01
 0.69776353161E+01 0.69776484270E+01 0.67285269738E+01 0.62696171477E+01 0.56705369242E+01
 0.58399952521E+01 0.49143806162E+01 0.41333852896E+01 0.35134958006E+01 0.30457931741E+01
 0.27162334426E+01 0.25179364963E+01 0.24513693185E+01 0.25179198863E+01 0.27162215593E+01
 0.30457816706E+01 0.35134644763E+01 0.41333508372E+01 0.49143779848E+01 0.58400085798E+01
 0.68516424819E+01 0.78466968822E+01 0.86947912492E+01 0.92671705639E+01 0.94695051404E+01
 0.92672021550E+01 0.86948590096E+01 0.78467672141E+01 0.68516669220E+01 0.64172020425E+01
 0.52139970209E+01 0.42472283653E+01 0.35135372702E+01 0.29875021171E+01 0.26456372579E+01
 0.24761977755E+01 0.24762157400E+01 0.26456621780E+01 0.29874822981E+01 0.35134644763E+01
 0.42471517175E+01 0.52139563812E+01 0.64171696527E+01 0.78100815310E+01 0.92794929969E+01
 0.10651777908E+02 0.11724112370E+02 0.12314425614E+02 0.12314402056E+02 0.11724089813E+02
 0.10651824082E+02 0.92795894885E+01 0.78101552273E+01 0.66251865895E+01 0.52139940851E+01
 0.41334413308E+01 0.33516701034E+01 0.28246713447E+01 0.25193322898E+01 0.24190499543E+01
 0.25193249050E+01 0.28246224629E+01 0.33515754005E+01 0.41333508372E+01 0.52139563812E+01
 0.66251930457E+01 0.83509573888E+01 0.10293962477E+02 0.12261772903E+02 0.13985001986E+02
 0.15173181099E+02 0.15598015888E+02 0.15173230315E+02 0.13985080073E+02 0.12261846816E+02
 0.10294001463E+02 0.83509562106E+01 0.64171737892E+01 0.49144069610E+01 0.38159303490E+01
 0.30604438714E+01 0.25887919358E+01 0.23617926509E+01 0.23617548314E+01 0.25886974070E+01
 0.30603416110E+01 0.38158639365E+01 0.49143779848E+01 0.64171696527E+01 0.83509573888E+01
 0.10661977606E+02 0.13178365025E+02 0.15601044830E+02 0.17533808164E+02 0.18597767733E+02
 0.18597878641E+02 0.17534014434E+02 0.15601135540E+02 0.13178299509E+02 0.10661877567E+02
 0.83509142360E+01 0.58399698778E+01 0.43784839616E+01 0.33569734096E+01 0.26927058535E+01
 0.23197320509E+01 0.21994923895E+01 0.23197243279E+01 0.26926388446E+01 0.33568732776E+01
 0.43784455411E+01 0.58400085798E+01 0.78100815310E+01 0.10293962477E+02 0.13178365025E+02
 0.16190013696E+02 0.18866040492E+02 0.20683570469E+02 0.21322718182E+02 0.20683612835E+02
 0.18866054304E+02 0.16189985109E+02 0.13178344951E+02 0.10293953119E+02 0.78100423620E+01
 0.50145488369E+01 0.37079592896E+01 0.28346516951E+01 0.23042581614E+01 0.20542996461E+01
 0.20543613753E+01 0.23043189895E+01 0.28345686067E+01 0.37078416110E+01 0.50145772228E+01
 0.68516424819E+01 0.92794929969E+01 0.12261772903E+02 0.15601044830E+02 0.18866040492E+02
 0.21427487776E+02 0.22817433222E+02 0.22817367587E+02 0.21427352048E+02 0.18865977583E+02
 0.15601136885E+02 0.12261910363E+02 0.92794952773E+01 0.68515282948E+01 0.40898721271E+01
 0.30083233417E+01 0.23197384452E+01 0.19401478117E+01 0.18191277245E+01 0.19401803944E+01
 0.23197023028E+01 0.30082314081E+01 0.40898505219E+01 0.56705051439E+01 0.78466968822E+01
 0.10651777908E+02 0.13985001986E+02 0.17533808164E+02 0.20683570469E+02 0.22817433222E+02
 0.23567508301E+02 0.22817536033E+02 0.20683643938E+02 0.17533812862E+02 0.13985015858E+02
 0.10651805008E+02 0.78466629548E+01 0.56704419097E+01 0.31962553544E+01 0.23617870513E+01
 0.18619230784E+01 0.16287880532E+01 0.16287710055E+01 0.18618614663E+01 0.23617034610E+01
 0.31962173179E+01 0.44628297058E+01 0.62695448621E+01 0.86947912492E+01 0.11724112370E+02
 0.15173181099E+02 0.18597767733E+02 0.21322718182E+02 0.22817367587E+02 0.22817536033E+02
 0.21322996689E+02 0.18597816203E+02 0.15173012822E+02 0.11723979223E+02 0.86947807807E+01
 0.62695541884E+01 0.44628220502E+01 0.24190951883E+01 0.18166971554E+01 0.14871939996E+01
 0.13826808143E+01 0.14872282742E+01 0.18166614959E+01 0.24189881056E+01 0.33728573930E+01
 0.47777838442E+01 0.67284777699E+01 0.92671705639E+01 0.12314425614E+02 0.15598015888E+02
 0.18597878641E+02 0.20683612835E+02 0.21427352048E+02 0.20683643938E+02 0.18597816203E+02
 0.15597855634E+02 0.12314308252E+02 0.92671509616E+01 0.67284787901E+01 0.47777864185E+01
 0.33729256840E+01 0.17965697013E+01 0.13907897711E+01 0.12022392570E+01 0.12023013217E+01
 0.13908665228E+01 0.17965241785E+01 0.24761612019E+01 0.35103310221E+01 0.49885170075E+01
 0.69776353161E+01 0.94695051404E+01 0.12314402056E+02 0.15173230315E+02 0.17534014434E+02
 0.18866054304E+02 0.18865977583E+02 0.17533812862E+02 0.15173012822E+02 0.12314308252E+02
 0.94695456247E+01 0.69776827416E+01 0.49885154286E+01 0.35103690049E+01 0.24762667518E+01
 0.13317209541E+01 0.10806278184E+01 0.10010718498E+01 0.10806575122E+01 0.13317228225E+01
 0.17911144125E+01 0.25179313176E+01 0.35855499385E+01 0.50626178782E+01 0.69776484270E+01
 0.92672021550E+01 0.11724089813E+02 0.13985080073E+02 0.15601135540E+02 0.16189985109E+02
 0.15601136885E+02 0.13985015858E+02 0.11723979223E+02 0.92671509616E+01 0.69776827416E+01
 0.50626563310E+01 0.35855528090E+01 0.25179420652E+01 0.17911427000E+01 0.10076631556E+01
 0.87141092518E+00 0.87140480111E+00 0.10076401247E+01 0.13008568780E+01 0.17911139013E+01
 0.25331908673E+01 0.35855625745E+01 0.49885202519E+01 0.67285269738E+01 0.86948590096E+01
 0.10651824082E+02 0.12261846816E+02 0.13178299509E+02 0.13178344951E+02 0.12261910363E+02
 0.10651805008E+02 0.86947807807E+01 0.67284787901E+01 0.49885154286E+01 0.35855528090E+01
 0.25331709206E+01 0.17911186793E+01 0.13008864341E+01 0.80009459393E+00 0.74503917196E+00
 0.80011932595E+00 0.97391047185E+00 0.12914186497E+01 0.17910764737E+01 0.25179110074E+01
 0.35103504271E+01 0.47777957075E+01 0.62696171477E+01 0.78467672141E+01 0.92795894885E+01
 0.10294001463E+02 0.10661877567E+02 0.10293953119E+02 0.92794952773E+01 0.78466629548E+01
 0.62695541884E+01 0.47777864185E+01 0.35103690049E+01 0.25179420652E+01 0.17911186793E+01
 0.12914500689E+01 0.97390469008E+00 0.68613122426E+00 0.68616031697E+00 0.77753810225E+00
 0.97394000800E+00 0.13008586815E+01 0.17910519683E+01 0.24761487093E+01 0.33728399813E+01
 0.44628230382E+01 0.56705369242E+01 0.68516669220E+01 0.78101552273E+01 0.83509562106E+01
 0.83509142360E+01 0.78100423620E+01 0.68515282948E+01 0.56704419097E+01 0.44628220502E+01
 0.33729256840E+01 0.24762667518E+01 0.17911427000E+01 0.13008864341E+01 0.97390469008E+00
 0.77747804090E+00 0.68614301481E+00 0.74501979785E+00 0.87142823970E+00 0.10806928907E+01
 0.13908691428E+01 0.18167288517E+01 0.23617201864E+01 0.30081661412E+01 0.37077902833E+01
 0.43783882702E+01 0.49143918609E+01 0.52139931811E+01 0.52139680849E+01 0.49143667239E+01
 0.43784439228E+01 0.37079295628E+01 0.30083112200E+01 0.23617981845E+01 0.18167271121E+01
 0.13908225049E+01 0.10806501339E+01 0.87142249828E+00 0.74504422873E+00 0.68615882323E+00
 0.74501979785E+00 0.81142965498E+00 0.93332256344E+00 0.11242374410E+01 0.13968575810E+01
 0.17574217512E+01 0.21993798341E+01 0.26970753842E+01 0.32018486973E+01 0.36449931977E+01
 0.39512626538E+01 0.40609759678E+01 0.39513185521E+01 0.36451502802E+01 0.32020893339E+01
 0.26972822398E+01 0.21994433001E+01 0.17573485833E+01 0.13967451129E+01 0.11241677134E+01
 0.93330863167E+00 0.81144280568E+00 0.74503241365E+00 0.72410345252E+00 0.87142823970E+00
 0.93332256344E+00 0.10395468863E+01 0.12012897144E+01 0.14263789232E+01 0.17147767585E+01
 0.20542746675E+01 0.24173015551E+01 0.27609179659E+01 0.30327512861E+01 0.31837246205E+01
 0.31837740533E+01 0.30328882324E+01 0.27610961225E+01 0.24174406407E+01 0.20543114957E+01
 0.17147168947E+01 0.14262818037E+01 0.12012087127E+01 0.10394975191E+01 0.93329703386E+00
 0.87141688936E+00 0.84353103932E+00 0.84353409570E+00 0.10806928907E+01 0.11242374410E+01
 0.12012897144E+01 0.13211615678E+01 0.14883437124E+01 0.16993313673E+01 0.19401809482E+01
 0.21856120420E+01 0.24012156894E+01 0.25501513332E+01 0.26035098467E+01 0.25502433821E+01
 0.24013270731E+01 0.21856551147E+01 0.19401267127E+01 0.16992311618E+01 0.14882721347E+01
 0.13211425797E+01 0.12012889289E+01 0.11242171212E+01 0.10806534947E+01 0.10600735626E+01
 0.10542600537E+01 0.10601045260E+01 0.13908691428E+01 0.13968575810E+01 0.14263789232E+01
 0.14883437124E+01 0.15859476379E+01 0.17147826504E+01 0.18619357132E+01 0.20066722796E+01
 0.21237158991E+01 0.21894675216E+01 0.21894947670E+01 0.21237790781E+01 0.20067225014E+01
 0.18619241374E+01 0.17147058126E+01 0.15858564116E+01 0.14882941175E+01 0.14263816552E+01
 0.13968843233E+01 0.13908929334E+01 0.13965947268E+01 0.14028408957E+01 0.14028367682E+01
 0.13965814766E+01 0.18167288517E+01 0.17574217512E+01 0.17147767585E+01 0.16993313673E+01
 0.17147826504E+01 0.17574217512E+01 0.18167229597E+01 0.18772829714E+01 0.19224393787E+01
 0.19391558039E+01 0.19224748959E+01 0.18773383642E+01 0.18167652767E+01 0.17574229758E+01
 0.17147483171E+01 0.16992918567E+01 0.17147542091E+01 0.17574229758E+01 0.18167593847E+01
 0.18773383642E+01 0.19224807878E+01 0.19391558039E+01 0.19224334867E+01 0.18772829714E+01
 0.23617201864E+01 0.21993798341E+01 0.20542746675E+01 0.19401809482E+01 0.18619357132E+01
 0.18167229597E+01 0.17965076781E+01 0.17910504746E+01 0.17910874224E+01 0.17911254744E+01
 0.17911308360E+01 0.17965569123E+01 0.18166973445E+01 0.18618725995E+01 0.19401623807E+01
 0.20543316485E+01 0.21994582426E+01 0.23617524137E+01 0.25193003977E+01 0.26456334181E+01
 0.27162505793E+01 0.27162649828E+01 0.26456675425E+01 0.25193213250E+01 0.30081661412E+01
 0.26970753842E+01 0.24173015551E+01 0.21856120420E+01 0.20066722796E+01 0.18772829714E+01
 0.17910504746E+01 0.17419331252E+01 0.17260241674E+01 0.17419901073E+01 0.17910903880E+01
 0.18772349050E+01 0.20065585486E+01 0.21855474779E+01 0.24173750805E+01 0.26972406997E+01
 0.30082818156E+01 0.33199361947E+01 0.35907007339E+01 0.37764351619E+01 0.38427442667E+01
 0.37765408905E+01 0.35908240054E+01 0.33199604970E+01 0.37077902833E+01 0.32018486973E+01
 0.27609179659E+01 0.24012156894E+01 0.21237158991E+01 0.19224393787E+01 0.17910874224E+01
 0.17260241674E+01 0.17260140032E+01 0.17910407192E+01 0.19223429578E+01 0.21236152990E+01
 0.24012004258E+01 0.27610281470E+01 0.32020113944E+01 0.37078797503E+01 0.42407999321E+01
 0.47407366422E+01 0.51340719308E+01 0.53518467686E+01 0.53518822920E+01 0.51341696539E+01
 0.47408493059E+01 0.42408388998E+01 0.43783882702E+01 0.36449931977E+01 0.30327512861E+01
 0.25501513332E+01 0.21894675216E+01 0.19391558039E+01 0.17911254744E+01 0.17419901073E+01
 0.17910407192E+01 0.19389939614E+01 0.21893172571E+01 0.25501553805E+01 0.30329456782E+01
 0.36452228614E+01 0.43784509116E+01 0.51947376678E+01 0.60184726818E+01 0.67403253546E+01
 0.72390315170E+01 0.74176694007E+01 0.72390394265E+01 0.67404215298E+01 0.60186624044E+01
 0.51948765497E+01 0.49143918609E+01 0.39512626538E+01 0.31837246205E+01 0.26035098467E+01
 0.21894947670E+01 0.19224748959E+01 0.17911308360E+01 0.17910903880E+01 0.19223429578E+01
 0.21893172571E+01 0.26034450246E+01 0.31838824775E+01 0.39515196661E+01 0.49144878386E+01
 0.60476317662E+01 0.72725105001E+01 0.84490588400E+01 0.93924862589E+01 0.99212412539E+01
 0.99212252051E+01 0.93925117897E+01 0.84492361105E+01 0.72727926140E+01 0.60478025646E+01
 0.52139931811E+01 0.40609759678E+01 0.31837740533E+01 0.25502433821E+01 0.21237790781E+01
 0.18773383642E+01 0.17965569123E+01 0.18772349050E+01 0.21236152990E+01 0.25501553805E+01
 0.31838824775E+01 0.40611932795E+01 0.52140718758E+01 0.66448036278E+01 0.82935352865E+01
 0.10010674381E+02 0.11555628147E+02 0.12643428661E+02 0.13036969923E+02 0.12643404187E+02
 0.11555673268E+02 0.10010877188E+02 0.82938338342E+01 0.66449840127E+01 0.52139680849E+01
 0.39513185521E+01 0.30328882324E+01 0.24013270731E+01 0.20067225014E+01 0.18167652767E+01
 0.18166973445E+01 0.20065585486E+01 0.24012004258E+01 0.30329456782E+01 0.39515196661E+01
 0.52140718758E+01 0.68601270003E+01 0.88709070911E+01 0.11121251510E+02 0.13348417928E+02
 0.15175801887E+02 0.16214888051E+02 0.16214877958E+02 0.15175775745E+02 0.13348435987E+02
 0.11121412145E+02 0.88711692212E+01 0.68602718544E+01 0.49143667239E+01 0.36451502802E+01
 0.27610961225E+01 0.21856551147E+01 0.18619241374E+01 0.17574229758E+01 0.18618725995E+01
 0.21855474779E+01 0.27610281470E+01 0.36452228614E+01 0.49144878386E+01 0.66448036278E+01
 0.88709070911E+01 0.11524975626E+02 0.14373622438E+02 0.16999352428E+02 0.18879430680E+02
 0.19565481223E+02 0.18879412669E+02 0.16999286980E+02 0.14373585498E+02 0.11525072362E+02
 0.88710588313E+01 0.66448218190E+01 0.43784439228E+01 0.32020893339E+01 0.24174406407E+01
 0.19401267127E+01 0.17147058126E+01 0.17147483171E+01 0.19401623807E+01 0.24173750805E+01
 0.32020113944E+01 0.43784509116E+01 0.60476317662E+01 0.82935352865E+01 0.11121251510E+02
 0.14373622438E+02 0.17666552462E+02 0.20414236794E+02 0.21991314531E+02 0.21991310863E+02
 0.20414177993E+02 0.17666426623E+02 0.14373554710E+02 0.11121312851E+02 0.82936092158E+01
 0.60476211276E+01 0.37079295628E+01 0.26972822398E+01 0.20543114957E+01 0.16992311618E+01
 0.15858564116E+01 0.16992918567E+01 0.20543316485E+01 0.26972406997E+01 0.37078797503E+01
 0.51947376678E+01 0.72725105001E+01 0.10010674381E+02 0.13348417928E+02 0.16999352428E+02
 0.20414236794E+02 0.22879156203E+02 0.23778880830E+02 0.22879268303E+02 0.20414238893E+02
 0.16999199255E+02 0.13348324816E+02 0.10010762495E+02 0.72726542578E+01 0.51948181628E+01
 0.30083112200E+01 0.21994433001E+01 0.17147168947E+01 0.14882721347E+01 0.14882941175E+01
 0.17147542091E+01 0.21994582426E+01 0.30082818156E+01 0.42407999321E+01 0.60184726818E+01
 0.84490588400E+01 0.11555628147E+02 0.15175801887E+02 0.18879430680E+02 0.21991314531E+02
 0.23778880830E+02 0.23779098851E+02 0.21991669242E+02 0.18879473365E+02 0.15175567353E+02
 0.11555501896E+02 0.84491999209E+01 0.60186953259E+01 0.42409247888E+01 0.23617981845E+01
 0.17573485833E+01 0.14262818037E+01 0.13211425797E+01 0.14263816552E+01 0.17574229758E+01
 0.23617524137E+01 0.33199361947E+01 0.47407366422E+01 0.67403253546E+01 0.93924862589E+01
 0.12643428661E+02 0.16214888051E+02 0.19565481223E+02 0.21991310863E+02 0.22879268303E+02
 0.21991669242E+02 0.19565742180E+02 0.16214776057E+02 0.12643164657E+02 0.93924086272E+01
 0.67404837806E+01 0.47409667841E+01 0.33201028456E+01 0.18167271121E+01 0.13967451129E+01
 0.12012087127E+01 0.12012889289E+01 0.13968843233E+01 0.18167593847E+01 0.25193003977E+01
 0.35907007339E+01 0.51340719308E+01 0.72390315170E+01 0.99212412539E+01 0.13036969923E+02
 0.16214877958E+02 0.18879412669E+02 0.20414177993E+02 0.20414238893E+02 0.18879473365E+02
 0.16214776057E+02 0.13036771375E+02 0.99211475285E+01 0.72391189433E+01 0.51342617541E+01
 0.35908941277E+01 0.25194149915E+01 0.13908225049E+01 0.11241677134E+01 0.10394975191E+01
 0.11242171212E+01 0.13908929334E+01 0.18773383642E+01 0.26456334181E+01 0.37764351619E+01
 0.53518467686E+01 0.74176694007E+01 0.99212252051E+01 0.12643404187E+02 0.15175775745E+02
 0.16999286980E+02 0.17666426623E+02 0.16999199255E+02 0.15175567353E+02 0.12643164657E+02
 0.99211475285E+01 0.74178212830E+01 0.53520817900E+01 0.37765765443E+01 0.26456448880E+01
 0.18772816090E+01 0.10806501339E+01 0.93330863167E+00 0.93329703386E+00 0.10806534947E+01
 0.13965947268E+01 0.19224807878E+01 0.27162505793E+01 0.38427442667E+01 0.53518822920E+01
 0.72390394265E+01 0.93925117897E+01 0.11555673268E+02 0.13348435987E+02 0.14373585498E+02
 0.14373554710E+02 0.13348324816E+02 0.11555501896E+02 0.93924086272E+01 0.72391189433E+01
 0.53520817900E+01 0.38428777771E+01 0.27162211592E+01 0.19223659410E+01 0.13965200442E+01
 0.87142249828E+00 0.81144280568E+00 0.87141688936E+00 0.10600735626E+01 0.14028408957E+01
 0.19391558039E+01 0.27162649828E+01 0.37765408905E+01 0.51341696539E+01 0.67404215298E+01
 0.84492361105E+01 0.10010877188E+02 0.11121412145E+02 0.11525072362E+02 0.11121312851E+02
 0.10010762495E+02 0.84491999209E+01 0.67404837806E+01 0.51342617541E+01 0.37765765443E+01
 0.27162211592E+01 0.19390796945E+01 0.14027891315E+01 0.10600613353E+01 0.74504422873E+00
 0.74503241365E+00 0.84353103932E+00 0.10542600537E+01 0.14028367682E+01 0.19224334867E+01
 0.26456675425E+01 0.35908240054E+01 0.47408493059E+01 0.60186624044E+01 0.72727926140E+01
 0.82938338342E+01 0.88711692212E+01 0.88710588313E+01 0.82936092158E+01 0.72726542578E+01
 0.60186953259E+01 0.47409667841E+01 0.35908941277E+01 0.26456448880E+01 0.19223659410E+01
 0.14027891315E+01 0.10542561211E+01 0.84355136044E+00 0.68615882323E+00 0.72410345252E+00
 0.84353409570E+00 0.10601045260E+01 0.13965814766E+01 0.18772829714E+01 0.25193213250E+01
 0.33199604970E+01 0.42408388998E+01 0.51948765497E+01 0.60478025646E+01 0.66449840127E+01
 0.68602718544E+01 0.66448218190E+01 0.60476211276E+01 0.51948181628E+01 0.42409247888E+01
 0.33201028456E+01 0.25194149915E+01 0.18772816090E+01 0.13965200442E+01 0.10600613353E+01
 0.84355136044E+00 0.72414357087E+00 0.80011736384E+00 0.87142134295E+00 0.10011058581E+01
 0.12022745764E+01 0.14872191804E+01 0.18619347084E+01 0.23197225851E+01 0.28345899561E+01
 0.33568750754E+01 0.38158332579E+01 0.41333738113E+01 0.42471937186E+01 0.41333857815E+01
 0.38158770518E+01 0.33569450849E+01 0.28346536219E+01 0.23197667699E+01 0.18619725220E+01
 0.14872495489E+01 0.12022777574E+01 0.10010833281E+01 0.87140029979E+00 0.80011116550E+00
 0.77752673977E+00 0.87142134295E+00 0.93332060049E+00 0.10395490948E+01 0.12012919072E+01
 0.14263802528E+01 0.17147806875E+01 0.20542812487E+01 0.24173049757E+01 0.27609133167E+01
 0.30327377862E+01 0.31837018976E+01 0.31837432464E+01 0.30328586833E+01 0.27610830625E+01
 0.24174523550E+01 0.20543431493E+01 0.17147573411E+01 0.14263201140E+01 0.12012343053E+01
 0.10395032858E+01 0.93328619671E+00 0.87140081495E+00 0.84351782211E+00 0.84352422697E+00
 0.10011058581E+01 0.10395490948E+01 0.11102224417E+01 0.12229510140E+01 0.13826224000E+01
 0.15859439544E+01 0.18190999360E+01 0.20571121627E+01 0.22662570547E+01 0.24106859000E+01
 0.24624066689E+01 0.24107629917E+01 0.22663782838E+01 0.20572215680E+01 0.18191478826E+01
 0.15859169113E+01 0.13825411495E+01 0.12228453630E+01 0.11101180837E+01 0.10394694132E+01
 0.10010641398E+01 0.98382689654E+00 0.97916042640E+00 0.98383905554E+00 0.12022745764E+01
 0.12012919072E+01 0.12229510140E+01 0.12768883612E+01 0.13667681814E+01 0.14883459052E+01
 0.16287522804E+01 0.17674923490E+01 0.18798745215E+01 0.19430391257E+01 0.19430614698E+01
 0.18799191026E+01 0.17675117447E+01 0.16287164286E+01 0.14882663079E+01 0.13666789018E+01
 0.12768089690E+01 0.12228788707E+01 0.12012261959E+01 0.12022277105E+01 0.12132324271E+01
 0.12223501589E+01 0.12223543295E+01 0.12132531960E+01 0.14872191804E+01 0.14263802528E+01
 0.13826224000E+01 0.13667681814E+01 0.13826274131E+01 0.14263861448E+01 0.14872267663E+01
 0.15493487364E+01 0.15956686124E+01 0.16128063545E+01 0.15956693755E+01 0.15493421922E+01
 0.14871952359E+01 0.14263157317E+01 0.13825283573E+01 0.13666734249E+01 0.13825629814E+01
 0.14263671021E+01 0.14872444857E+01 0.15493787658E+01 0.15956871532E+01 0.16128037800E+01
 0.15956541525E+01 0.15493354471E+01 0.18619347084E+01 0.17147806875E+01 0.15859439544E+01
 0.14883459052E+01 0.14263861448E+01 0.13968615100E+01 0.13908698320E+01 0.13965848971E+01
 0.14028380109E+01 0.14028273958E+01 0.13965661119E+01 0.13908621265E+01 0.13968606661E+01
 0.14263685951E+01 0.14882999397E+01 0.15858880652E+01 0.17147521510E+01 0.18619624477E+01
 0.20067422021E+01 0.21237848447E+01 0.21894898218E+01 0.21894514472E+01 0.21236967899E+01
 0.20066624109E+01 0.23197225851E+01 0.20542812487E+01 0.18190999360E+01 0.16287522804E+01
 0.14872267663E+01 0.13908698320E+01 0.13317231238E+01 0.13008606083E+01 0.12914249492E+01
 0.13008549511E+01 0.13317165230E+01 0.13908684496E+01 0.14872345737E+01 0.16287690787E+01
 0.18191214250E+01 0.20543015729E+01 0.23197383504E+01 0.25887900089E+01 0.28246650452E+01
 0.29875040439E+01 0.30457994736E+01 0.29874981317E+01 0.28246556445E+01 0.25887781896E+01
 0.28345899561E+01 0.24173049757E+01 0.20571121627E+01 0.17674923490E+01 0.15493487364E+01
 0.13965848971E+01 0.13008606083E+01 0.12550040952E+01 0.12550036068E+01 0.13008543926E+01
 0.13965701150E+01 0.15493374674E+01 0.17675024474E+01 0.20571506124E+01 0.24173628337E+01
 0.28346417545E+01 0.32778928169E+01 0.36969957414E+01 0.40290217497E+01 0.42137469217E+01
 0.42137875938E+01 0.40291054494E+01 0.36970504337E+01 0.32778844041E+01 0.33568750754E+01
 0.27609133167E+01 0.22662570547E+01 0.18798745215E+01 0.15956686124E+01 0.14028380109E+01
 0.12914249492E+01 0.12550036068E+01 0.12914084468E+01 0.14028011340E+01 0.15956410240E+01
 0.18798992806E+01 0.22663247081E+01 0.27609648214E+01 0.33568766601E+01 0.40241460228E+01
 0.47019827821E+01 0.53000129257E+01 0.57154773584E+01 0.58647829156E+01 0.57155087525E+01
 0.53000529202E+01 0.47020196105E+01 0.40241755582E+01 0.38158332579E+01 0.30327377862E+01
 0.24106859000E+01 0.19430391257E+01 0.16128063545E+01 0.14028273958E+01 0.13008549511E+01
 0.13008543926E+01 0.14028011340E+01 0.16127520029E+01 0.19430347285E+01 0.24107797432E+01
 0.30328438583E+01 0.38158322390E+01 0.47410001195E+01 0.57470092557E+01 0.67199783135E+01
 0.75050394859E+01 0.79469234773E+01 0.79469151188E+01 0.75050295258E+01 0.67200094457E+01
 0.57471064416E+01 0.47411020705E+01 0.41333738113E+01 0.31837018976E+01 0.24624066689E+01
 0.19430614698E+01 0.15956693755E+01 0.13965661119E+01 0.13317165230E+01 0.13965701150E+01
 0.15956410240E+01 0.19430347285E+01 0.24624535285E+01 0.31837892762E+01 0.41333877416E+01
 0.53155548634E+01 0.66855082592E+01 0.81225587676E+01 0.94245598278E+01 0.10346205860E+02
 0.10680626502E+02 0.10346269735E+02 0.94246268846E+01 0.81226220643E+01 0.66856022657E+01
 0.53156375232E+01 0.42471937186E+01 0.31837432464E+01 0.24107629917E+01 0.18799191026E+01
 0.15493421922E+01 0.13908621265E+01 0.13908684496E+01 0.15493374674E+01 0.18798992806E+01
 0.24107797432E+01 0.31837892762E+01 0.42471723480E+01 0.56373144787E+01 0.73451241956E+01
 0.92711362426E+01 0.11192205418E+02 0.12778391645E+02 0.13683946358E+02 0.13684014407E+02
 0.12778495792E+02 0.11192223621E+02 0.92711296591E+01 0.73452011616E+01 0.56374220080E+01
 0.41333857815E+01 0.30328586833E+01 0.22663782838E+01 0.17675117447E+01 0.14871952359E+01
 0.13968606661E+01 0.14872345737E+01 0.17675024474E+01 0.22663247081E+01 0.30328438583E+01
 0.41333877416E+01 0.56373144787E+01 0.75834521504E+01 0.99231351807E+01 0.12456414230E+02
 0.14808663072E+02 0.16501399581E+02 0.17120634299E+02 0.16501389824E+02 0.14808573236E+02
 0.12456295443E+02 0.99231298875E+01 0.75835587855E+01 0.56373887834E+01 0.38158770518E+01
 0.27610830625E+01 0.20572215680E+01 0.16287164286E+01 0.14263157317E+01 0.14263685951E+01
 0.16287690787E+01 0.20571506124E+01 0.27609648214E+01 0.38158322390E+01 0.53155548634E+01
 0.73451241956E+01 0.99231351807E+01 0.12917308262E+02 0.15974769494E+02 0.18541765233E+02
 0.20021708219E+02 0.20021651132E+02 0.18541583495E+02 0.15974520063E+02 0.12917151259E+02
 0.99231411930E+01 0.73451790865E+01 0.53155688344E+01 0.33569450849E+01 0.24174523550E+01
 0.18191478826E+01 0.14882663079E+01 0.13825283573E+01 0.14882999397E+01 0.18191214250E+01
 0.24173628337E+01 0.33568766601E+01 0.47410001195E+01 0.66855082592E+01 0.92711362426E+01
 0.12456414230E+02 0.15974769494E+02 0.19290331191E+02 0.21699254954E+02 0.22584584330E+02
 0.21699171685E+02 0.19290109013E+02 0.15974496030E+02 0.12456283271E+02 0.92711849545E+01
 0.66855944281E+01 0.47410492162E+01 0.28346536219E+01 0.20543431493E+01 0.15859169113E+01
 0.13666789018E+01 0.13666734249E+01 0.15858880652E+01 0.20543015729E+01 0.28346417545E+01
 0.40241460228E+01 0.57470092557E+01 0.81225587676E+01 0.11192205418E+02 0.14808663072E+02
 0.18541765233E+02 0.21699254954E+02 0.23527399985E+02 0.23527414980E+02 0.21699219869E+02
 0.18541614982E+02 0.14808533261E+02 0.11192253746E+02 0.81227215795E+01 0.57471124007E+01
 0.40241579840E+01 0.23197667699E+01 0.17147573411E+01 0.13825411495E+01 0.12768089690E+01
 0.13825629814E+01 0.17147521510E+01 0.23197383504E+01 0.32778928169E+01 0.47019827821E+01
 0.67199783135E+01 0.94245598278E+01 0.12778391645E+02 0.16501399581E+02 0.20021708219E+02
 0.22584584330E+02 0.23527414980E+02 0.22584654206E+02 0.20021774538E+02 0.16501455716E+02
 0.12778499724E+02 0.94247081999E+01 0.67200748767E+01 0.47020024403E+01 0.32779027608E+01
 0.18619725220E+01 0.14263201140E+01 0.12228453630E+01 0.12228788707E+01 0.14263671021E+01
 0.18619624477E+01 0.25887900089E+01 0.36969957414E+01 0.53000129257E+01 0.75050394859E+01
 0.10346205860E+02 0.13683946358E+02 0.17120634299E+02 0.20021651132E+02 0.21699171685E+02
 0.21699219869E+02 0.20021774538E+02 0.17120796105E+02 0.13684117074E+02 0.10346343125E+02
 0.75051006990E+01 0.53000167980E+01 0.36970113153E+01 0.25888333443E+01 0.14872495489E+01
 0.12012343053E+01 0.11101180837E+01 0.12012261959E+01 0.14872444857E+01 0.20067422021E+01
 0.28246650452E+01 0.40290217497E+01 0.57154773584E+01 0.79469234773E+01 0.10680626502E+02
 0.13684014407E+02 0.16501389824E+02 0.18541583495E+02 0.19290109013E+02 0.18541614982E+02
 0.16501455716E+02 0.13684117074E+02 0.10680751111E+02 0.79470289739E+01 0.57155240608E+01
 0.40290108570E+01 0.28246358124E+01 0.20067288421E+01 0.12022777574E+01 0.10395032858E+01
 0.10394694132E+01 0.12022277105E+01 0.15493787658E+01 0.21237848447E+01 0.29875040439E+01
 0.42137469217E+01 0.58647829156E+01 0.79469151188E+01 0.10346269735E+02 0.12778495792E+02
 0.14808573236E+02 0.15974520063E+02 0.15974496030E+02 0.14808533261E+02 0.12778499724E+02
 0.10346343125E+02 0.79470289739E+01 0.58648756080E+01 0.42137621136E+01 0.29874371106E+01