    2    2   15    1
  0.2001288E+02  0.3839590E-09  0.3839590E-09  0.3839590E-09  0.5000000E-15
  1.000000000000000E-004
  CAR 
 unknown system                          
      8      4      8
 
  0.0000000E+00  0.0000000E+00  0.0000000E+00  0.3703704E-01
    1       -6.049702   1.000000
    2        5.982406   0.991633
    3        5.982406   0.991633
    4        5.982714   0.991584
    5        8.517264   0.000000
    6        8.517264   0.000000
    7        8.517470   0.000000
    8        9.311612   0.000000
 
  0.3333333E+00  0.6723763E-17  0.1473614E-18  0.2962963E+00
    1       -4.667545   1.000000
    2        0.591506   1.000000
    3        4.951136   1.000000
    4        4.951372   1.000000
    5        7.742597   0.000000
    6        9.495297   0.000000
    7        9.495699   0.000000
    8       13.825242   0.000000
 
  0.3333333E+00  0.3333333E+00  0.1682863E-16  0.2222222E+00
    1       -4.138839   1.000000
    2        0.931182   1.000000
    3        3.509532   1.000000
    4        3.509669   1.000000
    5        6.693579   0.004192
    6        7.958234   0.000000
    7       13.309253   0.000000
    8       13.309516   0.000000
 
 -0.3333333E+00  0.3333333E+00  0.1344753E-16  0.4444444E+00
    1       -2.770753   1.000000
    2       -0.841557   1.000000
    3        1.498653   1.000000
    4        3.817756   1.000000
    5        7.534630   0.000000
    6       11.856016   0.000000
    7       12.483530   0.000000
    8       13.106191   0.000000
