<?xml version="1.0" encoding="ISO-8859-1"?>
<modeling>
 <generator>
  <i name="program" type="string">vasp </i>
  <i name="version" type="string">5.4.4.18Apr17-6-g9f103f2a35  </i>
  <i name="subversion" type="string">(build Dec 09 2018 21:25:21) complex            parallel </i>
  <i name="platform" type="string">IFC18.0.1.163_CrayMPICH7.7.0_MKL18.0.1.163 </i>
  <i name="date" type="string">2019 03 18 </i>
  <i name="time" type="string">04:48:54 </i>
 </generator>
 <incar>
  <i type="string" name="PREC">normal</i>
  <i type="int" name="IBRION">     2</i>
  <i name="EDIFF">      0.00040000</i>
  <i name="EDIFFG">     -0.01000000</i>
  <i type="int" name="NSW">    15</i>
  <i type="int" name="ISIF">     2</i>
  <i name="ENCUT">    150.00000000</i>
  <i type="int" name="NBANDS">     8</i>
  <i type="logical" name="LREAL"> F  </i>
  <i type="int" name="ISMEAR">     0</i>
  <i name="SIGMA">      0.20000000</i>
  <v type="int" name="KPOINT_BSE">    -1     0     0     0</v>
 </incar>
 <structure name="primitive_cell" >
  <crystal>
   <varray name="basis" >
    <v>       0.00000000       2.71500000       2.71500000 </v>
    <v>       2.71500000       0.00000000       2.71500000 </v>
    <v>       2.71500000       2.71500000       0.00000000 </v>
   </varray>
   <i name="volume">     40.02575175 </i>
   <varray name="rec_basis" >
    <v>      -0.18416206       0.18416206       0.18416206 </v>
    <v>       0.18416206      -0.18416206       0.18416206 </v>
    <v>       0.18416206       0.18416206      -0.18416206 </v>
   </varray>
  </crystal>
  <varray name="positions" >
   <v>      -0.50000000      -0.50000000      -0.50000000 </v>
   <v>      -0.25000000      -0.25000000      -0.25000000 </v>
  </varray>
 </structure>
 <varray name="primitive_index" >
  <v type="int" >        1 </v>
  <v type="int" >        2 </v>
 </varray>
 <kpoints>
  <generation param="Monkhorst-Pack">
   <v type="int" name="divisions">       3        3        3 </v>
   <v name="usershift">      0.00000000       0.00000000       0.00000000 </v>
   <v name="genvec1">      0.33333333      -0.00000000       0.00000000 </v>
   <v name="genvec2">     -0.00000000       0.33333333      -0.00000000 </v>
   <v name="genvec3">      0.00000000       0.00000000       0.33333333 </v>
   <v name="shift">      0.00000000       0.00000000       0.00000000 </v>
  </generation>
  <varray name="kpointlist" >
   <v>       0.00000000       0.00000000       0.00000000 </v>
   <v>       0.33333333       0.00000000       0.00000000 </v>
   <v>       0.33333333       0.33333333       0.00000000 </v>
   <v>      -0.33333333       0.33333333       0.00000000 </v>
  </varray>
  <varray name="weights" >
   <v>       0.03703704 </v>
   <v>       0.29629630 </v>
   <v>       0.22222222 </v>
   <v>       0.44444444 </v>
  </varray>
 </kpoints>
 <parameters>
  <separator name="general" >
   <i type="string" name="SYSTEM">unknown system</i>
   <i type="logical" name="LCOMPAT"> F  </i>
  </separator>
  <separator name="electronic" >
   <i type="string" name="PREC">normal</i>
   <i name="ENMAX">    150.00000000</i>
   <i name="ENAUG">    322.06900000</i>
   <i name="EDIFF">      0.00040000</i>
   <i type="int" name="IALGO">    38</i>
   <i type="int" name="IWAVPR">    11</i>
   <i type="int" name="NBANDS">     8</i>
   <i name="NELECT">      8.00000000</i>
   <i type="int" name="TURBO">     0</i>
   <i type="int" name="IRESTART">     0</i>
   <i type="int" name="NREBOOT">     0</i>
   <i type="int" name="NMIN">     0</i>
   <i name="EREF">      0.00000000</i>
   <separator name="electronic smearing" >
    <i type="int" name="ISMEAR">     0</i>
    <i name="SIGMA">      0.20000000</i>
    <i name="KSPACING">      0.50000000</i>
    <i type="logical" name="KGAMMA"> T  </i>
   </separator>
   <separator name="electronic projectors" >
    <i type="logical" name="LREAL"> F  </i>
    <v name="ROPT">      0.00000000</v>
    <i type="int" name="LMAXPAW">  -100</i>
    <i type="int" name="LMAXMIX">     2</i>
    <i type="logical" name="NLSPLINE"> F  </i>
   </separator>
   <separator name="electronic startup" >
    <i type="int" name="ISTART">     0</i>
    <i type="int" name="ICHARG">     2</i>
    <i type="int" name="INIWAV">     1</i>
   </separator>
   <separator name="electronic spin" >
    <i type="int" name="ISPIN">     1</i>
    <i type="logical" name="LNONCOLLINEAR"> F  </i>
    <v name="MAGMOM">      1.00000000      1.00000000</v>
    <i name="NUPDOWN">     -1.00000000</i>
    <i type="logical" name="LSORBIT"> F  </i>
    <v name="SAXIS">      0.00000000      0.00000000      1.00000000</v>
    <i type="logical" name="LSPIRAL"> F  </i>
    <v name="QSPIRAL">      0.00000000      0.00000000      0.00000000</v>
    <i type="logical" name="LZEROZ"> F  </i>
   </separator>
   <separator name="electronic exchange-correlation" >
    <i type="logical" name="LASPH"> F  </i>
    <i type="logical" name="LMETAGGA"> F  </i>
   </separator>
   <separator name="electronic convergence" >
    <i type="int" name="NELM">    60</i>
    <i type="int" name="NELMDL">    -5</i>
    <i type="int" name="NELMIN">     2</i>
    <i name="ENINI">    150.00000000</i>
    <separator name="electronic convergence detail" >
     <i type="logical" name="LDIAG"> T  </i>
     <i type="logical" name="LSUBROT"> F  </i>
     <i name="WEIMIN">      0.00100000</i>
     <i name="EBREAK">      0.00001250</i>
     <i name="DEPER">      0.30000000</i>
     <i type="int" name="NRMM">     4</i>
     <i name="TIME">      0.40000000</i>
    </separator>
   </separator>
   <separator name="electronic mixer" >
    <i name="AMIX">      0.40000000</i>
    <i name="BMIX">      1.00000000</i>
    <i name="AMIN">      0.10000000</i>
    <i name="AMIX_MAG">      1.60000000</i>
    <i name="BMIX_MAG">      1.00000000</i>
    <separator name="electronic mixer details" >
     <i type="int" name="IMIX">     4</i>
     <i type="logical" name="MIXFIRST"> F  </i>
     <i type="int" name="MAXMIX">   -45</i>
     <i name="WC">    100.00000000</i>
     <i type="int" name="INIMIX">     1</i>
     <i type="int" name="MIXPRE">     1</i>
     <i type="int" name="MREMOVE">     5</i>
    </separator>
   </separator>
   <separator name="electronic dipolcorrection" >
    <i type="logical" name="LDIPOL"> F  </i>
    <i type="logical" name="LMONO"> F  </i>
    <i type="int" name="IDIPOL">     0</i>
    <i name="EPSILON">      1.00000000</i>
    <v name="DIPOL">   -100.00000000   -100.00000000   -100.00000000</v>
    <i name="EFIELD">      0.00000000</i>
   </separator>
  </separator>
  <separator name="grids" >
   <i type="int" name="NGX">    12</i>
   <i type="int" name="NGY">    12</i>
   <i type="int" name="NGZ">    12</i>
   <i type="int" name="NGXF">    24</i>
   <i type="int" name="NGYF">    24</i>
   <i type="int" name="NGZF">    24</i>
   <i type="logical" name="ADDGRID"> F  </i>
  </separator>
  <separator name="ionic" >
   <i type="int" name="NSW">    15</i>
   <i type="int" name="IBRION">     2</i>
   <i type="int" name="MDALGO">     0</i>
   <i type="int" name="ISIF">     2</i>
   <i name="PSTRESS">      0.00000000</i>
   <i name="EDIFFG">     -0.01000000</i>
   <i type="int" name="NFREE">     1</i>
   <i name="POTIM">      0.50000000</i>
   <i name="SMASS">     -3.00000000</i>
   <i name="SCALEE">      1.00000000</i>
  </separator>
  <separator name="ionic md" >
   <i name="TEBEG">      0.00010000</i>
   <i name="TEEND">      0.00010000</i>
   <i type="int" name="NBLOCK">     1</i>
   <i type="int" name="KBLOCK">    15</i>
   <i type="int" name="NPACO">   256</i>
   <i name="APACO">     16.00000000</i>
  </separator>
  <separator name="symmetry" >
   <i type="int" name="ISYM">     2</i>
   <i name="SYMPREC">      0.00001000</i>
  </separator>
  <separator name="dos" >
   <i type="int" name="LORBIT">     0</i>
   <v name="RWIGS">     -1.00000000</v>
   <i type="int" name="NEDOS">   301</i>
   <i name="EMIN">     10.00000000</i>
   <i name="EMAX">    -10.00000000</i>
   <i name="EFERMI">      0.00000000</i>
  </separator>
  <separator name="writing" >
   <i type="int" name="NWRITE">     2</i>
   <i type="logical" name="LWAVE"> T  </i>
   <i type="logical" name="LDOWNSAMPLE"> F  </i>
   <i type="logical" name="LCHARG"> T  </i>
   <i type="logical" name="LPARD"> F  </i>
   <i type="logical" name="LVTOT"> F  </i>
   <i type="logical" name="LVHAR"> F  </i>
   <i type="logical" name="LELF"> F  </i>
   <i type="logical" name="LOPTICS"> F  </i>
   <v name="STM">      0.00000000      0.00000000      0.00000000      0.00000000      0.00000000      0.00000000      0.00000000</v>
  </separator>
  <separator name="performance" >
   <i type="int" name="NPAR">     8</i>
   <i type="int" name="NSIM">     4</i>
   <i type="int" name="NBLK">    -1</i>
   <i type="logical" name="LPLANE"> T  </i>
   <i type="logical" name="LSCALAPACK"> T  </i>
   <i type="logical" name="LSCAAWARE"> F  </i>
   <i type="logical" name="LSCALU"> F  </i>
   <i type="logical" name="LASYNC"> F  </i>
   <i type="logical" name="LORBITALREAL"> F  </i>
  </separator>
  <separator name="miscellaneous" >
   <i type="int" name="IDIOT">     3</i>
   <i type="int" name="ISPECIAL">     0</i>
   <i type="logical" name="LMUSIC"> F  </i>
   <v name="POMASS">     28.08500000</v>
   <v name="DARWINR">      0.00000000</v>
   <v name="DARWINV">      1.00000000</v>
   <i type="logical" name="LCORR"> T  </i>
  </separator>
  <i type="logical" name="GGA_COMPAT"> T  </i>
  <i type="logical" name="LBERRY"> F  </i>
  <i type="int" name="ICORELEVEL">     0</i>
  <i type="logical" name="LDAU"> F  </i>
  <i type="int" name="I_CONSTRAINED_M">     0</i>
  <separator name="electronic exchange-correlation" >
   <i type="string" name="GGA">--</i>
   <i type="int" name="VOSKOWN">     0</i>
   <i type="logical" name="LHFCALC"> F  </i>
   <i type="string" name="PRECFOCK"></i>
   <i type="logical" name="LSYMGRAD"> F  </i>
   <i type="logical" name="LHFONE"> F  </i>
   <i type="logical" name="LRHFCALC"> F  </i>
   <i type="logical" name="LTHOMAS"> F  </i>
   <i type="logical" name="LMODELHF"> F  </i>
   <i name="ENCUT4O">     -1.00000000</i>
   <i type="int" name="EXXOEP">     0</i>
   <i type="int" name="FOURORBIT">     0</i>
   <i name="AEXX">      0.00000000</i>
   <i name="HFALPHA">      0.00000000</i>
   <i name="MCALPHA">      0.00000000</i>
   <i name="ALDAX">      1.00000000</i>
   <i name="AGGAX">      1.00000000</i>
   <i name="ALDAC">      1.00000000</i>
   <i name="AGGAC">      1.00000000</i>
   <i type="int" name="NKREDX">     1</i>
   <i type="int" name="NKREDY">     1</i>
   <i type="int" name="NKREDZ">     1</i>
   <i type="logical" name="SHIFTRED"> F  </i>
   <i type="logical" name="ODDONLY"> F  </i>
   <i type="logical" name="EVENONLY"> F  </i>
   <i type="int" name="LMAXFOCK">     0</i>
   <i type="int" name="NMAXFOCKAE">     0</i>
   <i type="logical" name="LFOCKAEDFT"> F  </i>
   <i name="HFSCREEN">      0.00000000</i>
   <i name="HFSCREENC">      0.00000000</i>
   <i type="int" name="NBANDSGWLOW">     0</i>
  </separator>
  <separator name="vdW DFT" >
   <i type="logical" name="LUSE_VDW"> F  </i>
   <i name="Zab_VDW">     -0.84910000</i>
   <i name="PARAM1">      0.12340000</i>
   <i name="PARAM2">      1.00000000</i>
   <i name="PARAM3">      0.00000000</i>
  </separator>
  <separator name="model GW" >
   <i type="int" name="MODEL_GW">     0</i>
   <i name="MODEL_EPS0">     12.00772552</i>
   <i name="MODEL_ALPHA">      1.00000000</i>
  </separator>
  <separator name="linear response parameters" >
   <i type="logical" name="LEPSILON"> F  </i>
   <i type="logical" name="LRPA"> F  </i>
   <i type="logical" name="LNABLA"> F  </i>
   <i type="logical" name="LVEL"> F  </i>
   <i type="int" name="KINTER">     0</i>
   <i name="CSHIFT">      0.10000000</i>
   <i name="OMEGAMAX">     -1.00000000</i>
   <i name="DEG_THRESHOLD">      0.00200000</i>
   <i name="RTIME">     -0.10000000</i>
   <i name="WPLASMAI">      0.00000000</i>
   <v name="DFIELD">      0.00000000      0.00000000      0.00000000</v>
   <v name="WPLASMA">      0.00000000      0.00000000      0.00000000      0.00000000      0.00000000      0.00000000      0.00000000      0.00000000      0.00000000</v>
  </separator>
  <separator name="orbital magnetization" >
   <i type="logical" name="NUCIND"> F  </i>
   <v name="MAGPOS">      0.00000000      0.00000000      0.00000000</v>
   <i type="logical" name="LNICSALL"> T  </i>
   <i type="logical" name="ORBITALMAG"> F  </i>
   <i type="logical" name="LMAGBLOCH"> F  </i>
   <i type="logical" name="LCHIMAG"> F  </i>
   <i type="logical" name="LGAUGE"> T  </i>
   <i type="int" name="MAGATOM">     0</i>
   <v name="MAGDIPOL">      0.00000000      0.00000000      0.00000000</v>
   <v name="AVECCONST">      0.00000000      0.00000000      0.00000000</v>
  </separator>
  <separator name="response functions" >
   <i type="logical" name="LADDER"> F  </i>
   <i type="logical" name="LRPAFORCE"> F  </i>
   <i type="logical" name="LFXC"> F  </i>
   <i type="logical" name="LHARTREE"> T  </i>
   <i type="int" name="IBSE">     0</i>
   <v type="int" name="KPOINT">    -1     0     0     0</v>
   <i type="logical" name="LTCTE"> F  </i>
   <i type="logical" name="LTETE"> F  </i>
   <i type="logical" name="LTRIPLET"> F  </i>
   <i type="logical" name="LFXCEPS"> F  </i>
   <i type="logical" name="LFXHEG"> F  </i>
   <i type="int" name="NATURALO">     2</i>
   <i type="logical" name="L2ORDER"> F  </i>
   <i type="logical" name="LMP2LT"> F  </i>
   <i type="logical" name="LUSEW"> F  </i>
   <i name="ENCUTGW">     -2.00000000</i>
   <i name="ENCUTGWSOFT">     -2.00000000</i>
   <i name="ENCUTLF">     -1.00000000</i>
   <i type="int" name="LMAXMP2">    -1</i>
   <i name="SCISSOR">      0.00000000</i>
   <i type="int" name="NOMEGA">     0</i>
   <i type="int" name="NOMEGAR">     0</i>
   <i type="int" name="NBANDSGW">    -1</i>
   <i type="int" name="NBANDSO">    -1</i>
   <i type="int" name="NBANDSV">    -1</i>
   <i type="int" name="NELM">     1</i>
   <i type="int" name="NELMHF">     1</i>
   <i type="int" name="DIM">     3</i>
   <i type="int" name="ANTIRES">     0</i>
   <i name="OMEGAMAX">    -30.00000000</i>
   <i name="OMEGAMIN">    -30.00000000</i>
   <i name="OMEGATL">   -200.00000000</i>
   <i type="int" name="OMEGAGRID">   140</i>
   <i name="CSHIFT">     -0.10000000</i>
   <i type="logical" name="SELFENERGY"> F  </i>
   <i type="logical" name="LSPECTRAL"> F  </i>
   <i type="logical" name="LSPECTRALGW"> F  </i>
   <i type="logical" name="LSINGLES"> F  </i>
   <i type="logical" name="LFERMIGW"> F  </i>
   <i type="logical" name="ODDONLYGW"> F  </i>
   <i type="logical" name="EVENONLYGW"> F  </i>
   <i type="int" name="NKREDLFX">     1</i>
   <i type="int" name="NKREDLFY">     1</i>
   <i type="int" name="NKREDLFZ">     1</i>
   <i type="int" name="MAXMEM">  2800</i>
   <i type="int" name="TELESCOPE">     0</i>
   <i type="int" name="TAUPAR">     1</i>
   <i type="int" name="OMEGAPAR">    -1</i>
   <i name="LAMBDA">      1.00000000</i>
  </separator>
  <separator name="External order field" >
   <i name="OFIELD_KAPPA">      0.00000000</i>
   <v name="OFIELD_K">      0.00000000      0.00000000      0.00000000</v>
   <i name="OFIELD_Q6_NEAR">      0.00000000</i>
   <i name="OFIELD_Q6_FAR">      0.00000000</i>
   <i name="OFIELD_A">      0.00000000</i>
  </separator>
 </parameters>
 <atominfo>
  <atoms>       2 </atoms>
  <types>       1 </types>
  <array name="atoms" >
   <dimension dim="1">ion</dimension>
   <field type="string">element</field>
   <field type="int">atomtype</field>
   <set>
    <rc><c>Si</c><c>   1</c></rc>
    <rc><c>Si</c><c>   1</c></rc>
   </set>
  </array>
  <array name="atomtypes" >
   <dimension dim="1">type</dimension>
   <field type="int">atomspertype</field>
   <field type="string">element</field>
   <field>mass</field>
   <field>valence</field>
   <field type="string">pseudopotential</field>
   <set>
    <rc><c>   2</c><c>Si</c><c>     28.08500000</c><c>      4.00000000</c><c> PAW_PBE Si 05Jan2001                   </c></rc>
   </set>
  </array>
 </atominfo>
 <structure name="initialpos" >
  <crystal>
   <varray name="basis" >
    <v>       0.00000000       2.71500000       2.71500000 </v>
    <v>       2.71500000       0.00000000       2.71500000 </v>
    <v>       2.71500000       2.71500000       0.00000000 </v>
   </varray>
   <i name="volume">     40.02575175 </i>
   <varray name="rec_basis" >
    <v>      -0.18416206       0.18416206       0.18416206 </v>
    <v>       0.18416206      -0.18416206       0.18416206 </v>
    <v>       0.18416206       0.18416206      -0.18416206 </v>
   </varray>
  </crystal>
  <varray name="positions" >
   <v>       0.50000000       0.50000000       0.50000000 </v>
   <v>       0.75000000       0.75000000       0.75000000 </v>
  </varray>
 </structure>
 <calculation>
  <scstep>
   <time name="dav">    0.04    0.05</time>
   <time name="total">    0.07    0.09</time>
   <energy>
    <i name="alphaZ">      3.36414203 </i>
    <i name="ewald">   -228.56352493 </i>
    <i name="hartreedc">    -11.00108243 </i>
    <i name="XCdc">    -18.60155909 </i>
    <i name="pawpsdc">     65.95520812 </i>
    <i name="pawaedc">    -30.76852678 </i>
    <i name="eentropy">     -0.02311889 </i>
    <i name="bandstr">      8.89522021 </i>
    <i name="atom">    206.09183643 </i>
    <i name="e_fr_energy">     -4.65140534 </i>
    <i name="e_wo_entrp">     -4.62828645 </i>
    <i name="e_0_energy">     -4.63984589 </i>
   </energy>
  </scstep>
  <scstep>
   <time name="dav">    0.06    0.07</time>
   <time name="total">    0.06    0.07</time>
   <energy>
    <i name="e_fr_energy">    -10.33664637 </i>
    <i name="e_wo_entrp">    -10.33659847 </i>
    <i name="e_0_energy">    -10.33662242 </i>
   </energy>
  </scstep>
  <scstep>
   <time name="dav">    0.04    0.06</time>
   <time name="total">    0.05    0.06</time>
   <energy>
    <i name="e_fr_energy">    -10.37156948 </i>
    <i name="e_wo_entrp">    -10.37152872 </i>
    <i name="e_0_energy">    -10.37154910 </i>
   </energy>
  </scstep>
  <scstep>
   <time name="dav">    0.05    0.06</time>
   <time name="total">    0.05    0.06</time>
   <energy>
    <i name="e_fr_energy">    -10.37160082 </i>
    <i name="e_wo_entrp">    -10.37156007 </i>
    <i name="e_0_energy">    -10.37158044 </i>
   </energy>
  </scstep>
  <scstep>
   <time name="dav">    0.04    0.06</time>
   <time name="total">    0.05    0.07</time>
   <energy>
    <i name="e_fr_energy">    -10.37160082 </i>
    <i name="e_wo_entrp">    -10.37156008 </i>
    <i name="e_0_energy">    -10.37158045 </i>
   </energy>
  </scstep>
  <scstep>
   <time name="dav">    0.04    0.04</time>
   <time name="total">    0.07    0.07</time>
   <energy>
    <i name="e_fr_energy">    -10.20601902 </i>
    <i name="e_wo_entrp">    -10.20574721 </i>
    <i name="e_0_energy">    -10.20588312 </i>
   </energy>
  </scstep>
  <scstep>
   <time name="dav">    0.03    0.03</time>
   <time name="total">    0.06    0.07</time>
   <energy>
    <i name="e_fr_energy">    -10.13088147 </i>
    <i name="e_wo_entrp">    -10.12891981 </i>
    <i name="e_0_energy">    -10.12990064 </i>
   </energy>
  </scstep>
  <scstep>
   <time name="dav">    0.03    0.03</time>
   <time name="total">    0.06    0.08</time>
   <energy>
    <i name="e_fr_energy">    -10.13360153 </i>
    <i name="e_wo_entrp">    -10.13210472 </i>
    <i name="e_0_energy">    -10.13285312 </i>
   </energy>
  </scstep>
  <scstep>
   <time name="dav">    0.03    0.03</time>
   <time name="total">    0.06    0.07</time>
   <energy>
    <i name="alphaZ">      3.36414203 </i>
    <i name="ewald">   -228.56352493 </i>
    <i name="hartreedc">    -15.66798842 </i>
    <i name="XCdc">    -17.82722120 </i>
    <i name="pawpsdc">     77.23300143 </i>
    <i name="pawaedc">    -42.30665798 </i>
    <i name="eentropy">     -0.00149425 </i>
    <i name="bandstr">      7.54414132 </i>
    <i name="atom">    206.09183643 </i>
    <i name="e_fr_energy">    -10.13376557 </i>
    <i name="e_wo_entrp">    -10.13227132 </i>
    <i name="e_0_energy">    -10.13301844 </i>
   </energy>
  </scstep>
  <structure>
   <crystal>
    <varray name="basis" >
     <v>       0.00000000       2.71500000       2.71500000 </v>
     <v>       2.71500000       0.00000000       2.71500000 </v>
     <v>       2.71500000       2.71500000       0.00000000 </v>
    </varray>
    <i name="volume">     40.02575175 </i>
    <varray name="rec_basis" >
     <v>      -0.18416206       0.18416206       0.18416206 </v>
     <v>       0.18416206      -0.18416206       0.18416206 </v>
     <v>       0.18416206       0.18416206      -0.18416206 </v>
    </varray>
   </crystal>
   <varray name="positions" >
    <v>       0.50000000       0.50000000       0.50000000 </v>
    <v>       0.75000000       0.75000000       0.75000000 </v>
   </varray>
  </structure>
  <varray name="forces" >
   <v>      -0.00000000      -0.00000000      -0.00000000 </v>
   <v>       0.00000000       0.00000000       0.00000000 </v>
  </varray>
  <varray name="stress" >
   <v>      39.42797363      -0.00000000      -0.00000000 </v>
   <v>      -0.00000000      39.42797363       0.00000000 </v>
   <v>      -0.00000000      -0.00000000      39.42797363 </v>
  </varray>
  <energy>
   <i name="e_fr_energy">    -10.13376557 </i>
   <i name="e_wo_entrp">    -10.13301844 </i>
   <i name="e_0_energy">     -0.00149425 </i>
  </energy>
  <time name="totalsc">    0.94    1.23</time>
  <eigenvalues>
   <array>
    <dimension dim="1">band</dimension>
    <dimension dim="2">kpoint</dimension>
    <dimension dim="3">spin</dimension>
    <field>eigene</field>
    <field>occ</field>
    <set>
     <set comment="spin 1">
      <set comment="kpoint 1">
       <r>   -6.0497    1.0000 </r>
       <r>    5.9824    0.9916 </r>
       <r>    5.9824    0.9916 </r>
       <r>    5.9827    0.9916 </r>
       <r>    8.5173    0.0000 </r>
       <r>    8.5173    0.0000 </r>
       <r>    8.5175    0.0000 </r>
       <r>    9.3116    0.0000 </r>
      </set>
      <set comment="kpoint 2">
       <r>   -4.6675    1.0000 </r>
       <r>    0.5915    1.0000 </r>
       <r>    4.9511    1.0000 </r>
       <r>    4.9514    1.0000 </r>
       <r>    7.7426    0.0000 </r>
       <r>    9.4953    0.0000 </r>
       <r>    9.4957    0.0000 </r>
       <r>   13.8252    0.0000 </r>
      </set>
      <set comment="kpoint 3">
       <r>   -4.1388    1.0000 </r>
       <r>    0.9312    1.0000 </r>
       <r>    3.5095    1.0000 </r>
       <r>    3.5097    1.0000 </r>
       <r>    6.6936    0.0042 </r>
       <r>    7.9582    0.0000 </r>
       <r>   13.3093    0.0000 </r>
       <r>   13.3095    0.0000 </r>
      </set>
      <set comment="kpoint 4">
       <r>   -2.7708    1.0000 </r>
       <r>   -0.8416    1.0000 </r>
       <r>    1.4987    1.0000 </r>
       <r>    3.8178    1.0000 </r>
       <r>    7.5346    0.0000 </r>
       <r>   11.8560    0.0000 </r>
       <r>   12.4835    0.0000 </r>
       <r>   13.1062    0.0000 </r>
      </set>
     </set>
    </set>
   </array>
  </eigenvalues>
  <separator name="orbital magnetization" >
   <v name="MAGDIPOLOUT">      0.00000000      0.00000000      0.00000000</v>
  </separator>
  <dos>
   <i name="efermi">      6.32075902 </i>
   <total>
    <array>
     <dimension dim="1">gridpoints</dimension>
     <dimension dim="2">spin</dimension>
     <field>energy</field>
     <field>total</field>
     <field>integrated</field>
     <set>
      <set comment="spin 1">
       <r>    -8.0497     0.0000     0.0000 </r>
       <r>    -7.9701     0.0000     0.0000 </r>
       <r>    -7.8905     0.0000     0.0000 </r>
       <r>    -7.8110     0.0000     0.0000 </r>
       <r>    -7.7314     0.0000     0.0000 </r>
       <r>    -7.6518     0.0000     0.0000 </r>
       <r>    -7.5722     0.0000     0.0000 </r>
       <r>    -7.4926     0.0000     0.0000 </r>
       <r>    -7.4130     0.0000     0.0000 </r>
       <r>    -7.3335     0.0000     0.0000 </r>
       <r>    -7.2539     0.0000     0.0000 </r>
       <r>    -7.1743     0.0000     0.0000 </r>
       <r>    -7.0947     0.0000     0.0000 </r>
       <r>    -7.0151     0.0000     0.0000 </r>
       <r>    -6.9355     0.0000     0.0000 </r>
       <r>    -6.8560     0.0000     0.0000 </r>
       <r>    -6.7764     0.0000     0.0000 </r>
       <r>    -6.6968     0.0000     0.0000 </r>
       <r>    -6.6172     0.0000     0.0000 </r>
       <r>    -6.5376     0.0002     0.0000 </r>
       <r>    -6.4580     0.0015     0.0001 </r>
       <r>    -6.3785     0.0075     0.0007 </r>
       <r>    -6.2989     0.0270     0.0029 </r>
       <r>    -6.2193     0.0709     0.0085 </r>
       <r>    -6.1397     0.1368     0.0194 </r>
       <r>    -6.0601     0.1940     0.0349 </r>
       <r>    -5.9805     0.2019     0.0509 </r>
       <r>    -5.9010     0.1545     0.0632 </r>
       <r>    -5.8214     0.0868     0.0701 </r>
       <r>    -5.7418     0.0358     0.0730 </r>
       <r>    -5.6622     0.0109     0.0738 </r>
       <r>    -5.5826     0.0024     0.0740 </r>
       <r>    -5.5030     0.0004     0.0741 </r>
       <r>    -5.4235     0.0000     0.0741 </r>
       <r>    -5.3439     0.0000     0.0741 </r>
       <r>    -5.2643     0.0001     0.0741 </r>
       <r>    -5.1847     0.0009     0.0741 </r>
       <r>    -5.1051     0.0064     0.0747 </r>
       <r>    -5.0255     0.0349     0.0774 </r>
       <r>    -4.9460     0.1401     0.0886 </r>
       <r>    -4.8664     0.4123     0.1214 </r>
       <r>    -4.7868     0.8912     0.1923 </r>
       <r>    -4.7072     1.4149     0.3049 </r>
       <r>    -4.6276     1.6512     0.4363 </r>
       <r>    -4.5480     1.4225     0.5496 </r>
       <r>    -4.4685     0.9340     0.6239 </r>
       <r>    -4.3889     0.5711     0.6693 </r>
       <r>    -4.3093     0.5613     0.7140 </r>
       <r>    -4.2297     0.8513     0.7818 </r>
       <r>    -4.1501     1.1676     0.8747 </r>
       <r>    -4.0705     1.2140     0.9713 </r>
       <r>    -3.9910     0.9311     1.0454 </r>
       <r>    -3.9114     0.5249     1.0872 </r>
       <r>    -3.8318     0.2173     1.1045 </r>
       <r>    -3.7522     0.0661     1.1097 </r>
       <r>    -3.6726     0.0147     1.1109 </r>
       <r>    -3.5930     0.0024     1.1111 </r>
       <r>    -3.5135     0.0003     1.1111 </r>
       <r>    -3.4339     0.0000     1.1111 </r>
       <r>    -3.3543     0.0002     1.1111 </r>
       <r>    -3.2747     0.0018     1.1113 </r>
       <r>    -3.1951     0.0130     1.1123 </r>
       <r>    -3.1155     0.0674     1.1177 </r>
       <r>    -3.0360     0.2568     1.1381 </r>
       <r>    -2.9564     0.7180     1.1953 </r>
       <r>    -2.8768     1.4745     1.3126 </r>
       <r>    -2.7972     2.2240     1.4896 </r>
       <r>    -2.7176     2.4641     1.6857 </r>
       <r>    -2.6380     2.0057     1.8453 </r>
       <r>    -2.5585     1.1992     1.9407 </r>
       <r>    -2.4789     0.5266     1.9827 </r>
       <r>    -2.3993     0.1698     1.9962 </r>
       <r>    -2.3197     0.0402     1.9994 </r>
       <r>    -2.2401     0.0070     1.9999 </r>
       <r>    -2.1605     0.0009     2.0000 </r>
       <r>    -2.0810     0.0001     2.0000 </r>
       <r>    -2.0014     0.0000     2.0000 </r>
       <r>    -1.9218     0.0000     2.0000 </r>
       <r>    -1.8422     0.0000     2.0000 </r>
       <r>    -1.7626     0.0000     2.0000 </r>
       <r>    -1.6831     0.0000     2.0000 </r>
       <r>    -1.6035     0.0000     2.0000 </r>
       <r>    -1.5239     0.0000     2.0000 </r>
       <r>    -1.4443     0.0001     2.0000 </r>
       <r>    -1.3647     0.0011     2.0001 </r>
       <r>    -1.2851     0.0083     2.0008 </r>
       <r>    -1.2056     0.0466     2.0045 </r>
       <r>    -1.1260     0.1913     2.0197 </r>
       <r>    -1.0464     0.5764     2.0656 </r>
       <r>    -0.9668     1.2750     2.1670 </r>
       <r>    -0.8872     2.0717     2.3319 </r>
       <r>    -0.8076     2.4727     2.5287 </r>
       <r>    -0.7281     2.1681     2.7012 </r>
       <r>    -0.6485     1.3965     2.8124 </r>
       <r>    -0.5689     0.6607     2.8650 </r>
       <r>    -0.4893     0.2295     2.8832 </r>
       <r>    -0.4097     0.0585     2.8879 </r>
       <r>    -0.3301     0.0110     2.8888 </r>
       <r>    -0.2506     0.0015     2.8889 </r>
       <r>    -0.1710     0.0002     2.8889 </r>
       <r>    -0.0914     0.0000     2.8889 </r>
       <r>    -0.0118     0.0001     2.8889 </r>
       <r>     0.0678     0.0007     2.8890 </r>
       <r>     0.1474     0.0055     2.8894 </r>
       <r>     0.2269     0.0307     2.8918 </r>
       <r>     0.3065     0.1264     2.9019 </r>
       <r>     0.3861     0.3819     2.9323 </r>
       <r>     0.4657     0.8486     2.9998 </r>
       <r>     0.5453     1.3928     3.1107 </r>
       <r>     0.6249     1.7151     3.2472 </r>
       <r>     0.7044     1.6677     3.3799 </r>
       <r>     0.7840     1.4633     3.4963 </r>
       <r>     0.8636     1.3779     3.6060 </r>
       <r>     0.9432     1.3692     3.7150 </r>
       <r>     1.0228     1.2024     3.8107 </r>
       <r>     1.1024     0.8443     3.8778 </r>
       <r>     1.1819     0.5316     3.9201 </r>
       <r>     1.2615     0.5408     3.9632 </r>
       <r>     1.3411     1.0028     4.0430 </r>
       <r>     1.4207     1.7747     4.1842 </r>
       <r>     1.5003     2.3899     4.3744 </r>
       <r>     1.5799     2.3737     4.5633 </r>
       <r>     1.6594     1.7327     4.7012 </r>
       <r>     1.7390     0.9291     4.7752 </r>
       <r>     1.8186     0.3659     4.8043 </r>
       <r>     1.8982     0.1058     4.8127 </r>
       <r>     1.9778     0.0225     4.8145 </r>
       <r>     2.0574     0.0035     4.8148 </r>
       <r>     2.1369     0.0004     4.8148 </r>
       <r>     2.2165     0.0000     4.8148 </r>
       <r>     2.2961     0.0000     4.8148 </r>
       <r>     2.3757     0.0000     4.8148 </r>
       <r>     2.4553     0.0000     4.8148 </r>
       <r>     2.5349     0.0000     4.8148 </r>
       <r>     2.6144     0.0000     4.8148 </r>
       <r>     2.6940     0.0000     4.8148 </r>
       <r>     2.7736     0.0000     4.8148 </r>
       <r>     2.8532     0.0000     4.8148 </r>
       <r>     2.9328     0.0002     4.8148 </r>
       <r>     3.0124     0.0022     4.8150 </r>
       <r>     3.0919     0.0151     4.8162 </r>
       <r>     3.1715     0.0764     4.8223 </r>
       <r>     3.2511     0.2837     4.8449 </r>
       <r>     3.3307     0.7750     4.9066 </r>
       <r>     3.4103     1.5637     5.0310 </r>
       <r>     3.4899     2.3621     5.2190 </r>
       <r>     3.5694     2.7785     5.4401 </r>
       <r>     3.6490     2.8019     5.6631 </r>
       <r>     3.7286     2.7831     5.8846 </r>
       <r>     3.8082     2.8167     6.1087 </r>
       <r>     3.8878     2.5726     6.3135 </r>
       <r>     3.9674     1.8803     6.4631 </r>
       <r>     4.0469     1.0393     6.5458 </r>
       <r>     4.1265     0.4257     6.5797 </r>
       <r>     4.2061     0.1284     6.5899 </r>
       <r>     4.2857     0.0285     6.5922 </r>
       <r>     4.3653     0.0049     6.5926 </r>
       <r>     4.4449     0.0028     6.5928 </r>
       <r>     4.5244     0.0164     6.5941 </r>
       <r>     4.6040     0.0859     6.6009 </r>
       <r>     4.6836     0.3301     6.6272 </r>
       <r>     4.7632     0.9319     6.7014 </r>
       <r>     4.8428     1.9319     6.8551 </r>
       <r>     4.9224     2.9416     7.0892 </r>
       <r>     5.0019     3.2902     7.3511 </r>
       <r>     5.0815     2.7035     7.5662 </r>
       <r>     5.1611     1.6318     7.6961 </r>
       <r>     5.2407     0.7234     7.7537 </r>
       <r>     5.3203     0.2355     7.7724 </r>
       <r>     5.3998     0.0563     7.7769 </r>
       <r>     5.4794     0.0103     7.7777 </r>
       <r>     5.5590     0.0046     7.7781 </r>
       <r>     5.6386     0.0173     7.7794 </r>
       <r>     5.7182     0.0651     7.7846 </r>
       <r>     5.7978     0.1813     7.7990 </r>
       <r>     5.8773     0.3709     7.8286 </r>
       <r>     5.9569     0.5576     7.8729 </r>
       <r>     6.0365     0.6157     7.9219 </r>
       <r>     6.1161     0.4995     7.9617 </r>
       <r>     6.1957     0.2986     7.9855 </r>
       <r>     6.2753     0.1377     7.9964 </r>
       <r>     6.3548     0.0796     8.0028 </r>
       <r>     6.4344     0.1503     8.0147 </r>
       <r>     6.5140     0.3851     8.0454 </r>
       <r>     6.5936     0.7692     8.1066 </r>
       <r>     6.6732     1.1330     8.1967 </r>
       <r>     6.7528     1.2261     8.2943 </r>
       <r>     6.8323     0.9748     8.3719 </r>
       <r>     6.9119     0.5694     8.4172 </r>
       <r>     6.9915     0.2448     8.4367 </r>
       <r>     7.0711     0.0821     8.4432 </r>
       <r>     7.1507     0.0491     8.4471 </r>
       <r>     7.2303     0.1422     8.4584 </r>
       <r>     7.3098     0.4575     8.4949 </r>
       <r>     7.3894     1.1141     8.5835 </r>
       <r>     7.4690     2.0405     8.7459 </r>
       <r>     7.5486     2.8799     8.9751 </r>
       <r>     7.6282     3.2755     9.2358 </r>
       <r>     7.7078     3.2049     9.4908 </r>
       <r>     7.7873     2.8893     9.7208 </r>
       <r>     7.8669     2.5087     9.9204 </r>
       <r>     7.9465     2.1012    10.0876 </r>
       <r>     8.0261     1.6202    10.2166 </r>
       <r>     8.1057     1.0695    10.3017 </r>
       <r>     8.1853     0.5802    10.3479 </r>
       <r>     8.2648     0.3015    10.3718 </r>
       <r>     8.3444     0.2729    10.3936 </r>
       <r>     8.4240     0.4168    10.4267 </r>
       <r>     8.5036     0.5795    10.4729 </r>
       <r>     8.5832     0.6089    10.5213 </r>
       <r>     8.6628     0.4715    10.5588 </r>
       <r>     8.7423     0.2684    10.5802 </r>
       <r>     8.8219     0.1124    10.5891 </r>
       <r>     8.9015     0.0361    10.5920 </r>
       <r>     8.9811     0.0169    10.5934 </r>
       <r>     9.0607     0.0412    10.5966 </r>
       <r>     9.1403     0.1435    10.6081 </r>
       <r>     9.2198     0.4277    10.6421 </r>
       <r>     9.2994     1.0445    10.7252 </r>
       <r>     9.3790     2.0230    10.8862 </r>
       <r>     9.4586     3.0153    11.1262 </r>
       <r>     9.5382     3.3873    11.3958 </r>
       <r>     9.6178     2.8329    11.6212 </r>
       <r>     9.6973     1.7521    11.7606 </r>
       <r>     9.7769     0.7986    11.8242 </r>
       <r>     9.8565     0.2678    11.8455 </r>
       <r>     9.9361     0.0660    11.8508 </r>
       <r>    10.0157     0.0119    11.8517 </r>
       <r>    10.0953     0.0016    11.8518 </r>
       <r>    10.1748     0.0002    11.8519 </r>
       <r>    10.2544     0.0000    11.8519 </r>
       <r>    10.3340     0.0000    11.8519 </r>
       <r>    10.4136     0.0000    11.8519 </r>
       <r>    10.4932     0.0000    11.8519 </r>
       <r>    10.5728     0.0000    11.8519 </r>
       <r>    10.6523     0.0000    11.8519 </r>
       <r>    10.7319     0.0000    11.8519 </r>
       <r>    10.8115     0.0000    11.8519 </r>
       <r>    10.8911     0.0000    11.8519 </r>
       <r>    10.9707     0.0000    11.8519 </r>
       <r>    11.0503     0.0000    11.8519 </r>
       <r>    11.1298     0.0000    11.8519 </r>
       <r>    11.2094     0.0000    11.8519 </r>
       <r>    11.2890     0.0003    11.8519 </r>
       <r>    11.3686     0.0028    11.8521 </r>
       <r>    11.4482     0.0188    11.8536 </r>
       <r>    11.5278     0.0913    11.8609 </r>
       <r>    11.6073     0.3261    11.8868 </r>
       <r>    11.6869     0.8552    11.9549 </r>
       <r>    11.7665     1.6472    12.0860 </r>
       <r>    11.8461     2.3303    12.2714 </r>
       <r>    11.9257     2.4221    12.4642 </r>
       <r>    12.0053     1.8524    12.6116 </r>
       <r>    12.0848     1.0596    12.6959 </r>
       <r>    12.1644     0.5344    12.7384 </r>
       <r>    12.2440     0.4993    12.7782 </r>
       <r>    12.3236     0.9654    12.8550 </r>
       <r>    12.4032     1.7460    12.9940 </r>
       <r>    12.4827     2.3782    13.1832 </r>
       <r>    12.5623     2.3855    13.3731 </r>
       <r>    12.6419     1.7623    13.5133 </r>
       <r>    12.7215     0.9819    13.5915 </r>
       <r>    12.8011     0.5162    13.6325 </r>
       <r>    12.8807     0.5678    13.6777 </r>
       <r>    12.9602     1.1542    13.7696 </r>
       <r>    13.0398     2.1254    13.9387 </r>
       <r>    13.1194     3.1174    14.1868 </r>
       <r>    13.1990     3.7402    14.4845 </r>
       <r>    13.2786     3.8053    14.7873 </r>
       <r>    13.3582     3.2999    15.0499 </r>
       <r>    13.4377     2.3751    15.2390 </r>
       <r>    13.5173     1.4160    15.3516 </r>
       <r>    13.5969     0.8592    15.4200 </r>
       <r>    13.6765     0.8790    15.4900 </r>
       <r>    13.7561     1.2799    15.5918 </r>
       <r>    13.8357     1.6234    15.7210 </r>
       <r>    13.9152     1.5526    15.8446 </r>
       <r>    13.9948     1.0948    15.9317 </r>
       <r>    14.0744     0.5673    15.9769 </r>
       <r>    14.1540     0.2159    15.9940 </r>
       <r>    14.2336     0.0603    15.9988 </r>
       <r>    14.3132     0.0124    15.9998 </r>
       <r>    14.3927     0.0019    16.0000 </r>
       <r>    14.4723     0.0002    16.0000 </r>
       <r>    14.5519     0.0000    16.0000 </r>
       <r>    14.6315     0.0000    16.0000 </r>
       <r>    14.7111     0.0000    16.0000 </r>
       <r>    14.7907     0.0000    16.0000 </r>
       <r>    14.8702     0.0000    16.0000 </r>
       <r>    14.9498     0.0000    16.0000 </r>
       <r>    15.0294     0.0000    16.0000 </r>
       <r>    15.1090     0.0000    16.0000 </r>
       <r>    15.1886     0.0000    16.0000 </r>
       <r>    15.2682     0.0000    16.0000 </r>
       <r>    15.3477     0.0000    16.0000 </r>
       <r>    15.4273     0.0000    16.0000 </r>
       <r>    15.5069     0.0000    16.0000 </r>
       <r>    15.5865     0.0000    16.0000 </r>
       <r>    15.6661     0.0000    16.0000 </r>
       <r>    15.7457     0.0000    16.0000 </r>
       <r>    15.8252     0.0000    16.0000 </r>
      </set>
     </set>
    </array>
   </total>
  </dos>
 </calculation>
 <structure name="finalpos" >
  <crystal>
   <varray name="basis" >
    <v>       0.00000000       2.71500000       2.71500000 </v>
    <v>       2.71500000       0.00000000       2.71500000 </v>
    <v>       2.71500000       2.71500000       0.00000000 </v>
   </varray>
   <i name="volume">     40.02575175 </i>
   <varray name="rec_basis" >
    <v>      -0.18416206       0.18416206       0.18416206 </v>
    <v>       0.18416206      -0.18416206       0.18416206 </v>
    <v>       0.18416206       0.18416206      -0.18416206 </v>
   </varray>
  </crystal>
  <varray name="positions" >
   <v>       0.50000000       0.50000000       0.50000000 </v>
   <v>       0.75000000       0.75000000       0.75000000 </v>
  </varray>
 </structure>
</modeling>
