   2   2   0   0
  0.2001288E+02  0.3839590E-09  0.3839590E-09  0.3839590E-09  0.5000000E-15
  1.000000000000000E-004
  CAR 
 unknown system                          
     17.57574259     -8.13183519  301      6.11924064      1.00000000
     -8.132  0.0000E+00  0.0000E+00
     -8.046  0.0000E+00  0.0000E+00
     -7.960  0.0000E+00  0.0000E+00
     -7.875  0.0000E+00  0.0000E+00
     -7.789  0.0000E+00  0.0000E+00
     -7.703  0.0000E+00  0.0000E+00
     -7.618  0.0000E+00  0.0000E+00
     -7.532  0.0000E+00  0.0000E+00
     -7.446  0.0000E+00  0.0000E+00
     -7.361  0.0000E+00  0.0000E+00
     -7.275  0.3894E-18  0.3337E-19
     -7.189  0.4517E-16  0.3904E-17
     -7.104  0.3797E-14  0.3292E-15
     -7.018  0.2248E-12  0.1959E-13
     -6.932  0.9366E-11  0.8222E-12
     -6.846  0.2764E-09  0.2451E-10
     -6.761  0.5825E-08  0.5237E-09
     -6.675  0.8857E-07  0.8113E-08
     -6.589  0.9832E-06  0.9236E-07
     -6.504  0.8059E-05  0.7830E-06
     -6.418  0.4918E-04  0.4998E-05
     -6.332  0.2244E-03  0.2422E-04
     -6.247  0.7666E-03  0.8991E-04
     -6.161  0.1977E-02  0.2593E-03
     -6.075  0.3943E-02  0.5972E-03
     -5.990  0.6413E-02  0.1147E-02
     -5.904  0.9127E-02  0.1929E-02
     -5.818  0.1183E-01  0.2943E-02
     -5.732  0.1386E-01  0.4130E-02
     -5.647  0.1488E-01  0.5406E-02
     -5.561  0.1607E-01  0.6783E-02
     -5.475  0.1852E-01  0.8369E-02
     -5.390  0.2121E-01  0.1019E-01
     -5.304  0.2244E-01  0.1211E-01
     -5.218  0.2211E-01  0.1400E-01
     -5.133  0.2154E-01  0.1585E-01
     -5.047  0.2272E-01  0.1780E-01
     -4.961  0.2648E-01  0.2007E-01
     -4.876  0.3060E-01  0.2269E-01
     -4.790  0.3207E-01  0.2544E-01
     -4.704  0.3086E-01  0.2808E-01
     -4.618  0.2885E-01  0.3055E-01
     -4.533  0.2784E-01  0.3294E-01
     -4.447  0.3004E-01  0.3551E-01
     -4.361  0.3614E-01  0.3861E-01
     -4.276  0.4281E-01  0.4228E-01
     -4.190  0.4556E-01  0.4618E-01
     -4.104  0.4355E-01  0.4991E-01
     -4.019  0.3987E-01  0.5333E-01
     -3.933  0.3874E-01  0.5665E-01
     -3.847  0.4340E-01  0.6037E-01
     -3.762  0.5339E-01  0.6495E-01
     -3.676  0.6241E-01  0.7029E-01
     -3.590  0.6344E-01  0.7573E-01
     -3.504  0.5694E-01  0.8061E-01
     -3.419  0.4884E-01  0.8479E-01
     -3.333  0.4356E-01  0.8853E-01
     -3.247  0.4345E-01  0.9225E-01
     -3.162  0.4812E-01  0.9637E-01
     -3.076  0.5165E-01  0.1008E+00
     -2.990  0.4807E-01  0.1049E+00
     -2.905  0.3942E-01  0.1083E+00
     -2.819  0.3292E-01  0.1111E+00
     -2.733  0.3254E-01  0.1139E+00
     -2.648  0.3620E-01  0.1170E+00
     -2.562  0.3823E-01  0.1203E+00
     -2.476  0.3447E-01  0.1232E+00
     -2.390  0.2655E-01  0.1255E+00
     -2.305  0.1970E-01  0.1272E+00
     -2.219  0.1689E-01  0.1286E+00
     -2.133  0.1693E-01  0.1301E+00
     -2.048  0.1690E-01  0.1315E+00
     -1.962  0.1520E-01  0.1328E+00
     -1.876  0.1265E-01  0.1339E+00
     -1.791  0.1087E-01  0.1349E+00
     -1.705  0.1034E-01  0.1358E+00
     -1.619  0.1073E-01  0.1367E+00
     -1.534  0.1267E-01  0.1378E+00
     -1.448  0.1800E-01  0.1393E+00
     -1.362  0.2749E-01  0.1417E+00
     -1.276  0.3874E-01  0.1450E+00
     -1.191  0.4767E-01  0.1491E+00
     -1.105  0.5406E-01  0.1537E+00
     -1.019  0.6193E-01  0.1590E+00
     -0.934  0.7151E-01  0.1651E+00
     -0.848  0.7681E-01  0.1717E+00
     -0.762  0.7459E-01  0.1781E+00
     -0.677  0.6810E-01  0.1839E+00
     -0.591  0.6014E-01  0.1891E+00
     -0.505  0.5060E-01  0.1934E+00
     -0.420  0.4208E-01  0.1970E+00
     -0.334  0.3919E-01  0.2004E+00
     -0.248  0.4066E-01  0.2039E+00
     -0.162  0.4014E-01  0.2073E+00
     -0.077  0.3570E-01  0.2104E+00
      0.009  0.3146E-01  0.2131E+00
      0.095  0.2995E-01  0.2156E+00
      0.180  0.2886E-01  0.2181E+00
      0.266  0.2639E-01  0.2204E+00
      0.352  0.2489E-01  0.2225E+00
      0.437  0.2628E-01  0.2248E+00
      0.523  0.2775E-01  0.2271E+00
      0.609  0.2585E-01  0.2293E+00
      0.694  0.2151E-01  0.2312E+00
      0.780  0.1853E-01  0.2328E+00
      0.866  0.1910E-01  0.2344E+00
      0.952  0.2150E-01  0.2363E+00
      1.037  0.2144E-01  0.2381E+00
      1.123  0.1692E-01  0.2395E+00
      1.209  0.1159E-01  0.2405E+00
      1.294  0.1169E-01  0.2415E+00
      1.380  0.2081E-01  0.2433E+00
      1.466  0.3672E-01  0.2465E+00
      1.551  0.5232E-01  0.2510E+00
      1.637  0.6130E-01  0.2562E+00
      1.723  0.6311E-01  0.2616E+00
      1.808  0.6256E-01  0.2670E+00
      1.894  0.6577E-01  0.2726E+00
      1.980  0.7380E-01  0.2789E+00
      2.066  0.7974E-01  0.2858E+00
      2.151  0.7668E-01  0.2923E+00
      2.237  0.6757E-01  0.2981E+00
      2.323  0.6130E-01  0.3034E+00
      2.408  0.6153E-01  0.3087E+00
      2.494  0.6617E-01  0.3143E+00
      2.580  0.7350E-01  0.3206E+00
      2.665  0.8168E-01  0.3276E+00
      2.751  0.8630E-01  0.3350E+00
      2.837  0.8493E-01  0.3423E+00
      2.922  0.8279E-01  0.3494E+00
      3.008  0.8804E-01  0.3569E+00
      3.094  0.1001E+00  0.3655E+00
      3.179  0.1077E+00  0.3747E+00
      3.265  0.1027E+00  0.3835E+00
      3.351  0.9126E-01  0.3914E+00
      3.437  0.8636E-01  0.3988E+00
      3.522  0.8998E-01  0.4065E+00
      3.608  0.9207E-01  0.4144E+00
      3.694  0.8672E-01  0.4218E+00
      3.779  0.8077E-01  0.4287E+00
      3.865  0.8336E-01  0.4359E+00
      3.951  0.9239E-01  0.4438E+00
      4.036  0.9726E-01  0.4521E+00
      4.122  0.9278E-01  0.4601E+00
      4.208  0.8432E-01  0.4673E+00
      4.293  0.7887E-01  0.4740E+00
      4.379  0.7559E-01  0.4805E+00
      4.465  0.6973E-01  0.4865E+00
      4.551  0.6284E-01  0.4919E+00
      4.636  0.6027E-01  0.4971E+00
      4.722  0.6082E-01  0.5023E+00
      4.808  0.5828E-01  0.5073E+00
      4.893  0.5180E-01  0.5117E+00
      4.979  0.4568E-01  0.5156E+00
      5.065  0.4092E-01  0.5191E+00
      5.150  0.3500E-01  0.5221E+00
      5.236  0.2800E-01  0.5245E+00
      5.322  0.2245E-01  0.5264E+00
      5.407  0.1876E-01  0.5280E+00
      5.493  0.1551E-01  0.5294E+00
      5.579  0.1268E-01  0.5305E+00
      5.665  0.1092E-01  0.5314E+00
      5.750  0.9341E-02  0.5322E+00
      5.836  0.6826E-02  0.5328E+00
      5.922  0.3903E-02  0.5331E+00
      6.007  0.1722E-02  0.5333E+00
      6.093  0.6418E-03  0.5333E+00
      6.179  0.4313E-03  0.5334E+00
      6.264  0.9664E-03  0.5334E+00
      6.350  0.2373E-02  0.5336E+00
      6.436  0.4750E-02  0.5341E+00
      6.521  0.8028E-02  0.5347E+00
      6.607  0.1194E-01  0.5358E+00
      6.693  0.1581E-01  0.5371E+00
      6.779  0.1872E-01  0.5387E+00
      6.864  0.2035E-01  0.5405E+00
      6.950  0.2148E-01  0.5423E+00
      7.036  0.2404E-01  0.5444E+00
      7.121  0.2949E-01  0.5469E+00
      7.207  0.3657E-01  0.5500E+00
      7.293  0.4297E-01  0.5537E+00
      7.378  0.4943E-01  0.5579E+00
      7.464  0.5764E-01  0.5629E+00
      7.550  0.6508E-01  0.5685E+00
      7.635  0.6760E-01  0.5743E+00
      7.721  0.6612E-01  0.5799E+00
      7.807  0.6594E-01  0.5856E+00
      7.893  0.7119E-01  0.5917E+00
      7.978  0.8206E-01  0.5987E+00
      8.064  0.9416E-01  0.6068E+00
      8.150  0.9991E-01  0.6153E+00
      8.235  0.9556E-01  0.6235E+00
      8.321  0.8655E-01  0.6309E+00
      8.407  0.8199E-01  0.6380E+00
      8.492  0.8446E-01  0.6452E+00
      8.578  0.8798E-01  0.6527E+00
      8.664  0.8660E-01  0.6602E+00
      8.749  0.8146E-01  0.6671E+00
      8.835  0.7858E-01  0.6739E+00
      8.921  0.8359E-01  0.6810E+00
      9.007  0.9859E-01  0.6895E+00
      9.092  0.1193E+00  0.6997E+00
      9.178  0.1346E+00  0.7112E+00
      9.264  0.1354E+00  0.7229E+00
      9.349  0.1264E+00  0.7337E+00
      9.435  0.1191E+00  0.7439E+00
      9.521  0.1170E+00  0.7539E+00
      9.606  0.1130E+00  0.7636E+00
      9.692  0.1006E+00  0.7722E+00
      9.778  0.8299E-01  0.7793E+00
      9.863  0.6936E-01  0.7853E+00
      9.949  0.6518E-01  0.7909E+00
     10.035  0.6847E-01  0.7967E+00
     10.121  0.7363E-01  0.8030E+00
     10.206  0.7554E-01  0.8095E+00
     10.292  0.7484E-01  0.8159E+00
     10.378  0.7997E-01  0.8228E+00
     10.463  0.9676E-01  0.8311E+00
     10.549  0.1163E+00  0.8410E+00
     10.635  0.1228E+00  0.8516E+00
     10.720  0.1137E+00  0.8613E+00
     10.806  0.1002E+00  0.8699E+00
     10.892  0.9035E-01  0.8776E+00
     10.977  0.8208E-01  0.8847E+00
     11.063  0.7180E-01  0.8908E+00
     11.149  0.6092E-01  0.8960E+00
     11.235  0.5277E-01  0.9006E+00
     11.320  0.4956E-01  0.9048E+00
     11.406  0.5307E-01  0.9093E+00
     11.492  0.6294E-01  0.9147E+00
     11.577  0.7351E-01  0.9210E+00
     11.663  0.7644E-01  0.9276E+00
     11.749  0.7004E-01  0.9336E+00
     11.834  0.6285E-01  0.9390E+00
     11.920  0.6368E-01  0.9444E+00
     12.006  0.7194E-01  0.9506E+00
     12.091  0.8139E-01  0.9576E+00
     12.177  0.8726E-01  0.9651E+00
     12.263  0.8619E-01  0.9724E+00
     12.349  0.7642E-01  0.9790E+00
     12.434  0.6272E-01  0.9844E+00
     12.520  0.5359E-01  0.9890E+00
     12.606  0.5080E-01  0.9933E+00
     12.691  0.4864E-01  0.9975E+00
     12.777  0.4342E-01  0.1001E+01
     12.863  0.3741E-01  0.1004E+01
     12.948  0.3519E-01  0.1007E+01
     13.034  0.3880E-01  0.1011E+01
     13.120  0.4437E-01  0.1015E+01
     13.205  0.4519E-01  0.1018E+01
     13.291  0.3946E-01  0.1022E+01
     13.377  0.3286E-01  0.1025E+01
     13.463  0.3312E-01  0.1027E+01
     13.548  0.4186E-01  0.1031E+01
     13.634  0.5195E-01  0.1035E+01
     13.720  0.5534E-01  0.1040E+01
     13.805  0.5209E-01  0.1045E+01
     13.891  0.4820E-01  0.1049E+01
     13.977  0.4567E-01  0.1053E+01
     14.062  0.4008E-01  0.1056E+01
     14.148  0.2866E-01  0.1059E+01
     14.234  0.1547E-01  0.1060E+01
     14.319  0.6083E-02  0.1060E+01
     14.405  0.1712E-02  0.1061E+01
     14.491  0.3416E-03  0.1061E+01
     14.577  0.4815E-04  0.1061E+01
     14.662  0.6071E-05  0.1061E+01
     14.748  0.1354E-04  0.1061E+01
     14.834  0.9312E-04  0.1061E+01
     14.919  0.4636E-03  0.1061E+01
     15.005  0.1643E-02  0.1061E+01
     15.091  0.4193E-02  0.1061E+01
     15.176  0.7830E-02  0.1062E+01
     15.262  0.1098E-01  0.1063E+01
     15.348  0.1202E-01  0.1064E+01
     15.433  0.1083E-01  0.1065E+01
     15.519  0.8579E-02  0.1066E+01
     15.605  0.6215E-02  0.1066E+01
     15.691  0.3998E-02  0.1066E+01
     15.776  0.2110E-02  0.1067E+01
     15.862  0.8492E-03  0.1067E+01
     15.948  0.2493E-03  0.1067E+01
     16.033  0.5221E-04  0.1067E+01
     16.119  0.7715E-05  0.1067E+01
     16.205  0.8000E-06  0.1067E+01
     16.290  0.5806E-07  0.1067E+01
     16.376  0.2944E-08  0.1067E+01
     16.462  0.1042E-09  0.1067E+01
     16.547  0.2571E-11  0.1067E+01
     16.633  0.4421E-13  0.1067E+01
     16.719  0.5295E-15  0.1067E+01
     16.805  0.4672E-17  0.1067E+01
     16.890  0.0000E+00  0.1067E+01
     16.976  0.0000E+00  0.1067E+01
     17.062  0.0000E+00  0.1067E+01
     17.147  0.0000E+00  0.1067E+01
     17.233  0.0000E+00  0.1067E+01
     17.319  0.0000E+00  0.1067E+01
     17.404  0.0000E+00  0.1067E+01
     17.490  0.0000E+00  0.1067E+01
     17.576  0.0000E+00  0.1067E+01
