    2    2   15    1
  0.1529437E+02  0.3691622E-09  0.3691622E-09  0.3691622E-09  0.5000000E-15
  1.000000000000000E-004
  CAR 
 unknown system                          
      8     40      8
 
  0.0000000E+00  0.0000000E+00  0.0000000E+00  0.2915452E-02
    1       -4.615052   1.000000
    2        6.205508   1.000000
    3        6.307003   1.000000
    4        6.307032   1.000000
    5       10.654506   0.000000
    6       17.073552   0.000000
    7       17.378720   0.000000
    8       17.378758   0.000000
 
  0.1428571E+00 -0.1404355E-16  0.1404355E-16  0.2332362E-01
    1       -4.039128   1.000000
    2        5.172906   1.000000
    3        6.251049   1.000000
    4        8.344369   0.999999
    5       11.798895   0.000000
    6       14.625096   0.000000
    7       15.001330   0.000000
    8       16.663982   0.000000
 
  0.2857143E+00 -0.2600542E-16  0.2600542E-16  0.2332362E-01
    1       -2.322493   1.000000
    2        5.155104   1.000000
    3        6.558194   1.000000
    4        9.003418   0.590388
    5       11.266831   0.000000
    6       12.185007   0.000000
    7       13.625356   0.000000
    8       14.449696   0.000000
 
  0.4285714E+00 -0.1733103E-16  0.1733103E-16  0.2332362E-01
    1        0.492253   1.000000
    2        4.373522   1.000000
    3        6.241833   1.000000
    4        7.484847   1.000000
    5        8.475078   0.999963
    6       11.053366   0.000000
    7       13.612761   0.000000
    8       14.592218   0.000000
 
  0.1428571E+00  0.1428571E+00  0.2808709E-16  0.2332362E-01
    1       -2.562685   1.000000
    2        5.445309   1.000000
    3        7.959071   1.000000
    4        9.112760   0.293008
    5       10.725880   0.000000
    6       11.190105   0.000000
    7       13.725851   0.000000
    8       14.502771   0.000000
 
  0.2857143E+00  0.1428571E+00  0.4508661E-16  0.4664723E-01
    1        0.024569   1.000000
    2        5.467318   1.000000
    3        6.340538   1.000000
    4        6.908576   1.000000
    5        9.456068   0.001478
    6       11.660640   0.000000
    7       12.404766   0.000000
    8       13.753604   0.000000
 
  0.4285714E+00  0.1428571E+00  0.7177282E-16  0.4664723E-01
    1        1.416650   1.000000
    2        3.666644   1.000000
    3        4.663465   1.000000
    4        7.552049   1.000000
    5        8.885313   0.856261
    6       11.607044   0.000000
    7       12.729391   0.000000
    8       16.193695   0.000000
 
 -0.4285714E+00  0.1428571E+00 -0.1801182E-16  0.4664723E-01
    1       -1.604917   1.000000
    2        3.229956   1.000000
    3        6.742397   1.000000
    4        8.317743   1.000000
    5       10.725917   0.000000
    6       12.607901   0.000000
    7       13.334487   0.000000
    8       15.363820   0.000000
 
 -0.2857143E+00  0.1428571E+00 -0.1576439E-16  0.4664723E-01
    1       -3.554754   1.000000
    2        2.969969   1.000000
    3        6.410359   1.000000
    4        9.709701   0.000001
    5       12.519584   0.000000
    6       13.868338   0.000000
    7       14.407146   0.000000
    8       16.059293   0.000000
 
 -0.1428571E+00  0.1428571E+00 -0.3929902E-17  0.1166181E-01
    1       -4.371939   1.000000
    2        3.762788   1.000000
    3        6.534720   1.000000
    4        7.960951   1.000000
    5       12.099243   0.000000
    6       14.413653   0.000000
    7       15.941002   0.000000
    8       19.460789   0.000000
 
  0.2857143E+00  0.2857143E+00  0.5201085E-16  0.2332362E-01
    1        2.657433   1.000000
    2        2.825710   1.000000
    3        3.658847   1.000000
    4        7.691333   1.000000
    5        9.369111   0.009204
    6       10.547885   0.000000
    7       14.731614   0.000000
    8       15.355016   0.000000
 
  0.4285714E+00  0.2857143E+00  0.7869706E-16  0.4664723E-01
    1       -0.418157   1.000000
    2        1.214898   1.000000
    3        7.615890   1.000000
    4        8.046245   1.000000
    5        9.323934   0.020783
    6       11.861227   0.000000
    7       14.454026   0.000000
    8       16.007877   0.000000
 
 -0.4285714E+00  0.2857143E+00 -0.2288370E-16  0.4664723E-01
    1       -2.591014   1.000000
    2        0.714859   1.000000
    3        7.297107   1.000000
    4       10.390345   0.000000
    5       10.817653   0.000000
    6       13.243946   0.000000
    7       14.823843   0.000000
    8       15.267992   0.000000
 
 -0.2857143E+00  0.2857143E+00 -0.7859804E-17  0.1166181E-01
    1       -3.645085   1.000000
    2        1.317385   1.000000
    3        7.217212   1.000000
    4        9.032639   0.508744
    5       11.968522   0.000000
    6       13.812802   0.000000
    7       15.358057   0.000000
    8       19.047868   0.000000
 
  0.4285714E+00  0.4285714E+00  0.1053833E-15  0.2332362E-01
    1       -1.161082   1.000000
    2       -1.159091   1.000000
    3        8.623079   0.998238
    4        8.668857   0.995260
    5       11.781577   0.000000
    6       12.354766   0.000000
    7       14.209392   0.000000
    8       15.115107   0.000000
 
 -0.4285714E+00  0.4285714E+00  0.4248060E-17  0.1166181E-01
    1       -2.441539   1.000000
    2       -0.777489   1.000000
    3        8.354756   0.999999
    4        9.948614   0.000000
    5       10.276156   0.000000
    6       11.878607   0.000000
    7       18.814280   0.000000
    8       18.868335   0.000000
 
  0.1428571E+00  0.1428571E+00  0.1428571E+00  0.2332362E-01
    1       -1.842561   1.000000
    2        3.061068   1.000000
    3        8.382727   0.999998
    4        9.240064   0.074258
    5       10.335256   0.000000
    6       11.216407   0.000000
    7       14.173687   0.000000
    8       14.856989   0.000000
 
  0.2857143E+00  0.1428571E+00  0.1428571E+00  0.4664723E-01
    1        0.964140   1.000000
    2        4.122203   1.000000
    3        4.928513   1.000000
    4        6.365396   1.000000
    5       10.659338   0.000000
    6       13.262111   0.000000
    7       13.954544   0.000000
    8       14.268600   0.000000
 
 -0.1428571E+00  0.1428571E+00  0.1428571E+00  0.1166181E-01
    1       -4.129530   1.000000
    2        3.461186   1.000000
    3        4.941428   1.000000
    4        9.861335   0.000000
    5       12.297393   0.000000
    6       12.970333   0.000000
    7       17.785875   0.000000
    8       18.159961   0.000000
 
  0.2857143E+00  0.2857143E+00  0.1428571E+00  0.2332362E-01
    1        2.336267   1.000000
    2        2.367255   1.000000
    3        4.675659   1.000000
    4        6.170979   1.000000
    5       11.737564   0.000000
    6       12.568117   0.000000
    7       14.508897   0.000000
    8       15.504985   0.000000
 
  0.4285714E+00  0.2857143E+00  0.1428571E+00  0.2332362E-01
    1       -0.650744   1.000000
    2        0.996137   1.000000
    3        8.723052   0.986483
    4        8.944502   0.740583
    5       10.731771   0.000000
    6       11.750492   0.000000
    7       12.616001   0.000000
    8       13.644241   0.000000
 
 -0.2857143E+00  0.2857143E+00  0.1428571E+00  0.2332362E-01
    1       -3.404905   1.000000
    2        1.490074   1.000000
    3        5.141033   1.000000
    4        9.878636   0.000000
    5       11.387288   0.000000
    6       15.784413   0.000000
    7       16.061923   0.000000
    8       18.540717   0.000000
 
 -0.1428571E+00  0.2857143E+00  0.1428571E+00  0.2332362E-01
    1       -3.073746   1.000000
    2        2.827404   1.000000
    3        4.463167   1.000000
    4       10.134349   0.000000
    5       11.755306   0.000000
    6       13.793706   0.000000
    7       15.388779   0.000000
    8       16.990681   0.000000
 
 -0.4285714E+00  0.4285714E+00  0.1428571E+00  0.2332362E-01
    1       -2.207003   1.000000
    2       -0.555996   1.000000
    3        6.241487   1.000000
    4        7.836588   1.000000
    5       12.693412   0.000000
    6       14.244881   0.000000
    7       18.123821   0.000000
    8       18.253990   0.000000
 
 -0.2857143E+00  0.4285714E+00  0.1428571E+00  0.4664723E-01
    1       -2.118070   1.000000
    2        1.104172   1.000000
    3        4.817524   1.000000
    4        7.935208   1.000000
    5       11.978163   0.000000
    6       14.577586   0.000000
    7       16.876760   0.000000
    8       17.499807   0.000000
 
 -0.1428571E+00  0.4285714E+00  0.1428571E+00  0.2332362E-01
    1       -0.896105   1.000000
    2        3.293635   1.000000
    3        4.981975   1.000000
    4        7.471110   1.000000
    5        9.017196   0.552158
    6       13.446722   0.000000
    7       15.081088   0.000000
    8       16.093010   0.000000
 
 -0.4285714E+00 -0.4285714E+00  0.1428571E+00  0.2332362E-01
    1       -0.709107   1.000000
    2       -0.703443   1.000000
    3        6.125456   1.000000
    4        6.132214   1.000000
    5       11.880353   0.000000
    6       15.551328   0.000000
    7       16.307502   0.000000
    8       16.846976   0.000000
 
 -0.2857143E+00 -0.4285714E+00  0.1428571E+00  0.4664723E-01
    1        0.268033   1.000000
    2        1.830374   1.000000
    3        5.514836   1.000000
    4        6.843540   1.000000
    5        7.295550   1.000000
    6       13.602773   0.000000
    7       16.697566   0.000000
    8       17.651200   0.000000
 
 -0.1428571E+00 -0.4285714E+00  0.1428571E+00  0.2332362E-01
    1        2.256763   1.000000
    2        3.076841   1.000000
    3        4.946029   1.000000
    4        6.470615   1.000000
    5        8.596960   0.999041
    6       11.183903   0.000000
    7       12.420585   0.000000
    8       16.544825   0.000000
 
 -0.2857143E+00 -0.2857143E+00  0.1428571E+00  0.2332362E-01
    1        2.622995   1.000000
    2        3.674317   1.000000
    3        3.842378   1.000000
    4        7.126747   1.000000
    5        7.282615   1.000000
    6       11.236711   0.000000
    7       14.014251   0.000000
    8       14.832804   0.000000
 
 -0.1428571E+00 -0.2857143E+00  0.1428571E+00  0.2332362E-01
    1       -0.448258   1.000000
    2        6.522841   1.000000
    3        7.373423   1.000000
    4        8.241877   1.000000
    5        8.324907   1.000000
    6       10.785929   0.000000
    7       11.296046   0.000000
    8       12.570754   0.000000
 
 -0.1428571E+00 -0.1428571E+00  0.1428571E+00  0.5830904E-02
    1       -2.803634   1.000000
    2        7.783319   1.000000
    3        7.783347   1.000000
    4        7.789736   1.000000
    5       11.117934   0.000000
    6       11.543191   0.000000
    7       12.490398   0.000000
    8       13.838274   0.000000
 
 -0.2857143E+00  0.2857143E+00  0.2857143E+00  0.1166181E-01
    1       -2.688567   1.000000
    2        1.553806   1.000000
    3        3.292768   1.000000
    4        7.435196   1.000000
    5       14.007450   0.000000
    6       17.173902   0.000000
    7       17.435521   0.000000
    8       18.145685   0.000000
 
 -0.4285714E+00  0.4285714E+00  0.2857143E+00  0.2332362E-01
    1       -1.512998   1.000000
    2        0.065424   1.000000
    3        3.843148   1.000000
    4        5.387958   1.000000
    5       15.542869   0.000000
    6       16.502974   0.000000
    7       18.012348   0.000000
    8       18.580276   0.000000
 
 -0.2857143E+00  0.4285714E+00  0.2857143E+00  0.2332362E-01
    1       -1.185238   1.000000
    2        1.394649   1.000000
    3        3.169478   1.000000
    4        5.695573   1.000000
    5       11.551450   0.000000
    6       17.275485   0.000000
    7       18.500955   0.000000
    8       19.282132   0.000000
 
 -0.4285714E+00 -0.4285714E+00  0.2857143E+00  0.2332362E-01
    1        0.147376   1.000000
    2        0.155999   1.000000
    3        3.933889   1.000000
    4        3.935119   1.000000
    5       11.367583   0.000000
    6       18.732286   0.000000
    7       18.827628   0.000000
    8       19.477749   0.000000
 
 -0.2857143E+00 -0.4285714E+00  0.2857143E+00  0.2332362E-01
    1        1.354743   1.000000
    2        2.346686   1.000000
    3        4.120715   1.000000
    4        5.081040   1.000000
    5        6.670219   1.000000
    6       15.450499   0.000000
    7       16.922145   0.000000
    8       18.230729   0.000000
 
 -0.2857143E+00 -0.2857143E+00  0.2857143E+00  0.5830904E-02
    1        2.450095   1.000000
    2        4.424695   1.000000
    3        4.560977   1.000000
    4        6.079162   1.000000
    5        6.079172   1.000000
    6       13.024844   0.000000
    7       13.765200   0.000000
    8       13.765217   0.000000
 
 -0.4285714E+00  0.4285714E+00  0.4285714E+00  0.1166181E-01
    1       -0.414702   1.000000
    2        0.588063   1.000000
    3        2.404534   1.000000
    4        3.393331   1.000000
    5       16.350277   0.000000
    6       16.501078   0.000000
    7       19.736152   0.000000
    8       20.675901   0.000000
 
 -0.4285714E+00 -0.4285714E+00  0.4285714E+00  0.5830904E-02
    1        0.905335   1.000000
    2        0.918618   1.000000
    3        2.723298   1.000000
    4        2.723305   1.000000
    5       11.175003   0.000000
    6       19.830311   0.000000
    7       20.767865   0.000000
    8       20.767884   0.000000
