    2    2   15    1
  0.1529437E+02  0.3691622E-09  0.3691622E-09  0.3691622E-09  0.5000000E-15
  1.000000000000000E-004
  CAR 
 unknown system                          
      8     40      8
 
  0.0000000E+00  0.0000000E+00  0.0000000E+00  0.2915452E-02
    1       -4.614671   1.000000
    2        6.205916   1.000000
    3        6.307331   1.000000
    4        6.307360   1.000000
    5       10.655043   0.000000
    6       17.074028   0.000000
    7       17.379026   0.000000
    8       17.379062   0.000000
 
  0.1428571E+00 -0.1404355E-16  0.1404355E-16  0.2332362E-01
    1       -4.038747   1.000000
    2        5.173273   1.000000
    3        6.251400   1.000000
    4        8.344741   0.999999
    5       11.799407   0.000000
    6       14.625514   0.000000
    7       15.001711   0.000000
    8       16.664350   0.000000
 
  0.2857143E+00 -0.2600542E-16  0.2600542E-16  0.2332362E-01
    1       -2.322111   1.000000
    2        5.155470   1.000000
    3        6.558574   1.000000
    4        9.003805   0.590400
    5       11.267202   0.000000
    6       12.185420   0.000000
    7       13.625791   0.000000
    8       14.450042   0.000000
 
  0.4285714E+00 -0.1733103E-16  0.1733103E-16  0.2332362E-01
    1        0.492638   1.000000
    2        4.373912   1.000000
    3        6.242194   1.000000
    4        7.485244   1.000000
    5        8.475455   0.999963
    6       11.053765   0.000000
    7       13.613109   0.000000
    8       14.592673   0.000000
 
  0.1428571E+00  0.1428571E+00  0.2808709E-16  0.2332362E-01
    1       -2.562302   1.000000
    2        5.445681   1.000000
    3        7.959415   1.000000
    4        9.113153   0.293003
    5       10.726249   0.000000
    6       11.190540   0.000000
    7       13.726329   0.000000
    8       14.503135   0.000000
 
  0.2857143E+00  0.1428571E+00  0.4508661E-16  0.4664723E-01
    1        0.024954   1.000000
    2        5.467707   1.000000
    3        6.340911   1.000000
    4        6.908956   1.000000
    5        9.456444   0.001479
    6       11.661028   0.000000
    7       12.405179   0.000000
    8       13.753979   0.000000
 
  0.4285714E+00  0.1428571E+00  0.7177282E-16  0.4664723E-01
    1        1.417036   1.000000
    2        3.667035   1.000000
    3        4.663836   1.000000
    4        7.552435   1.000000
    5        8.885698   0.856273
    6       11.607433   0.000000
    7       12.729772   0.000000
    8       16.194114   0.000000
 
 -0.4285714E+00  0.1428571E+00 -0.1801182E-16  0.4664723E-01
    1       -1.604535   1.000000
    2        3.230330   1.000000
    3        6.742780   1.000000
    4        8.318133   1.000000
    5       10.726301   0.000000
    6       12.608275   0.000000
    7       13.334904   0.000000
    8       15.364198   0.000000
 
 -0.2857143E+00  0.1428571E+00 -0.1576439E-16  0.4664723E-01
    1       -3.554374   1.000000
    2        2.970341   1.000000
    3        6.410722   1.000000
    4        9.710102   0.000001
    5       12.519967   0.000000
    6       13.868776   0.000000
    7       14.407568   0.000000
    8       16.059693   0.000000
 
 -0.1428571E+00  0.1428571E+00 -0.3929902E-17  0.1166181E-01
    1       -4.371558   1.000000
    2        3.763157   1.000000
    3        6.535049   1.000000
    4        7.961363   1.000000
    5       12.099734   0.000000
    6       14.414020   0.000000
    7       15.941383   0.000000
    8       19.461122   0.000000
 
  0.2857143E+00  0.2857143E+00  0.5201085E-16  0.2332362E-01
    1        2.657825   1.000000
    2        2.826094   1.000000
    3        3.659223   1.000000
    4        7.691715   1.000000
    5        9.369494   0.009206
    6       10.548279   0.000000
    7       14.731946   0.000000
    8       15.355442   0.000000
 
  0.4285714E+00  0.2857143E+00  0.7869706E-16  0.4664723E-01
    1       -0.417776   1.000000
    2        1.215277   1.000000
    3        7.616281   1.000000
    4        8.046629   1.000000
    5        9.324312   0.020787
    6       11.861615   0.000000
    7       14.454436   0.000000
    8       16.008254   0.000000
 
 -0.4285714E+00  0.2857143E+00 -0.2288370E-16  0.4664723E-01
    1       -2.590634   1.000000
    2        0.715236   1.000000
    3        7.297472   1.000000
    4       10.390718   0.000000
    5       10.818067   0.000000
    6       13.244353   0.000000
    7       14.824244   0.000000
    8       15.268396   0.000000
 
 -0.2857143E+00  0.2857143E+00 -0.7859804E-17  0.1166181E-01
    1       -3.644705   1.000000
    2        1.317760   1.000000
    3        7.217543   1.000000
    4        9.033085   0.508592
    5       11.968872   0.000000
    6       13.813225   0.000000
    7       15.358507   0.000000
    8       19.048154   0.000000
 
  0.4285714E+00  0.4285714E+00  0.1053833E-15  0.2332362E-01
    1       -1.160704   1.000000
    2       -1.158712   1.000000
    3        8.623447   0.998239
    4        8.669223   0.995263
    5       11.781991   0.000000
    6       12.355182   0.000000
    7       14.209798   0.000000
    8       15.115510   0.000000
 
 -0.4285714E+00  0.4285714E+00  0.4248060E-17  0.1166181E-01
    1       -2.441160   1.000000
    2       -0.777112   1.000000
    3        8.355093   0.999999
    4        9.948955   0.000000
    5       10.276607   0.000000
    6       11.879050   0.000000
    7       18.811514   0.000000
    8       18.867385   0.000000
 
  0.1428571E+00  0.1428571E+00  0.1428571E+00  0.2332362E-01
    1       -1.842179   1.000000
    2        3.061445   1.000000
    3        8.383086   0.999998
    4        9.240455   0.074259
    5       10.335616   0.000000
    6       11.216863   0.000000
    7       14.174031   0.000000
    8       14.857366   0.000000
 
  0.2857143E+00  0.1428571E+00  0.1428571E+00  0.4664723E-01
    1        0.964526   1.000000
    2        4.122591   1.000000
    3        4.928893   1.000000
    4        6.365779   1.000000
    5       10.659711   0.000000
    6       13.262502   0.000000
    7       13.954940   0.000000
    8       14.268964   0.000000
 
 -0.1428571E+00  0.1428571E+00  0.1428571E+00  0.1166181E-01
    1       -4.129150   1.000000
    2        3.461549   1.000000
    3        4.941806   1.000000
    4        9.861710   0.000000
    5       12.297770   0.000000
    6       12.970819   0.000000
    7       17.786183   0.000000
    8       18.160434   0.000000
 
  0.2857143E+00  0.2857143E+00  0.1428571E+00  0.2332362E-01
    1        2.336653   1.000000
    2        2.367641   1.000000
    3        4.676042   1.000000
    4        6.171362   1.000000
    5       11.737939   0.000000
    6       12.568491   0.000000
    7       14.509294   0.000000
    8       15.505299   0.000000
 
  0.4285714E+00  0.2857143E+00  0.1428571E+00  0.2332362E-01
    1       -0.650363   1.000000
    2        0.996517   1.000000
    3        8.723435   0.986485
    4        8.944892   0.740585
    5       10.732117   0.000000
    6       11.750880   0.000000
    7       12.616409   0.000000
    8       13.644672   0.000000
 
 -0.2857143E+00  0.2857143E+00  0.1428571E+00  0.2332362E-01
    1       -3.404525   1.000000
    2        1.490446   1.000000
    3        5.141413   1.000000
    4        9.879014   0.000000
    5       11.387685   0.000000
    6       15.784861   0.000000
    7       16.062321   0.000000
    8       18.539418   0.000000
 
 -0.1428571E+00  0.2857143E+00  0.1428571E+00  0.2332362E-01
    1       -3.073366   1.000000
    2        2.827766   1.000000
    3        4.463561   1.000000
    4       10.134732   0.000000
    5       11.755691   0.000000
    6       13.794104   0.000000
    7       15.389239   0.000000
    8       16.991089   0.000000
 
 -0.4285714E+00  0.4285714E+00  0.1428571E+00  0.2332362E-01
    1       -2.206624   1.000000
    2       -0.555620   1.000000
    3        6.241866   1.000000
    4        7.836968   1.000000
    5       12.693818   0.000000
    6       14.245287   0.000000
    7       18.124247   0.000000
    8       18.254420   0.000000
 
 -0.2857143E+00  0.4285714E+00  0.1428571E+00  0.4664723E-01
    1       -2.117691   1.000000
    2        1.104544   1.000000
    3        4.817913   1.000000
    4        7.935593   1.000000
    5       11.978560   0.000000
    6       14.577989   0.000000
    7       16.877174   0.000000
    8       17.500176   0.000000
 
 -0.1428571E+00  0.4285714E+00  0.1428571E+00  0.2332362E-01
    1       -0.895725   1.000000
    2        3.293998   1.000000
    3        4.982377   1.000000
    4        7.471502   1.000000
    5        9.017579   0.552183
    6       13.447108   0.000000
    7       15.081484   0.000000
    8       16.093426   0.000000
 
 -0.4285714E+00 -0.4285714E+00  0.1428571E+00  0.2332362E-01
    1       -0.708731   1.000000
    2       -0.703066   1.000000
    3        6.125842   1.000000
    4        6.132599   1.000000
    5       11.880752   0.000000
    6       15.551729   0.000000
    7       16.307903   0.000000
    8       16.847385   0.000000
 
 -0.2857143E+00 -0.4285714E+00  0.1428571E+00  0.4664723E-01
    1        0.268412   1.000000
    2        1.830747   1.000000
    3        5.515231   1.000000
    4        6.843936   1.000000
    5        7.295930   1.000000
    6       13.603167   0.000000
    7       16.697957   0.000000
    8       17.651592   0.000000
 
 -0.1428571E+00 -0.4285714E+00  0.1428571E+00  0.2332362E-01
    1        2.257153   1.000000
    2        3.077224   1.000000
    3        4.946388   1.000000
    4        6.471022   1.000000
    5        8.597345   0.999041
    6       11.184291   0.000000
    7       12.420964   0.000000
    8       16.545233   0.000000
 
 -0.2857143E+00 -0.2857143E+00  0.1428571E+00  0.2332362E-01
    1        2.623392   1.000000
    2        3.674696   1.000000
    3        3.842743   1.000000
    4        7.127143   1.000000
    5        7.283007   1.000000
    6       11.237101   0.000000
    7       14.014589   0.000000
    8       14.833225   0.000000
 
 -0.1428571E+00 -0.2857143E+00  0.1428571E+00  0.2332362E-01
    1       -0.447872   1.000000
    2        6.523222   1.000000
    3        7.373787   1.000000
    4        8.242271   1.000000
    5        8.325282   1.000000
    6       10.786349   0.000000
    7       11.296414   0.000000
    8       12.571114   0.000000
 
 -0.1428571E+00 -0.1428571E+00  0.1428571E+00  0.5830904E-02
    1       -2.803252   1.000000
    2        7.783661   1.000000
    3        7.783689   1.000000
    4        7.790137   1.000000
    5       11.118301   0.000000
    6       11.543613   0.000000
    7       12.490922   0.000000
    8       13.838651   0.000000
 
 -0.2857143E+00  0.2857143E+00  0.2857143E+00  0.1166181E-01
    1       -2.688188   1.000000
    2        1.554165   1.000000
    3        3.293170   1.000000
    4        7.435581   1.000000
    5       14.007839   0.000000
    6       17.174332   0.000000
    7       17.435964   0.000000
    8       18.146120   0.000000
 
 -0.4285714E+00  0.4285714E+00  0.2857143E+00  0.2332362E-01
    1       -1.512621   1.000000
    2        0.065795   1.000000
    3        3.843540   1.000000
    4        5.388346   1.000000
    5       15.543269   0.000000
    6       16.503389   0.000000
    7       18.012773   0.000000
    8       18.580670   0.000000
 
 -0.2857143E+00  0.4285714E+00  0.2857143E+00  0.2332362E-01
    1       -1.184861   1.000000
    2        1.395008   1.000000
    3        3.169884   1.000000
    4        5.695962   1.000000
    5       11.551850   0.000000
    6       17.275887   0.000000
    7       18.501395   0.000000
    8       19.282506   0.000000
 
 -0.4285714E+00 -0.4285714E+00  0.2857143E+00  0.2332362E-01
    1        0.147747   1.000000
    2        0.156371   1.000000
    3        3.934285   1.000000
    4        3.935513   1.000000
    5       11.367983   0.000000
    6       18.732696   0.000000
    7       18.828063   0.000000
    8       19.478144   0.000000
 
 -0.2857143E+00 -0.4285714E+00  0.2857143E+00  0.2332362E-01
    1        1.355117   1.000000
    2        2.347047   1.000000
    3        4.121125   1.000000
    4        5.081438   1.000000
    5        6.670607   1.000000
    6       15.450911   0.000000
    7       16.922519   0.000000
    8       18.231143   0.000000
 
 -0.2857143E+00 -0.2857143E+00  0.2857143E+00  0.5830904E-02
    1        2.450490   1.000000
    2        4.425062   1.000000
    3        4.561328   1.000000
    4        6.079573   1.000000
    5        6.079583   1.000000
    6       13.025281   0.000000
    7       13.765540   0.000000
    8       13.765557   0.000000
 
 -0.4285714E+00  0.4285714E+00  0.4285714E+00  0.1166181E-01
    1       -0.414331   1.000000
    2        0.588421   1.000000
    3        2.404941   1.000000
    4        3.393726   1.000000
    5       16.350689   0.000000
    6       16.501495   0.000000
    7       19.736575   0.000000
    8       20.676286   0.000000
 
 -0.4285714E+00 -0.4285714E+00  0.4285714E+00  0.5830904E-02
    1        0.905693   1.000000
    2        0.918976   1.000000
    3        2.723707   1.000000
    4        2.723713   1.000000
    5       11.175403   0.000000
    6       19.830797   0.000000
    7       20.768290   0.000000
    8       20.768301   0.000000
