       N       E                     dE             d eps       ncg     rms          rms(c)
DAV:   1    -0.603211135478E+01   -0.60321E+01   -0.16917E+03   672   0.306E+02
DAV:   2    -0.101325050197E+02   -0.41004E+01   -0.40340E+01  1040   0.357E+01
DAV:   3    -0.101547398477E+02   -0.22235E-01   -0.22233E-01   744   0.317E+00
DAV:   4    -0.101547597294E+02   -0.19882E-04   -0.19881E-04  1000   0.807E-02
DAV:   5    -0.101547597515E+02   -0.22072E-07   -0.23140E-07   704   0.173E-03    0.149E+00
DAV:   6    -0.101463426369E+02    0.84171E-02   -0.17201E-03   816   0.258E-01    0.930E-01
DAV:   7    -0.101398263738E+02    0.65163E-02   -0.48990E-03   736   0.454E-01    0.348E-02
DAV:   8    -0.101398045650E+02    0.21809E-04   -0.70422E-05   400   0.597E-02
   1 F= -.10139805E+02 E0= -.10131766E+02  d E =-.101398E+02
