 vasp.5.4.4.18Apr17-6-g9f103f2a35 (build Dec 09 2018 21:25:21) complex          
  
 executed on IFC18.0.1.163_CrayMP date 2019.03.18  04:29:10
 running on    8 total cores
 distrk:  each k-point on    8 cores,    1 groups
 distr:  one band on NCORES_PER_BAND=   1 cores,    8 groups


--------------------------------------------------------------------------------------------------------


 INCAR:
 POTCAR:   PAW_PBE Si 05Jan2001                   

 ----------------------------------------------------------------------------- 
|                                                                             |
|           W    W    AA    RRRRR   N    N  II  N    N   GGGG   !!!           |
|           W    W   A  A   R    R  NN   N  II  NN   N  G    G  !!!           |
|           W    W  A    A  R    R  N N  N  II  N N  N  G       !!!           |
|           W WW W  AAAAAA  RRRRR   N  N N  II  N  N N  G  GGG   !            |
|           WW  WW  A    A  R   R   N   NN  II  N   NN  G    G                |
|           W    W  A    A  R    R  N    N  II  N    N   GGGG   !!!           |
|                                                                             |
|      For optimal performance we recommend to set                            |
|        NCORE= 4 - approx SQRT( number of cores)                             |
|      NCORE specifies how many cores store one orbital (NPAR=cpu/NCORE).     |
|      This setting can  greatly improve the performance of VASP for DFT.     |
|      The default,   NCORE=1            might be grossly inefficient         |
|      on modern multi-core architectures or massively parallel machines.     |
|      Do your own testing !!!!                                               |
|      Unfortunately you need to use the default for GW and RPA calculations. |
|      (for HF NCORE is supported but not extensively tested yet)             |
|                                                                             |
 ----------------------------------------------------------------------------- 

 POTCAR:   PAW_PBE Si 05Jan2001                   
   VRHFIN =Si: s2p2                                                             
   LEXCH  = PE                                                                  
   EATOM  =   103.0669 eV,    7.5752 Ry                                         
                                                                                
   TITEL  = PAW_PBE Si 05Jan2001                                                
   LULTRA =        F    use ultrasoft PP ?                                      
   IUNSCR =        1    unscreen: 0-lin 1-nonlin 2-no                           
   RPACOR =    1.500    partial core radius                                     
   POMASS =   28.085; ZVAL   =    4.000    mass and valenz                      
   RCORE  =    1.900    outmost cutoff radius                                   
   RWIGS  =    2.480; RWIGS  =    1.312    wigner-seitz radius (au A)           
   ENMAX  =  245.345; ENMIN  =  184.009 eV                                      
   ICORE  =        2    local potential                                         
   LCOR   =        T    correct aug charges                                     
   LPAW   =        T    paw PP                                                  
   EAUG   =  322.069                                                            
   DEXC   =    -.007                                                            
   RMAX   =    2.944    core radius for proj-oper                               
   RAUG   =    1.300    factor for augmentation sphere                          
   RDEP   =    1.993    radius for radial grids                                 
   QCUT   =   -4.246; QGAM   =    8.493    optimization parameters              
                                                                                
   Description                                                                  
     l     E      TYP  RCUT    TYP  RCUT                                        
     0   .000     23  1.900                                                     
     0   .000     23  1.900                                                     
     1   .000     23  1.900                                                     
     1   .000     23  1.900                                                     
     2   .000      7  1.900                                                     
  local pseudopotential read in
  partial core-charges read in
  atomic valenz-charges read in
  non local Contribution for L=           0  read in
    real space projection operators read in
  non local Contribution for L=           0  read in
    real space projection operators read in
  non local Contribution for L=           1  read in
    real space projection operators read in
  non local Contribution for L=           1  read in
    real space projection operators read in
    PAW grid and wavefunctions read in
 
   number of l-projection  operators is LMAX  =           4
   number of lm-projection operators is LMMAX =           8
 
 PAW_PBE Si 05Jan2001                   :
 energy of atom  1       EATOM= -103.0669
 kinetic energy error for atom=    0.0210 (will be added to EATOM!!)
 
 
 POSCAR: Si2                                     
  positions in direct lattice
  No initial velocities read in
 exchange correlation table for  LEXCH =        8
   RHO(1)=    0.500       N(1)  =     2000
   RHO(2)=  100.500       N(2)  =     4000
 


--------------------------------------------------------------------------------------------------------


 ion  position               nearest neighbor table
   1  0.250  0.750  0.500-   2 2.53   2 2.53   2 2.53   2 2.53   2 3.11   2 3.11   2 3.11   2 3.11

   2  0.000  0.000  0.000-   1 2.53   1 2.53   1 2.53   1 2.53   1 3.11   1 3.11   1 3.11   1 3.11

 
  LATTYP: Found a body centered tetragonal cell.
 ALAT       =     4.9000000000
 C/A-ratio  =     0.5200000000
  
  Lattice vectors:
  
 A1 = (  -2.4500000000,   2.4500000000,   1.2740000000)
 A2 = (   2.4500000000,  -2.4500000000,   1.2740000000)
 A3 = (   2.4500000000,   2.4500000000,  -1.2740000000)


Analysis of symmetry for initial positions (statically):
=====================================================================
 Subroutine PRICEL returns:
 Original cell was already a primitive cell.
 

 Routine SETGRP: Setting up the symmetry group for a 
 body centered tetragonal supercell.


 Subroutine GETGRP returns: Found 16 space group operations
 (whereof  8 operations were pure point group operations)
 out of a pool of 16 trial point group operations.


The static configuration has the point symmetry D_2d.
 The point group associated with its full space group is D_4h.


Analysis of symmetry for dynamics (positions and initial velocities):
=====================================================================
 Subroutine PRICEL returns:
 Original cell was already a primitive cell.
 

 Routine SETGRP: Setting up the symmetry group for a 
 body centered tetragonal supercell.


 Subroutine GETGRP returns: Found 16 space group operations
 (whereof  8 operations were pure point group operations)
 out of a pool of 16 trial point group operations.


The dynamic configuration has the point symmetry D_2d.
 The point group associated with its full space group is D_4h.


 Subroutine INISYM returns: Found 16 space group operations
 (whereof  8 operations are pure point group operations),
 and found     1 'primitive' translations

 
 
 KPOINTS: Automatic kpoint scheme                 

Automatic generation of k-mesh.
Space group operators:
 irot       det(A)        alpha          n_x          n_y          n_z        tau_x        tau_y        tau_z
    1     1.000000     0.000000     1.000000     0.000000     0.000000     0.000000     0.000000     0.000000
    2    -1.000000    90.000000    -0.000000    -0.000000    -1.000000     0.000000     0.000000     0.000000
    3     1.000000   180.000000    -0.000000    -0.000000    -1.000000     0.000000     0.000000     0.000000
    4    -1.000000    90.000000    -0.000000     0.000000     1.000000     0.000000     0.000000     0.000000
    5    -1.000000   180.000000     0.000000    -1.000000     0.000000     0.000000     0.000000     0.000000
    6     1.000000   180.000000     0.707107     0.707107    -0.000000     0.000000     0.000000     0.000000
    7    -1.000000   180.000000     1.000000     0.000000     0.000000     0.000000     0.000000     0.000000
    8     1.000000   180.000000     0.707107    -0.707107     0.000000     0.000000     0.000000     0.000000
    9    -1.000000     0.000000     1.000000     0.000000     0.000000     0.250000     0.750000     0.500000
   10     1.000000    90.000000    -0.000000    -0.000000    -1.000000     0.250000     0.750000     0.500000
   11    -1.000000   180.000000    -0.000000    -0.000000    -1.000000     0.250000     0.750000     0.500000
   12     1.000000    90.000000    -0.000000     0.000000     1.000000     0.250000     0.750000     0.500000
   13     1.000000   180.000000     0.000000    -1.000000     0.000000     0.250000     0.750000     0.500000
   14    -1.000000   180.000000     0.707107     0.707107    -0.000000     0.250000     0.750000     0.500000
   15     1.000000   180.000000     1.000000     0.000000     0.000000     0.250000     0.750000     0.500000
   16    -1.000000   180.000000     0.707107    -0.707107     0.000000     0.250000     0.750000     0.500000
 
 Subroutine IBZKPT returns following result:
 ===========================================
 
 Found     40 irreducible k-points:
 
 Following reciprocal coordinates:
            Coordinates               Weight
  0.000000  0.000000  0.000000      1.000000
  0.142857 -0.000000  0.000000      8.000000
  0.285714 -0.000000  0.000000      8.000000
  0.428571 -0.000000  0.000000      8.000000
  0.142857  0.142857  0.000000      8.000000
  0.285714  0.142857  0.000000     16.000000
  0.428571  0.142857  0.000000     16.000000
 -0.428571  0.142857 -0.000000     16.000000
 -0.285714  0.142857 -0.000000     16.000000
 -0.142857  0.142857 -0.000000      4.000000
  0.285714  0.285714  0.000000      8.000000
  0.428571  0.285714  0.000000     16.000000
 -0.428571  0.285714 -0.000000     16.000000
 -0.285714  0.285714 -0.000000      4.000000
  0.428571  0.428571  0.000000      8.000000
 -0.428571  0.428571  0.000000      4.000000
  0.142857  0.142857  0.142857      8.000000
  0.285714  0.142857  0.142857     16.000000
 -0.142857  0.142857  0.142857      4.000000
  0.285714  0.285714  0.142857      8.000000
  0.428571  0.285714  0.142857      8.000000
 -0.285714  0.285714  0.142857      8.000000
 -0.142857  0.285714  0.142857      8.000000
 -0.428571  0.428571  0.142857      8.000000
 -0.285714  0.428571  0.142857     16.000000
 -0.142857  0.428571  0.142857      8.000000
 -0.428571 -0.428571  0.142857      8.000000
 -0.285714 -0.428571  0.142857     16.000000
 -0.142857 -0.428571  0.142857      8.000000
 -0.285714 -0.285714  0.142857      8.000000
 -0.142857 -0.285714  0.142857      8.000000
 -0.142857 -0.142857  0.142857      2.000000
 -0.285714  0.285714  0.285714      4.000000
 -0.428571  0.428571  0.285714      8.000000
 -0.285714  0.428571  0.285714      8.000000
 -0.428571 -0.428571  0.285714      8.000000
 -0.285714 -0.428571  0.285714      8.000000
 -0.285714 -0.285714  0.285714      2.000000
 -0.428571  0.428571  0.428571      4.000000
 -0.428571 -0.428571  0.428571      2.000000
 
 Following cartesian coordinates:
            Coordinates               Weight
  0.000000  0.000000  0.000000      1.000000
  0.000000  0.029155  0.056066      8.000000
  0.000000  0.058309  0.112133      8.000000
  0.000000  0.087464  0.168199      8.000000
  0.029155  0.029155  0.112133      8.000000
  0.029155  0.058309  0.168199     16.000000
  0.029155  0.087464  0.224266     16.000000
  0.029155 -0.087464 -0.112133     16.000000
  0.029155 -0.058309 -0.056066     16.000000
  0.029155 -0.029155  0.000000      4.000000
  0.058309  0.058309  0.224266      8.000000
  0.058309  0.087464  0.280332     16.000000
  0.058309 -0.087464 -0.056066     16.000000
  0.058309 -0.058309  0.000000      4.000000
  0.087464  0.087464  0.336398      8.000000
  0.087464 -0.087464  0.000000      4.000000
  0.058309  0.058309  0.112133      8.000000
  0.058309  0.087464  0.168199     16.000000
  0.058309 -0.000000 -0.000000      4.000000
  0.087464  0.087464  0.224266      8.000000
  0.087464  0.116618  0.280332      8.000000
  0.087464 -0.029155 -0.000000      8.000000
  0.087464  0.000000  0.056066      8.000000
  0.116618 -0.058309  0.000000      8.000000
  0.116618 -0.029155  0.056066     16.000000
  0.116618  0.000000  0.112133      8.000000
 -0.058309 -0.058309 -0.336398      8.000000
 -0.058309 -0.029155 -0.280332     16.000000
 -0.058309  0.000000 -0.224266      8.000000
 -0.029155 -0.029155 -0.224266      8.000000
 -0.029155 -0.000000 -0.168199      8.000000
  0.000000  0.000000 -0.112133      2.000000
  0.116618  0.000000 -0.000000      4.000000
  0.145773 -0.029155  0.000000      8.000000
  0.145773  0.000000  0.056066      8.000000
 -0.029155 -0.029155 -0.336398      8.000000
 -0.029155  0.000000 -0.280332      8.000000
  0.000000  0.000000 -0.224266      2.000000
  0.174927 -0.000000  0.000000      4.000000
 -0.000000  0.000000 -0.336398      2.000000
 


--------------------------------------------------------------------------------------------------------




 Dimension of arrays:
   k-points           NKPTS =     40   k-points in BZ     NKDIM =     40   number of bands    NBANDS=      8
   number of dos      NEDOS =    301   number of ions     NIONS =      2
   non local maximal  LDIM  =      4   non local SUM 2l+1 LMDIM =      8
   total plane-waves  NPLWV =   1728
   max r-space proj   IRMAX =      1   max aug-charges    IRDMAX=   2088
   dimension x,y,z NGX =    12 NGY =   12 NGZ =   12
   dimension x,y,z NGXF=    24 NGYF=   24 NGZF=   24
   support grid    NGXF=    24 NGYF=   24 NGZF=   24
   ions per type =               2
   NGX,Y,Z   is equivalent  to a cutoff of   5.40,  5.40,  5.40 a.u.
   NGXF,Y,Z  is equivalent  to a cutoff of  10.81, 10.81, 10.81 a.u.

 SYSTEM =  unknown system                          
 POSCAR =  Si2                                     

 Startparameter for this run:
   NWRITE =      2    write-flag & timer
   PREC   = normal    normal or accurate (medium, high low for compatibility)
   ISTART =      0    job   : 0-new  1-cont  2-samecut
   ICHARG =      2    charge: 1-file 2-atom 10-const
   ISPIN  =      1    spin polarized calculation?
   LNONCOLLINEAR =      F non collinear calculations
   LSORBIT =      F    spin-orbit coupling
   INIWAV =      1    electr: 0-lowe 1-rand  2-diag
   LASPH  =      F    aspherical Exc in radial PAW
   METAGGA=      F    non-selfconsistent MetaGGA calc.

 Electronic Relaxation 1
   ENCUT  =  150.0 eV  11.02 Ry    3.32 a.u.   3.69  3.69  3.69*2*pi/ulx,y,z
   ENINI  =  150.0     initial cutoff
   ENAUG  =  322.1 eV  augmentation charge cutoff
   NELM   =     60;   NELMIN=  2; NELMDL=  0     # of ELM steps 
   EDIFF  = 0.4E-03   stopping-criterion for ELM
   LREAL  =      F    real-space projection
   NLSPLINE    = F    spline interpolate recip. space projectors
   LCOMPAT=      F    compatible to vasp.4.4
   GGA_COMPAT  = T    GGA compatible to vasp.4.4-vasp.4.6
   LMAXPAW     = -100 max onsite density
   LMAXMIX     =    2 max onsite mixed and CHGCAR
   VOSKOWN=      0    Vosko Wilk Nusair interpolation
   ROPT   =    0.00000
 Ionic relaxation
   EDIFFG = -.1E-01   stopping-criterion for IOM
   NSW    =     15    number of steps for IOM
   NBLOCK =      1;   KBLOCK =     15    inner block; outer block 
   IBRION =      2    ionic relax: 0-MD 1-quasi-New 2-CG
   NFREE  =      1    steps in history (QN), initial steepest desc. (CG)
   ISIF   =      2    stress and relaxation
   IWAVPR =     11    prediction:  0-non 1-charg 2-wave 3-comb
   ISYM   =      2    0-nonsym 1-usesym 2-fastsym
   LCORR  =      T    Harris-Foulkes like correction to forces

   POTIM  = 0.5000    time-step for ionic-motion
   TEIN   =    0.0    initial temperature
   TEBEG  =    0.0;   TEEND  =   0.0 temperature during run
   SMASS  =  -3.00    Nose mass-parameter (am)
   estimated Nose-frequenzy (Omega)   =  0.10E-29 period in steps =****** mass=  -0.311E-27a.u.
   SCALEE = 1.0000    scale energy and forces
   NPACO  =    256;   APACO  = 16.0  distance and # of slots for P.C.
   PSTRESS=    0.0 pullay stress

  Mass of Ions in am
   POMASS =  28.09
  Ionic Valenz
   ZVAL   =   4.00
  Atomic Wigner-Seitz radii
   RWIGS  =  -1.00
  virtual crystal weights 
   VCA    =   1.00
   NELECT =       8.0000    total number of electrons
   NUPDOWN=      -1.0000    fix difference up-down

 DOS related values:
   EMIN   =  10.00;   EMAX   =-10.00  energy-range for DOS
   EFERMI =   0.00
   ISMEAR =     0;   SIGMA  =   0.20  broadening in eV -4-tet -1-fermi 0-gaus

 Electronic relaxation 2 (details)
   IALGO  =     38    algorithm
   LDIAG  =      T    sub-space diagonalisation (order eigenvalues)
   LSUBROT=      F    optimize rotation matrix (better conditioning)
   TURBO    =      0    0=normal 1=particle mesh
   IRESTART =      0    0=no restart 2=restart with 2 vectors
   NREBOOT  =      0    no. of reboots
   NMIN     =      0    reboot dimension
   EREF     =   0.00    reference energy to select bands
   IMIX   =      4    mixing-type and parameters
     AMIX     =   0.40;   BMIX     =  1.00
     AMIX_MAG =   1.60;   BMIX_MAG =  1.00
     AMIN     =   0.10
     WC   =   100.;   INIMIX=   1;  MIXPRE=   1;  MAXMIX= -45

 Intra band minimization:
   WEIMIN = 0.0010     energy-eigenvalue tresh-hold
   EBREAK =  0.13E-04  absolut break condition
   DEPER  =   0.30     relativ break condition  

   TIME   =   0.40     timestep for ELM

  volume/ion in A,a.u.               =      15.29       103.21
  Fermi-wavevector in a.u.,A,eV,Ry     =   1.046930  1.978411 14.912834  1.096062
  Thomas-Fermi vector in A             =   2.181789
 
 Write flags
   LWAVE        =      T    write WAVECAR
   LDOWNSAMPLE  =      F    k-point downsampling of WAVECAR
   LCHARG       =      T    write CHGCAR
   LVTOT        =      F    write LOCPOT, total local potential
   LVHAR        =      F    write LOCPOT, Hartree potential only
   LELF         =      F    write electronic localiz. function (ELF)
   LORBIT       =      0    0 simple, 1 ext, 2 COOP (PROOUT), +10 PAW based schemes


 Dipole corrections
   LMONO  =      F    monopole corrections only (constant potential shift)
   LDIPOL =      F    correct potential (dipole corrections)
   IDIPOL =      0    1-x, 2-y, 3-z, 4-all directions 
   EPSILON=  1.0000000 bulk dielectric constant

 Exchange correlation treatment:
   GGA     =    --    GGA type
   LEXCH   =     8    internal setting for exchange type
   VOSKOWN=      0    Vosko Wilk Nusair interpolation
   LHFCALC =     F    Hartree Fock is set to
   LHFONE  =     F    Hartree Fock one center treatment
   AEXX    =    0.0000 exact exchange contribution

 Linear response parameters
   LEPSILON=     F    determine dielectric tensor
   LRPA    =     F    only Hartree local field effects (RPA)
   LNABLA  =     F    use nabla operator in PAW spheres
   LVEL    =     F    velocity operator in full k-point grid
   LINTERFAST=   F  fast interpolation
   KINTER  =     0    interpolate to denser k-point grid
   CSHIFT  =0.1000    complex shift for real part using Kramers Kronig
   OMEGAMAX=  -1.0    maximum frequency
   DEG_THRESHOLD= 0.2000000E-02 threshold for treating states as degnerate
   RTIME   =   -0.100 relaxation time in fs
  (WPLASMAI=    0.000 imaginary part of plasma frequency in eV, 0.658/RTIME)
   DFIELD  = 0.0000000 0.0000000 0.0000000 field for delta impulse in time
 
 Orbital magnetization related:
   ORBITALMAG=     F  switch on orbital magnetization
   LCHIMAG   =     F  perturbation theory with respect to B field
   DQ        =  0.001000  dq finite difference perturbation B field
   LLRAUG    =     F  two centre corrections for induced B field



--------------------------------------------------------------------------------------------------------


 conjugate gradient relaxation of ions
 charge density and potential will be updated during run
 non-spin polarized calculation
 Variant of blocked Davidson
 Davidson routine will perform the subspace rotation
 perform sub-space diagonalisation
    after iterative eigenvector-optimisation
 modified Broyden-mixing scheme, WC =      100.0
 initial mixing is a Kerker type mixing with AMIX =  0.4000 and BMIX =      1.0000
 Hartree-type preconditioning will be used
 using additional bands            4
 reciprocal scheme for non local part
 use partial core corrections
 calculate Harris-corrections to forces 
   (improved forces if not selfconsistent)
 use gradient corrections 
 use of overlap-Matrix (Vanderbilt PP)
 Gauss-broadening in eV      SIGMA  =   0.20


--------------------------------------------------------------------------------------------------------


  energy-cutoff  :      150.00
  volume of cell :       30.59
      direct lattice vectors                 reciprocal lattice vectors
    -2.450000000  2.450000000  1.274000000     0.000000000  0.204081633  0.392464678
     2.450000000 -2.450000000  1.274000000     0.204081633  0.000000000  0.392464678
     2.450000000  2.450000000 -1.274000000     0.204081633  0.204081633 -0.000000000

  length of vectors
     3.691622408  3.691622408  3.691622408     0.442354876  0.442354876  0.288615013


 
 k-points in units of 2pi/SCALE and weight: Automatic kpoint scheme                 
   0.00000000  0.00000000  0.00000000       0.003
   0.00000000  0.02915452  0.05606638       0.023
   0.00000000  0.05830904  0.11213277       0.023
   0.00000000  0.08746356  0.16819915       0.023
   0.02915452  0.02915452  0.11213277       0.023
   0.02915452  0.05830904  0.16819915       0.047
   0.02915452  0.08746356  0.22426553       0.047
   0.02915452 -0.08746356 -0.11213277       0.047
   0.02915452 -0.05830904 -0.05606638       0.047
   0.02915452 -0.02915452  0.00000000       0.012
   0.05830904  0.05830904  0.22426553       0.023
   0.05830904  0.08746356  0.28033191       0.047
   0.05830904 -0.08746356 -0.05606638       0.047
   0.05830904 -0.05830904  0.00000000       0.012
   0.08746356  0.08746356  0.33639830       0.023
   0.08746356 -0.08746356  0.00000000       0.012
   0.05830904  0.05830904  0.11213277       0.023
   0.05830904  0.08746356  0.16819915       0.047
   0.05830904 -0.00000000  0.00000000       0.012
   0.08746356  0.08746356  0.22426553       0.023
   0.08746356  0.11661808  0.28033191       0.023
   0.08746356 -0.02915452  0.00000000       0.023
   0.08746356  0.00000000  0.05606638       0.023
   0.11661808 -0.05830904  0.00000000       0.023
   0.11661808 -0.02915452  0.05606638       0.047
   0.11661808  0.00000000  0.11213277       0.023
  -0.05830904 -0.05830904 -0.33639830       0.023
  -0.05830904 -0.02915452 -0.28033191       0.047
  -0.05830904 -0.00000000 -0.22426553       0.023
  -0.02915452 -0.02915452 -0.22426553       0.023
  -0.02915452 -0.00000000 -0.16819915       0.023
  -0.00000000 -0.00000000 -0.11213277       0.006
   0.11661808  0.00000000  0.00000000       0.012
   0.14577259 -0.02915452  0.00000000       0.023
   0.14577259 -0.00000000  0.05606638       0.023
  -0.02915452 -0.02915452 -0.33639830       0.023
  -0.02915452 -0.00000000 -0.28033191       0.023
   0.00000000  0.00000000 -0.22426553       0.006
   0.17492711 -0.00000000 -0.00000000       0.012
   0.00000000 -0.00000000 -0.33639830       0.006
 
 k-points in reciprocal lattice and weights: Automatic kpoint scheme                 
   0.00000000  0.00000000  0.00000000       0.003
   0.14285714 -0.00000000  0.00000000       0.023
   0.28571429 -0.00000000  0.00000000       0.023
   0.42857143 -0.00000000  0.00000000       0.023
   0.14285714  0.14285714  0.00000000       0.023
   0.28571429  0.14285714  0.00000000       0.047
   0.42857143  0.14285714  0.00000000       0.047
  -0.42857143  0.14285714 -0.00000000       0.047
  -0.28571429  0.14285714 -0.00000000       0.047
  -0.14285714  0.14285714 -0.00000000       0.012
   0.28571429  0.28571429  0.00000000       0.023
   0.42857143  0.28571429  0.00000000       0.047
  -0.42857143  0.28571429 -0.00000000       0.047
  -0.28571429  0.28571429 -0.00000000       0.012
   0.42857143  0.42857143  0.00000000       0.023
  -0.42857143  0.42857143  0.00000000       0.012
   0.14285714  0.14285714  0.14285714       0.023
   0.28571429  0.14285714  0.14285714       0.047
  -0.14285714  0.14285714  0.14285714       0.012
   0.28571429  0.28571429  0.14285714       0.023
   0.42857143  0.28571429  0.14285714       0.023
  -0.28571429  0.28571429  0.14285714       0.023
  -0.14285714  0.28571429  0.14285714       0.023
  -0.42857143  0.42857143  0.14285714       0.023
  -0.28571429  0.42857143  0.14285714       0.047
  -0.14285714  0.42857143  0.14285714       0.023
  -0.42857143 -0.42857143  0.14285714       0.023
  -0.28571429 -0.42857143  0.14285714       0.047
  -0.14285714 -0.42857143  0.14285714       0.023
  -0.28571429 -0.28571429  0.14285714       0.023
  -0.14285714 -0.28571429  0.14285714       0.023
  -0.14285714 -0.14285714  0.14285714       0.006
  -0.28571429  0.28571429  0.28571429       0.012
  -0.42857143  0.42857143  0.28571429       0.023
  -0.28571429  0.42857143  0.28571429       0.023
  -0.42857143 -0.42857143  0.28571429       0.023
  -0.28571429 -0.42857143  0.28571429       0.023
  -0.28571429 -0.28571429  0.28571429       0.006
  -0.42857143  0.42857143  0.42857143       0.012
  -0.42857143 -0.42857143  0.42857143       0.006
 
 position of ions in fractional coordinates (direct lattice) 
   0.25000000  0.75000000  0.50000000
   0.00000000  0.00000000  0.00000000
 
 position of ions in cartesian coordinates  (Angst):
   2.45000000  0.00000000  0.63700000
   0.00000000  0.00000000  0.00000000
 


--------------------------------------------------------------------------------------------------------


 k-point  1 :   0.0000 0.0000 0.0000  plane waves:     127
 k-point  2 :   0.1429-0.0000 0.0000  plane waves:     131
 k-point  3 :   0.2857-0.0000 0.0000  plane waves:     130
 k-point  4 :   0.4286-0.0000 0.0000  plane waves:     127
 k-point  5 :   0.1429 0.1429 0.0000  plane waves:     127
 k-point  6 :   0.2857 0.1429 0.0000  plane waves:     125
 k-point  7 :   0.4286 0.1429 0.0000  plane waves:     124
 k-point  8 :  -0.4286 0.1429-0.0000  plane waves:     131
 k-point  9 :  -0.2857 0.1429-0.0000  plane waves:     130
 k-point 10 :  -0.1429 0.1429-0.0000  plane waves:     129
 k-point 11 :   0.2857 0.2857 0.0000  plane waves:     125
 k-point 12 :   0.4286 0.2857 0.0000  plane waves:     124
 k-point 13 :  -0.4286 0.2857-0.0000  plane waves:     129
 k-point 14 :  -0.2857 0.2857-0.0000  plane waves:     137
 k-point 15 :   0.4286 0.4286 0.0000  plane waves:     130
 k-point 16 :  -0.4286 0.4286 0.0000  plane waves:     135
 k-point 17 :   0.1429 0.1429 0.1429  plane waves:     129
 k-point 18 :   0.2857 0.1429 0.1429  plane waves:     127
 k-point 19 :  -0.1429 0.1429 0.1429  plane waves:     129
 k-point 20 :   0.2857 0.2857 0.1429  plane waves:     126
 k-point 21 :   0.4286 0.2857 0.1429  plane waves:     131
 k-point 22 :  -0.2857 0.2857 0.1429  plane waves:     127
 k-point 23 :  -0.1429 0.2857 0.1429  plane waves:     132
 k-point 24 :  -0.4286 0.4286 0.1429  plane waves:     130
 k-point 25 :  -0.2857 0.4286 0.1429  plane waves:     129
 k-point 26 :  -0.1429 0.4286 0.1429  plane waves:     130
 k-point 27 :  -0.4286-0.4286 0.1429  plane waves:     130
 k-point 28 :  -0.2857-0.4286 0.1429  plane waves:     125
 k-point 29 :  -0.1429-0.4286 0.1429  plane waves:     128
 k-point 30 :  -0.2857-0.2857 0.1429  plane waves:     123
 k-point 31 :  -0.1429-0.2857 0.1429  plane waves:     119
 k-point 32 :  -0.1429-0.1429 0.1429  plane waves:     131
 k-point 33 :  -0.2857 0.2857 0.2857  plane waves:     125
 k-point 34 :  -0.4286 0.4286 0.2857  plane waves:     131
 k-point 35 :  -0.2857 0.4286 0.2857  plane waves:     131
 k-point 36 :  -0.4286-0.4286 0.2857  plane waves:     129
 k-point 37 :  -0.2857-0.4286 0.2857  plane waves:     123
 k-point 38 :  -0.2857-0.2857 0.2857  plane waves:     122
 k-point 39 :  -0.4286 0.4286 0.4286  plane waves:     131
 k-point 40 :  -0.4286-0.4286 0.4286  plane waves:     126

 maximum and minimum number of plane-waves per node :       137      119

 maximum number of plane-waves:       137
 maximum index in each direction: 
   IXMAX=    4   IYMAX=    4   IZMAX=    3
   IXMIN=   -4   IYMIN=   -4   IZMIN=   -4


 serial   3D FFT for wavefunctions
 parallel 3D FFT for charge:
    minimum data exchange during FFTs selected (reduces bandwidth)


 total amount of memory used by VASP MPI-rank0    30705. kBytes
=======================================================================

   base      :      30000. kBytes
   nonl-proj :        373. kBytes
   fftplans  :         66. kBytes
   grid      :        158. kBytes
   one-center:          6. kBytes
   wavefun   :        102. kBytes
 
     INWAV:  cpu time    0.0000: real time    0.0006
 Broyden mixing: mesh for mixing (old mesh)
   NGX =  7   NGY =  7   NGZ =  7
  (NGX  = 24   NGY  = 24   NGZ  = 24)
  gives a total of    343 points

 initial charge density was supplied:
 charge density of overlapping atoms calculated
 number of electron       8.0000000 magnetization 
 keeping initial charge density in first step


--------------------------------------------------------------------------------------------------------


 Maximum index for augmentation-charges          241 (set IRDMAX)


--------------------------------------------------------------------------------------------------------


 First call to EWALD:  gamma=   0.567
 Maximum number of real-space cells 4x 4x 3
 Maximum number of reciprocal cells 3x 3x 3

    FEWALD:  cpu time    0.0080: real time    0.0077


--------------------------------------- Iteration      1(   1)  ---------------------------------------


    POTLOK:  cpu time    0.0280: real time    0.0570
    SETDIJ:  cpu time    0.0080: real time    0.0089
     EDDAV:  cpu time    0.3040: real time    0.3204
       DOS:  cpu time    0.0040: real time    0.0029
    --------------------------------------------
      LOOP:  cpu time    0.3440: real time    0.3898

 eigenvalue-minimisations  :   672
 total energy-change (2. order) :-0.6032111E+01  (-0.1691716E+03)
 number of electron       8.0000000 magnetization 
 augmentation part        8.0000000 magnetization 

 Free energy of the ion-electron system (eV)
  ---------------------------------------------------
  alpha Z        PSCENC =         4.40202223
  Ewald energy   TEWEN  =      -265.18101312
  -Hartree energ DENC   =        -2.30415367
  -exchange      EXHF   =         0.00000000
  -V(xc)+E(xc)   XCENC  =       -17.81530915
  PAW double counting   =        65.95520812      -30.76852678
  entropy T*S    EENTRO =        -0.01047215
  eigenvalues    EBANDS =        33.59829674
  atomic energy  EATOM  =       206.09183643
  Solvation  Ediel_sol  =         0.00000000
  ---------------------------------------------------
  free energy    TOTEN  =        -6.03211135 eV

  energy without entropy =       -6.02163920  energy(sigma->0) =       -6.02687528


--------------------------------------------------------------------------------------------------------




--------------------------------------- Iteration      1(   2)  ---------------------------------------


     EDDAV:  cpu time    0.4920: real time    0.5157
       DOS:  cpu time    0.0000: real time    0.0056
    --------------------------------------------
      LOOP:  cpu time    0.4960: real time    0.5215

 eigenvalue-minimisations  :  1040
 total energy-change (2. order) :-0.4100394E+01  (-0.4033981E+01)
 number of electron       8.0000000 magnetization 
 augmentation part        8.0000000 magnetization 

 Free energy of the ion-electron system (eV)
  ---------------------------------------------------
  alpha Z        PSCENC =         4.40202223
  Ewald energy   TEWEN  =      -265.18101312
  -Hartree energ DENC   =        -2.30415367
  -exchange      EXHF   =         0.00000000
  -V(xc)+E(xc)   XCENC  =       -17.81530915
  PAW double counting   =        65.95520812      -30.76852678
  entropy T*S    EENTRO =        -0.01604569
  eigenvalues    EBANDS =        29.50347661
  atomic energy  EATOM  =       206.09183643
  Solvation  Ediel_sol  =         0.00000000
  ---------------------------------------------------
  free energy    TOTEN  =       -10.13250502 eV

  energy without entropy =      -10.11645933  energy(sigma->0) =      -10.12448218


--------------------------------------------------------------------------------------------------------




--------------------------------------- Iteration      1(   3)  ---------------------------------------


     EDDAV:  cpu time    0.3360: real time    0.3427
       DOS:  cpu time    0.0040: real time    0.0028
    --------------------------------------------
      LOOP:  cpu time    0.3360: real time    0.3454

 eigenvalue-minimisations  :   744
 total energy-change (2. order) :-0.2223483E-01  (-0.2223264E-01)
 number of electron       8.0000000 magnetization 
 augmentation part        8.0000000 magnetization 

 Free energy of the ion-electron system (eV)
  ---------------------------------------------------
  alpha Z        PSCENC =         4.40202223
  Ewald energy   TEWEN  =      -265.18101312
  -Hartree energ DENC   =        -2.30415367
  -exchange      EXHF   =         0.00000000
  -V(xc)+E(xc)   XCENC  =       -17.81530915
  PAW double counting   =        65.95520812      -30.76852678
  entropy T*S    EENTRO =        -0.01612699
  eigenvalues    EBANDS =        29.48132309
  atomic energy  EATOM  =       206.09183643
  Solvation  Ediel_sol  =         0.00000000
  ---------------------------------------------------
  free energy    TOTEN  =       -10.15473985 eV

  energy without entropy =      -10.13861286  energy(sigma->0) =      -10.14667635


--------------------------------------------------------------------------------------------------------




--------------------------------------- Iteration      1(   4)  ---------------------------------------


     EDDAV:  cpu time    0.4680: real time    0.4830
       DOS:  cpu time    0.0040: real time    0.0030
    --------------------------------------------
      LOOP:  cpu time    0.4720: real time    0.4859

 eigenvalue-minimisations  :  1000
 total energy-change (2. order) :-0.1988170E-04  (-0.1988097E-04)
 number of electron       8.0000000 magnetization 
 augmentation part        8.0000000 magnetization 

 Free energy of the ion-electron system (eV)
  ---------------------------------------------------
  alpha Z        PSCENC =         4.40202223
  Ewald energy   TEWEN  =      -265.18101312
  -Hartree energ DENC   =        -2.30415367
  -exchange      EXHF   =         0.00000000
  -V(xc)+E(xc)   XCENC  =       -17.81530915
  PAW double counting   =        65.95520812      -30.76852678
  entropy T*S    EENTRO =        -0.01612719
  eigenvalues    EBANDS =        29.48130341
  atomic energy  EATOM  =       206.09183643
  Solvation  Ediel_sol  =         0.00000000
  ---------------------------------------------------
  free energy    TOTEN  =       -10.15475973 eV

  energy without entropy =      -10.13863254  energy(sigma->0) =      -10.14669613


--------------------------------------------------------------------------------------------------------




--------------------------------------- Iteration      1(   5)  ---------------------------------------


     EDDAV:  cpu time    0.3240: real time    0.3286
       DOS:  cpu time    0.0000: real time    0.0027
    CHARGE:  cpu time    0.0120: real time    0.0098
    MIXING:  cpu time    0.0000: real time    0.0017
    --------------------------------------------
      LOOP:  cpu time    0.3360: real time    0.3428

 eigenvalue-minimisations  :   704
 total energy-change (2. order) :-0.2207184E-07  (-0.2314030E-07)
 number of electron       8.0000045 magnetization 
 augmentation part       -0.4663452 magnetization 

 Broyden mixing:
  rms(total) = 0.14879E+00    rms(broyden)= 0.14869E+00
  rms(prec ) = 0.33471E+00
  weight for this iteration     100.00

 Free energy of the ion-electron system (eV)
  ---------------------------------------------------
  alpha Z        PSCENC =         4.40202223
  Ewald energy   TEWEN  =      -265.18101312
  -Hartree energ DENC   =        -2.30415367
  -exchange      EXHF   =         0.00000000
  -V(xc)+E(xc)   XCENC  =       -17.81530915
  PAW double counting   =        65.95520812      -30.76852678
  entropy T*S    EENTRO =        -0.01612719
  eigenvalues    EBANDS =        29.48130338
  atomic energy  EATOM  =       206.09183643
  Solvation  Ediel_sol  =         0.00000000
  ---------------------------------------------------
  free energy    TOTEN  =       -10.15475975 eV

  energy without entropy =      -10.13863256  energy(sigma->0) =      -10.14669616


--------------------------------------------------------------------------------------------------------




--------------------------------------- Iteration      1(   6)  ---------------------------------------


    POTLOK:  cpu time    0.0160: real time    0.0327
    SETDIJ:  cpu time    0.0080: real time    0.0083
     EDDAV:  cpu time    0.3680: real time    0.3699
       DOS:  cpu time    0.0040: real time    0.0027
    CHARGE:  cpu time    0.0080: real time    0.0087
    MIXING:  cpu time    0.0000: real time    0.0014
    --------------------------------------------
      LOOP:  cpu time    0.4040: real time    0.4235

 eigenvalue-minimisations  :   816
 total energy-change (2. order) : 0.8417115E-02  (-0.1720075E-03)
 number of electron       8.0000045 magnetization 
 augmentation part       -0.4679365 magnetization 

 Broyden mixing:
  rms(total) = 0.92953E-01    rms(broyden)= 0.92948E-01
  rms(prec ) = 0.20944E+00
  weight for this iteration     100.00

 eigenvalues of (default mixing * dielectric matrix)
  average eigenvalue GAMMA=   2.6623
  2.6623

 Free energy of the ion-electron system (eV)
  ---------------------------------------------------
  alpha Z        PSCENC =         4.40202223
  Ewald energy   TEWEN  =      -265.18101312
  -Hartree energ DENC   =        -2.33641733
  -exchange      EXHF   =         0.00000000
  -V(xc)+E(xc)   XCENC  =       -17.71761942
  PAW double counting   =        68.47655797      -33.33108937
  entropy T*S    EENTRO =        -0.01611326
  eigenvalues    EBANDS =        29.46549322
  atomic energy  EATOM  =       206.09183643
  Solvation  Ediel_sol  =         0.00000000
  ---------------------------------------------------
  free energy    TOTEN  =       -10.14634264 eV

  energy without entropy =      -10.13022938  energy(sigma->0) =      -10.13828601


--------------------------------------------------------------------------------------------------------




--------------------------------------- Iteration      1(   7)  ---------------------------------------


    POTLOK:  cpu time    0.0160: real time    0.0298
    SETDIJ:  cpu time    0.0080: real time    0.0082
     EDDAV:  cpu time    0.3280: real time    0.3269
       DOS:  cpu time    0.0000: real time    0.0030
    CHARGE:  cpu time    0.0080: real time    0.0086
    MIXING:  cpu time    0.0040: real time    0.0012
    --------------------------------------------
      LOOP:  cpu time    0.3640: real time    0.3777

 eigenvalue-minimisations  :   736
 total energy-change (2. order) : 0.6516263E-02  (-0.4898983E-03)
 number of electron       8.0000045 magnetization 
 augmentation part       -0.4709479 magnetization 

 Broyden mixing:
  rms(total) = 0.34808E-02    rms(broyden)= 0.34640E-02
  rms(prec ) = 0.91247E-02
  weight for this iteration     100.00

 eigenvalues of (default mixing * dielectric matrix)
  average eigenvalue GAMMA=   2.5466
  2.5466  2.5466

 Free energy of the ion-electron system (eV)
  ---------------------------------------------------
  alpha Z        PSCENC =         4.40202223
  Ewald energy   TEWEN  =      -265.18101312
  -Hartree energ DENC   =        -2.48865077
  -exchange      EXHF   =         0.00000000
  -V(xc)+E(xc)   XCENC  =       -17.54006375
  PAW double counting   =        72.56467803      -37.49025034
  entropy T*S    EENTRO =        -0.01608293
  eigenvalues    EBANDS =        29.51769784
  atomic energy  EATOM  =       206.09183643
  Solvation  Ediel_sol  =         0.00000000
  ---------------------------------------------------
  free energy    TOTEN  =       -10.13982637 eV

  energy without entropy =      -10.12374344  energy(sigma->0) =      -10.13178491


--------------------------------------------------------------------------------------------------------




--------------------------------------- Iteration      1(   8)  ---------------------------------------


    POTLOK:  cpu time    0.0120: real time    0.0291
    SETDIJ:  cpu time    0.0120: real time    0.0083
     EDDAV:  cpu time    0.1960: real time    0.1974
       DOS:  cpu time    0.0000: real time    0.0027
    --------------------------------------------
      LOOP:  cpu time    0.2240: real time    0.2374

 eigenvalue-minimisations  :   400
 total energy-change (2. order) : 0.2180878E-04  (-0.7042202E-05)
 number of electron       8.0000045 magnetization 
 augmentation part       -0.4709479 magnetization 

 Free energy of the ion-electron system (eV)
  ---------------------------------------------------
  alpha Z        PSCENC =         4.40202223
  Ewald energy   TEWEN  =      -265.18101312
  -Hartree energ DENC   =        -2.50918148
  -exchange      EXHF   =         0.00000000
  -V(xc)+E(xc)   XCENC  =       -17.53974409
  PAW double counting   =        72.38490455      -37.31138621
  entropy T*S    EENTRO =        -0.01607766
  eigenvalues    EBANDS =        29.53883478
  atomic energy  EATOM  =       206.09183643
  Solvation  Ediel_sol  =         0.00000000
  ---------------------------------------------------
  free energy    TOTEN  =       -10.13980457 eV

  energy without entropy =      -10.12372690  energy(sigma->0) =      -10.13176573


--------------------------------------------------------------------------------------------------------




 average (electrostatic) potential at core
  the test charge radii are     0.9892
  (the norm of the test charge is              1.0000)
       1 -80.5547       2 -80.5547
 
 
 
 E-fermi :   9.0357     XC(G=0): -10.8936     alpha+bet :-15.6819


 k-point     1 :       0.0000    0.0000    0.0000
  band No.  band energies     occupation 
      1      -4.6151      2.00000
      2       6.2055      2.00000
      3       6.3070      2.00000
      4       6.3070      2.00000
      5      10.6545      0.00000
      6      17.0736      0.00000
      7      17.3787      0.00000
      8      17.3788      0.00000

 k-point     2 :       0.1429   -0.0000    0.0000
  band No.  band energies     occupation 
      1      -4.0391      2.00000
      2       5.1729      2.00000
      3       6.2510      2.00000
      4       8.3444      2.00000
      5      11.7989      0.00000
      6      14.6251      0.00000
      7      15.0013      0.00000
      8      16.6640      0.00000

 k-point     3 :       0.2857   -0.0000    0.0000
  band No.  band energies     occupation 
      1      -2.3225      2.00000
      2       5.1551      2.00000
      3       6.5582      2.00000
      4       9.0034      1.18078
      5      11.2668      0.00000
      6      12.1850      0.00000
      7      13.6254      0.00000
      8      14.4497      0.00000

 k-point     4 :       0.4286   -0.0000    0.0000
  band No.  band energies     occupation 
      1       0.4923      2.00000
      2       4.3735      2.00000
      3       6.2418      2.00000
      4       7.4848      2.00000
      5       8.4751      1.99993
      6      11.0534      0.00000
      7      13.6128      0.00000
      8      14.5922      0.00000

 k-point     5 :       0.1429    0.1429    0.0000
  band No.  band energies     occupation 
      1      -2.5627      2.00000
      2       5.4453      2.00000
      3       7.9591      2.00000
      4       9.1128      0.58602
      5      10.7259      0.00000
      6      11.1901      0.00000
      7      13.7259      0.00000
      8      14.5028      0.00000

 k-point     6 :       0.2857    0.1429    0.0000
  band No.  band energies     occupation 
      1       0.0246      2.00000
      2       5.4673      2.00000
      3       6.3405      2.00000
      4       6.9086      2.00000
      5       9.4561      0.00296
      6      11.6606      0.00000
      7      12.4048      0.00000
      8      13.7536      0.00000

 k-point     7 :       0.4286    0.1429    0.0000
  band No.  band energies     occupation 
      1       1.4167      2.00000
      2       3.6666      2.00000
      3       4.6635      2.00000
      4       7.5520      2.00000
      5       8.8853      1.71252
      6      11.6070      0.00000
      7      12.7294      0.00000
      8      16.1937      0.00000

 k-point     8 :      -0.4286    0.1429   -0.0000
  band No.  band energies     occupation 
      1      -1.6049      2.00000
      2       3.2300      2.00000
      3       6.7424      2.00000
      4       8.3177      2.00000
      5      10.7259      0.00000
      6      12.6079      0.00000
      7      13.3345      0.00000
      8      15.3638      0.00000

 k-point     9 :      -0.2857    0.1429   -0.0000
  band No.  band energies     occupation 
      1      -3.5548      2.00000
      2       2.9700      2.00000
      3       6.4104      2.00000
      4       9.7097      0.00000
      5      12.5196      0.00000
      6      13.8683      0.00000
      7      14.4071      0.00000
      8      16.0593      0.00000

 k-point    10 :      -0.1429    0.1429   -0.0000
  band No.  band energies     occupation 
      1      -4.3719      2.00000
      2       3.7628      2.00000
      3       6.5347      2.00000
      4       7.9610      2.00000
      5      12.0992      0.00000
      6      14.4137      0.00000
      7      15.9410      0.00000
      8      19.4608      0.00000

 k-point    11 :       0.2857    0.2857    0.0000
  band No.  band energies     occupation 
      1       2.6574      2.00000
      2       2.8257      2.00000
      3       3.6588      2.00000
      4       7.6913      2.00000
      5       9.3691      0.01841
      6      10.5479      0.00000
      7      14.7316      0.00000
      8      15.3550      0.00000

 k-point    12 :       0.4286    0.2857    0.0000
  band No.  band energies     occupation 
      1      -0.4182      2.00000
      2       1.2149      2.00000
      3       7.6159      2.00000
      4       8.0462      2.00000
      5       9.3239      0.04157
      6      11.8612      0.00000
      7      14.4540      0.00000
      8      16.0079      0.00000

 k-point    13 :      -0.4286    0.2857   -0.0000
  band No.  band energies     occupation 
      1      -2.5910      2.00000
      2       0.7149      2.00000
      3       7.2971      2.00000
      4      10.3903      0.00000
      5      10.8177      0.00000
      6      13.2439      0.00000
      7      14.8238      0.00000
      8      15.2680      0.00000

 k-point    14 :      -0.2857    0.2857   -0.0000
  band No.  band energies     occupation 
      1      -3.6451      2.00000
      2       1.3174      2.00000
      3       7.2172      2.00000
      4       9.0326      1.01749
      5      11.9685      0.00000
      6      13.8128      0.00000
      7      15.3581      0.00000
      8      19.0479      0.00000

 k-point    15 :       0.4286    0.4286    0.0000
  band No.  band energies     occupation 
      1      -1.1611      2.00000
      2      -1.1591      2.00000
      3       8.6231      1.99648
      4       8.6689      1.99052
      5      11.7816      0.00000
      6      12.3548      0.00000
      7      14.2094      0.00000
      8      15.1151      0.00000

 k-point    16 :      -0.4286    0.4286    0.0000
  band No.  band energies     occupation 
      1      -2.4415      2.00000
      2      -0.7775      2.00000
      3       8.3548      2.00000
      4       9.9486      0.00000
      5      10.2762      0.00000
      6      11.8786      0.00000
      7      18.8143      0.00000
      8      18.8683      0.00000

 k-point    17 :       0.1429    0.1429    0.1429
  band No.  band energies     occupation 
      1      -1.8426      2.00000
      2       3.0611      2.00000
      3       8.3827      2.00000
      4       9.2401      0.14852
      5      10.3353      0.00000
      6      11.2164      0.00000
      7      14.1737      0.00000
      8      14.8570      0.00000

 k-point    18 :       0.2857    0.1429    0.1429
  band No.  band energies     occupation 
      1       0.9641      2.00000
      2       4.1222      2.00000
      3       4.9285      2.00000
      4       6.3654      2.00000
      5      10.6593      0.00000
      6      13.2621      0.00000
      7      13.9545      0.00000
      8      14.2686      0.00000

 k-point    19 :      -0.1429    0.1429    0.1429
  band No.  band energies     occupation 
      1      -4.1295      2.00000
      2       3.4612      2.00000
      3       4.9414      2.00000
      4       9.8613      0.00000
      5      12.2974      0.00000
      6      12.9703      0.00000
      7      17.7859      0.00000
      8      18.1600      0.00000

 k-point    20 :       0.2857    0.2857    0.1429
  band No.  band energies     occupation 
      1       2.3363      2.00000
      2       2.3673      2.00000
      3       4.6757      2.00000
      4       6.1710      2.00000
      5      11.7376      0.00000
      6      12.5681      0.00000
      7      14.5089      0.00000
      8      15.5050      0.00000

 k-point    21 :       0.4286    0.2857    0.1429
  band No.  band energies     occupation 
      1      -0.6507      2.00000
      2       0.9961      2.00000
      3       8.7231      1.97297
      4       8.9445      1.48117
      5      10.7318      0.00000
      6      11.7505      0.00000
      7      12.6160      0.00000
      8      13.6442      0.00000

 k-point    22 :      -0.2857    0.2857    0.1429
  band No.  band energies     occupation 
      1      -3.4049      2.00000
      2       1.4901      2.00000
      3       5.1410      2.00000
      4       9.8786      0.00000
      5      11.3873      0.00000
      6      15.7844      0.00000
      7      16.0619      0.00000
      8      18.5407      0.00000

 k-point    23 :      -0.1429    0.2857    0.1429
  band No.  band energies     occupation 
      1      -3.0737      2.00000
      2       2.8274      2.00000
      3       4.4632      2.00000
      4      10.1343      0.00000
      5      11.7553      0.00000
      6      13.7937      0.00000
      7      15.3888      0.00000
      8      16.9907      0.00000

 k-point    24 :      -0.4286    0.4286    0.1429
  band No.  band energies     occupation 
      1      -2.2070      2.00000
      2      -0.5560      2.00000
      3       6.2415      2.00000
      4       7.8366      2.00000
      5      12.6934      0.00000
      6      14.2449      0.00000
      7      18.1238      0.00000
      8      18.2540      0.00000

 k-point    25 :      -0.2857    0.4286    0.1429
  band No.  band energies     occupation 
      1      -2.1181      2.00000
      2       1.1042      2.00000
      3       4.8175      2.00000
      4       7.9352      2.00000
      5      11.9782      0.00000
      6      14.5776      0.00000
      7      16.8768      0.00000
      8      17.4998      0.00000

 k-point    26 :      -0.1429    0.4286    0.1429
  band No.  band energies     occupation 
      1      -0.8961      2.00000
      2       3.2936      2.00000
      3       4.9820      2.00000
      4       7.4711      2.00000
      5       9.0172      1.10432
      6      13.4467      0.00000
      7      15.0811      0.00000
      8      16.0930      0.00000

 k-point    27 :      -0.4286   -0.4286    0.1429
  band No.  band energies     occupation 
      1      -0.7091      2.00000
      2      -0.7034      2.00000
      3       6.1255      2.00000
      4       6.1322      2.00000
      5      11.8804      0.00000
      6      15.5513      0.00000
      7      16.3075      0.00000
      8      16.8470      0.00000

 k-point    28 :      -0.2857   -0.4286    0.1429
  band No.  band energies     occupation 
      1       0.2680      2.00000
      2       1.8304      2.00000
      3       5.5148      2.00000
      4       6.8435      2.00000
      5       7.2955      2.00000
      6      13.6028      0.00000
      7      16.6976      0.00000
      8      17.6512      0.00000

 k-point    29 :      -0.1429   -0.4286    0.1429
  band No.  band energies     occupation 
      1       2.2568      2.00000
      2       3.0768      2.00000
      3       4.9460      2.00000
      4       6.4706      2.00000
      5       8.5970      1.99808
      6      11.1839      0.00000
      7      12.4206      0.00000
      8      16.5448      0.00000

 k-point    30 :      -0.2857   -0.2857    0.1429
  band No.  band energies     occupation 
      1       2.6230      2.00000
      2       3.6743      2.00000
      3       3.8424      2.00000
      4       7.1267      2.00000
      5       7.2826      2.00000
      6      11.2367      0.00000
      7      14.0143      0.00000
      8      14.8328      0.00000

 k-point    31 :      -0.1429   -0.2857    0.1429
  band No.  band energies     occupation 
      1      -0.4483      2.00000
      2       6.5228      2.00000
      3       7.3734      2.00000
      4       8.2419      2.00000
      5       8.3249      2.00000
      6      10.7859      0.00000
      7      11.2960      0.00000
      8      12.5708      0.00000

 k-point    32 :      -0.1429   -0.1429    0.1429
  band No.  band energies     occupation 
      1      -2.8036      2.00000
      2       7.7833      2.00000
      3       7.7833      2.00000
      4       7.7897      2.00000
      5      11.1179      0.00000
      6      11.5432      0.00000
      7      12.4904      0.00000
      8      13.8383      0.00000

 k-point    33 :      -0.2857    0.2857    0.2857
  band No.  band energies     occupation 
      1      -2.6886      2.00000
      2       1.5538      2.00000
      3       3.2928      2.00000
      4       7.4352      2.00000
      5      14.0075      0.00000
      6      17.1739      0.00000
      7      17.4355      0.00000
      8      18.1457      0.00000

 k-point    34 :      -0.4286    0.4286    0.2857
  band No.  band energies     occupation 
      1      -1.5130      2.00000
      2       0.0654      2.00000
      3       3.8431      2.00000
      4       5.3880      2.00000
      5      15.5429      0.00000
      6      16.5030      0.00000
      7      18.0123      0.00000
      8      18.5803      0.00000

 k-point    35 :      -0.2857    0.4286    0.2857
  band No.  band energies     occupation 
      1      -1.1852      2.00000
      2       1.3946      2.00000
      3       3.1695      2.00000
      4       5.6956      2.00000
      5      11.5515      0.00000
      6      17.2755      0.00000
      7      18.5010      0.00000
      8      19.2821      0.00000

 k-point    36 :      -0.4286   -0.4286    0.2857
  band No.  band energies     occupation 
      1       0.1474      2.00000
      2       0.1560      2.00000
      3       3.9339      2.00000
      4       3.9351      2.00000
      5      11.3676      0.00000
      6      18.7323      0.00000
      7      18.8276      0.00000
      8      19.4777      0.00000

 k-point    37 :      -0.2857   -0.4286    0.2857
  band No.  band energies     occupation 
      1       1.3547      2.00000
      2       2.3467      2.00000
      3       4.1207      2.00000
      4       5.0810      2.00000
      5       6.6702      2.00000
      6      15.4505      0.00000
      7      16.9221      0.00000
      8      18.2307      0.00000

 k-point    38 :      -0.2857   -0.2857    0.2857
  band No.  band energies     occupation 
      1       2.4501      2.00000
      2       4.4247      2.00000
      3       4.5610      2.00000
      4       6.0792      2.00000
      5       6.0792      2.00000
      6      13.0248      0.00000
      7      13.7652      0.00000
      8      13.7652      0.00000

 k-point    39 :      -0.4286    0.4286    0.4286
  band No.  band energies     occupation 
      1      -0.4147      2.00000
      2       0.5881      2.00000
      3       2.4045      2.00000
      4       3.3933      2.00000
      5      16.3503      0.00000
      6      16.5011      0.00000
      7      19.7362      0.00000
      8      20.6759      0.00000

 k-point    40 :      -0.4286   -0.4286    0.4286
  band No.  band energies     occupation 
      1       0.9053      2.00000
      2       0.9186      2.00000
      3       2.7233      2.00000
      4       2.7233      2.00000
      5      11.1750      0.00000
      6      19.8303      0.00000
      7      20.7679      0.00000
      8      20.7679      0.00000


--------------------------------------------------------------------------------------------------------


 soft charge-density along one line, spin component           1
         0         1         2         3         4         5         6         7         8         9
 total charge-density along one line
 
 pseudopotential strength for first ion, spin component:           1
 18.069  -0.003   0.000  -0.000  -0.000  -0.000   0.000   0.000
 -0.003   0.005  -0.000   0.000   0.000   0.000  -0.000  -0.000
  0.000  -0.000   4.118   0.000   0.000  -0.006  -0.000  -0.000
 -0.000   0.000   0.000   4.119   0.000  -0.000  -0.006  -0.000
 -0.000   0.000   0.000   0.000   4.118  -0.000  -0.000  -0.006
 -0.000   0.000  -0.006  -0.000  -0.000   0.005   0.000   0.000
  0.000  -0.000  -0.000  -0.006  -0.000   0.000   0.005   0.000
  0.000  -0.000  -0.000  -0.000  -0.006   0.000   0.000   0.005
 total augmentation occupancy for first ion, spin component:           1
  1.624  -0.677   0.000   0.000   0.000   0.000   0.000  -0.000
 -0.677   1.113  -0.000   0.000   0.000   0.000   0.000   0.000
  0.000  -0.000   0.867   0.000  -0.000  -0.797   0.000   0.000
  0.000   0.000   0.000   0.862   0.000  -0.000  -0.823   0.000
  0.000   0.000  -0.000   0.000   0.867   0.000  -0.000  -0.797
  0.000   0.000  -0.797  -0.000   0.000   0.820   0.000  -0.000
  0.000   0.000   0.000  -0.823  -0.000   0.000   0.876  -0.000
 -0.000  -0.000   0.000   0.000  -0.797  -0.000  -0.000   0.820


------------------------ aborting loop because EDIFF is reached ----------------------------------------


    CHARGE:  cpu time    0.0080: real time    0.0081
    FORLOC:  cpu time    0.0000: real time    0.0004
    FORNL :  cpu time    0.0080: real time    0.0069
    STRESS:  cpu time    0.0560: real time    0.0549
    FORCOR:  cpu time    0.0080: real time    0.0092
    FORHAR:  cpu time    0.0040: real time    0.0028
    MIXING:  cpu time    0.0000: real time    0.0008
    OFIELD:  cpu time    0.0000: real time    0.0004

  FORCE on cell =-STRESS in cart. coord.  units (eV):
  Direction    XX          YY          ZZ          XY          YZ          ZX
  --------------------------------------------------------------------------------------
  Alpha Z     4.40202     4.40202     4.40202
  Ewald     -90.96023   -90.96023   -83.26083    -0.00000     0.00000     0.00000
  Hartree     0.55391     0.55391     1.40596     0.00000    -0.00000    -0.00000
  E(xc)     -25.43247   -25.43247   -25.38582     0.00012     0.00006     0.00006
  Local     -11.28615   -11.28615   -17.72683    -0.00004    -0.00012    -0.00012
  n-local    77.54513    77.43693    77.02797     0.95421    -0.28113    -0.50791
  augment   -11.99314   -11.99314   -11.96855     0.00008     0.00008     0.00008
  Kinetic    60.41489    52.70953    57.32078     3.78949    -1.25329    -3.54897
  Fock        0.00000     0.00000     0.00000     0.00000     0.00000     0.00000
  -------------------------------------------------------------------------------------
  Total      -0.66282    -0.66282     1.81470    -0.00000     0.00000    -0.00000
  in kB     -34.71702   -34.71702    95.05039    -0.00000     0.00000    -0.00000
  external pressure =        8.54 kB  Pullay stress =        0.00 kB


 VOLUME and BASIS-vectors are now :
 -----------------------------------------------------------------------------
  energy-cutoff  :      150.00
  volume of cell :       30.59
      direct lattice vectors                 reciprocal lattice vectors
    -2.450000000  2.450000000  1.274000000     0.000000000  0.204081633  0.392464678
     2.450000000 -2.450000000  1.274000000     0.204081633  0.000000000  0.392464678
     2.450000000  2.450000000 -1.274000000     0.204081633  0.204081633 -0.000000000

  length of vectors
     3.691622408  3.691622408  3.691622408     0.442354876  0.442354876  0.288615013


 FORCES acting on ions
    electron-ion (+dipol)            ewald-force                    non-local-force                 convergence-correction
 -----------------------------------------------------------------------------------------------
   -.279E-04 0.279E-04 -.947E-14   0.198E-14 0.156E-15 0.342E-17   -.797E-17 -.149E-16 0.415E-17   -.353E-06 0.353E-06 0.124E-15
   0.279E-04 -.279E-04 0.123E-14   -.185E-14 0.943E-16 0.891E-15   0.128E-16 0.584E-17 -.110E-17   0.353E-06 -.353E-06 -.552E-16
 -----------------------------------------------------------------------------------------------
   -.117E-13 -.166E-14 -.824E-14   0.139E-15 0.250E-15 0.894E-15   0.481E-17 -.906E-17 0.305E-17   -.643E-16 0.188E-15 0.683E-16
 
 
 POSITION                                       TOTAL-FORCE (eV/Angst)
 -----------------------------------------------------------------------------------
      2.45000      0.00000      0.63700         0.000000     -0.000000      0.000000
      0.00000      0.00000      0.00000        -0.000000      0.000000     -0.000000
 -----------------------------------------------------------------------------------
    total drift:                               -0.000000     -0.000000     -0.000000


--------------------------------------------------------------------------------------------------------



  FREE ENERGIE OF THE ION-ELECTRON SYSTEM (eV)
  ---------------------------------------------------
  free  energy   TOTEN  =       -10.13980457 eV

  energy  without entropy=      -10.12372690  energy(sigma->0) =      -10.13176573
 


--------------------------------------------------------------------------------------------------------


    POTLOK:  cpu time    0.0280: real time    0.0388


--------------------------------------------------------------------------------------------------------




--------------------------------------------------------------------------------------------------------


  
 reached required accuracy - stopping structural energy minimisation
 writing wavefunctions
     LOOP+:  cpu time    3.5240: real time    4.4411
    4ORBIT:  cpu time    0.0000: real time    0.0000

 total amount of memory used by VASP MPI-rank0    30705. kBytes
=======================================================================

   base      :      30000. kBytes
   nonl-proj :        373. kBytes
   fftplans  :         66. kBytes
   grid      :        158. kBytes
   one-center:          6. kBytes
   wavefun   :        102. kBytes
 
  
  
 General timing and accounting informations for this job:
 ========================================================
  
                  Total CPU time used (sec):        7.168
                            User time (sec):        5.728
                          System time (sec):        1.440
                         Elapsed time (sec):       17.921
  
                   Maximum memory used (kb):        9144.
                   Average memory used (kb):           0.
  
                          Minor page faults:        37970
                          Major page faults:           23
                 Voluntary context switches:        18438
