<?xml version="1.0" encoding="ISO-8859-1"?>
<modeling>
 <generator>
  <i name="program" type="string">vasp </i>
  <i name="version" type="string">5.4.4.18Apr17-6-g9f103f2a35  </i>
  <i name="subversion" type="string">(build Dec 09 2018 21:25:21) complex            parallel </i>
  <i name="platform" type="string">IFC18.0.1.163_CrayMPICH7.7.0_MKL18.0.1.163 </i>
  <i name="date" type="string">2019 03 18 </i>
  <i name="time" type="string">04:29:10 </i>
 </generator>
 <incar>
  <i type="string" name="PREC">normal</i>
  <i type="int" name="IBRION">     2</i>
  <i name="EDIFF">      0.00040000</i>
  <i name="EDIFFG">     -0.01000000</i>
  <i type="int" name="NSW">    15</i>
  <i type="int" name="ISIF">     2</i>
  <i name="ENCUT">    150.00000000</i>
  <i type="int" name="NBANDS">     8</i>
  <i type="logical" name="LREAL"> F  </i>
  <i type="int" name="ISMEAR">     0</i>
  <i name="SIGMA">      0.20000000</i>
  <v type="int" name="KPOINT_BSE">    -1     0     0     0</v>
 </incar>
 <structure name="primitive_cell" >
  <crystal>
   <varray name="basis" >
    <v>      -2.45000000       2.45000000       1.27400000 </v>
    <v>       2.45000000      -2.45000000       1.27400000 </v>
    <v>       2.45000000       2.45000000      -1.27400000 </v>
   </varray>
   <i name="volume">     30.58874000 </i>
   <varray name="rec_basis" >
    <v>       0.00000000       0.20408163       0.39246468 </v>
    <v>       0.20408163       0.00000000       0.39246468 </v>
    <v>       0.20408163       0.20408163      -0.00000000 </v>
   </varray>
  </crystal>
  <varray name="positions" >
   <v>       0.25000000      -0.25000000      -0.50000000 </v>
   <v>       0.00000000       0.00000000       0.00000000 </v>
  </varray>
 </structure>
 <varray name="primitive_index" >
  <v type="int" >        1 </v>
  <v type="int" >        2 </v>
 </varray>
 <kpoints>
  <generation param="Monkhorst-Pack">
   <v type="int" name="divisions">       7        7        7 </v>
   <v name="usershift">      0.00000000       0.00000000       0.00000000 </v>
   <v name="genvec1">      0.14285714       0.00000000      -0.00000000 </v>
   <v name="genvec2">      0.00000000       0.14285714      -0.00000000 </v>
   <v name="genvec3">      0.00000000      -0.00000000       0.14285714 </v>
   <v name="shift">      0.00000000       0.00000000       0.00000000 </v>
  </generation>
  <varray name="kpointlist" >
   <v>       0.00000000       0.00000000       0.00000000 </v>
   <v>       0.14285714      -0.00000000       0.00000000 </v>
   <v>       0.28571429      -0.00000000       0.00000000 </v>
   <v>       0.42857143      -0.00000000       0.00000000 </v>
   <v>       0.14285714       0.14285714       0.00000000 </v>
   <v>       0.28571429       0.14285714       0.00000000 </v>
   <v>       0.42857143       0.14285714       0.00000000 </v>
   <v>      -0.42857143       0.14285714      -0.00000000 </v>
   <v>      -0.28571429       0.14285714      -0.00000000 </v>
   <v>      -0.14285714       0.14285714      -0.00000000 </v>
   <v>       0.28571429       0.28571429       0.00000000 </v>
   <v>       0.42857143       0.28571429       0.00000000 </v>
   <v>      -0.42857143       0.28571429      -0.00000000 </v>
   <v>      -0.28571429       0.28571429      -0.00000000 </v>
   <v>       0.42857143       0.42857143       0.00000000 </v>
   <v>      -0.42857143       0.42857143       0.00000000 </v>
   <v>       0.14285714       0.14285714       0.14285714 </v>
   <v>       0.28571429       0.14285714       0.14285714 </v>
   <v>      -0.14285714       0.14285714       0.14285714 </v>
   <v>       0.28571429       0.28571429       0.14285714 </v>
   <v>       0.42857143       0.28571429       0.14285714 </v>
   <v>      -0.28571429       0.28571429       0.14285714 </v>
   <v>      -0.14285714       0.28571429       0.14285714 </v>
   <v>      -0.42857143       0.42857143       0.14285714 </v>
   <v>      -0.28571429       0.42857143       0.14285714 </v>
   <v>      -0.14285714       0.42857143       0.14285714 </v>
   <v>      -0.42857143      -0.42857143       0.14285714 </v>
   <v>      -0.28571429      -0.42857143       0.14285714 </v>
   <v>      -0.14285714      -0.42857143       0.14285714 </v>
   <v>      -0.28571429      -0.28571429       0.14285714 </v>
   <v>      -0.14285714      -0.28571429       0.14285714 </v>
   <v>      -0.14285714      -0.14285714       0.14285714 </v>
   <v>      -0.28571429       0.28571429       0.28571429 </v>
   <v>      -0.42857143       0.42857143       0.28571429 </v>
   <v>      -0.28571429       0.42857143       0.28571429 </v>
   <v>      -0.42857143      -0.42857143       0.28571429 </v>
   <v>      -0.28571429      -0.42857143       0.28571429 </v>
   <v>      -0.28571429      -0.28571429       0.28571429 </v>
   <v>      -0.42857143       0.42857143       0.42857143 </v>
   <v>      -0.42857143      -0.42857143       0.42857143 </v>
  </varray>
  <varray name="weights" >
   <v>       0.00291545 </v>
   <v>       0.02332362 </v>
   <v>       0.02332362 </v>
   <v>       0.02332362 </v>
   <v>       0.02332362 </v>
   <v>       0.04664723 </v>
   <v>       0.04664723 </v>
   <v>       0.04664723 </v>
   <v>       0.04664723 </v>
   <v>       0.01166181 </v>
   <v>       0.02332362 </v>
   <v>       0.04664723 </v>
   <v>       0.04664723 </v>
   <v>       0.01166181 </v>
   <v>       0.02332362 </v>
   <v>       0.01166181 </v>
   <v>       0.02332362 </v>
   <v>       0.04664723 </v>
   <v>       0.01166181 </v>
   <v>       0.02332362 </v>
   <v>       0.02332362 </v>
   <v>       0.02332362 </v>
   <v>       0.02332362 </v>
   <v>       0.02332362 </v>
   <v>       0.04664723 </v>
   <v>       0.02332362 </v>
   <v>       0.02332362 </v>
   <v>       0.04664723 </v>
   <v>       0.02332362 </v>
   <v>       0.02332362 </v>
   <v>       0.02332362 </v>
   <v>       0.00583090 </v>
   <v>       0.01166181 </v>
   <v>       0.02332362 </v>
   <v>       0.02332362 </v>
   <v>       0.02332362 </v>
   <v>       0.02332362 </v>
   <v>       0.00583090 </v>
   <v>       0.01166181 </v>
   <v>       0.00583090 </v>
  </varray>
 </kpoints>
 <parameters>
  <separator name="general" >
   <i type="string" name="SYSTEM">unknown system</i>
   <i type="logical" name="LCOMPAT"> F  </i>
  </separator>
  <separator name="electronic" >
   <i type="string" name="PREC">normal</i>
   <i name="ENMAX">    150.00000000</i>
   <i name="ENAUG">    322.06900000</i>
   <i name="EDIFF">      0.00040000</i>
   <i type="int" name="IALGO">    38</i>
   <i type="int" name="IWAVPR">    11</i>
   <i type="int" name="NBANDS">     8</i>
   <i name="NELECT">      8.00000000</i>
   <i type="int" name="TURBO">     0</i>
   <i type="int" name="IRESTART">     0</i>
   <i type="int" name="NREBOOT">     0</i>
   <i type="int" name="NMIN">     0</i>
   <i name="EREF">      0.00000000</i>
   <separator name="electronic smearing" >
    <i type="int" name="ISMEAR">     0</i>
    <i name="SIGMA">      0.20000000</i>
    <i name="KSPACING">      0.50000000</i>
    <i type="logical" name="KGAMMA"> T  </i>
   </separator>
   <separator name="electronic projectors" >
    <i type="logical" name="LREAL"> F  </i>
    <v name="ROPT">      0.00000000</v>
    <i type="int" name="LMAXPAW">  -100</i>
    <i type="int" name="LMAXMIX">     2</i>
    <i type="logical" name="NLSPLINE"> F  </i>
   </separator>
   <separator name="electronic startup" >
    <i type="int" name="ISTART">     0</i>
    <i type="int" name="ICHARG">     2</i>
    <i type="int" name="INIWAV">     1</i>
   </separator>
   <separator name="electronic spin" >
    <i type="int" name="ISPIN">     1</i>
    <i type="logical" name="LNONCOLLINEAR"> F  </i>
    <v name="MAGMOM">      1.00000000      1.00000000</v>
    <i name="NUPDOWN">     -1.00000000</i>
    <i type="logical" name="LSORBIT"> F  </i>
    <v name="SAXIS">      0.00000000      0.00000000      1.00000000</v>
    <i type="logical" name="LSPIRAL"> F  </i>
    <v name="QSPIRAL">      0.00000000      0.00000000      0.00000000</v>
    <i type="logical" name="LZEROZ"> F  </i>
   </separator>
   <separator name="electronic exchange-correlation" >
    <i type="logical" name="LASPH"> F  </i>
    <i type="logical" name="LMETAGGA"> F  </i>
   </separator>
   <separator name="electronic convergence" >
    <i type="int" name="NELM">    60</i>
    <i type="int" name="NELMDL">     0</i>
    <i type="int" name="NELMIN">     2</i>
    <i name="ENINI">    150.00000000</i>
    <separator name="electronic convergence detail" >
     <i type="logical" name="LDIAG"> T  </i>
     <i type="logical" name="LSUBROT"> F  </i>
     <i name="WEIMIN">      0.00100000</i>
     <i name="EBREAK">      0.00001250</i>
     <i name="DEPER">      0.30000000</i>
     <i type="int" name="NRMM">     4</i>
     <i name="TIME">      0.40000000</i>
    </separator>
   </separator>
   <separator name="electronic mixer" >
    <i name="AMIX">      0.40000000</i>
    <i name="BMIX">      1.00000000</i>
    <i name="AMIN">      0.10000000</i>
    <i name="AMIX_MAG">      1.60000000</i>
    <i name="BMIX_MAG">      1.00000000</i>
    <separator name="electronic mixer details" >
     <i type="int" name="IMIX">     4</i>
     <i type="logical" name="MIXFIRST"> F  </i>
     <i type="int" name="MAXMIX">   -45</i>
     <i name="WC">    100.00000000</i>
     <i type="int" name="INIMIX">     1</i>
     <i type="int" name="MIXPRE">     1</i>
     <i type="int" name="MREMOVE">     5</i>
    </separator>
   </separator>
   <separator name="electronic dipolcorrection" >
    <i type="logical" name="LDIPOL"> F  </i>
    <i type="logical" name="LMONO"> F  </i>
    <i type="int" name="IDIPOL">     0</i>
    <i name="EPSILON">      1.00000000</i>
    <v name="DIPOL">   -100.00000000   -100.00000000   -100.00000000</v>
    <i name="EFIELD">      0.00000000</i>
   </separator>
  </separator>
  <separator name="grids" >
   <i type="int" name="NGX">    12</i>
   <i type="int" name="NGY">    12</i>
   <i type="int" name="NGZ">    12</i>
   <i type="int" name="NGXF">    24</i>
   <i type="int" name="NGYF">    24</i>
   <i type="int" name="NGZF">    24</i>
   <i type="logical" name="ADDGRID"> F  </i>
  </separator>
  <separator name="ionic" >
   <i type="int" name="NSW">    15</i>
   <i type="int" name="IBRION">     2</i>
   <i type="int" name="MDALGO">     0</i>
   <i type="int" name="ISIF">     2</i>
   <i name="PSTRESS">      0.00000000</i>
   <i name="EDIFFG">     -0.01000000</i>
   <i type="int" name="NFREE">     1</i>
   <i name="POTIM">      0.50000000</i>
   <i name="SMASS">     -3.00000000</i>
   <i name="SCALEE">      1.00000000</i>
  </separator>
  <separator name="ionic md" >
   <i name="TEBEG">      0.00010000</i>
   <i name="TEEND">      0.00010000</i>
   <i type="int" name="NBLOCK">     1</i>
   <i type="int" name="KBLOCK">    15</i>
   <i type="int" name="NPACO">   256</i>
   <i name="APACO">     16.00000000</i>
  </separator>
  <separator name="symmetry" >
   <i type="int" name="ISYM">     2</i>
   <i name="SYMPREC">      0.00001000</i>
  </separator>
  <separator name="dos" >
   <i type="int" name="LORBIT">     0</i>
   <v name="RWIGS">     -1.00000000</v>
   <i type="int" name="NEDOS">   301</i>
   <i name="EMIN">     10.00000000</i>
   <i name="EMAX">    -10.00000000</i>
   <i name="EFERMI">      0.00000000</i>
  </separator>
  <separator name="writing" >
   <i type="int" name="NWRITE">     2</i>
   <i type="logical" name="LWAVE"> T  </i>
   <i type="logical" name="LDOWNSAMPLE"> F  </i>
   <i type="logical" name="LCHARG"> T  </i>
   <i type="logical" name="LPARD"> F  </i>
   <i type="logical" name="LVTOT"> F  </i>
   <i type="logical" name="LVHAR"> F  </i>
   <i type="logical" name="LELF"> F  </i>
   <i type="logical" name="LOPTICS"> F  </i>
   <v name="STM">      0.00000000      0.00000000      0.00000000      0.00000000      0.00000000      0.00000000      0.00000000</v>
  </separator>
  <separator name="performance" >
   <i type="int" name="NPAR">     8</i>
   <i type="int" name="NSIM">     4</i>
   <i type="int" name="NBLK">    -1</i>
   <i type="logical" name="LPLANE"> T  </i>
   <i type="logical" name="LSCALAPACK"> T  </i>
   <i type="logical" name="LSCAAWARE"> F  </i>
   <i type="logical" name="LSCALU"> F  </i>
   <i type="logical" name="LASYNC"> F  </i>
   <i type="logical" name="LORBITALREAL"> F  </i>
  </separator>
  <separator name="miscellaneous" >
   <i type="int" name="IDIOT">     3</i>
   <i type="int" name="ISPECIAL">     0</i>
   <i type="logical" name="LMUSIC"> F  </i>
   <v name="POMASS">     28.08500000</v>
   <v name="DARWINR">      0.00000000</v>
   <v name="DARWINV">      1.00000000</v>
   <i type="logical" name="LCORR"> T  </i>
  </separator>
  <i type="logical" name="GGA_COMPAT"> T  </i>
  <i type="logical" name="LBERRY"> F  </i>
  <i type="int" name="ICORELEVEL">     0</i>
  <i type="logical" name="LDAU"> F  </i>
  <i type="int" name="I_CONSTRAINED_M">     0</i>
  <separator name="electronic exchange-correlation" >
   <i type="string" name="GGA">--</i>
   <i type="int" name="VOSKOWN">     0</i>
   <i type="logical" name="LHFCALC"> F  </i>
   <i type="string" name="PRECFOCK"></i>
   <i type="logical" name="LSYMGRAD"> F  </i>
   <i type="logical" name="LHFONE"> F  </i>
   <i type="logical" name="LRHFCALC"> F  </i>
   <i type="logical" name="LTHOMAS"> F  </i>
   <i type="logical" name="LMODELHF"> F  </i>
   <i name="ENCUT4O">     -1.00000000</i>
   <i type="int" name="EXXOEP">     0</i>
   <i type="int" name="FOURORBIT">     0</i>
   <i name="AEXX">      0.00000000</i>
   <i name="HFALPHA">      0.00000000</i>
   <i name="MCALPHA">      0.00000000</i>
   <i name="ALDAX">      1.00000000</i>
   <i name="AGGAX">      1.00000000</i>
   <i name="ALDAC">      1.00000000</i>
   <i name="AGGAC">      1.00000000</i>
   <i type="int" name="NKREDX">     1</i>
   <i type="int" name="NKREDY">     1</i>
   <i type="int" name="NKREDZ">     1</i>
   <i type="logical" name="SHIFTRED"> F  </i>
   <i type="logical" name="ODDONLY"> F  </i>
   <i type="logical" name="EVENONLY"> F  </i>
   <i type="int" name="LMAXFOCK">     0</i>
   <i type="int" name="NMAXFOCKAE">     0</i>
   <i type="logical" name="LFOCKAEDFT"> F  </i>
   <i name="HFSCREEN">      0.00000000</i>
   <i name="HFSCREENC">      0.00000000</i>
   <i type="int" name="NBANDSGWLOW">     0</i>
  </separator>
  <separator name="vdW DFT" >
   <i type="logical" name="LUSE_VDW"> F  </i>
   <i name="Zab_VDW">     -0.84910000</i>
   <i name="PARAM1">      0.12340000</i>
   <i name="PARAM2">      1.00000000</i>
   <i name="PARAM3">      0.00000000</i>
  </separator>
  <separator name="model GW" >
   <i type="int" name="MODEL_GW">     0</i>
   <i name="MODEL_EPS0">      9.17662200</i>
   <i name="MODEL_ALPHA">      1.00000000</i>
  </separator>
  <separator name="linear response parameters" >
   <i type="logical" name="LEPSILON"> F  </i>
   <i type="logical" name="LRPA"> F  </i>
   <i type="logical" name="LNABLA"> F  </i>
   <i type="logical" name="LVEL"> F  </i>
   <i type="int" name="KINTER">     0</i>
   <i name="CSHIFT">      0.10000000</i>
   <i name="OMEGAMAX">     -1.00000000</i>
   <i name="DEG_THRESHOLD">      0.00200000</i>
   <i name="RTIME">     -0.10000000</i>
   <i name="WPLASMAI">      0.00000000</i>
   <v name="DFIELD">      0.00000000      0.00000000      0.00000000</v>
   <v name="WPLASMA">      0.00000000      0.00000000      0.00000000      0.00000000      0.00000000      0.00000000      0.00000000      0.00000000      0.00000000</v>
  </separator>
  <separator name="orbital magnetization" >
   <i type="logical" name="NUCIND"> F  </i>
   <v name="MAGPOS">      0.00000000      0.00000000      0.00000000</v>
   <i type="logical" name="LNICSALL"> T  </i>
   <i type="logical" name="ORBITALMAG"> F  </i>
   <i type="logical" name="LMAGBLOCH"> F  </i>
   <i type="logical" name="LCHIMAG"> F  </i>
   <i type="logical" name="LGAUGE"> T  </i>
   <i type="int" name="MAGATOM">     0</i>
   <v name="MAGDIPOL">      0.00000000      0.00000000      0.00000000</v>
   <v name="AVECCONST">      0.00000000      0.00000000      0.00000000</v>
  </separator>
  <separator name="response functions" >
   <i type="logical" name="LADDER"> F  </i>
   <i type="logical" name="LRPAFORCE"> F  </i>
   <i type="logical" name="LFXC"> F  </i>
   <i type="logical" name="LHARTREE"> T  </i>
   <i type="int" name="IBSE">     0</i>
   <v type="int" name="KPOINT">    -1     0     0     0</v>
   <i type="logical" name="LTCTE"> F  </i>
   <i type="logical" name="LTETE"> F  </i>
   <i type="logical" name="LTRIPLET"> F  </i>
   <i type="logical" name="LFXCEPS"> F  </i>
   <i type="logical" name="LFXHEG"> F  </i>
   <i type="int" name="NATURALO">     2</i>
   <i type="logical" name="L2ORDER"> F  </i>
   <i type="logical" name="LMP2LT"> F  </i>
   <i type="logical" name="LUSEW"> F  </i>
   <i name="ENCUTGW">     -2.00000000</i>
   <i name="ENCUTGWSOFT">     -2.00000000</i>
   <i name="ENCUTLF">     -1.00000000</i>
   <i type="int" name="LMAXMP2">    -1</i>
   <i name="SCISSOR">      0.00000000</i>
   <i type="int" name="NOMEGA">     0</i>
   <i type="int" name="NOMEGAR">     0</i>
   <i type="int" name="NBANDSGW">    -1</i>
   <i type="int" name="NBANDSO">    -1</i>
   <i type="int" name="NBANDSV">    -1</i>
   <i type="int" name="NELM">     1</i>
   <i type="int" name="NELMHF">     1</i>
   <i type="int" name="DIM">     3</i>
   <i type="int" name="ANTIRES">     0</i>
   <i name="OMEGAMAX">    -30.00000000</i>
   <i name="OMEGAMIN">    -30.00000000</i>
   <i name="OMEGATL">   -200.00000000</i>
   <i type="int" name="OMEGAGRID">   140</i>
   <i name="CSHIFT">     -0.10000000</i>
   <i type="logical" name="SELFENERGY"> F  </i>
   <i type="logical" name="LSPECTRAL"> F  </i>
   <i type="logical" name="LSPECTRALGW"> F  </i>
   <i type="logical" name="LSINGLES"> F  </i>
   <i type="logical" name="LFERMIGW"> F  </i>
   <i type="logical" name="ODDONLYGW"> F  </i>
   <i type="logical" name="EVENONLYGW"> F  </i>
   <i type="int" name="NKREDLFX">     1</i>
   <i type="int" name="NKREDLFY">     1</i>
   <i type="int" name="NKREDLFZ">     1</i>
   <i type="int" name="MAXMEM">  2800</i>
   <i type="int" name="TELESCOPE">     0</i>
   <i type="int" name="TAUPAR">     1</i>
   <i type="int" name="OMEGAPAR">    -1</i>
   <i name="LAMBDA">      1.00000000</i>
  </separator>
  <separator name="External order field" >
   <i name="OFIELD_KAPPA">      0.00000000</i>
   <v name="OFIELD_K">      0.00000000      0.00000000      0.00000000</v>
   <i name="OFIELD_Q6_NEAR">      0.00000000</i>
   <i name="OFIELD_Q6_FAR">      0.00000000</i>
   <i name="OFIELD_A">      0.00000000</i>
  </separator>
 </parameters>
 <atominfo>
  <atoms>       2 </atoms>
  <types>       1 </types>
  <array name="atoms" >
   <dimension dim="1">ion</dimension>
   <field type="string">element</field>
   <field type="int">atomtype</field>
   <set>
    <rc><c>Si</c><c>   1</c></rc>
    <rc><c>Si</c><c>   1</c></rc>
   </set>
  </array>
  <array name="atomtypes" >
   <dimension dim="1">type</dimension>
   <field type="int">atomspertype</field>
   <field type="string">element</field>
   <field>mass</field>
   <field>valence</field>
   <field type="string">pseudopotential</field>
   <set>
    <rc><c>   2</c><c>Si</c><c>     28.08500000</c><c>      4.00000000</c><c> PAW_PBE Si 05Jan2001                   </c></rc>
   </set>
  </array>
 </atominfo>
 <structure name="initialpos" >
  <crystal>
   <varray name="basis" >
    <v>      -2.45000000       2.45000000       1.27400000 </v>
    <v>       2.45000000      -2.45000000       1.27400000 </v>
    <v>       2.45000000       2.45000000      -1.27400000 </v>
   </varray>
   <i name="volume">     30.58874000 </i>
   <varray name="rec_basis" >
    <v>       0.00000000       0.20408163       0.39246468 </v>
    <v>       0.20408163       0.00000000       0.39246468 </v>
    <v>       0.20408163       0.20408163      -0.00000000 </v>
   </varray>
  </crystal>
  <varray name="positions" >
   <v>       0.25000000       0.75000000       0.50000000 </v>
   <v>       0.00000000       0.00000000       0.00000000 </v>
  </varray>
 </structure>
 <calculation>
  <scstep>
   <time name="dav">    0.30    0.32</time>
   <time name="total">    0.34    0.39</time>
   <energy>
    <i name="alphaZ">      4.40202223 </i>
    <i name="ewald">   -265.18101312 </i>
    <i name="hartreedc">     -2.30415367 </i>
    <i name="XCdc">    -17.81530915 </i>
    <i name="pawpsdc">     65.95520812 </i>
    <i name="pawaedc">    -30.76852678 </i>
    <i name="eentropy">     -0.01047215 </i>
    <i name="bandstr">     33.59829674 </i>
    <i name="atom">    206.09183643 </i>
    <i name="e_fr_energy">     -6.03211135 </i>
    <i name="e_wo_entrp">     -6.02163920 </i>
    <i name="e_0_energy">     -6.02687528 </i>
   </energy>
  </scstep>
  <scstep>
   <time name="dav">    0.49    0.52</time>
   <time name="total">    0.50    0.52</time>
   <energy>
    <i name="e_fr_energy">    -10.13250502 </i>
    <i name="e_wo_entrp">    -10.11645933 </i>
    <i name="e_0_energy">    -10.12448218 </i>
   </energy>
  </scstep>
  <scstep>
   <time name="dav">    0.34    0.34</time>
   <time name="total">    0.34    0.35</time>
   <energy>
    <i name="e_fr_energy">    -10.15473985 </i>
    <i name="e_wo_entrp">    -10.13861286 </i>
    <i name="e_0_energy">    -10.14667635 </i>
   </energy>
  </scstep>
  <scstep>
   <time name="dav">    0.47    0.48</time>
   <time name="total">    0.47    0.49</time>
   <energy>
    <i name="e_fr_energy">    -10.15475973 </i>
    <i name="e_wo_entrp">    -10.13863254 </i>
    <i name="e_0_energy">    -10.14669613 </i>
   </energy>
  </scstep>
  <scstep>
   <time name="dav">    0.32    0.33</time>
   <time name="total">    0.34    0.34</time>
   <energy>
    <i name="e_fr_energy">    -10.15475975 </i>
    <i name="e_wo_entrp">    -10.13863256 </i>
    <i name="e_0_energy">    -10.14669616 </i>
   </energy>
  </scstep>
  <scstep>
   <time name="dav">    0.37    0.37</time>
   <time name="total">    0.40    0.42</time>
   <energy>
    <i name="e_fr_energy">    -10.14634264 </i>
    <i name="e_wo_entrp">    -10.13022938 </i>
    <i name="e_0_energy">    -10.13828601 </i>
   </energy>
  </scstep>
  <scstep>
   <time name="dav">    0.33    0.33</time>
   <time name="total">    0.36    0.38</time>
   <energy>
    <i name="e_fr_energy">    -10.13982637 </i>
    <i name="e_wo_entrp">    -10.12374344 </i>
    <i name="e_0_energy">    -10.13178491 </i>
   </energy>
  </scstep>
  <scstep>
   <time name="dav">    0.20    0.20</time>
   <time name="total">    0.22    0.24</time>
   <energy>
    <i name="alphaZ">      4.40202223 </i>
    <i name="ewald">   -265.18101312 </i>
    <i name="hartreedc">     -2.50918148 </i>
    <i name="XCdc">    -17.53974409 </i>
    <i name="pawpsdc">     72.38490455 </i>
    <i name="pawaedc">    -37.31138621 </i>
    <i name="eentropy">     -0.01607766 </i>
    <i name="bandstr">     29.53883478 </i>
    <i name="atom">    206.09183643 </i>
    <i name="e_fr_energy">    -10.13980457 </i>
    <i name="e_wo_entrp">    -10.12372690 </i>
    <i name="e_0_energy">    -10.13176573 </i>
   </energy>
  </scstep>
  <structure>
   <crystal>
    <varray name="basis" >
     <v>      -2.45000000       2.45000000       1.27400000 </v>
     <v>       2.45000000      -2.45000000       1.27400000 </v>
     <v>       2.45000000       2.45000000      -1.27400000 </v>
    </varray>
    <i name="volume">     30.58874000 </i>
    <varray name="rec_basis" >
     <v>       0.00000000       0.20408163       0.39246468 </v>
     <v>       0.20408163       0.00000000       0.39246468 </v>
     <v>       0.20408163       0.20408163      -0.00000000 </v>
    </varray>
   </crystal>
   <varray name="positions" >
    <v>       0.25000000       0.75000000       0.50000000 </v>
    <v>       0.00000000       0.00000000       0.00000000 </v>
   </varray>
  </structure>
  <varray name="forces" >
   <v>       0.00000000      -0.00000000       0.00000000 </v>
   <v>      -0.00000000       0.00000000      -0.00000000 </v>
  </varray>
  <varray name="stress" >
   <v>     -34.71701776       0.00000000      -0.00000000 </v>
   <v>      -0.00000000     -34.71701776       0.00000000 </v>
   <v>      -0.00000000       0.00000000      95.05039424 </v>
  </varray>
  <energy>
   <i name="e_fr_energy">    -10.13980457 </i>
   <i name="e_wo_entrp">    -10.13176573 </i>
   <i name="e_0_energy">     -0.01607766 </i>
  </energy>
  <time name="totalsc">    3.52    4.44</time>
  <eigenvalues>
   <array>
    <dimension dim="1">band</dimension>
    <dimension dim="2">kpoint</dimension>
    <dimension dim="3">spin</dimension>
    <field>eigene</field>
    <field>occ</field>
    <set>
     <set comment="spin 1">
      <set comment="kpoint 1">
       <r>   -4.6151    1.0000 </r>
       <r>    6.2055    1.0000 </r>
       <r>    6.3070    1.0000 </r>
       <r>    6.3070    1.0000 </r>
       <r>   10.6545    0.0000 </r>
       <r>   17.0736    0.0000 </r>
       <r>   17.3787    0.0000 </r>
       <r>   17.3788    0.0000 </r>
      </set>
      <set comment="kpoint 2">
       <r>   -4.0391    1.0000 </r>
       <r>    5.1729    1.0000 </r>
       <r>    6.2510    1.0000 </r>
       <r>    8.3444    1.0000 </r>
       <r>   11.7989    0.0000 </r>
       <r>   14.6251    0.0000 </r>
       <r>   15.0013    0.0000 </r>
       <r>   16.6640    0.0000 </r>
      </set>
      <set comment="kpoint 3">
       <r>   -2.3225    1.0000 </r>
       <r>    5.1551    1.0000 </r>
       <r>    6.5582    1.0000 </r>
       <r>    9.0034    0.5904 </r>
       <r>   11.2668    0.0000 </r>
       <r>   12.1850    0.0000 </r>
       <r>   13.6254    0.0000 </r>
       <r>   14.4497    0.0000 </r>
      </set>
      <set comment="kpoint 4">
       <r>    0.4923    1.0000 </r>
       <r>    4.3735    1.0000 </r>
       <r>    6.2418    1.0000 </r>
       <r>    7.4848    1.0000 </r>
       <r>    8.4751    1.0000 </r>
       <r>   11.0534    0.0000 </r>
       <r>   13.6128    0.0000 </r>
       <r>   14.5922    0.0000 </r>
      </set>
      <set comment="kpoint 5">
       <r>   -2.5627    1.0000 </r>
       <r>    5.4453    1.0000 </r>
       <r>    7.9591    1.0000 </r>
       <r>    9.1128    0.2930 </r>
       <r>   10.7259    0.0000 </r>
       <r>   11.1901    0.0000 </r>
       <r>   13.7259    0.0000 </r>
       <r>   14.5028    0.0000 </r>
      </set>
      <set comment="kpoint 6">
       <r>    0.0246    1.0000 </r>
       <r>    5.4673    1.0000 </r>
       <r>    6.3405    1.0000 </r>
       <r>    6.9086    1.0000 </r>
       <r>    9.4561    0.0015 </r>
       <r>   11.6606    0.0000 </r>
       <r>   12.4048    0.0000 </r>
       <r>   13.7536    0.0000 </r>
      </set>
      <set comment="kpoint 7">
       <r>    1.4167    1.0000 </r>
       <r>    3.6666    1.0000 </r>
       <r>    4.6635    1.0000 </r>
       <r>    7.5520    1.0000 </r>
       <r>    8.8853    0.8563 </r>
       <r>   11.6070    0.0000 </r>
       <r>   12.7294    0.0000 </r>
       <r>   16.1937    0.0000 </r>
      </set>
      <set comment="kpoint 8">
       <r>   -1.6049    1.0000 </r>
       <r>    3.2300    1.0000 </r>
       <r>    6.7424    1.0000 </r>
       <r>    8.3177    1.0000 </r>
       <r>   10.7259    0.0000 </r>
       <r>   12.6079    0.0000 </r>
       <r>   13.3345    0.0000 </r>
       <r>   15.3638    0.0000 </r>
      </set>
      <set comment="kpoint 9">
       <r>   -3.5548    1.0000 </r>
       <r>    2.9700    1.0000 </r>
       <r>    6.4104    1.0000 </r>
       <r>    9.7097    0.0000 </r>
       <r>   12.5196    0.0000 </r>
       <r>   13.8683    0.0000 </r>
       <r>   14.4071    0.0000 </r>
       <r>   16.0593    0.0000 </r>
      </set>
      <set comment="kpoint 10">
       <r>   -4.3719    1.0000 </r>
       <r>    3.7628    1.0000 </r>
       <r>    6.5347    1.0000 </r>
       <r>    7.9610    1.0000 </r>
       <r>   12.0992    0.0000 </r>
       <r>   14.4137    0.0000 </r>
       <r>   15.9410    0.0000 </r>
       <r>   19.4608    0.0000 </r>
      </set>
      <set comment="kpoint 11">
       <r>    2.6574    1.0000 </r>
       <r>    2.8257    1.0000 </r>
       <r>    3.6588    1.0000 </r>
       <r>    7.6913    1.0000 </r>
       <r>    9.3691    0.0092 </r>
       <r>   10.5479    0.0000 </r>
       <r>   14.7316    0.0000 </r>
       <r>   15.3550    0.0000 </r>
      </set>
      <set comment="kpoint 12">
       <r>   -0.4182    1.0000 </r>
       <r>    1.2149    1.0000 </r>
       <r>    7.6159    1.0000 </r>
       <r>    8.0462    1.0000 </r>
       <r>    9.3239    0.0208 </r>
       <r>   11.8612    0.0000 </r>
       <r>   14.4540    0.0000 </r>
       <r>   16.0079    0.0000 </r>
      </set>
      <set comment="kpoint 13">
       <r>   -2.5910    1.0000 </r>
       <r>    0.7149    1.0000 </r>
       <r>    7.2971    1.0000 </r>
       <r>   10.3903    0.0000 </r>
       <r>   10.8177    0.0000 </r>
       <r>   13.2439    0.0000 </r>
       <r>   14.8238    0.0000 </r>
       <r>   15.2680    0.0000 </r>
      </set>
      <set comment="kpoint 14">
       <r>   -3.6451    1.0000 </r>
       <r>    1.3174    1.0000 </r>
       <r>    7.2172    1.0000 </r>
       <r>    9.0326    0.5087 </r>
       <r>   11.9685    0.0000 </r>
       <r>   13.8128    0.0000 </r>
       <r>   15.3581    0.0000 </r>
       <r>   19.0479    0.0000 </r>
      </set>
      <set comment="kpoint 15">
       <r>   -1.1611    1.0000 </r>
       <r>   -1.1591    1.0000 </r>
       <r>    8.6231    0.9982 </r>
       <r>    8.6689    0.9953 </r>
       <r>   11.7816    0.0000 </r>
       <r>   12.3548    0.0000 </r>
       <r>   14.2094    0.0000 </r>
       <r>   15.1151    0.0000 </r>
      </set>
      <set comment="kpoint 16">
       <r>   -2.4415    1.0000 </r>
       <r>   -0.7775    1.0000 </r>
       <r>    8.3548    1.0000 </r>
       <r>    9.9486    0.0000 </r>
       <r>   10.2762    0.0000 </r>
       <r>   11.8786    0.0000 </r>
       <r>   18.8143    0.0000 </r>
       <r>   18.8683    0.0000 </r>
      </set>
      <set comment="kpoint 17">
       <r>   -1.8426    1.0000 </r>
       <r>    3.0611    1.0000 </r>
       <r>    8.3827    1.0000 </r>
       <r>    9.2401    0.0743 </r>
       <r>   10.3353    0.0000 </r>
       <r>   11.2164    0.0000 </r>
       <r>   14.1737    0.0000 </r>
       <r>   14.8570    0.0000 </r>
      </set>
      <set comment="kpoint 18">
       <r>    0.9641    1.0000 </r>
       <r>    4.1222    1.0000 </r>
       <r>    4.9285    1.0000 </r>
       <r>    6.3654    1.0000 </r>
       <r>   10.6593    0.0000 </r>
       <r>   13.2621    0.0000 </r>
       <r>   13.9545    0.0000 </r>
       <r>   14.2686    0.0000 </r>
      </set>
      <set comment="kpoint 19">
       <r>   -4.1295    1.0000 </r>
       <r>    3.4612    1.0000 </r>
       <r>    4.9414    1.0000 </r>
       <r>    9.8613    0.0000 </r>
       <r>   12.2974    0.0000 </r>
       <r>   12.9703    0.0000 </r>
       <r>   17.7859    0.0000 </r>
       <r>   18.1600    0.0000 </r>
      </set>
      <set comment="kpoint 20">
       <r>    2.3363    1.0000 </r>
       <r>    2.3673    1.0000 </r>
       <r>    4.6757    1.0000 </r>
       <r>    6.1710    1.0000 </r>
       <r>   11.7376    0.0000 </r>
       <r>   12.5681    0.0000 </r>
       <r>   14.5089    0.0000 </r>
       <r>   15.5050    0.0000 </r>
      </set>
      <set comment="kpoint 21">
       <r>   -0.6507    1.0000 </r>
       <r>    0.9961    1.0000 </r>
       <r>    8.7231    0.9865 </r>
       <r>    8.9445    0.7406 </r>
       <r>   10.7318    0.0000 </r>
       <r>   11.7505    0.0000 </r>
       <r>   12.6160    0.0000 </r>
       <r>   13.6442    0.0000 </r>
      </set>
      <set comment="kpoint 22">
       <r>   -3.4049    1.0000 </r>
       <r>    1.4901    1.0000 </r>
       <r>    5.1410    1.0000 </r>
       <r>    9.8786    0.0000 </r>
       <r>   11.3873    0.0000 </r>
       <r>   15.7844    0.0000 </r>
       <r>   16.0619    0.0000 </r>
       <r>   18.5407    0.0000 </r>
      </set>
      <set comment="kpoint 23">
       <r>   -3.0737    1.0000 </r>
       <r>    2.8274    1.0000 </r>
       <r>    4.4632    1.0000 </r>
       <r>   10.1343    0.0000 </r>
       <r>   11.7553    0.0000 </r>
       <r>   13.7937    0.0000 </r>
       <r>   15.3888    0.0000 </r>
       <r>   16.9907    0.0000 </r>
      </set>
      <set comment="kpoint 24">
       <r>   -2.2070    1.0000 </r>
       <r>   -0.5560    1.0000 </r>
       <r>    6.2415    1.0000 </r>
       <r>    7.8366    1.0000 </r>
       <r>   12.6934    0.0000 </r>
       <r>   14.2449    0.0000 </r>
       <r>   18.1238    0.0000 </r>
       <r>   18.2540    0.0000 </r>
      </set>
      <set comment="kpoint 25">
       <r>   -2.1181    1.0000 </r>
       <r>    1.1042    1.0000 </r>
       <r>    4.8175    1.0000 </r>
       <r>    7.9352    1.0000 </r>
       <r>   11.9782    0.0000 </r>
       <r>   14.5776    0.0000 </r>
       <r>   16.8768    0.0000 </r>
       <r>   17.4998    0.0000 </r>
      </set>
      <set comment="kpoint 26">
       <r>   -0.8961    1.0000 </r>
       <r>    3.2936    1.0000 </r>
       <r>    4.9820    1.0000 </r>
       <r>    7.4711    1.0000 </r>
       <r>    9.0172    0.5522 </r>
       <r>   13.4467    0.0000 </r>
       <r>   15.0811    0.0000 </r>
       <r>   16.0930    0.0000 </r>
      </set>
      <set comment="kpoint 27">
       <r>   -0.7091    1.0000 </r>
       <r>   -0.7034    1.0000 </r>
       <r>    6.1255    1.0000 </r>
       <r>    6.1322    1.0000 </r>
       <r>   11.8804    0.0000 </r>
       <r>   15.5513    0.0000 </r>
       <r>   16.3075    0.0000 </r>
       <r>   16.8470    0.0000 </r>
      </set>
      <set comment="kpoint 28">
       <r>    0.2680    1.0000 </r>
       <r>    1.8304    1.0000 </r>
       <r>    5.5148    1.0000 </r>
       <r>    6.8435    1.0000 </r>
       <r>    7.2955    1.0000 </r>
       <r>   13.6028    0.0000 </r>
       <r>   16.6976    0.0000 </r>
       <r>   17.6512    0.0000 </r>
      </set>
      <set comment="kpoint 29">
       <r>    2.2568    1.0000 </r>
       <r>    3.0768    1.0000 </r>
       <r>    4.9460    1.0000 </r>
       <r>    6.4706    1.0000 </r>
       <r>    8.5970    0.9990 </r>
       <r>   11.1839    0.0000 </r>
       <r>   12.4206    0.0000 </r>
       <r>   16.5448    0.0000 </r>
      </set>
      <set comment="kpoint 30">
       <r>    2.6230    1.0000 </r>
       <r>    3.6743    1.0000 </r>
       <r>    3.8424    1.0000 </r>
       <r>    7.1267    1.0000 </r>
       <r>    7.2826    1.0000 </r>
       <r>   11.2367    0.0000 </r>
       <r>   14.0143    0.0000 </r>
       <r>   14.8328    0.0000 </r>
      </set>
      <set comment="kpoint 31">
       <r>   -0.4483    1.0000 </r>
       <r>    6.5228    1.0000 </r>
       <r>    7.3734    1.0000 </r>
       <r>    8.2419    1.0000 </r>
       <r>    8.3249    1.0000 </r>
       <r>   10.7859    0.0000 </r>
       <r>   11.2960    0.0000 </r>
       <r>   12.5708    0.0000 </r>
      </set>
      <set comment="kpoint 32">
       <r>   -2.8036    1.0000 </r>
       <r>    7.7833    1.0000 </r>
       <r>    7.7833    1.0000 </r>
       <r>    7.7897    1.0000 </r>
       <r>   11.1179    0.0000 </r>
       <r>   11.5432    0.0000 </r>
       <r>   12.4904    0.0000 </r>
       <r>   13.8383    0.0000 </r>
      </set>
      <set comment="kpoint 33">
       <r>   -2.6886    1.0000 </r>
       <r>    1.5538    1.0000 </r>
       <r>    3.2928    1.0000 </r>
       <r>    7.4352    1.0000 </r>
       <r>   14.0075    0.0000 </r>
       <r>   17.1739    0.0000 </r>
       <r>   17.4355    0.0000 </r>
       <r>   18.1457    0.0000 </r>
      </set>
      <set comment="kpoint 34">
       <r>   -1.5130    1.0000 </r>
       <r>    0.0654    1.0000 </r>
       <r>    3.8431    1.0000 </r>
       <r>    5.3880    1.0000 </r>
       <r>   15.5429    0.0000 </r>
       <r>   16.5030    0.0000 </r>
       <r>   18.0123    0.0000 </r>
       <r>   18.5803    0.0000 </r>
      </set>
      <set comment="kpoint 35">
       <r>   -1.1852    1.0000 </r>
       <r>    1.3946    1.0000 </r>
       <r>    3.1695    1.0000 </r>
       <r>    5.6956    1.0000 </r>
       <r>   11.5515    0.0000 </r>
       <r>   17.2755    0.0000 </r>
       <r>   18.5010    0.0000 </r>
       <r>   19.2821    0.0000 </r>
      </set>
      <set comment="kpoint 36">
       <r>    0.1474    1.0000 </r>
       <r>    0.1560    1.0000 </r>
       <r>    3.9339    1.0000 </r>
       <r>    3.9351    1.0000 </r>
       <r>   11.3676    0.0000 </r>
       <r>   18.7323    0.0000 </r>
       <r>   18.8276    0.0000 </r>
       <r>   19.4777    0.0000 </r>
      </set>
      <set comment="kpoint 37">
       <r>    1.3547    1.0000 </r>
       <r>    2.3467    1.0000 </r>
       <r>    4.1207    1.0000 </r>
       <r>    5.0810    1.0000 </r>
       <r>    6.6702    1.0000 </r>
       <r>   15.4505    0.0000 </r>
       <r>   16.9221    0.0000 </r>
       <r>   18.2307    0.0000 </r>
      </set>
      <set comment="kpoint 38">
       <r>    2.4501    1.0000 </r>
       <r>    4.4247    1.0000 </r>
       <r>    4.5610    1.0000 </r>
       <r>    6.0792    1.0000 </r>
       <r>    6.0792    1.0000 </r>
       <r>   13.0248    0.0000 </r>
       <r>   13.7652    0.0000 </r>
       <r>   13.7652    0.0000 </r>
      </set>
      <set comment="kpoint 39">
       <r>   -0.4147    1.0000 </r>
       <r>    0.5881    1.0000 </r>
       <r>    2.4045    1.0000 </r>
       <r>    3.3933    1.0000 </r>
       <r>   16.3503    0.0000 </r>
       <r>   16.5011    0.0000 </r>
       <r>   19.7362    0.0000 </r>
       <r>   20.6759    0.0000 </r>
      </set>
      <set comment="kpoint 40">
       <r>    0.9053    1.0000 </r>
       <r>    0.9186    1.0000 </r>
       <r>    2.7233    1.0000 </r>
       <r>    2.7233    1.0000 </r>
       <r>   11.1750    0.0000 </r>
       <r>   19.8303    0.0000 </r>
       <r>   20.7679    0.0000 </r>
       <r>   20.7679    0.0000 </r>
      </set>
     </set>
    </set>
   </array>
  </eigenvalues>
  <separator name="orbital magnetization" >
   <v name="MAGDIPOLOUT">      0.00000000      0.00000000      0.00000000</v>
  </separator>
  <dos>
   <i name="efermi">      9.03573897 </i>
   <total>
    <array>
     <dimension dim="1">gridpoints</dimension>
     <dimension dim="2">spin</dimension>
     <field>energy</field>
     <field>total</field>
     <field>integrated</field>
     <set>
      <set comment="spin 1">
       <r>    -6.6151     0.0000     0.0000 </r>
       <r>    -6.5171     0.0000     0.0000 </r>
       <r>    -6.4192     0.0000     0.0000 </r>
       <r>    -6.3212     0.0000     0.0000 </r>
       <r>    -6.2233     0.0000     0.0000 </r>
       <r>    -6.1253     0.0000     0.0000 </r>
       <r>    -6.0274     0.0000     0.0000 </r>
       <r>    -5.9294     0.0000     0.0000 </r>
       <r>    -5.8315     0.0000     0.0000 </r>
       <r>    -5.7336     0.0000     0.0000 </r>
       <r>    -5.6356     0.0000     0.0000 </r>
       <r>    -5.5377     0.0000     0.0000 </r>
       <r>    -5.4397     0.0000     0.0000 </r>
       <r>    -5.3418     0.0000     0.0000 </r>
       <r>    -5.2438     0.0000     0.0000 </r>
       <r>    -5.1459     0.0000     0.0000 </r>
       <r>    -5.0480     0.0001     0.0000 </r>
       <r>    -4.9500     0.0005     0.0001 </r>
       <r>    -4.8521     0.0023     0.0003 </r>
       <r>    -4.7541     0.0076     0.0010 </r>
       <r>    -4.6562     0.0178     0.0028 </r>
       <r>    -4.5582     0.0335     0.0060 </r>
       <r>    -4.4603     0.0560     0.0115 </r>
       <r>    -4.3624     0.0823     0.0196 </r>
       <r>    -4.2644     0.1110     0.0305 </r>
       <r>    -4.1665     0.1514     0.0453 </r>
       <r>    -4.0685     0.1897     0.0639 </r>
       <r>    -3.9706     0.1830     0.0818 </r>
       <r>    -3.8726     0.1365     0.0952 </r>
       <r>    -3.7747     0.1264     0.1075 </r>
       <r>    -3.6768     0.2073     0.1278 </r>
       <r>    -3.5788     0.3326     0.1604 </r>
       <r>    -3.4809     0.3909     0.1987 </r>
       <r>    -3.3829     0.3339     0.2314 </r>
       <r>    -3.2850     0.2260     0.2535 </r>
       <r>    -3.1870     0.1576     0.2690 </r>
       <r>    -3.0891     0.1471     0.2834 </r>
       <r>    -2.9912     0.1455     0.2976 </r>
       <r>    -2.8932     0.1375     0.3111 </r>
       <r>    -2.7953     0.1795     0.3287 </r>
       <r>    -2.6973     0.3099     0.3590 </r>
       <r>    -2.5994     0.4630     0.4044 </r>
       <r>    -2.5014     0.5204     0.4554 </r>
       <r>    -2.4035     0.4758     0.5020 </r>
       <r>    -2.3056     0.4412     0.5452 </r>
       <r>    -2.2076     0.4629     0.5905 </r>
       <r>    -2.1097     0.4644     0.6360 </r>
       <r>    -2.0117     0.3859     0.6738 </r>
       <r>    -1.9138     0.2854     0.7018 </r>
       <r>    -1.8158     0.2488     0.7261 </r>
       <r>    -1.7179     0.2919     0.7547 </r>
       <r>    -1.6200     0.3714     0.7911 </r>
       <r>    -1.5220     0.4002     0.8303 </r>
       <r>    -1.4241     0.3411     0.8637 </r>
       <r>    -1.3261     0.2947     0.8926 </r>
       <r>    -1.2282     0.3486     0.9267 </r>
       <r>    -1.1302     0.4183     0.9677 </r>
       <r>    -1.0323     0.3977     1.0066 </r>
       <r>    -0.9344     0.3529     1.0412 </r>
       <r>    -0.8364     0.4006     1.0804 </r>
       <r>    -0.7385     0.5319     1.1325 </r>
       <r>    -0.6405     0.6525     1.1964 </r>
       <r>    -0.5426     0.7085     1.2658 </r>
       <r>    -0.4446     0.6916     1.3336 </r>
       <r>    -0.3467     0.5685     1.3892 </r>
       <r>    -0.2487     0.3696     1.4254 </r>
       <r>    -0.1508     0.2556     1.4505 </r>
       <r>    -0.0529     0.3441     1.4842 </r>
       <r>     0.0451     0.5627     1.5393 </r>
       <r>     0.1430     0.7229     1.6101 </r>
       <r>     0.2410     0.7086     1.6795 </r>
       <r>     0.3389     0.5633     1.7347 </r>
       <r>     0.4369     0.4156     1.7754 </r>
       <r>     0.5348     0.3580     1.8104 </r>
       <r>     0.6327     0.3829     1.8479 </r>
       <r>     0.7307     0.4344     1.8905 </r>
       <r>     0.8286     0.4997     1.9394 </r>
       <r>     0.9266     0.6126     1.9994 </r>
       <r>     1.0245     0.7470     2.0726 </r>
       <r>     1.1225     0.8266     2.1535 </r>
       <r>     1.2204     0.8553     2.2373 </r>
       <r>     1.3183     0.8868     2.3242 </r>
       <r>     1.4163     0.8855     2.4109 </r>
       <r>     1.5142     0.7533     2.4847 </r>
       <r>     1.6122     0.5197     2.5356 </r>
       <r>     1.7101     0.3468     2.5695 </r>
       <r>     1.8081     0.2989     2.5988 </r>
       <r>     1.9060     0.2733     2.6256 </r>
       <r>     2.0039     0.2044     2.6456 </r>
       <r>     2.1019     0.1773     2.6630 </r>
       <r>     2.1998     0.2885     2.6912 </r>
       <r>     2.2978     0.4899     2.7392 </r>
       <r>     2.3957     0.6130     2.7993 </r>
       <r>     2.4937     0.5826     2.8563 </r>
       <r>     2.5916     0.5191     2.9072 </r>
       <r>     2.6895     0.5314     2.9592 </r>
       <r>     2.7875     0.5944     3.0174 </r>
       <r>     2.8854     0.6660     3.0826 </r>
       <r>     2.9834     0.7428     3.1554 </r>
       <r>     3.0813     0.8153     3.2353 </r>
       <r>     3.1793     0.8519     3.3187 </r>
       <r>     3.2772     0.8055     3.3976 </r>
       <r>     3.3751     0.6649     3.4627 </r>
       <r>     3.4731     0.5338     3.5150 </r>
       <r>     3.5710     0.5537     3.5692 </r>
       <r>     3.6690     0.7088     3.6387 </r>
       <r>     3.7669     0.8361     3.7206 </r>
       <r>     3.8649     0.8454     3.8033 </r>
       <r>     3.9628     0.7788     3.8796 </r>
       <r>     4.0607     0.6942     3.9476 </r>
       <r>     4.1587     0.5979     4.0062 </r>
       <r>     4.2566     0.4865     4.0538 </r>
       <r>     4.3546     0.4161     4.0946 </r>
       <r>     4.4525     0.4306     4.1368 </r>
       <r>     4.5505     0.5099     4.1867 </r>
       <r>     4.6484     0.6317     4.2486 </r>
       <r>     4.7464     0.7728     4.3243 </r>
       <r>     4.8443     0.9102     4.4134 </r>
       <r>     4.9422     1.0116     4.5125 </r>
       <r>     5.0402     1.0168     4.6121 </r>
       <r>     5.1381     0.9108     4.7013 </r>
       <r>     5.2361     0.7651     4.7762 </r>
       <r>     5.3340     0.7074     4.8455 </r>
       <r>     5.4320     0.7805     4.9220 </r>
       <r>     5.5299     0.8152     5.0018 </r>
       <r>     5.6278     0.6622     5.0667 </r>
       <r>     5.7258     0.4126     5.1071 </r>
       <r>     5.8237     0.2265     5.1292 </r>
       <r>     5.9217     0.1891     5.1478 </r>
       <r>     6.0196     0.3514     5.1822 </r>
       <r>     6.1176     0.7025     5.2510 </r>
       <r>     6.2155     1.1146     5.3602 </r>
       <r>     6.3134     1.4124     5.4985 </r>
       <r>     6.4114     1.4784     5.6433 </r>
       <r>     6.5093     1.3173     5.7723 </r>
       <r>     6.6073     1.0768     5.8778 </r>
       <r>     6.7052     0.9270     5.9686 </r>
       <r>     6.8032     0.8832     6.0551 </r>
       <r>     6.9011     0.8170     6.1351 </r>
       <r>     6.9990     0.6747     6.2012 </r>
       <r>     7.0970     0.5994     6.2599 </r>
       <r>     7.1949     0.7386     6.3322 </r>
       <r>     7.2929     1.0061     6.4308 </r>
       <r>     7.3908     1.1833     6.5467 </r>
       <r>     7.4888     1.1984     6.6640 </r>
       <r>     7.5867     1.1150     6.7732 </r>
       <r>     7.6846     0.9801     6.8692 </r>
       <r>     7.7826     0.8683     6.9543 </r>
       <r>     7.8805     0.8599     7.0385 </r>
       <r>     7.9785     0.8908     7.1258 </r>
       <r>     8.0764     0.8472     7.2087 </r>
       <r>     8.1744     0.7976     7.2868 </r>
       <r>     8.2723     0.8748     7.3725 </r>
       <r>     8.3702     0.9819     7.4687 </r>
       <r>     8.4682     0.9458     7.5613 </r>
       <r>     8.5661     0.8215     7.6418 </r>
       <r>     8.6641     0.7393     7.7142 </r>
       <r>     8.7620     0.7133     7.7841 </r>
       <r>     8.8600     0.7430     7.8568 </r>
       <r>     8.9579     0.8086     7.9360 </r>
       <r>     9.0558     0.8166     8.0160 </r>
       <r>     9.1538     0.7524     8.0897 </r>
       <r>     9.2517     0.7222     8.1604 </r>
       <r>     9.3497     0.7483     8.2337 </r>
       <r>     9.4476     0.7159     8.3039 </r>
       <r>     9.5456     0.5867     8.3613 </r>
       <r>     9.6435     0.4732     8.4077 </r>
       <r>     9.7414     0.4480     8.4516 </r>
       <r>     9.8394     0.4489     8.4955 </r>
       <r>     9.9373     0.4078     8.5355 </r>
       <r>    10.0353     0.3425     8.5690 </r>
       <r>    10.1332     0.3211     8.6005 </r>
       <r>    10.2312     0.3838     8.6380 </r>
       <r>    10.3291     0.4993     8.6869 </r>
       <r>    10.4271     0.6009     8.7458 </r>
       <r>    10.5250     0.7072     8.8151 </r>
       <r>    10.6229     0.9134     8.9045 </r>
       <r>    10.7209     1.1441     9.0166 </r>
       <r>    10.8188     1.1471     9.1289 </r>
       <r>    10.9168     0.8885     9.2159 </r>
       <r>    11.0147     0.6698     9.2816 </r>
       <r>    11.1127     0.7267     9.3527 </r>
       <r>    11.2106     0.9468     9.4455 </r>
       <r>    11.3085     1.0561     9.5489 </r>
       <r>    11.4065     0.9810     9.6450 </r>
       <r>    11.5044     0.9243     9.7355 </r>
       <r>    11.6024     1.0660     9.8399 </r>
       <r>    11.7003     1.3298     9.9702 </r>
       <r>    11.7983     1.4975    10.1168 </r>
       <r>    11.8962     1.4253    10.2564 </r>
       <r>    11.9941     1.1384    10.3679 </r>
       <r>    12.0921     0.8050    10.4468 </r>
       <r>    12.1900     0.6164    10.5071 </r>
       <r>    12.2880     0.6675    10.5725 </r>
       <r>    12.3859     0.9188    10.6625 </r>
       <r>    12.4839     1.2243    10.7824 </r>
       <r>    12.5818     1.3989    10.9194 </r>
       <r>    12.6797     1.3037    11.0471 </r>
       <r>    12.7777     0.9585    11.1410 </r>
       <r>    12.8756     0.5631    11.1962 </r>
       <r>    12.9736     0.3241    11.2279 </r>
       <r>    13.0715     0.3152    11.2588 </r>
       <r>    13.1695     0.5085    11.3086 </r>
       <r>    13.2674     0.7681    11.3838 </r>
       <r>    13.3653     0.8982    11.4718 </r>
       <r>    13.4633     0.9055    11.5605 </r>
       <r>    13.5612     0.9981    11.6582 </r>
       <r>    13.6592     1.2231    11.7780 </r>
       <r>    13.7571     1.3993    11.9151 </r>
       <r>    13.8551     1.3889    12.0511 </r>
       <r>    13.9530     1.2160    12.1702 </r>
       <r>    14.0509     1.0076    12.2689 </r>
       <r>    14.1489     0.9184    12.3588 </r>
       <r>    14.2468     1.0140    12.4582 </r>
       <r>    14.3448     1.2275    12.5784 </r>
       <r>    14.4427     1.4402    12.7194 </r>
       <r>    14.5407     1.5074    12.8671 </r>
       <r>    14.6386     1.3630    13.0006 </r>
       <r>    14.7365     1.1365    13.1119 </r>
       <r>    14.8345     0.9652    13.2064 </r>
       <r>    14.9324     0.8315    13.2879 </r>
       <r>    15.0304     0.7189    13.3583 </r>
       <r>    15.1283     0.6957    13.4264 </r>
       <r>    15.2263     0.8130    13.5061 </r>
       <r>    15.3242     1.0216    13.6061 </r>
       <r>    15.4222     1.1472    13.7185 </r>
       <r>    15.5201     1.0425    13.8206 </r>
       <r>    15.6180     0.7609    13.8951 </r>
       <r>    15.7160     0.4967    13.9438 </r>
       <r>    15.8139     0.4154    13.9845 </r>
       <r>    15.9119     0.5640    14.0397 </r>
       <r>    16.0098     0.8444    14.1224 </r>
       <r>    16.1078     1.0292    14.2232 </r>
       <r>    16.2057     0.9692    14.3181 </r>
       <r>    16.3036     0.7657    14.3931 </r>
       <r>    16.4016     0.6132    14.4532 </r>
       <r>    16.4995     0.5961    14.5116 </r>
       <r>    16.5975     0.6699    14.5772 </r>
       <r>    16.6954     0.7564    14.6513 </r>
       <r>    16.7934     0.8173    14.7313 </r>
       <r>    16.8913     0.8208    14.8117 </r>
       <r>    16.9892     0.7136    14.8816 </r>
       <r>    17.0872     0.5234    14.9328 </r>
       <r>    17.1851     0.3767    14.9697 </r>
       <r>    17.2831     0.3460    15.0036 </r>
       <r>    17.3810     0.4049    15.0433 </r>
       <r>    17.4790     0.4955    15.0918 </r>
       <r>    17.5769     0.5486    15.1455 </r>
       <r>    17.6748     0.5108    15.1956 </r>
       <r>    17.7728     0.3972    15.2345 </r>
       <r>    17.8707     0.2957    15.2634 </r>
       <r>    17.9687     0.3004    15.2929 </r>
       <r>    18.0666     0.4166    15.3337 </r>
       <r>    18.1646     0.5408    15.3866 </r>
       <r>    18.2625     0.5590    15.4414 </r>
       <r>    18.3604     0.4863    15.4890 </r>
       <r>    18.4584     0.4486    15.5330 </r>
       <r>    18.5563     0.4853    15.5805 </r>
       <r>    18.6543     0.5180    15.6312 </r>
       <r>    18.7522     0.5087    15.6811 </r>
       <r>    18.8502     0.4597    15.7261 </r>
       <r>    18.9481     0.3592    15.7613 </r>
       <r>    19.0460     0.2439    15.7852 </r>
       <r>    19.1440     0.1806    15.8028 </r>
       <r>    19.2419     0.1886    15.8213 </r>
       <r>    19.3399     0.2349    15.8443 </r>
       <r>    19.4378     0.2698    15.8707 </r>
       <r>    19.5358     0.2564    15.8959 </r>
       <r>    19.6337     0.2017    15.9156 </r>
       <r>    19.7316     0.1489    15.9302 </r>
       <r>    19.8296     0.1120    15.9412 </r>
       <r>    19.9275     0.0738    15.9484 </r>
       <r>    20.0255     0.0358    15.9519 </r>
       <r>    20.1234     0.0119    15.9531 </r>
       <r>    20.2214     0.0028    15.9533 </r>
       <r>    20.3193     0.0018    15.9535 </r>
       <r>    20.4172     0.0081    15.9543 </r>
       <r>    20.5152     0.0297    15.9572 </r>
       <r>    20.6131     0.0716    15.9642 </r>
       <r>    20.7111     0.1135    15.9753 </r>
       <r>    20.8090     0.1188    15.9870 </r>
       <r>    20.9070     0.0822    15.9950 </r>
       <r>    21.0049     0.0374    15.9987 </r>
       <r>    21.1029     0.0111    15.9998 </r>
       <r>    21.2008     0.0021    16.0000 </r>
       <r>    21.2987     0.0003    16.0000 </r>
       <r>    21.3967     0.0000    16.0000 </r>
       <r>    21.4946     0.0000    16.0000 </r>
       <r>    21.5926     0.0000    16.0000 </r>
       <r>    21.6905     0.0000    16.0000 </r>
       <r>    21.7885     0.0000    16.0000 </r>
       <r>    21.8864     0.0000    16.0000 </r>
       <r>    21.9843     0.0000    16.0000 </r>
       <r>    22.0823     0.0000    16.0000 </r>
       <r>    22.1802     0.0000    16.0000 </r>
       <r>    22.2782     0.0000    16.0000 </r>
       <r>    22.3761     0.0000    16.0000 </r>
       <r>    22.4741     0.0000    16.0000 </r>
       <r>    22.5720     0.0000    16.0000 </r>
       <r>    22.6699     0.0000    16.0000 </r>
       <r>    22.7679     0.0000    16.0000 </r>
      </set>
     </set>
    </array>
   </total>
  </dos>
 </calculation>
 <structure name="finalpos" >
  <crystal>
   <varray name="basis" >
    <v>      -2.45000000       2.45000000       1.27400000 </v>
    <v>       2.45000000      -2.45000000       1.27400000 </v>
    <v>       2.45000000       2.45000000      -1.27400000 </v>
   </varray>
   <i name="volume">     30.58874000 </i>
   <varray name="rec_basis" >
    <v>       0.00000000       0.20408163       0.39246468 </v>
    <v>       0.20408163       0.00000000       0.39246468 </v>
    <v>       0.20408163       0.20408163      -0.00000000 </v>
   </varray>
  </crystal>
  <varray name="positions" >
   <v>       0.25000000       0.75000000       0.50000000 </v>
   <v>       0.00000000       0.00000000       0.00000000 </v>
  </varray>
 </structure>
</modeling>
