   2   2   0   0
  0.1529437E+02  0.3691622E-09  0.3691622E-09  0.3691622E-09  0.5000000E-15
  1.000000000000000E-004
  CAR 
 unknown system                          
     23.06455330     -6.57314431  301      9.09632366      1.00000000
     -6.573  0.0000E+00  0.0000E+00
     -6.474  0.0000E+00  0.0000E+00
     -6.376  0.0000E+00  0.0000E+00
     -6.277  0.0000E+00  0.0000E+00
     -6.178  0.0000E+00  0.0000E+00
     -6.079  0.0000E+00  0.0000E+00
     -5.980  0.0000E+00  0.0000E+00
     -5.882  0.0000E+00  0.0000E+00
     -5.783  0.0000E+00  0.0000E+00
     -5.684  0.6243E-17  0.6168E-18
     -5.585  0.1289E-14  0.1279E-15
     -5.486  0.1649E-12  0.1642E-13
     -5.388  0.1308E-10  0.1309E-11
     -5.289  0.6444E-09  0.6497E-10
     -5.190  0.1977E-07  0.2018E-08
     -5.091  0.3799E-06  0.3955E-07
     -4.992  0.4612E-05  0.4951E-06
     -4.894  0.3598E-04  0.4050E-05
     -4.795  0.1860E-03  0.2243E-04
     -4.696  0.6689E-03  0.8851E-04
     -4.597  0.1772E-02  0.2636E-03
     -4.499  0.3604E-02  0.6197E-03
     -4.400  0.5712E-02  0.1184E-02
     -4.301  0.7311E-02  0.1906E-02
     -4.202  0.8442E-02  0.2740E-02
     -4.103  0.9818E-02  0.3710E-02
     -4.005  0.1121E-01  0.4818E-02
     -3.906  0.1210E-01  0.6013E-02
     -3.807  0.1302E-01  0.7299E-02
     -3.708  0.1432E-01  0.8714E-02
     -3.609  0.1538E-01  0.1023E-01
     -3.511  0.1573E-01  0.1179E-01
     -3.412  0.1554E-01  0.1332E-01
     -3.313  0.1499E-01  0.1480E-01
     -3.214  0.1513E-01  0.1630E-01
     -3.115  0.1746E-01  0.1802E-01
     -3.017  0.2127E-01  0.2012E-01
     -2.918  0.2385E-01  0.2248E-01
     -2.819  0.2317E-01  0.2477E-01
     -2.720  0.1946E-01  0.2669E-01
     -2.621  0.1634E-01  0.2831E-01
     -2.523  0.1775E-01  0.3006E-01
     -2.424  0.2216E-01  0.3225E-01
     -2.325  0.2459E-01  0.3468E-01
     -2.226  0.2420E-01  0.3707E-01
     -2.127  0.2394E-01  0.3943E-01
     -2.029  0.2486E-01  0.4189E-01
     -1.930  0.2592E-01  0.4445E-01
     -1.831  0.2623E-01  0.4704E-01
     -1.732  0.2569E-01  0.4958E-01
     -1.634  0.2531E-01  0.5208E-01
     -1.535  0.2576E-01  0.5462E-01
     -1.436  0.2650E-01  0.5724E-01
     -1.337  0.2764E-01  0.5997E-01
     -1.238  0.3031E-01  0.6297E-01
     -1.140  0.3305E-01  0.6623E-01
     -1.041  0.3176E-01  0.6937E-01
     -0.942  0.2660E-01  0.7200E-01
     -0.843  0.2249E-01  0.7422E-01
     -0.744  0.2289E-01  0.7648E-01
     -0.646  0.2758E-01  0.7921E-01
     -0.547  0.3407E-01  0.8257E-01
     -0.448  0.3899E-01  0.8642E-01
     -0.349  0.3989E-01  0.9037E-01
     -0.250  0.3732E-01  0.9405E-01
     -0.152  0.3481E-01  0.9749E-01
     -0.053  0.3466E-01  0.1009E+00
      0.046  0.3485E-01  0.1044E+00
      0.145  0.3318E-01  0.1076E+00
      0.244  0.3158E-01  0.1108E+00
      0.342  0.3194E-01  0.1139E+00
      0.441  0.3320E-01  0.1172E+00
      0.540  0.3498E-01  0.1206E+00
      0.639  0.3851E-01  0.1245E+00
      0.737  0.4304E-01  0.1287E+00
      0.836  0.4468E-01  0.1331E+00
      0.935  0.4149E-01  0.1372E+00
      1.034  0.3727E-01  0.1409E+00
      1.133  0.3694E-01  0.1445E+00
      1.231  0.4089E-01  0.1486E+00
      1.330  0.4427E-01  0.1530E+00
      1.429  0.4205E-01  0.1571E+00
      1.528  0.3470E-01  0.1605E+00
      1.627  0.2786E-01  0.1633E+00
      1.725  0.2744E-01  0.1660E+00
      1.824  0.3332E-01  0.1693E+00
      1.923  0.3978E-01  0.1732E+00
      2.022  0.4315E-01  0.1775E+00
      2.121  0.4309E-01  0.1817E+00
      2.219  0.4006E-01  0.1857E+00
      2.318  0.3706E-01  0.1894E+00
      2.417  0.3665E-01  0.1930E+00
      2.516  0.3638E-01  0.1966E+00
      2.615  0.3417E-01  0.2000E+00
      2.713  0.3165E-01  0.2031E+00
      2.812  0.3033E-01  0.2061E+00
      2.911  0.3066E-01  0.2091E+00
      3.010  0.3352E-01  0.2124E+00
      3.109  0.3992E-01  0.2164E+00
      3.207  0.4829E-01  0.2211E+00
      3.306  0.5369E-01  0.2264E+00
      3.405  0.5293E-01  0.2317E+00
      3.504  0.4737E-01  0.2363E+00
      3.602  0.4093E-01  0.2404E+00
      3.701  0.3838E-01  0.2442E+00
      3.800  0.4043E-01  0.2482E+00
      3.899  0.4242E-01  0.2524E+00
      3.998  0.4220E-01  0.2565E+00
      4.096  0.4259E-01  0.2607E+00
      4.195  0.4514E-01  0.2652E+00
      4.294  0.4665E-01  0.2698E+00
      4.393  0.4382E-01  0.2741E+00
      4.492  0.4000E-01  0.2781E+00
      4.590  0.4187E-01  0.2822E+00
      4.689  0.4886E-01  0.2871E+00
      4.788  0.5418E-01  0.2924E+00
      4.887  0.5553E-01  0.2979E+00
      4.986  0.5443E-01  0.3033E+00
      5.084  0.5143E-01  0.3084E+00
      5.183  0.4796E-01  0.3131E+00
      5.282  0.4566E-01  0.3176E+00
      5.381  0.4498E-01  0.3220E+00
      5.480  0.4615E-01  0.3266E+00
      5.578  0.4898E-01  0.3314E+00
      5.677  0.5254E-01  0.3366E+00
      5.776  0.5622E-01  0.3422E+00
      5.875  0.5973E-01  0.3481E+00
      5.973  0.6239E-01  0.3543E+00
      6.072  0.6262E-01  0.3604E+00
      6.171  0.5969E-01  0.3663E+00
      6.270  0.5589E-01  0.3719E+00
      6.369  0.5339E-01  0.3771E+00
      6.467  0.5380E-01  0.3824E+00
      6.566  0.5881E-01  0.3883E+00
      6.665  0.6428E-01  0.3946E+00
      6.764  0.6416E-01  0.4009E+00
      6.863  0.5928E-01  0.4068E+00
      6.961  0.5341E-01  0.4121E+00
      7.060  0.4958E-01  0.4170E+00
      7.159  0.5035E-01  0.4220E+00
      7.258  0.5620E-01  0.4275E+00
      7.357  0.6638E-01  0.4341E+00
      7.455  0.7730E-01  0.4417E+00
      7.554  0.8166E-01  0.4498E+00
      7.653  0.7590E-01  0.4573E+00
      7.752  0.6387E-01  0.4636E+00
      7.851  0.5271E-01  0.4688E+00
      7.949  0.4853E-01  0.4736E+00
      8.048  0.5153E-01  0.4787E+00
      8.147  0.5719E-01  0.4843E+00
      8.246  0.6176E-01  0.4904E+00
      8.344  0.6204E-01  0.4965E+00
      8.443  0.5658E-01  0.5021E+00
      8.542  0.4934E-01  0.5070E+00
      8.641  0.4557E-01  0.5115E+00
      8.740  0.4642E-01  0.5161E+00
      8.838  0.4908E-01  0.5209E+00
      8.937  0.4958E-01  0.5258E+00
      9.036  0.4754E-01  0.5305E+00
      9.135  0.4625E-01  0.5351E+00
      9.234  0.4645E-01  0.5397E+00
      9.332  0.4562E-01  0.5442E+00
      9.431  0.4453E-01  0.5486E+00
      9.530  0.4675E-01  0.5532E+00
      9.629  0.5104E-01  0.5583E+00
      9.728  0.5233E-01  0.5634E+00
      9.826  0.4866E-01  0.5682E+00
      9.925  0.4307E-01  0.5725E+00
     10.024  0.4034E-01  0.5765E+00
     10.123  0.4160E-01  0.5806E+00
     10.222  0.4340E-01  0.5849E+00
     10.320  0.4334E-01  0.5892E+00
     10.419  0.4286E-01  0.5934E+00
     10.518  0.4351E-01  0.5977E+00
     10.617  0.4438E-01  0.6021E+00
     10.716  0.4469E-01  0.6065E+00
     10.814  0.4618E-01  0.6111E+00
     10.913  0.5028E-01  0.6160E+00
     11.012  0.5579E-01  0.6215E+00
     11.111  0.6131E-01  0.6276E+00
     11.209  0.6691E-01  0.6342E+00
     11.308  0.7364E-01  0.6415E+00
     11.407  0.8028E-01  0.6494E+00
     11.506  0.8065E-01  0.6574E+00
     11.605  0.7234E-01  0.6645E+00
     11.703  0.6236E-01  0.6707E+00
     11.802  0.5587E-01  0.6762E+00
     11.901  0.5251E-01  0.6814E+00
     12.000  0.5359E-01  0.6867E+00
     12.099  0.5801E-01  0.6924E+00
     12.197  0.5968E-01  0.6983E+00
     12.296  0.5761E-01  0.7040E+00
     12.395  0.5580E-01  0.7095E+00
     12.494  0.5464E-01  0.7149E+00
     12.593  0.5427E-01  0.7203E+00
     12.691  0.5793E-01  0.7260E+00
     12.790  0.6668E-01  0.7326E+00
     12.889  0.7753E-01  0.7402E+00
     12.988  0.8521E-01  0.7487E+00
     13.087  0.8404E-01  0.7570E+00
     13.185  0.7434E-01  0.7643E+00
     13.284  0.6415E-01  0.7707E+00
     13.383  0.6042E-01  0.7766E+00
     13.482  0.6353E-01  0.7829E+00
     13.580  0.6856E-01  0.7897E+00
     13.679  0.6964E-01  0.7965E+00
     13.778  0.6756E-01  0.8032E+00
     13.877  0.6945E-01  0.8101E+00
     13.976  0.7746E-01  0.8177E+00
     14.074  0.8471E-01  0.8261E+00
     14.173  0.8389E-01  0.8344E+00
     14.272  0.7633E-01  0.8419E+00
     14.371  0.7025E-01  0.8489E+00
     14.470  0.6965E-01  0.8558E+00
     14.568  0.7084E-01  0.8628E+00
     14.667  0.6926E-01  0.8696E+00
     14.766  0.6418E-01  0.8759E+00
     14.865  0.5791E-01  0.8817E+00
     14.964  0.5272E-01  0.8869E+00
     15.062  0.5040E-01  0.8918E+00
     15.161  0.5293E-01  0.8971E+00
     15.260  0.5908E-01  0.9029E+00
     15.359  0.6378E-01  0.9092E+00
     15.458  0.6397E-01  0.9155E+00
     15.556  0.5998E-01  0.9215E+00
     15.655  0.5447E-01  0.9268E+00
     15.754  0.5236E-01  0.9320E+00
     15.853  0.5456E-01  0.9374E+00
     15.952  0.5678E-01  0.9430E+00
     16.050  0.5571E-01  0.9485E+00
     16.149  0.5169E-01  0.9536E+00
     16.248  0.4921E-01  0.9585E+00
     16.347  0.5219E-01  0.9636E+00
     16.445  0.5670E-01  0.9692E+00
     16.544  0.5597E-01  0.9748E+00
     16.643  0.4903E-01  0.9796E+00
     16.742  0.3938E-01  0.9835E+00
     16.841  0.3080E-01  0.9865E+00
     16.939  0.2766E-01  0.9893E+00
     17.038  0.3273E-01  0.9925E+00
     17.137  0.4196E-01  0.9967E+00
     17.236  0.4656E-01  0.1001E+01
     17.335  0.4306E-01  0.1006E+01
     17.433  0.3648E-01  0.1009E+01
     17.532  0.3158E-01  0.1012E+01
     17.631  0.2788E-01  0.1015E+01
     17.730  0.2413E-01  0.1017E+01
     17.829  0.2162E-01  0.1020E+01
     17.927  0.2222E-01  0.1022E+01
     18.026  0.2606E-01  0.1024E+01
     18.125  0.3151E-01  0.1027E+01
     18.224  0.3543E-01  0.1031E+01
     18.323  0.3493E-01  0.1034E+01
     18.421  0.3035E-01  0.1037E+01
     18.520  0.2493E-01  0.1040E+01
     18.619  0.2114E-01  0.1042E+01
     18.718  0.1932E-01  0.1044E+01
     18.816  0.1944E-01  0.1046E+01
     18.915  0.2169E-01  0.1048E+01
     19.014  0.2404E-01  0.1050E+01
     19.113  0.2335E-01  0.1053E+01
     19.212  0.1933E-01  0.1054E+01
     19.310  0.1392E-01  0.1056E+01
     19.409  0.9344E-02  0.1057E+01
     19.508  0.7350E-02  0.1057E+01
     19.607  0.8077E-02  0.1058E+01
     19.706  0.1017E-01  0.1059E+01
     19.804  0.1143E-01  0.1060E+01
     19.903  0.1049E-01  0.1061E+01
     20.002  0.8384E-02  0.1062E+01
     20.101  0.6931E-02  0.1063E+01
     20.200  0.6598E-02  0.1064E+01
     20.298  0.6730E-02  0.1064E+01
     20.397  0.6593E-02  0.1065E+01
     20.496  0.5559E-02  0.1065E+01
     20.595  0.3614E-02  0.1066E+01
     20.694  0.1767E-02  0.1066E+01
     20.792  0.9459E-03  0.1066E+01
     20.891  0.1075E-02  0.1066E+01
     20.990  0.1453E-02  0.1066E+01
     21.089  0.1471E-02  0.1066E+01
     21.187  0.1041E-02  0.1067E+01
     21.286  0.5023E-03  0.1067E+01
     21.385  0.1610E-03  0.1067E+01
     21.484  0.3347E-04  0.1067E+01
     21.583  0.4440E-05  0.1067E+01
     21.681  0.3715E-06  0.1067E+01
     21.780  0.1947E-07  0.1067E+01
     21.879  0.6364E-09  0.1067E+01
     21.978  0.1293E-10  0.1067E+01
     22.077  0.1630E-12  0.1067E+01
     22.175  0.1273E-14  0.1067E+01
     22.274  0.6243E-17  0.1067E+01
     22.373  0.0000E+00  0.1067E+01
     22.472  0.0000E+00  0.1067E+01
     22.571  0.0000E+00  0.1067E+01
     22.669  0.0000E+00  0.1067E+01
     22.768  0.0000E+00  0.1067E+01
     22.867  0.0000E+00  0.1067E+01
     22.966  0.0000E+00  0.1067E+01
     23.065  0.0000E+00  0.1067E+01
