    2    2   15    1
  0.1529437E+02  0.3691622E-09  0.3691622E-09  0.3691622E-09  0.5000000E-15
  1.000000000000000E-004
  CAR 
 unknown system                          
      8     40      8
 
  0.0000000E+00  0.0000000E+00  0.0000000E+00  0.2915452E-02
    1       -4.637167   1.000000
    2        6.493199   1.000000
    3        6.493223   1.000000
    4        6.819827   1.000000
    5       10.741620   0.000000
    6       16.807442   0.000000
    7       17.720581   0.000000
    8       17.720610   0.000000
 
  0.1428571E+00 -0.1404355E-16  0.1404355E-16  0.2332362E-01
    1       -4.092291   1.000000
    2        5.488348   1.000000
    3        6.362401   1.000000
    4        8.750947   0.897589
    5       11.879572   0.000000
    6       13.985898   0.000000
    7       14.501722   0.000000
    8       16.446418   0.000000
 
  0.2857143E+00 -0.2600542E-16  0.2600542E-16  0.2332362E-01
    1       -2.468886   1.000000
    2        5.312878   1.000000
    3        6.496392   1.000000
    4        8.508403   0.998573
    5       10.974062   0.000000
    6       12.243084   0.000000
    7       13.070816   0.000000
    8       14.526875   0.000000
 
  0.4285714E+00 -0.1733103E-16  0.1733103E-16  0.2332362E-01
    1        0.179440   1.000000
    2        3.893659   1.000000
    3        6.356682   1.000000
    4        7.157583   1.000000
    5        8.261827   0.999999
    6       10.752138   0.000000
    7       13.538558   0.000000
    8       14.512501   0.000000
 
  0.1428571E+00  0.1428571E+00  0.2808709E-16  0.2332362E-01
    1       -2.716625   1.000000
    2        5.557047   1.000000
    3        7.873129   1.000000
    4        9.194581   0.030809
    5       10.315441   0.000000
    6       10.774357   0.000000
    7       13.458743   0.000000
    8       14.044753   0.000000
 
  0.2857143E+00  0.1428571E+00  0.4508661E-16  0.4664723E-01
    1       -0.298105   1.000000
    2        5.012589   1.000000
    3        6.238322   1.000000
    4        6.710852   1.000000
    5        9.248430   0.012231
    6       11.467403   0.000000
    7       12.167720   0.000000
    8       13.889185   0.000000
 
  0.4285714E+00  0.1428571E+00  0.7177282E-16  0.4664723E-01
    1        1.113632   1.000000
    2        3.167642   1.000000
    3        4.608504   1.000000
    4        7.350739   1.000000
    5        8.707985   0.941992
    6       11.497686   0.000000
    7       12.558173   0.000000
    8       16.124751   0.000000
 
 -0.4285714E+00  0.1428571E+00 -0.1801182E-16  0.4664723E-01
    1       -1.728615   1.000000
    2        3.275047   1.000000
    3        6.689055   1.000000
    4        7.749174   1.000000
    5       10.513902   0.000000
    6       12.529595   0.000000
    7       13.506053   0.000000
    8       14.912542   0.000000
 
 -0.2857143E+00  0.1428571E+00 -0.1576439E-16  0.4664723E-01
    1       -3.592530   1.000000
    2        3.160875   1.000000
    3        6.560603   1.000000
    4       10.072940   0.000000
    5       12.458553   0.000000
    6       13.511160   0.000000
    7       14.292594   0.000000
    8       15.457045   0.000000
 
 -0.1428571E+00  0.1428571E+00 -0.3929902E-17  0.1166181E-01
    1       -4.386394   1.000000
    2        4.032352   1.000000
    3        6.724463   1.000000
    4        8.407897   0.999889
    5       12.276266   0.000000
    6       14.598356   0.000000
    7       16.424704   0.000000
    8       18.079023   0.000000
 
  0.2857143E+00  0.2857143E+00  0.5201085E-16  0.2332362E-01
    1        2.199999   1.000000
    2        2.613618   1.000000
    3        3.431100   1.000000
    4        7.469385   1.000000
    5        9.289819   0.005504
    6       10.412781   0.000000
    7       14.590636   0.000000
    8       15.319440   0.000000
 
  0.4285714E+00  0.2857143E+00  0.7869706E-16  0.4664723E-01
    1       -0.503956   1.000000
    2        1.183687   1.000000
    3        7.039259   1.000000
    4        7.964326   1.000000
    5        9.389249   0.000586
    6       11.435001   0.000000
    7       14.726176   0.000000
    8       16.203265   0.000000
 
 -0.4285714E+00  0.2857143E+00 -0.2288370E-16  0.4664723E-01
    1       -2.597934   1.000000
    2        0.818560   1.000000
    3        7.464801   1.000000
    4       10.502583   0.000000
    5       11.130387   0.000000
    6       12.824576   0.000000
    7       14.398998   0.000000
    8       14.928887   0.000000
 
 -0.2857143E+00  0.2857143E+00 -0.7859804E-17  0.1166181E-01
    1       -3.636514   1.000000
    2        1.491969   1.000000
    3        7.417298   1.000000
    4        9.462354   0.000084
    5       12.199260   0.000000
    6       14.318479   0.000000
    7       15.617846   0.000000
    8       17.642431   0.000000
 
  0.4285714E+00  0.4285714E+00  0.1053833E-15  0.2332362E-01
    1       -1.122334   1.000000
    2       -1.118425   1.000000
    3        8.810421   0.801609
    4        8.825299   0.771010
    5       11.680853   0.000000
    6       12.758945   0.000000
    7       13.799184   0.000000
    8       14.220972   0.000000
 
 -0.4285714E+00  0.4285714E+00  0.4248060E-17  0.1166181E-01
    1       -2.394386   1.000000
    2       -0.675639   1.000000
    3        8.569720   0.994604
    4       10.178318   0.000000
    5       10.721315   0.000000
    6       12.355430   0.000000
    7       17.405576   0.000000
    8       17.495049   0.000000
 
  0.1428571E+00  0.1428571E+00  0.1428571E+00  0.2332362E-01
    1       -1.973935   1.000000
    2        3.088699   1.000000
    3        8.102862   1.000000
    4        8.826236   0.768999
    5       10.115843   0.000000
    6       11.264074   0.000000
    7       14.413099   0.000000
    8       14.849561   0.000000
 
  0.2857143E+00  0.1428571E+00  0.1428571E+00  0.4664723E-01
    1        0.663917   1.000000
    2        3.793233   1.000000
    3        4.665071   1.000000
    4        6.058346   1.000000
    5       10.566697   0.000000
    6       13.176787   0.000000
    7       13.991124   0.000000
    8       14.119469   0.000000
 
 -0.1428571E+00  0.1428571E+00  0.1428571E+00  0.1166181E-01
    1       -4.136223   1.000000
    2        3.784037   1.000000
    3        5.050168   1.000000
    4       10.338321   0.000000
    5       12.601285   0.000000
    6       13.151881   0.000000
    7       17.368236   0.000000
    8       17.748366   0.000000
 
  0.2857143E+00  0.2857143E+00  0.1428571E+00  0.2332362E-01
    1        2.037032   1.000000
    2        2.113816   1.000000
    3        4.318085   1.000000
    4        5.840138   1.000000
    5       11.712083   0.000000
    6       12.556169   0.000000
    7       14.548127   0.000000
    8       15.458134   0.000000
 
  0.4285714E+00  0.2857143E+00  0.1428571E+00  0.2332362E-01
    1       -0.744580   1.000000
    2        0.955146   1.000000
    3        8.197874   1.000000
    4        8.379274   0.999951
    5       10.802556   0.000000
    6       12.007117   0.000000
    7       12.728610   0.000000
    8       13.847167   0.000000
 
 -0.2857143E+00  0.2857143E+00  0.1428571E+00  0.2332362E-01
    1       -3.388266   1.000000
    2        1.686352   1.000000
    3        5.312158   1.000000
    4       10.167284   0.000000
    5       11.826467   0.000000
    6       15.997058   0.000000
    7       16.098373   0.000000
    8       17.322178   0.000000
 
 -0.1428571E+00  0.2857143E+00  0.1428571E+00  0.2332362E-01
    1       -3.095807   1.000000
    2        3.084093   1.000000
    3        4.499312   1.000000
    4       10.301006   0.000000
    5       11.573808   0.000000
    6       13.608752   0.000000
    7       15.478449   0.000000
    8       16.185429   0.000000
 
 -0.4285714E+00  0.4285714E+00  0.1428571E+00  0.2332362E-01
    1       -2.150950   1.000000
    2       -0.442750   1.000000
    3        6.454405   1.000000
    4        8.087974   1.000000
    5       13.086871   0.000000
    6       14.551952   0.000000
    7       16.858673   0.000000
    8       17.049498   0.000000
 
 -0.2857143E+00  0.4285714E+00  0.1428571E+00  0.4664723E-01
    1       -2.108286   1.000000
    2        1.240247   1.000000
    3        4.927304   1.000000
    4        8.127151   1.000000
    5       11.171206   0.000000
    6       14.906570   0.000000
    7       16.065842   0.000000
    8       17.809790   0.000000
 
 -0.1428571E+00  0.4285714E+00  0.1428571E+00  0.2332362E-01
    1       -0.996560   1.000000
    2        3.397636   1.000000
    3        4.881890   1.000000
    4        6.794900   1.000000
    5        9.138874   0.070088
    6       13.078160   0.000000
    7       14.458760   0.000000
    8       16.399105   0.000000
 
 -0.4285714E+00 -0.4285714E+00  0.1428571E+00  0.2332362E-01
    1       -0.652574   1.000000
    2       -0.640788   1.000000
    3        6.278434   1.000000
    4        6.295841   1.000000
    5       10.982292   0.000000
    6       15.721527   0.000000
    7       16.267876   0.000000
    8       16.678926   0.000000
 
 -0.2857143E+00 -0.4285714E+00  0.1428571E+00  0.4664723E-01
    1        0.207515   1.000000
    2        1.834578   1.000000
    3        5.433803   1.000000
    4        6.318588   1.000000
    5        7.262679   1.000000
    6       13.121041   0.000000
    7       16.340764   0.000000
    8       17.779728   0.000000
 
 -0.1428571E+00 -0.4285714E+00  0.1428571E+00  0.2332362E-01
    1        1.841866   1.000000
    2        2.715506   1.000000
    3        5.004132   1.000000
    4        6.166523   1.000000
    5        8.494689   0.998965
    6       11.056130   0.000000
    7       12.126593   0.000000
    8       16.586610   0.000000
 
 -0.2857143E+00 -0.2857143E+00  0.1428571E+00  0.2332362E-01
    1        1.997713   1.000000
    2        3.529541   1.000000
    3        3.806758   1.000000
    4        6.952140   1.000000
    5        7.125366   1.000000
    6       11.061347   0.000000
    7       13.843312   0.000000
    8       14.759475   0.000000
 
 -0.1428571E+00 -0.2857143E+00  0.1428571E+00  0.2332362E-01
    1       -0.783369   1.000000
    2        6.162581   1.000000
    3        7.282271   1.000000
    4        7.800991   1.000000
    5        8.211418   1.000000
    6       10.574168   0.000000
    7       11.186826   0.000000
    8       12.693917   0.000000
 
 -0.1428571E+00 -0.1428571E+00  0.1428571E+00  0.5830904E-02
    1       -2.965073   1.000000
    2        7.742213   1.000000
    3        7.742237   1.000000
    4        8.313286   0.999994
    5       10.690249   0.000000
    6       10.896474   0.000000
    7       12.439361   0.000000
    8       13.271385   0.000000
 
 -0.2857143E+00  0.2857143E+00  0.2857143E+00  0.1166181E-01
    1       -2.647324   1.000000
    2        1.824107   1.000000
    3        3.340186   1.000000
    4        7.683283   1.000000
    5       14.274994   0.000000
    6       15.947817   0.000000
    7       17.022577   0.000000
    8       17.704148   0.000000
 
 -0.4285714E+00  0.4285714E+00  0.2857143E+00  0.2332362E-01
    1       -1.428810   1.000000
    2        0.220534   1.000000
    3        3.974464   1.000000
    4        5.581440   1.000000
    5       15.095197   0.000000
    6       15.446207   0.000000
    7       17.610035   0.000000
    8       18.777259   0.000000
 
 -0.2857143E+00  0.4285714E+00  0.2857143E+00  0.2332362E-01
    1       -1.140115   1.000000
    2        1.610688   1.000000
    3        3.163531   1.000000
    4        5.844451   1.000000
    5       10.568657   0.000000
    6       17.667346   0.000000
    7       17.815978   0.000000
    8       18.920285   0.000000
 
 -0.4285714E+00 -0.4285714E+00  0.2857143E+00  0.2332362E-01
    1        0.250009   1.000000
    2        0.270758   1.000000
    3        4.011211   1.000000
    4        4.025537   1.000000
    5       10.353833   0.000000
    6       17.934184   0.000000
    7       19.232528   0.000000
    8       19.846218   0.000000
 
 -0.2857143E+00 -0.4285714E+00  0.2857143E+00  0.2332362E-01
    1        1.342830   1.000000
    2        2.423822   1.000000
    3        3.998427   1.000000
    4        4.998931   1.000000
    5        6.054878   1.000000
    6       15.116667   0.000000
    7       16.401279   0.000000
    8       17.996645   0.000000
 
 -0.2857143E+00 -0.2857143E+00  0.2857143E+00  0.5830904E-02
    1        1.829094   1.000000
    2        4.405195   1.000000
    3        4.651793   1.000000
    4        5.772101   1.000000
    5        5.772110   1.000000
    6       13.060692   0.000000
    7       13.584882   0.000000
    8       13.584899   0.000000
 
 -0.4285714E+00  0.4285714E+00  0.4285714E+00  0.1166181E-01
    1       -0.273425   1.000000
    2        0.830687   1.000000
    3        2.423451   1.000000
    4        3.510722   1.000000
    5       15.084553   0.000000
    6       15.146989   0.000000
    7       20.205214   0.000000
    8       21.164882   0.000000
 
 -0.4285714E+00 -0.4285714E+00  0.4285714E+00  0.5830904E-02
    1        1.095555   1.000000
    2        1.132188   1.000000
    3        2.703634   1.000000
    4        2.703639   1.000000
    5       10.136178   0.000000
    6       18.989534   0.000000
    7       20.541730   0.000000
    8       20.541741   0.000000
