unknown system                          
   1.00000000000000     
    -2.183435    2.183435    1.413849
     2.183435   -2.183435    1.413849
     2.183435    2.183435   -1.413849
   Si
     2
Direct
  0.250000  0.750000  0.500000
  0.000000  0.000000  0.000000
 
   28   28   28
 -5.4773     -3.9474     0.33009E-01  4.9468      9.1117      11.418      11.687      10.528      8.8769      7.3163    
  6.0179      5.0398      4.3757      3.9956      3.8723      3.9956      4.3758      5.0398      6.0180      7.3163    
  8.8769      10.528      11.687      11.418      9.1117      4.9468     0.32993E-01 -3.9474     -3.9474     -4.7647    
 -2.6405      1.5758      6.2903      9.9340      11.628      11.417      10.038      8.3868      6.8925      5.6850    
  4.8007      4.2237      3.9223      3.8723      4.0679      4.5231      5.2665      6.3249      7.6927      9.2919    
  10.903      11.836      11.193      8.5199      4.1986     -.51540     0.32993E-01 -2.6406     -2.7519     -.25825    
  3.8294      7.9602      10.786      11.713      11.003      9.4600      7.8500      6.4467      5.3453      4.5627    
  4.0752      3.8518      3.8723      4.1352      4.6575      5.4676      6.5869      7.9984      9.6072      11.153    
  11.903      11.052      8.3048      4.1986      4.9468      1.5758     -.25825     0.21343      2.7882      6.3933    
  9.6354      11.466      11.590      10.446      8.8345      7.2969      6.0035      5.0173      4.3379      3.9376    
  3.7875      3.8723      4.1940      4.7713      5.6306      6.7874      8.2139      9.8041      11.277      11.921    
  11.052      8.5199      9.1117      6.2903      3.8294      2.7882      3.6373      5.9980      8.8401      11.018    
  11.820      11.227      9.7890      8.1957      6.7569      5.5857      4.7167      4.1370      3.8173      3.7327    
  3.8723      4.2411      4.8577      5.7455      6.9133      8.3254      9.8711      11.277      11.903      11.193    
  11.418      9.9340      7.9602      6.3933      5.9980      6.9861      8.8882      10.808      11.900      11.783    
  10.657      9.1006      7.5775      6.2568      5.2125      4.4565      3.9681      3.7192      3.6896      3.8724    
  4.2739      4.9116      5.8048      6.9562      8.3254      9.8041      11.153      11.836      11.687      11.628    
  10.786      9.6354      8.8402      8.8882      9.7972      11.092      12.073      12.207      11.394      9.9736    
  8.4332      7.0115      5.8193      4.8989      4.2463      3.8372      3.6469      3.6600      3.8724      4.2908    
  4.9300      5.8048      6.9133      8.2139      9.6072      10.903      10.528      11.417      11.713      11.466    
  11.018      10.808      11.092      11.769      12.426      12.588      12.002      10.777      9.2898      7.8256    
  6.5251      5.4622      4.6558      4.0923      3.7480      3.6027      3.6450      3.8725      4.2908      4.9116    
  5.7455      6.7874      7.9984      9.2919      8.8769      10.038      11.003      11.590      11.820      11.900    
  12.073      12.426      12.807      12.910      12.473      11.463      10.106      8.6694      7.3131      6.1409    
  5.1987      4.4903      3.9987      3.7030      3.5878      3.6450      3.8724      4.2739      4.8577      5.6306    
  6.5869      7.6927      7.3163      8.3867      9.4600      10.446      11.227      11.783      12.207      12.588    
  12.910      13.023      12.738      11.970      10.825      9.5006      8.1585      6.9250      5.8755      5.0373    
  4.4066      3.9672      3.7030      3.6027      3.6600      3.8724      4.2411      4.7713      5.4676      6.3249    
  6.0180      6.8925      7.8500      8.8345      9.7890      10.657      11.394      12.002      12.473      12.738    
  12.680      12.213      11.367      10.257      9.0205      7.7953      6.6832      5.7401      4.9830      4.4066    
  3.9987      3.7480      3.6469      3.6896      3.8723      4.1940      4.6575      5.2665      5.0398      5.6850    
  6.4467      7.2969      8.1957      9.1006      9.9736      10.777      11.463      11.970      12.213      12.114    
  11.648      10.855      9.8349      8.7127      7.6067      6.6011      5.7401      5.0373      4.4903      4.0923    
  3.8372      3.7192      3.7327      3.8723      4.1352      4.5231      4.3758      4.8007      5.3454      6.0035    
  6.7569      7.5775      8.4332      9.2898      10.106      10.825      11.367      11.648      11.602      11.210    
  10.516      9.6106      8.6066      7.6067      6.6832      5.8755      5.1987      4.6558      4.2463      3.9681    
  3.8173      3.7875      3.8723      4.0679      3.9956      4.2237      4.5627      5.0173      5.5857      6.2568    
  7.0115      7.8256      8.6694      9.5006      10.257      10.855      11.210      11.256      10.973      10.397    
  9.6106      8.7127      7.7953      6.9250      6.1409      5.4622      4.8989      4.4565      4.1370      3.9376    
  3.8518      3.8723      3.8723      3.9223      4.0752      4.3379      4.7167      5.2125      5.8193      6.5251    
  7.3131      8.1585      9.0205      9.8349      10.516      10.973      11.134      10.973      10.516      9.8349    
  9.0205      8.1585      7.3131      6.5251      5.8193      5.2125      4.7167      4.3379      4.0752      3.9223    
  3.9956      3.8723      3.8517      3.9376      4.1370      4.4565      4.8989      5.4622      6.1409      6.9250    
  7.7953      8.7127      9.6106      10.397      10.973      11.256      11.210      10.855      10.257      9.5006    
  8.6694      7.8256      7.0115      6.2568      5.5857      5.0173      4.5627      4.2237      4.3757      4.0679    
  3.8722      3.7875      3.8172      3.9680      4.2462      4.6558      5.1987      5.8755      6.6832      7.6067    
  8.6066      9.6106      10.516      11.210      11.602      11.648      11.367      10.825      10.106      9.2898    
  8.4332      7.5775      6.7569      6.0035      5.3453      4.8007      5.0398      4.5231      4.1352      3.8722    
  3.7326      3.7191      3.8371      4.0923      4.4903      5.0373      5.7401      6.6011      7.6067      8.7127    
  9.8349      10.855      11.648      12.114      12.213      11.970      11.463      10.777      9.9736      9.1006    
  8.1957      7.2969      6.4467      5.6850      6.0179      5.2665      4.6575      4.1939      3.8722      3.6896    
  3.6468      3.7480      3.9986      4.4066      4.9830      5.7401      6.6832      7.7953      9.0205      10.257    
  11.367      12.213      12.680      12.738      12.473      12.002      11.394      10.657      9.7890      8.8345    
  7.8500      6.8925      7.3163      6.3249      5.4675      4.7712      4.2410      3.8723      3.6600      3.6026    
  3.7029      3.9671      4.4066      5.0373      5.8755      6.9250      8.1585      9.5006      10.825      11.970    
  12.738      13.023      12.910      12.588      12.207      11.783      11.227      10.446      9.4600      8.3868    
  8.8769      7.6926      6.5869      5.6306      4.8576      4.2739      3.8724      3.6449      3.5878      3.7029    
  3.9986      4.4903      5.1987      6.1409      7.3131      8.6694      10.106      11.463      12.473      12.910    
  12.807      12.426      12.073      11.900      11.820      11.590      11.003      10.038      10.528      9.2918    
  7.9984      6.7874      5.7454      4.9115      4.2907      3.8724      3.6449      3.6026      3.7480      4.0923    
  4.6558      5.4622      6.5251      7.8256      9.2898      10.777      12.002      12.588      12.426      11.769    
  11.092      10.808      11.018      11.466      11.713      11.417      11.687      10.903      9.6071      8.2139    
  6.9132      5.8047      4.9299      4.2907      3.8724      3.6600      3.6468      3.8371      4.2462      4.8989    
  5.8193      7.0115      8.4332      9.9736      11.394      12.207      12.073      11.092      9.7972      8.8882    
  8.8401      9.6354      10.786      11.628      11.418      11.836      11.153      9.8041      8.3253      6.9561    
  5.8047      4.9115      4.2739      3.8723      3.6896      3.7191      3.9680      4.4565      5.2125      6.2568    
  7.5775      9.1006      10.657      11.783      11.900      10.808      8.8882      6.9861      5.9980      6.3933    
  7.9602      9.9340      9.1117      11.193      11.903      11.277      9.8710      8.3253      6.9132      5.7454    
  4.8576      4.2410      3.8722      3.7326      3.8172      4.1370      4.7167      5.5857      6.7569      8.1957    
  9.7890      11.227      11.820      11.018      8.8402      5.9980      3.6373      2.7882      3.8294      6.2903    
  4.9468      8.5199      11.052      11.921      11.277      9.8041      8.2139      6.7874      5.6306      4.7712    
  4.1939      3.8722      3.7875      3.9376      4.3379      5.0173      6.0035      7.2969      8.8345      10.446    
  11.590      11.466      9.6354      6.3933      2.7882     0.21343     -.25825      1.5758     0.33009E-01  4.1986    
  8.3048      11.052      11.903      11.153      9.6071      7.9984      6.5869      5.4675      4.6575      4.1352    
  3.8722      3.8517      4.0752      4.5627      5.3454      6.4467      7.8500      9.4600      11.003      11.713    
  10.786      7.9602      3.8294     -.25825     -2.7519     -2.6405     -3.9474     -.51538      4.1986      8.5199    
  11.193      11.836      10.903      9.2918      7.6926      6.3249      5.2665      4.5231      4.0679      3.8723    
  3.9223      4.2237      4.8007      5.6850      6.8925      8.3867      10.038      11.417      11.628      9.9340    
  6.2903      1.5758     -2.6406     -4.7647     -3.9473     -2.8292     0.65648      5.1519      9.0639      11.282    
  11.561      10.435      8.7930      7.2257      5.9107      4.9087      4.2165      3.8044      3.6449      3.7257    
  4.0545      4.6563      5.5623      6.7859      8.2858      9.9255      11.246      11.364      9.6148      6.0411    
  1.5730     -2.2492     -2.8292     -3.9474     -2.2492      1.5730      6.0411      9.6149      11.364      11.246    
  9.9256      8.2858      6.7858      5.5622      4.6562      4.0545      3.7257      3.6449      3.8045      4.2165    
  4.9088      5.9107      7.2258      8.7930      10.435      11.561      11.282      9.0639      5.1519     0.65647    
 0.74360     -2.1566     -2.6405     -.52425      3.3138      7.3835      10.306      11.398      10.826      9.3440    
  7.7434      6.3336      5.2170      4.4155      3.9080      3.6631      3.6600      3.8957      4.3861      5.1602    
  6.2436      7.6289      9.2369      10.849      11.796      11.245      8.8123      4.9110      5.3797      1.8239    
 -.35023     -.25823      2.0359      5.5518      8.8984      10.948      11.296      10.295      8.7258      7.1940    
  5.8924      4.8923      4.1982      3.7837      3.6196      3.6896      3.9952      4.5548      5.3968      6.5416    
  7.9711      9.5917      11.155      11.974      11.317      8.9435      9.4429      6.4703      3.6992      2.2713    
  2.7882      4.9888      7.8867      10.288      11.370      11.002      9.6741      8.1028      6.6641      5.4834    
  4.6030      4.0138      3.6871      3.5973      3.7328      4.0984      4.7138      5.6052      6.7867      8.2307    
  9.8347      11.342      12.107      11.513      11.789      10.200      7.9669      6.0296      5.2605      5.9981    
  7.8562      9.9355      11.306      11.465      10.517      9.0175      7.5040      6.1781      5.1243      4.3610    
  3.8697      3.6222      3.5973      3.7876      4.2004      4.8546      5.7728      6.9629      8.3899      9.9489    
  11.400      12.179      12.158      12.059      11.038      9.5767      8.4098      8.1390      8.8882      10.227    
  11.415      11.815      11.220      9.9014      8.3796      6.9570      5.7564      4.8289      4.1749      3.7710    
  3.5914      3.6196      3.8519      4.2960      4.9692      5.8892      7.0581      8.4370      9.9243      11.317    
  11.084      12.002      12.217      11.759      11.000      10.460      10.499      11.092      11.837      12.195    
  11.812      10.713      9.2564      7.7946      6.4864      5.4156      4.6074      4.0505      3.7204      3.5952    
  3.6631      3.9224      4.3803      5.0506      5.9465      7.0651      8.3671      9.7597      9.4635      10.701    
  11.677      12.170      12.194      11.998      11.904      12.082      12.426      12.614      12.316      11.416    
  10.093      8.6583      7.2944      6.1132      5.1680      4.4663      3.9907      3.7186      3.6331      3.7257    
  3.9957      4.4484      5.0938      5.9405      6.9828      8.1838      7.8990      9.0538      10.188      11.178    
  11.869      12.248      12.447      12.625      12.822      12.910      12.671      11.960      10.832      9.5027    
  8.1508      6.9073      5.8539      5.0222      4.4090      3.9962      3.7650      3.7030      3.8044      4.0679    
  4.4963      5.0957      5.8712      6.8163      6.5768      7.5317      8.5569      9.5819      10.533      11.327    
  11.922      12.358      12.674      12.839      12.738      12.259      11.393      10.263      9.0104      7.7729    
  6.6565      5.7206      4.9832      4.4369      4.0662      3.8575      3.8022      3.8956      4.1352      4.5210    
  5.0561      5.7433      5.5650      6.2808      7.1063      8.0044      8.9231      9.8088      10.618      11.311    
  11.863      12.243      12.387      12.213      11.688      10.855      9.8062      8.6667      7.5555      6.5585    
  5.7205      5.0528      4.5491      4.1986      3.9930      3.9267      3.9951      4.1939      4.5210      4.9773    
  4.8644      5.3484      5.9475      6.6501      7.4303      8.2509      9.0726      9.8593      10.576      11.178    
  11.603      11.779      11.648      11.192      10.453      9.5216      8.5092      7.5189      6.6222      5.8558    
  5.2300      4.7429      4.3899      4.1674      4.0718      4.0982      4.2409      4.4962      4.4483      4.7247    
  5.1071      5.5977      6.1902      6.8674      7.6037      8.3706      9.1382      9.8697      10.513      10.999    
  11.250      11.210      10.864      10.250      9.4480      8.5586      7.6711      6.8481      6.1235      5.5106    
  5.0137      4.6347      4.3747      4.2317      4.2002      4.2738      4.2906      4.3802      4.5666      4.8556    
  5.2512      5.7511      6.3448      7.0157      7.7442      8.5062      9.2658      9.9675      10.536      10.892    
  10.973      10.758      10.277      9.6003      8.8167      8.0066      7.2279      6.5151      5.8864      5.3535    
  4.9254      4.6074      4.3993      4.2959      4.3802      4.2906      4.2959      4.3993      4.6074      4.9254    
  5.3536      5.8864      6.5151      7.2279      8.0065      8.8167      9.6003      10.277      10.758      10.973    
  10.892      10.536      9.9675      9.2658      8.5062      7.7442      7.0157      6.3448      5.7511      5.2511    
  4.8555      4.5666      4.7247      4.4483      4.2738      4.2002      4.2317      4.3748      4.6348      5.0137    
  5.5106      6.1235      6.8481      7.6711      8.5586      9.4480      10.250      10.864      11.210      11.250    
  10.999      10.513      9.8697      9.1382      8.3706      7.6037      6.8674      6.1902      5.5977      5.1071    
  5.3484      4.8644      4.4963      4.2410      4.0983      4.0718      4.1674      4.3899      4.7429      5.2300    
  5.8558      6.6222      7.5189      8.5092      9.5216      10.453      11.192      11.648      11.779      11.603    
  11.178      10.576      9.8593      9.0726      8.2510      7.4303      6.6502      5.9475      6.2808      5.5651    
  4.9773      4.5210      4.1939      3.9951      3.9267      3.9930      4.1986      4.5490      5.0528      5.7205    
  6.5585      7.5555      8.6667      9.8063      10.855      11.688      12.213      12.387      12.243      11.863    
  11.311      10.618      9.8088      8.9231      8.0045      7.1064      7.5317      6.5769      5.7433      5.0561    
  4.5210      4.1352      3.8956      3.8022      3.8574      4.0662      4.4369      4.9832      5.7206      6.6565    
  7.7729      9.0104      10.263      11.393      12.259      12.738      12.839      12.674      12.357      11.922    
  11.327      10.533      9.5819      8.5569      9.0539      7.8990      6.8163      5.8713      5.0957      4.4963    
  4.0679      3.8044      3.7030      3.7649      3.9961      4.4090      5.0222      5.8539      6.9073      8.1508    
  9.5028      10.832      11.960      12.671      12.910      12.822      12.625      12.447      12.248      11.869    
  11.178      10.188      10.701      9.4635      8.1839      6.9828      5.9405      5.0938      4.4484      3.9957    
  3.7257      3.6330      3.7185      3.9906      4.4662      5.1680      6.1132      7.2944      8.6583      10.093    
  11.416      12.316      12.614      12.426      12.082      11.904      11.998      12.194      12.170      11.677    
  12.002      11.084      9.7597      8.3671      7.0651      5.9465      5.0506      4.3803      3.9224      3.6631    
  3.5952      3.7203      4.0505      4.6074      5.4156      6.4864      7.7946      9.2565      10.713      11.812    
  12.195      11.837      11.092      10.498      10.459      11.000      11.759      12.217      12.059      12.158    
  11.317      9.9243      8.4370      7.0581      5.8892      4.9691      4.2960      3.8518      3.6195      3.5913    
  3.7709      4.1749      4.8289      5.7564      6.9570      8.3796      9.9014      11.220      11.815      11.414    
  10.227      8.8881      8.1389      8.4097      9.5766      11.038      10.200      11.789      12.179      11.400    
  9.9489      8.3899      6.9629      5.7728      4.8545      4.2003      3.7875      3.5972      3.6221      3.8696    
  4.3609      5.1243      6.1781      7.5040      9.0175      10.517      11.465      11.306      9.9354      7.8562    
  5.9980      5.2605      6.0295      7.9668      6.4703      9.4429      11.513      12.107      11.342      9.8347    
  8.2306      6.7866      5.6051      4.7137      4.0983      3.7327      3.5972      3.6870      4.0137      4.6030    
  5.4834      6.6641      8.1028      9.6741      11.002      11.369      10.288      7.8867      4.9888      2.7883    
  2.2713      3.6992      1.8239      5.3797      8.9435      11.317      11.974      11.155      9.5916      7.9710    
  6.5415      5.3967      4.5547      3.9951      3.6896      3.6195      3.7836      4.1981      4.8923      5.8924    
  7.1940      8.7258      10.295      11.296      10.948      8.8984      5.5518      2.0360     -.25817     -.35018    
 -2.1566     0.74362      4.9110      8.8123      11.245      11.796      10.849      9.2369      7.6288      6.2435    
  5.1601      4.3860      3.8956      3.6600      3.6631      3.9079      4.4155      5.2171      6.3336      7.7435    
  9.3440      10.826      11.398      10.306      7.3834      3.3138     -.52422     -2.6405     0.33162E-01 0.74371    
  3.4226      6.9761      10.058      11.702      11.682      10.463      8.8267      7.2751      5.9662      4.9571    
  4.2449      3.8023      3.6027      3.6331      3.8978      4.4173      5.2208      6.3273      7.7141      9.2820    
  10.747      11.390      10.543      8.0898      4.6856      1.5731     0.65657     -.51525     0.65655      3.6747    
  7.3086      10.215      11.551      11.252      9.9004      8.2831      6.8027      5.5871      4.6760      4.0578    
  3.7031      3.5878      3.7031      4.0578      4.6761      5.5871      6.8027      8.2831      9.9004      11.252    
  11.551      10.215      7.3086      3.6747      3.4226     0.74368     0.33115E-01  1.5730      4.6856      8.0898    
  10.543      11.390      10.747      9.2820      7.7141      6.3272      5.2208      4.4173      3.8978      3.6331    
  3.6027      3.8023      4.2449      4.9571      5.9662      7.2751      8.8267      10.463      11.682      11.702    
  10.058      6.9761      7.1915      3.9934      1.8239      1.5759      3.3139      6.2413      9.1229      10.902    
  11.156      10.167      8.6418      7.1482      5.8719      4.8843      4.1921      3.7716      3.5953      3.6469    
  3.9268      4.4512      5.2474      6.3390      7.7190      9.3149      10.941      12.044      11.897      10.162    
  10.543      7.9302      5.2856      3.6993      3.8295      5.5519      8.0297      10.164      11.147      10.796    
  9.5273      8.0096      6.6112      5.4570      4.5919      4.0098      3.6844      3.5914      3.7192      4.0719    
  4.6676      5.5325      6.6849      8.1081      9.7176      11.312      12.336      12.153      12.444      11.132    
  9.0482      7.0557      6.0296      6.3934      7.8868      9.7145      10.985      11.167      10.298      8.8704    
  7.4115      6.1254      5.0992      4.3550      3.8773      3.6398      3.6222      3.8173      4.2318      4.8839    
  5.7970      6.9832      8.4171      10.007      11.551      12.541      12.629      12.702      11.796      10.318    
  8.9749      8.4098      8.8403      9.9356      11.013      11.430      10.922      9.6967      8.2419      6.8713    
  5.7095      4.8116      4.1819      3.7995      3.6398      3.6870      3.9376      4.3994      5.0890      6.0255    
  7.2145      8.6238      10.159      11.638      11.553      12.560      12.841      12.371      11.482      10.705    
  10.460      10.808      11.415      11.758      11.449      10.451      9.0712      7.6701      6.4102      5.3782    
  4.6035      4.0780      3.7786      3.6843      3.7835      4.0752      4.5667      5.2715      6.2036      7.3623    
  8.7116      10.161      10.007      11.292      12.301      12.779      12.705      12.319      11.973      11.904    
  12.073      12.195      11.928      11.109      9.8625      8.4902      7.1811      6.0463      5.1426      4.4808    
  4.0456      3.8147      3.7714      3.9078      4.2238      4.7247      5.4203      6.3189      7.4151      8.6721    
  8.5065      9.7070      10.866      11.845      12.467      12.702      12.690      12.632      12.625      12.588    
  12.316      11.638      10.564      9.2877      7.9911      6.7991      5.7941      5.0103      4.4464      4.0847    
  3.9060      3.8976      4.0544      4.3758      4.8645      5.5257      6.3630      7.3681      7.2242      8.2264    
  9.2807      10.306      11.216      11.910      12.343      12.573      12.679      12.674      12.473      11.960    
  11.102      10.001      8.7940      7.6082      6.5452      5.6646      4.9856      4.5008      4.1935      4.0487    
  4.0576      4.2164      4.5231      4.9773      5.5803      6.3323      6.2288      6.9938      7.8519      8.7586    
  9.6532      10.473      11.168      11.698      12.058      12.251      12.243      11.970      11.393      10.550    
  9.5248      8.4283      7.3712      6.4357      5.6652      5.0702      4.6422      4.3681      4.2376      4.2448    
  4.3859      4.6574      5.0561      5.5803      5.5257      6.0600      6.6936      7.4098      8.1766      8.9505    
  9.6861      10.346      10.902      11.325      11.575      11.603      11.367      10.855      10.104      9.1949    
  8.2294      7.3026      6.4814      5.7991      5.2630      4.8672      4.6034      4.4660      4.4511      4.5546    
  4.7712      5.0957      5.0938      5.4204      5.8379      6.3445      6.9299      7.5725      8.2423      8.9076    
  9.5394      10.108      10.575      10.891      10.998      10.855      10.453      9.8286      9.0555      8.2240    
  7.4155      6.6866      6.0654      5.5603      5.1700      4.8923      4.7255      4.6675      4.7136      4.8575    
  4.9115      5.0506      5.2716      5.5773      5.9691      6.4417      6.9816      7.5694      8.1839      8.8026    
  9.3964      9.9224      10.323      10.536      10.516      10.249      9.7668      9.1319      8.4233      7.7120    
  7.0480      6.4583      5.9547      5.5423      5.2252      5.0059      4.8839      4.8545      4.9691      4.9299    
  4.9691      5.0891      5.2947      5.5896      5.9719      6.4343      6.9659      7.5539      8.1819      8.8217    
  9.4274      9.9353      10.277      10.397      10.277      9.9353      9.4274      8.8217      8.1819      7.5540    
  6.9659      6.4343      5.9719      5.5895      5.2947      5.0890      5.2716      5.0506      4.9115      4.8545    
  4.8839      5.0060      5.2253      5.5424      5.9547      6.4583      7.0479      7.7120      8.4233      9.1319    
  9.7668      10.249      10.516      10.536      10.323      9.9224      9.3964      8.8027      8.1839      7.5694    
  6.9816      6.4417      5.9691      5.5773      5.8379      5.4204      5.0938      4.8576      4.7137      4.6676    
  4.7256      4.8924      5.1701      5.5603      6.0655      6.6866      7.4155      8.2240      9.0555      9.8286    
  10.453      10.855      10.998      10.891      10.575      10.108      9.5394      8.9077      8.2423      7.5725    
  6.9299      6.3445      6.6936      6.0601      5.5258      5.0958      4.7712      4.5547      4.4512      4.4661    
  4.6035      4.8672      5.2630      5.7991      6.4814      7.3026      8.2294      9.1949      10.104      10.855    
  11.367      11.603      11.575      11.325      10.902      10.346      9.6861      8.9505      8.1767      7.4098    
  7.8519      6.9939      6.2289      5.5804      5.0561      4.6575      4.3860      4.2448      4.2376      4.3682    
  4.6423      5.0702      5.6652      6.4356      7.3712      8.4283      9.5248      10.550      11.393      11.970    
  12.243      12.251      12.058      11.698      11.168      10.473      9.6532      8.7586      9.2808      8.2264    
  7.2243      6.3324      5.5804      4.9774      4.5231      4.2164      4.0577      4.0487      4.1935      4.5008    
  4.9856      5.6646      6.5452      7.6082      8.7940      10.001      11.102      11.960      12.473      12.674    
  12.679      12.572      12.343      11.910      11.216      10.306      10.866      9.7070      8.5066      7.3682    
  6.3630      5.5257      4.8645      4.3758      4.0545      3.8977      3.9060      4.0847      4.4464      5.0102    
  5.7941      6.7991      7.9911      9.2877      10.564      11.638      12.316      12.588      12.625      12.632    
  12.690      12.701      12.467      11.845      12.301      11.292      10.007      8.6721      7.4151      6.3189    
  5.4204      4.7248      4.2238      3.9079      3.7715      3.8148      4.0456      4.4808      5.1426      6.0463    
  7.1811      8.4903      9.8625      11.109      11.928      12.195      12.073      11.904      11.973      12.319    
  12.705      12.779      12.841      12.560      11.553      10.161      8.7116      7.3623      6.2036      5.2716    
  4.5667      4.0752      3.7836      3.6843      3.7786      4.0780      4.6035      5.3782      6.4103      7.6702    
  9.0712      10.451      11.449      11.758      11.414      10.808      10.459      10.705      11.482      12.371    
  11.796      12.702      12.629      11.638      10.159      8.6238      7.2145      6.0256      5.0891      4.3994    
  3.9376      3.6870      3.6397      3.7995      4.1819      4.8116      5.7095      6.8713      8.2420      9.6966    
  10.922      11.430      11.013      9.9355      8.8402      8.4097      8.9748      10.318      9.0482      11.132    
  12.444      12.541      11.551      10.007      8.4172      6.9832      5.7970      4.8839      4.2318      3.8173    
  3.6221      3.6398      3.8773      4.3550      5.0992      6.1254      7.4115      8.8704      10.298      11.167    
  10.985      9.7144      7.8867      6.3934      6.0296      7.0557      5.2856      7.9302      10.543      12.153    
  12.336      11.312      9.7176      8.1081      6.6848      5.5324      4.6676      4.0719      3.7192      3.5913    
  3.6843      4.0097      4.5918      5.4570      6.6112      8.0096      9.5272      10.796      11.146      10.164    
  8.0296      5.5519      3.8295      3.6993      1.8240      3.9934      7.1915      10.162      11.897      12.044    
  10.941      9.3150      7.7190      6.3389      5.2473      4.4512      3.9268      3.6469      3.5952      3.7715    
  4.1921      4.8843      5.8719      7.1482      8.6418      10.167      11.155      10.902      9.1228      6.2413    
  3.3139      1.5760      4.9470      5.3798      7.1915      9.5910      11.567      12.392      11.925      10.573    
  8.9691      7.4643      6.1883      5.1899      4.4661      3.9931      3.7480      3.7186      3.9061      4.3252    
  5.0004      5.9525      7.1753      8.6042      10.085      11.171      11.263      10.118      8.0899      6.0412    
  5.1520      4.1987      4.9110      6.9760      9.4760      11.373      12.015      11.375      9.9523      8.3805    
  6.9480      5.7647      4.8648      4.2377      3.8575      3.7029      3.7650      4.0488      4.5728      5.3629    
  6.4360      7.7723      9.2842      10.756      11.616      11.296      9.6856      7.3086      6.9761      4.9111    
  4.1987      5.1520      7.3086      9.6855      11.296      11.616      10.756      9.2842      7.7723      6.4360    
  5.3629      4.5728      4.0488      3.7650      3.7029      3.8575      4.2377      4.8648      5.7647      6.9479    
  8.3805      9.9523      11.375      12.015      11.373      9.4760      9.5910      7.1915      5.3798      4.9469    
  6.0411      8.0898      10.118      11.263      11.171      10.085      8.6042      7.1753      5.9525      5.0003    