unknown system                          
   1.00000000000000     
    -2.410114    2.410114    1.320290
     2.410114   -2.410114    1.320290
     2.410114    2.410114   -1.320290
   Si
     2
Direct
  0.250000  0.750000  0.500000
 -0.000000  0.000000 -0.000000
 
   28   28   28
 -.54956618346E+01 -.39811598799E+01 -.29730288301E-01 0.48812710866E+01 0.90993754845E+01
 0.11507605940E+02 0.11879084653E+02 0.10771442185E+02 0.90977096355E+01 0.74735789301E+01
 0.60890982361E+01 0.50209433160E+01 0.42801984276E+01 0.38487300713E+01 0.37072929418E+01
 0.38486578326E+01 0.42802479871E+01 0.50211050491E+01 0.60891552132E+01 0.74735065012E+01
 0.90976956079E+01 0.10771511917E+02 0.11879087933E+02 0.11507561730E+02 0.90994376132E+01
 0.48813704613E+01 -.29804202962E-01 -.39813364597E+01 -.39813364597E+01 -.47004776602E+01
 -.25274925509E+01 0.16807279674E+01 0.63673674745E+01 0.10010596194E+02 0.11746910551E+02
 0.11592780770E+02 0.10237305946E+02 0.85600956062E+01 0.70065393062E+01 0.57202792294E+01
 0.47554417186E+01 0.41112458329E+01 0.37672681742E+01 0.37073072847E+01 0.39285857906E+01
 0.44425073779E+01 0.52697477311E+01 0.64240267510E+01 0.78815588290E+01 0.95452533170E+01
 0.11168860402E+02 0.12020128775E+02 0.11234602338E+02 0.84242943431E+01 0.40383846335E+01
 -.64487233719E+00 -.29804202962E-01 -.25276171285E+01 -.24798233633E+01 0.77286487126E-01
 0.41205371446E+01 0.81549278499E+01 0.10906785887E+02 0.11816919482E+02 0.11126368364E+02
 0.95940082195E+01 0.79615378970E+01 0.65068135501E+01 0.53379113521E+01 0.44869807705E+01
 0.39438798553E+01 0.36881100354E+01 0.37073456072E+01 0.40030158655E+01 0.45896268451E+01
 0.54880066883E+01 0.67062303072E+01 0.82080639040E+01 0.98801455465E+01 0.11425306914E+02
 0.12071641143E+02 0.11058466120E+02 0.81756092542E+01 0.40383846335E+01 0.48813704613E+01
 0.16806941590E+01 0.77244353708E-01 0.71703727726E+00 0.33113108244E+01 0.67937490455E+01
 0.98575856222E+01 0.11551767512E+02 0.11623958456E+02 0.10486995036E+02 0.88878257021E+01
 0.73359404408E+01 0.60024546415E+01 0.49624332496E+01 0.42290550488E+01 0.37861708257E+01
 0.36150653394E+01 0.37074269342E+01 0.40681539522E+01 0.47137164371E+01 0.56637080235E+01
 0.69199084602E+01 0.84355405715E+01 0.10086867566E+02 0.11549330362E+02 0.12082416959E+02
 0.11058466120E+02 0.84242943431E+01 0.90994376132E+01 0.63674081014E+01 0.41205495877E+01
 0.33113499632E+01 0.42778265737E+01 0.65725697612E+01 0.92060940847E+01 0.11147815673E+02
 0.11790835758E+02 0.11148345690E+02 0.97307840841E+01 0.81613273550E+01 0.67188848747E+01
 0.55207961528E+01 0.46128922518E+01 0.39940820614E+01 0.36456292568E+01 0.35517157077E+01
 0.37075563755E+01 0.41205203494E+01 0.48078588779E+01 0.57868317280E+01 0.70530817785E+01
 0.85522204040E+01 0.10156635179E+02 0.11549330362E+02 0.12071641143E+02 0.11234602338E+02
 0.11507561730E+02 0.10010573563E+02 0.81549076623E+01 0.67937955432E+01 0.65726627945E+01
 0.75851428574E+01 0.93293645618E+01 0.10985072038E+02 0.11835032190E+02 0.11588190048E+02
 0.10451378843E+02 0.89443030517E+01 0.74568080543E+01 0.61440913943E+01 0.50861558667E+01
 0.43057633450E+01 0.37928675639E+01 0.35289030383E+01 0.35012184527E+01 0.37077086672E+01
 0.41571993521E+01 0.48666461662E+01 0.58502466195E+01 0.70983127417E+01 0.85522204040E+01
 0.10086867566E+02 0.11425306914E+02 0.12020128775E+02 0.11879087933E+02 0.11746883039E+02
 0.10906700479E+02 0.98575213251E+01 0.92061527607E+01 0.93294734918E+01 0.10161553510E+02
 0.11236652606E+02 0.11954102568E+02 0.11897434948E+02 0.11026562034E+02 0.96566429248E+01
 0.81883532505E+01 0.68137638939E+01 0.56403811150E+01 0.47182485932E+01 0.40542584245E+01
 0.36342352693E+01 0.34414659474E+01 0.34660996165E+01 0.37078338048E+01 0.41760887440E+01
 0.48866356638E+01 0.58502466195E+01 0.70530817785E+01 0.84355405715E+01 0.98801455465E+01
 0.11168860402E+02 0.10771511917E+02 0.11592862076E+02 0.11816918890E+02 0.11551659882E+02
 0.11147733709E+02 0.10985122403E+02 0.11236744893E+02 0.11760827113E+02 0.12188571429E+02
 0.12145248440E+02 0.11464503886E+02 0.10273770318E+02 0.88861194656E+01 0.75088228441E+01
 0.62651976673E+01 0.52299070935E+01 0.44316008993E+01 0.38681571227E+01 0.35248242378E+01
 0.33873616174E+01 0.34480999567E+01 0.37078823576E+01 0.41760887440E+01 0.48666461662E+01
 0.57868317280E+01 0.69199084602E+01 0.82080639040E+01 0.95452533170E+01 0.90976956079E+01
 0.10237386316E+02 0.11126491699E+02 0.11623986695E+02 0.11790744474E+02 0.11834957567E+02
 0.11954132723E+02 0.12188629281E+02 0.12386669989E+02 0.12302120259E+02 0.11756931578E+02
 0.10762947145E+02 0.95169988817E+01 0.82017814150E+01 0.69439305715E+01 0.58357661723E+01
 0.49278966081E+01 0.42358786550E+01 0.37540228713E+01 0.34690297023E+01 0.33690521597E+01
 0.34480999567E+01 0.37078338048E+01 0.41571993521E+01 0.48078588779E+01 0.56637080235E+01
 0.67062303072E+01 0.78815588290E+01 0.74735065012E+01 0.85600377626E+01 0.95940658468E+01
 0.10487117692E+02 0.11148394263E+02 0.11588137262E+02 0.11897383151E+02 0.12145256405E+02
 0.12302141634E+02 0.12246356152E+02 0.11849288996E+02 0.11078429341E+02 0.10036730124E+02
 0.88544404838E+01 0.76492774590E+01 0.65221386222E+01 0.55418284461E+01 0.47435870098E+01
 0.41367411858E+01 0.37155780637E+01 0.34690297023E+01 0.33873616174E+01 0.34660996165E+01
 0.37077086672E+01 0.41205203494E+01 0.47137164371E+01 0.54880066883E+01 0.64240267510E+01
 0.60891552132E+01 0.70064707227E+01 0.79614537348E+01 0.88878418144E+01 0.97308733509E+01
 0.10451433250E+02 0.11026550231E+02 0.11464478607E+02 0.11756922681E+02 0.11849283072E+02
 0.11664805469E+02 0.11166030797E+02 0.10391492958E+02 0.94169792460E+01 0.83409838869E+01
 0.72626477499E+01 0.62622113897E+01 0.53927891400E+01 0.46816811792E+01 0.41367411858E+01
 0.37540228713E+01 0.35248242378E+01 0.34414659474E+01 0.35012184527E+01 0.37075563755E+01
 0.40681539522E+01 0.45896268451E+01 0.52697477311E+01 0.50211050491E+01 0.57203648161E+01
 0.65067715111E+01 0.73358546527E+01 0.81613033549E+01 0.89443456809E+01 0.96566895723E+01
 0.10273787825E+02 0.10762943171E+02 0.11078412434E+02 0.11166011465E+02 0.10985239817E+02
 0.10529245470E+02 0.98332978132E+01 0.89672211805E+01 0.80167400928E+01 0.70639638713E+01
 0.61744831005E+01 0.53927891400E+01 0.47435870098E+01 0.42358786550E+01 0.38681571227E+01
 0.36342352693E+01 0.35289030383E+01 0.35517157077E+01 0.37074269342E+01 0.40030158655E+01
 0.44425073779E+01 0.42802479871E+01 0.47555565937E+01 0.53379989491E+01 0.60024477535E+01
 0.67188188847E+01 0.74567602365E+01 0.81883547460E+01 0.88861501184E+01 0.95170285285E+01
 0.10036738590E+02 0.10391476860E+02 0.10529225193E+02 0.10416620880E+02 0.10052466267E+02
 0.94705816163E+01 0.87311720986E+01 0.79059590234E+01 0.70639638713E+01 0.62622113897E+01
 0.55418284461E+01 0.49278966081E+01 0.44316008993E+01 0.40542584245E+01 0.37928675639E+01
 0.36456292568E+01 0.36150653394E+01 0.37073456072E+01 0.39285857906E+01 0.38486578326E+01
 0.41111980808E+01 0.44870132016E+01 0.49624975368E+01 0.55208178024E+01 0.61440557785E+01
 0.68137130740E+01 0.75087992168E+01 0.82017935336E+01 0.88544671205E+01 0.94169922731E+01
 0.98332882484E+01 0.10052451725E+02 0.10042134813E+02 0.97979558094E+01 0.93449539039E+01
 0.87311720986E+01 0.80167400928E+01 0.72626477499E+01 0.65221386222E+01 0.58357661723E+01
 0.52299070935E+01 0.47182485932E+01 0.43057633450E+01 0.39940820614E+01 0.37861708257E+01
 0.36881100354E+01 0.37073072847E+01 0.37072929418E+01 0.37671492194E+01 0.39437482428E+01
 0.42290055847E+01 0.46129202068E+01 0.50861907516E+01 0.56403749141E+01 0.62651602063E+01
 0.69438984035E+01 0.76492724127E+01 0.83409990984E+01 0.89672342654E+01 0.94705792533E+01
 0.97979465598E+01 0.99116278480E+01 0.97979558094E+01 0.94705816163E+01 0.89672211805E+01
 0.83409838869E+01 0.76492774590E+01 0.69439305715E+01 0.62651976673E+01 0.56403811150E+01
 0.50861558667E+01 0.46128922518E+01 0.42290550488E+01 0.39438798553E+01 0.37672681742E+01
 0.38487300713E+01 0.37072941192E+01 0.36879776038E+01 0.37860033462E+01 0.39939847236E+01
 0.43057584670E+01 0.47182819276E+01 0.52299226063E+01 0.58357496039E+01 0.65221084616E+01
 0.72626294272E+01 0.80167438194E+01 0.87311841927E+01 0.93449546050E+01 0.97979465598E+01
 0.10042134813E+02 0.10052466267E+02 0.98332978132E+01 0.94169792460E+01 0.88544404838E+01
 0.82017814150E+01 0.75088228441E+01 0.68137638939E+01 0.61440913943E+01 0.55207961528E+01
 0.49624332496E+01 0.44869807705E+01 0.41112458329E+01 0.42801984276E+01 0.39285967810E+01
 0.37073247337E+01 0.36149599026E+01 0.36454884773E+01 0.37927719057E+01 0.40542357869E+01
 0.44316245924E+01 0.49279250741E+01 0.55418313643E+01 0.62621861569E+01 0.70639382104E+01
 0.79059580410E+01 0.87311841927E+01 0.94705792533E+01 0.10052451725E+02 0.10416620880E+02
 0.10529245470E+02 0.10391492958E+02 0.10036730124E+02 0.95169988817E+01 0.88861194656E+01
 0.81883532505E+01 0.74568080543E+01 0.67188848747E+01 0.60024546415E+01 0.53379113521E+01
 0.47554417186E+01 0.50209433160E+01 0.44423872682E+01 0.40029752263E+01 0.37074093712E+01
 0.35516720658E+01 0.35288407669E+01 0.36341822389E+01 0.38681327797E+01 0.42358921125E+01
 0.47436217312E+01 0.53928035117E+01 0.61744601609E+01 0.70639382104E+01 0.80167438194E+01
 0.89672342654E+01 0.98332882484E+01 0.10529225193E+02 0.10985239817E+02 0.11166030797E+02
 0.11078429341E+02 0.10762947145E+02 0.10273770318E+02 0.96566429248E+01 0.89443030517E+01
 0.81613273550E+01 0.73359404408E+01 0.65068135501E+01 0.57202792294E+01 0.60890982361E+01
 0.52695968443E+01 0.45894911471E+01 0.40680905033E+01 0.37075559527E+01 0.35012544871E+01
 0.34415028134E+01 0.35248276332E+01 0.37540046351E+01 0.41367486065E+01 0.46817176977E+01
 0.53928035117E+01 0.62621861569E+01 0.72626294272E+01 0.83409990984E+01 0.94169922731E+01
 0.10391476860E+02 0.11166011465E+02 0.11664805469E+02 0.11849288996E+02 0.11756931578E+02
 0.11464503886E+02 0.11026562034E+02 0.10451378843E+02 0.97307840841E+01 0.88878257021E+01
 0.79615378970E+01 0.70065393062E+01 0.74735789301E+01 0.64240151574E+01 0.54879227520E+01
 0.47136231495E+01 0.41204668872E+01 0.37077350655E+01 0.34662093753E+01 0.33874792917E+01
 0.34690716737E+01 0.37155633902E+01 0.41367486065E+01 0.47436217312E+01 0.55418313643E+01
 0.65221084616E+01 0.76492724127E+01 0.88544671205E+01 0.10036738590E+02 0.11078412434E+02
 0.11849283072E+02 0.12246356152E+02 0.12302120259E+02 0.12145248440E+02 0.11897434948E+02
 0.11588190048E+02 0.11148345690E+02 0.10486995036E+02 0.95940082195E+01 0.85600956062E+01
 0.90977096355E+01 0.78816075567E+01 0.67062661407E+01 0.56637231590E+01 0.48078419688E+01
 0.41571745038E+01 0.37078851802E+01 0.34482539545E+01 0.33692007823E+01 0.34690716737E+01
 0.37540046351E+01 0.42358921125E+01 0.49279250741E+01 0.58357496039E+01 0.69438984035E+01
 0.82017935336E+01 0.95170285285E+01 0.10762943171E+02 0.11756922681E+02 0.12302141634E+02
 0.12386669989E+02 0.12188571429E+02 0.11954102568E+02 0.11835032190E+02 0.11790835758E+02
 0.11623958456E+02 0.11126368364E+02 0.10237305946E+02 0.10771442185E+02 0.95452198110E+01
 0.82080692481E+01 0.69199818319E+01 0.57869421756E+01 0.48666997348E+01 0.41760872392E+01
 0.37079439499E+01 0.34482539545E+01 0.33874792917E+01 0.35248276332E+01 0.38681327797E+01
 0.44316245924E+01 0.52299226063E+01 0.62651602063E+01 0.75087992168E+01 0.88861501184E+01
 0.10273787825E+02 0.11464478607E+02 0.12145256405E+02 0.12188629281E+02 0.11760827113E+02
 0.11236652606E+02 0.10985072038E+02 0.11147815673E+02 0.11551767512E+02 0.11816919482E+02
 0.11592780770E+02 0.11879084653E+02 0.11168833142E+02 0.98800734425E+01 0.84355002445E+01
 0.70531776004E+01 0.58504147748E+01 0.48867175675E+01 0.41760872392E+01 0.37078851802E+01
 0.34662093753E+01 0.34415028134E+01 0.36341822389E+01 0.40542357869E+01 0.47182819276E+01
 0.56403749141E+01 0.68137130740E+01 0.81883547460E+01 0.96566895723E+01 0.11026550231E+02
 0.11897383151E+02 0.11954132723E+02 0.11236744893E+02 0.10161553510E+02 0.93293645618E+01
 0.92060940847E+01 0.98575856222E+01 0.10906785887E+02 0.11746910551E+02 0.11507605940E+02
 0.12020216334E+02 0.11425334004E+02 0.10086772058E+02 0.85521511598E+01 0.70984158180E+01
 0.58504147748E+01 0.48666997348E+01 0.41571745038E+01 0.37077350655E+01 0.35012544871E+01
 0.35288407669E+01 0.37927719057E+01 0.43057584670E+01 0.50861907516E+01 0.61440557785E+01
 0.74567602365E+01 0.89443456809E+01 0.10451433250E+02 0.11588137262E+02 0.11834957567E+02
 0.10985122403E+02 0.93294734918E+01 0.75851428574E+01 0.65725697612E+01 0.67937490455E+01
 0.81549278499E+01 0.10010596194E+02 0.90993754845E+01 0.11234652051E+02 0.12071801119E+02
 0.11549394997E+02 0.10156532076E+02 0.85521511598E+01 0.70531776004E+01 0.57869421756E+01
 0.48078419688E+01 0.41204668872E+01 0.37075559527E+01 0.35516720658E+01 0.36454884773E+01
 0.39939847236E+01 0.46129202068E+01 0.55208178024E+01 0.67188188847E+01 0.81613033549E+01
 0.97308733509E+01 0.11148394263E+02 0.11790744474E+02 0.11147733709E+02 0.92061527607E+01
 0.65726627945E+01 0.42778265737E+01 0.33113108244E+01 0.41205371446E+01 0.63673674745E+01
 0.48812710866E+01 0.84241591662E+01 0.11058515701E+02 0.12082604508E+02 0.11549394997E+02
 0.10086772058E+02 0.84355002445E+01 0.69199818319E+01 0.56637231590E+01 0.47136231495E+01
 0.40680905033E+01 0.37074093712E+01 0.36149599026E+01 0.37860033462E+01 0.42290055847E+01
 0.49624975368E+01 0.60024477535E+01 0.73358546527E+01 0.88878418144E+01 0.10487117692E+02
 0.11623986695E+02 0.11551659882E+02 0.98575213251E+01 0.67937955432E+01 0.33113499632E+01
 0.71703727726E+00 0.77286487126E-01 0.16807279674E+01 -.29730288301E-01 0.40382491849E+01
 0.81754452554E+01 0.11058515701E+02 0.12071801119E+02 0.11425334004E+02 0.98800734425E+01
 0.82080692481E+01 0.67062661407E+01 0.54879227520E+01 0.45894911471E+01 0.40029752263E+01
 0.37073247337E+01 0.36879776038E+01 0.39437482428E+01 0.44870132016E+01 0.53379989491E+01
 0.65067715111E+01 0.79614537348E+01 0.95940658468E+01 0.11126491699E+02 0.11816918890E+02
 0.10906700479E+02 0.81549076623E+01 0.41205495877E+01 0.77244353708E-01 -.24798233633E+01
 -.25274925509E+01 -.39811598799E+01 -.64478254129E+00 0.40382491849E+01 0.84241591662E+01
 0.11234652051E+02 0.12020216334E+02 0.11168833142E+02 0.95452198110E+01 0.78816075567E+01
 0.64240151574E+01 0.52695968443E+01 0.44423872682E+01 0.39285967810E+01 0.37072941192E+01
 0.37671492194E+01 0.41111980808E+01 0.47555565937E+01 0.57203648161E+01 0.70064707227E+01
 0.85600377626E+01 0.10237386316E+02 0.11592862076E+02 0.11746883039E+02 0.10010573563E+02
 0.63674081014E+01 0.16806941590E+01 -.25276171285E+01 -.47004776602E+01 -.39808384596E+01
 -.29103912733E+01 0.51331123967E+00 0.49905655013E+01 0.89653871844E+01 0.11311138076E+02
 0.11720733362E+02 0.10662245637E+02 0.89988855852E+01 0.73628217076E+01 0.59557506367E+01
 0.48604341332E+01 0.40908748418E+01 0.36276874451E+01 0.34478671201E+01 0.35405710098E+01
 0.39114865535E+01 0.45805008053E+01 0.55699120279E+01 0.68781260728E+01 0.84436635400E+01
 0.10110188376E+02 0.11388206160E+02 0.11411449176E+02 0.95712342062E+01 0.59577261043E+01
 0.15062373339E+01 -.22830112402E+01 -.29105567611E+01 -.39808815711E+01 -.22829366544E+01
 0.15062596520E+01 0.59577073564E+01 0.95713213580E+01 0.11411607530E+02 0.11388278686E+02
 0.10110204342E+02 0.84437673383E+01 0.68782682842E+01 0.55699277772E+01 0.45804257029E+01
 0.39114848989E+01 0.35406240474E+01 0.34478380177E+01 0.36276139098E+01 0.40908887609E+01
 0.48604737382E+01 0.59556599230E+01 0.73626509367E+01 0.89987914875E+01 0.10662190772E+02
 0.11720592197E+02 0.11310993670E+02 0.89653975613E+01 0.49906369260E+01 0.51323751614E+00
 0.64690992865E+00 -.21371747043E+01 -.25272788952E+01 -.39229848826E+00 0.33972834826E+01
 0.74074203842E+01 0.10315101572E+02 0.11445949744E+02 0.10929932590E+02 0.94699775910E+01
 0.78434685108E+01 0.63749409343E+01 0.51846637799E+01 0.43123489640E+01 0.37493095723E+01
 0.34723712650E+01 0.34659196792E+01 0.37298907372E+01 0.42795771919E+01 0.51389570659E+01
 0.63223563176E+01 0.78033726449E+01 0.94814009377E+01 0.11106092110E+02 0.11964928395E+02
 0.11264980812E+02 0.86996937585E+01 0.47541141545E+01 0.53221499711E+01 0.18865374317E+01
 -.12330381379E+00 0.77423451732E-01 0.23640250343E+01 0.57734466592E+01 0.89910653919E+01
 0.10963047046E+02 0.11304412708E+02 0.10333353638E+02 0.87796122393E+01 0.72277400235E+01
 0.58781814418E+01 0.48184901458E+01 0.40680891259E+01 0.36109502845E+01 0.34255134831E+01
 0.35011979373E+01 0.38427489790E+01 0.44684294515E+01 0.54015922905E+01 0.66503460793E+01
 0.81767391709E+01 0.98671870833E+01 0.11435212958E+02 0.12159923286E+02 0.11358938200E+02
 0.88802167011E+01 0.94817174170E+01 0.65722191485E+01 0.39679430944E+01 0.27172025043E+01
 0.33113590094E+01 0.54377807465E+01 0.81518642198E+01 0.10358955837E+02 0.11321898644E+02
 0.10929119600E+02 0.96272756169E+01 0.80767835963E+01 0.66272674290E+01 0.54120892114E+01
 0.44879076786E+01 0.38577147146E+01 0.35017328934E+01 0.34017040537E+01 0.35518702288E+01
 0.39605964926E+01 0.46475439759E+01 0.56338904173E+01 0.69210700104E+01 0.84617561784E+01
 0.10135171875E+02 0.11645108981E+02 0.12321793167E+02 0.11609808645E+02 0.11957143654E+02
 0.10354247003E+02 0.82209139537E+01 0.64577495598E+01 0.58299227518E+01 0.65725237379E+01
 0.82741208961E+01 0.10106147890E+02 0.11253290004E+02 0.11293598128E+02 0.10336103128E+02
 0.88801492570E+01 0.73966943645E+01 0.60715363587E+01 0.49980106195E+01 0.42067352634E+01
 0.36894139534E+01 0.34258191542E+01 0.34017432546E+01 0.36153553162E+01 0.40772245707E+01
 0.48069112129E+01 0.58222522362E+01 0.71182527871E+01 0.86410057485E+01 0.10268284194E+02
 0.11725069921E+02 0.12431962963E+02 0.12441155741E+02 0.12282370908E+02 0.11269001634E+02
 0.99052118768E+01 0.88711297657E+01 0.86639605198E+01 0.93292390237E+01 0.10445257823E+02
 0.11365499620E+02 0.11566093474E+02 0.10896740598E+02 0.96118254041E+01 0.81558011466E+01
 0.67740337659E+01 0.55865769306E+01 0.46534024383E+01 0.39858361559E+01 0.35695706064E+01
 0.33862730431E+01 0.34256135941E+01 0.36884674469E+01 0.41862705476E+01 0.49372164719E+01
 0.59550559886E+01 0.72291119193E+01 0.87018164311E+01 0.10254537206E+02 0.11656722634E+02
 0.11420909759E+02 0.12288461142E+02 0.12448989020E+02 0.11987246335E+02 0.11282167113E+02
 0.10795111611E+02 0.10802320351E+02 0.11236485123E+02 0.11735050752E+02 0.11859834130E+02
 0.11348560185E+02 0.10251520679E+02 0.88784407452E+01 0.74961790186E+01 0.62397344885E+01
 0.51932878511E+01 0.43913645618E+01 0.38332129134E+01 0.35028774615E+01 0.33850410259E+01
 0.34724803179E+01 0.37676203888E+01 0.42817075401E+01 0.50306198306E+01 0.60236667284E+01
 0.72455018200E+01 0.86375914354E+01 0.10088976740E+02 0.97758922691E+01 0.11010024453E+02
 0.11927894275E+02 0.12349122702E+02 0.12329089167E+02 0.12115411129E+02 0.11980463318E+02
 0.12041920447E+02 0.12188408226E+02 0.12156551210E+02 0.11705525169E+02 0.10776012603E+02
 0.95353878749E+01 0.82106962645E+01 0.69386511702E+01 0.58185987381E+01 0.49068000133E+01
 0.42208695909E+01 0.37543234857E+01 0.34923920204E+01 0.34228482750E+01 0.35406654502E+01
 0.38490109129E+01 0.43582645658E+01 0.50813937182E+01 0.60232317579E+01 0.71648490666E+01
 0.84490905067E+01 0.81453075646E+01 0.93302815913E+01 0.10440209383E+02 0.11352012469E+02
 0.11940222739E+02 0.12220492404E+02 0.12323868697E+02 0.12379136448E+02 0.12407250900E+02
 0.12301995289E+02 0.11908828572E+02 0.11146074094E+02 0.10084808813E+02 0.88805934907E+01
 0.76552608911E+01 0.65135086972E+01 0.55283902010E+01 0.47368844907E+01 0.41474297066E+01
 0.37523921688E+01 0.35394629025E+01 0.34990204981E+01 0.36275902524E+01 0.39287516827E+01
 0.44117390559E+01 0.50863566560E+01 0.59531602686E+01 0.69907146036E+01 0.67328422215E+01
 0.77435458491E+01 0.87779050109E+01 0.97548608704E+01 0.10603426247E+02 0.11260106432E+02
 0.11706045267E+02 0.11983038915E+02 0.12124659881E+02 0.12105107897E+02 0.11849212301E+02
 0.11296627194E+02 0.10470342263E+02 0.94556268395E+01 0.83486793150E+01 0.72500295596E+01
 0.62425725076E+01 0.53803030961E+01 0.46889914092E+01 0.41737943862E+01 0.38285154228E+01
 0.36434977727E+01 0.36112462684E+01 0.37296957917E+01 0.40029697643E+01 0.44392118730E+01
 0.50450827828E+01 0.58172334126E+01 0.56233439271E+01 0.64066030733E+01 0.72683927921E+01
 0.81533942185E+01 0.90030056514E+01 0.97681789205E+01 0.10416811180E+02 0.10927455219E+02
 0.11285378277E+02 0.11470762721E+02 0.11443985337E+02 0.11165992164E+02 0.10632485368E+02
 0.98764101052E+01 0.89654522765E+01 0.79860746925E+01 0.70221521413E+01 0.61394611904E+01
 0.53801876248E+01 0.47652999715E+01 0.43003105919E+01 0.39814674559E+01 0.38016063845E+01
 0.37553342556E+01 0.38423989985E+01 0.40679204795E+01 0.44391850129E+01 0.49598917500E+01
 0.48356466229E+01 0.53829067099E+01 0.60318202054E+01 0.67495503161E+01 0.74966068045E+01
 0.82335796883E+01 0.89268426910E+01 0.95494836022E+01 0.10076277056E+02 0.10476321152E+02
 0.10710252933E+02 0.10737103521E+02 0.10529226620E+02 0.10087235363E+02 0.94458690519E+01
 0.86671407181E+01 0.78247351668E+01 0.69878002099E+01 0.62106340124E+01 0.55296780624E+01
 0.49652055983E+01 0.45247396768E+01 0.42072361783E+01 0.40082239155E+01 0.39250772208E+01
 0.39601764786E+01 0.41201602079E+01 0.44116509551E+01 0.43580953986E+01 0.46794071849E+01
 0.51100056159E+01 0.56310656486E+01 0.62188282262E+01 0.68480496892E+01 0.74943616799E+01
 0.81344829530E+01 0.87437129544E+01 0.92916388256E+01 0.97391775635E+01 0.10040896856E+02
 0.10154208852E+02 0.10052451535E+02 0.97355032144E+01 0.92322812377E+01 0.85939031988E+01
 0.78812362587E+01 0.71526657200E+01 0.64562015574E+01 0.58264814609E+01 0.52849163709E+01
 0.48415287815E+01 0.44984235193E+01 0.42548696559E+01 0.41123523957E+01 0.40768421648E+01
 0.41567804543E+01 0.41756609700E+01 0.42814370910E+01 0.44999832954E+01 0.48203491970E+01
 0.52276548501E+01 0.57069200546E+01 0.62445394769E+01 0.68268854257E+01 0.74371053378E+01
 0.80514856274E+01 0.86367018293E+01 0.91496841598E+01 0.95418848717E+01 0.97681856300E+01
 0.97979369867E+01 0.96237055965E+01 0.92638494531E+01 0.87578489972E+01 0.81566674817E+01
 0.75122677352E+01 0.68697730700E+01 0.62634922683E+01 0.57161891818E+01 0.52407337702E+01
 0.48437164438E+01 0.45301926928E+01 0.43075237363E+01 0.41859987390E+01 0.42815579663E+01
 0.41756808202E+01 0.41859011529E+01 0.43074018706E+01 0.45301173416E+01 0.48436711206E+01
 0.52406848672E+01 0.57161388412E+01 0.62634451146E+01 0.68697200161E+01 0.75122212964E+01
 0.81566563984E+01 0.87578665933E+01 0.92638585333E+01 0.96236971714E+01 0.97979327403E+01
 0.97681862937E+01 0.95418724347E+01 0.91496716621E+01 0.86367246644E+01 0.80515463303E+01
 0.74371772514E+01 0.68269591089E+01 0.62446137811E+01 0.57069701129E+01 0.52276723071E+01
 0.48203889858E+01 0.45000932179E+01 0.46794574881E+01 0.43582040129E+01 0.41568362183E+01
 0.40768026086E+01 0.41122752939E+01 0.42548048813E+01 0.44983665508E+01 0.48414775182E+01
 0.52848869919E+01 0.58264634207E+01 0.64561688401E+01 0.71526319227E+01 0.78812343728E+01
 0.85939203270E+01 0.92322774563E+01 0.97354812901E+01 0.10052444020E+02 0.10154214041E+02
 0.10040892923E+02 0.97391804707E+01 0.92916809212E+01 0.87437852888E+01 0.81345597282E+01
 0.74944500922E+01 0.68481496177E+01 0.62188844047E+01 0.56310424288E+01 0.51099725727E+01
 0.53827974263E+01 0.48356248365E+01 0.44117261888E+01 0.41202398954E+01 0.39602097065E+01
 0.39250780302E+01 0.40081964808E+01 0.42071782393E+01 0.45246896812E+01 0.49651989854E+01
 0.55296856375E+01 0.62106158598E+01 0.69877796192E+01 0.78247476547E+01 0.86671583055E+01
 0.94458507948E+01 0.10087205114E+02 0.10529226774E+02 0.10737121263E+02 0.10710263411E+02
 0.10476349013E+02 0.10076344143E+02 0.95495553993E+01 0.89268972762E+01 0.82336595845E+01
 0.74967228211E+01 0.67496110542E+01 0.60317557522E+01 0.64065107857E+01 0.56231935621E+01
 0.49598235976E+01 0.44392226014E+01 0.40680035498E+01 0.38424897178E+01 0.37554048764E+01
 0.38016110357E+01 0.39814116082E+01 0.43002733893E+01 0.47653211891E+01 0.53802124753E+01
 0.61394504980E+01 0.70221506626E+01 0.79861114651E+01 0.89654749350E+01 0.98763835898E+01
 0.10632458792E+02 0.11166005865E+02 0.11444009011E+02 0.11470781366E+02 0.11285433498E+02
 0.10927544793E+02 0.10416861742E+02 0.97681795215E+01 0.90030465180E+01 0.81535005477E+01
 0.72684446596E+01 0.77435658835E+01 0.67327432570E+01 0.58170972083E+01 0.50450114538E+01
 0.44392156786E+01 0.40030307598E+01 0.37298055827E+01 0.36113448916E+01 0.36435066776E+01
 0.38284627487E+01 0.41737856170E+01 0.46890424458E+01 0.53803330316E+01 0.62425656222E+01
 0.72500569446E+01 0.83487477701E+01 0.94556570994E+01 0.10470316630E+02 0.11296614515E+02
 0.11849231995E+02 0.12105114322E+02 0.12124668814E+02 0.11983113220E+02 0.11706144391E+02
 0.11260115037E+02 0.10603352229E+02 0.97548374120E+01 0.87779659941E+01 0.93302680576E+01
 0.81452740599E+01 0.69906291766E+01 0.59530849670E+01 0.50863144537E+01 0.44117114048E+01
 0.39287694427E+01 0.36276777491E+01 0.34990973831E+01 0.35394482623E+01 0.37523494854E+01
 0.41474628663E+01 0.47369590510E+01 0.55284126521E+01 0.65135085214E+01 0.76553257058E+01
 0.88806905896E+01 0.10084841793E+02 0.11146055740E+02 0.11908832439E+02 0.12302002125E+02
 0.12407211480E+02 0.12379115312E+02 0.12323944744E+02 0.12220580364E+02 0.11940179626E+02
 0.11351869700E+02 0.10440117016E+02 0.11009887114E+02 0.97757981555E+01 0.84489973048E+01
 0.71647920177E+01 0.60232354487E+01 0.50813855553E+01 0.43582048800E+01 0.38489801370E+01
 0.35407074300E+01 0.34228721759E+01 0.34923454546E+01 0.37543057983E+01 0.42209496786E+01
 0.49068834156E+01 0.58186064503E+01 0.69386672204E+01 0.82107992458E+01 0.95354954771E+01
 0.10776034788E+02 0.11705515861E+02 0.12156568804E+02 0.12188386117E+02 0.12041821797E+02
 0.11980403386E+02 0.12115468387E+02 0.12329142849E+02 0.12349035238E+02 0.11927719357E+02
 0.12288309362E+02 0.11420772571E+02 0.10088825273E+02 0.86374572187E+01 0.72454837126E+01
 0.60237369715E+01 0.50306274006E+01 0.42816200618E+01 0.37675583049E+01 0.34724807102E+01
 0.33850107880E+01 0.35028145826E+01 0.38332377198E+01 0.43914837466E+01 0.51933615666E+01
 0.62397296796E+01 0.74962228515E+01 0.88785690057E+01 0.10251607278E+02 0.11348554347E+02
 0.11859834161E+02 0.11735081560E+02 0.11236437703E+02 0.10802181984E+02 0.10795026309E+02
 0.11282188878E+02 0.11987246033E+02 0.12448878996E+02 0.12282265930E+02 0.12441078390E+02
 0.11656631864E+02 0.10254372136E+02 0.87016819168E+01 0.72291412238E+01 0.59551626521E+01
 0.49372163570E+01 0.41861725116E+01 0.36884087259E+01 0.34255955503E+01 0.33862108227E+01
 0.35695205586E+01 0.39859128312E+01 0.46535393422E+01 0.55866244555E+01 0.67740268625E+01
 0.81558779248E+01 0.96119510935E+01 0.10896771019E+02 0.11566048218E+02 0.11365511852E+02
 0.10445308053E+02 0.93291950898E+01 0.86638352042E+01 0.88710527947E+01 0.99051897989E+01
 0.11268936626E+02 0.10354121607E+02 0.11957069121E+02 0.12431986136E+02 0.11725051366E+02
 0.10268151433E+02 0.86409188054E+01 0.71183339628E+01 0.58223631020E+01 0.48068916624E+01
 0.40771449282E+01 0.36153351164E+01 0.34017303929E+01 0.34257532880E+01 0.36894025912E+01
 0.42068562001E+01 0.49981339971E+01 0.60715472018E+01 0.73966971241E+01 0.88802500835E+01
 0.10336189907E+02 0.11293548952E+02 0.11253208636E+02 0.10106176928E+02 0.82741971801E+01
 0.65725225884E+01 0.58298735284E+01 0.64577184523E+01 0.82208491635E+01 0.65721215181E+01
 0.94815555337E+01 0.11609783753E+02 0.12321908907E+02 0.11645157629E+02 0.10135102199E+02
 0.84617517055E+01 0.69211970482E+01 0.56339803350E+01 0.46475094962E+01 0.39605629857E+01
 0.35519037442E+01 0.34017037024E+01 0.35016828145E+01 0.38577516306E+01 0.44880465470E+01
 0.54121656204E+01 0.66272383718E+01 0.80768006658E+01 0.96273760643E+01 0.10929136303E+02
 0.11321772835E+02 0.10358858803E+02 0.81519093299E+01 0.54378754345E+01 0.33114222489E+01
 0.27172670546E+01 0.39679771327E+01 0.18866243095E+01 0.53220369652E+01 0.88800604169E+01
 0.11358974449E+02 0.12160095540E+02 0.11435298699E+02 0.98671881214E+01 0.81768240481E+01
 0.66504972456E+01 0.54016448556E+01 0.44683932172E+01 0.38427717213E+01 0.35012695324E+01
 0.34255130971E+01 0.36109214288E+01 0.40681641430E+01 0.48186089107E+01 0.58781853408E+01
 0.72276745873E+01 0.87796362431E+01 0.10333420656E+02 0.11304348213E+02 0.10962878977E+02
 0.89909834478E+01 0.57734941690E+01 0.23641064490E+01 0.77533723582E-01 -.12313887276E+00
 -.21369708331E+01 0.64701142882E+00 0.47540093018E+01 0.86995921127E+01 0.11265078768E+02
 0.11965108009E+02 0.11106176700E+02 0.94814602167E+01 0.78035229468E+01 0.63224962442E+01
 0.51389636076E+01 0.42795502411E+01 0.37299548180E+01 0.34659901356E+01 0.34723499558E+01
 0.37492982185E+01 0.43124379016E+01 0.51847258741E+01 0.63748642310E+01 0.78433761896E+01
 0.94699911312E+01 0.10929936826E+02 0.11445819894E+02 0.10314946768E+02 0.74073817670E+01
 0.33973080250E+01 -.39227736611E+00 -.25271738579E+01 -.28856341030E-01 0.64757627553E+00
 0.32831910261E+01 0.68375883033E+01 0.99974992026E+01 0.11777352425E+02 0.11888006005E+02
 0.10727587863E+02 0.90581639556E+01 0.74259770540E+01 0.60141154881E+01 0.49034446313E+01
 0.41089101831E+01 0.36116057487E+01 0.33874196845E+01 0.34229445134E+01 0.37204830252E+01
 0.42972721391E+01 0.51767661572E+01 0.63661222342E+01 0.78229966662E+01 0.94265527677E+01
 0.10868481422E+02 0.11431155706E+02 0.10494681515E+02 0.79928717229E+01 0.45928610941E+01
 0.15067149936E+01 0.51382431425E+00 -.64380899114E+00 0.51392510317E+00 0.35107079769E+01
 0.71603117956E+01 0.10146593115E+02 0.11606330763E+02 0.11418921999E+02 0.10108875832E+02
 0.84552659674E+01 0.68981098495E+01 0.55876815738E+01 0.45865361138E+01 0.38978986515E+01
 0.34992694623E+01 0.33690440158E+01 0.34991771029E+01 0.38978637655E+01 0.45865650972E+01
 0.55876347547E+01 0.68979944925E+01 0.84552404091E+01 0.10108951706E+02 0.11418946702E+02
 0.11606275236E+02 0.10146577103E+02 0.71603390145E+01 0.35106597335E+01 0.32831306755E+01
 0.64749725651E+00 -.28820121353E-01 0.15068016128E+01 0.45928681780E+01 0.79928525092E+01