    2    2   15    1
  0.1529437E+02  0.3691622E-09  0.3691622E-09  0.3691622E-09  0.5000000E-15
  1.000000000000000E-004
  CAR 
 unknown system                          
      8     40      8
 
  0.0000000E+00  0.0000000E+00  0.0000000E+00  0.2915452E-02
    1       -4.611124   1.000000
    2        6.554580   1.000000
    3        6.554604   1.000000
    4        6.909789   1.000000
    5       10.682052   0.000000
    6       16.742981   0.000000
    7       17.841579   0.000000
    8       17.841608   0.000000
 
  0.1428571E+00 -0.1404355E-16  0.1404355E-16  0.2332362E-01
    1       -4.063813   1.000000
    2        5.558348   1.000000
    3        6.411398   1.000000
    4        8.821660   0.859604
    5       11.820313   0.000000
    6       14.031842   0.000000
    7       14.537008   0.000000
    8       16.537630   0.000000
 
  0.2857143E+00 -0.2600542E-16  0.2600542E-16  0.2332362E-01
    1       -2.433715   1.000000
    2        5.383343   1.000000
    3        6.538025   1.000000
    4        8.546583   0.998751
    5       11.025872   0.000000
    6       12.341686   0.000000
    7       13.048399   0.000000
    8       14.597581   0.000000
 
  0.4285714E+00 -0.1733103E-16  0.1733103E-16  0.2332362E-01
    1        0.224068   1.000000
    2        3.945398   1.000000
    3        6.415182   1.000000
    4        7.205396   1.000000
    5        8.333394   0.999997
    6       10.717373   0.000000
    7       13.626305   0.000000
    8       14.504965   0.000000
 
  0.1428571E+00  0.1428571E+00  0.2808709E-16  0.2332362E-01
    1       -2.682396   1.000000
    2        5.620612   1.000000
    3        7.933654   1.000000
    4        9.232316   0.033983
    5       10.360294   0.000000
    6       10.857637   0.000000
    7       13.445603   0.000000
    8       14.046416   0.000000
 
  0.2857143E+00  0.1428571E+00  0.4508661E-16  0.4664723E-01
    1       -0.255761   1.000000
    2        5.070144   1.000000
    3        6.297117   1.000000
    4        6.756633   1.000000
    5        9.307244   0.009260
    6       11.432276   0.000000
    7       12.233878   0.000000
    8       13.901914   0.000000
 
  0.4285714E+00  0.1428571E+00  0.7177282E-16  0.4664723E-01
    1        1.162214   1.000000
    2        3.217803   1.000000
    3        4.653367   1.000000
    4        7.404272   1.000000
    5        8.750291   0.943311
    6       11.501714   0.000000
    7       12.575239   0.000000
    8       16.170700   0.000000
 
 -0.4285714E+00  0.1428571E+00 -0.1801182E-16  0.4664723E-01
    1       -1.690163   1.000000
    2        3.331257   1.000000
    3        6.739817   1.000000
    4        7.786550   1.000000
    5       10.555309   0.000000
    6       12.568318   0.000000
    7       13.549293   0.000000
    8       14.956314   0.000000
 
 -0.2857143E+00  0.1428571E+00 -0.1576439E-16  0.4664723E-01
    1       -3.562062   1.000000
    2        3.217070   1.000000
    3        6.611319   1.000000
    4       10.124344   0.000000
    5       12.491152   0.000000
    6       13.523138   0.000000
    7       14.267513   0.000000
    8       15.535970   0.000000
 
 -0.1428571E+00  0.1428571E+00 -0.3929902E-17  0.1166181E-01
    1       -4.359448   1.000000
    2        4.091715   1.000000
    3        6.784424   1.000000
    4        8.463494   0.999848
    5       12.233767   0.000000
    6       14.583420   0.000000
    7       16.474892   0.000000
    8       18.194333   0.000000
 
  0.2857143E+00  0.2857143E+00  0.5201085E-16  0.2332362E-01
    1        2.260907   1.000000
    2        2.663938   1.000000
    3        3.462269   1.000000
    4        7.525842   1.000000
    5        9.329803   0.005959
    6       10.433741   0.000000
    7       14.571007   0.000000
    8       15.377043   0.000000
 
  0.4285714E+00  0.2857143E+00  0.7869706E-16  0.4664723E-01
    1       -0.461685   1.000000
    2        1.231509   1.000000
    3        7.092332   1.000000
    4        7.999513   1.000000
    5        9.417369   0.000863
    6       11.468916   0.000000
    7       14.763612   0.000000
    8       16.255773   0.000000
 
 -0.4285714E+00  0.2857143E+00 -0.2288370E-16  0.4664723E-01
    1       -2.563660   1.000000
    2        0.866072   1.000000
    3        7.511609   1.000000
    4       10.535033   0.000000
    5       11.163902   0.000000
    6       12.852780   0.000000
    7       14.445425   0.000000
    8       14.962856   0.000000
 
 -0.2857143E+00  0.2857143E+00 -0.7859804E-17  0.1166181E-01
    1       -3.605939   1.000000
    2        1.542535   1.000000
    3        7.472908   1.000000
    4        9.503500   0.000091
    5       12.213920   0.000000
    6       14.363937   0.000000
    7       15.572993   0.000000
    8       17.764572   0.000000
 
  0.4285714E+00  0.4285714E+00  0.1053833E-15  0.2332362E-01
    1       -1.081331   1.000000
    2       -1.077920   1.000000
    3        8.848718   0.812517
    4        8.866634   0.776528
    5       11.694685   0.000000
    6       12.799774   0.000000
    7       13.860642   0.000000
    8       14.253097   0.000000
 
 -0.4285714E+00  0.4285714E+00  0.4248060E-17  0.1166181E-01
    1       -2.358712   1.000000
    2       -0.632187   1.000000
    3        8.616449   0.994290
    4       10.205082   0.000000
    5       10.764621   0.000000
    6       12.397546   0.000000
    7       17.526898   0.000000
    8       17.618138   0.000000
 
  0.1428571E+00  0.1428571E+00  0.1428571E+00  0.2332362E-01
    1       -1.936496   1.000000
    2        3.142207   1.000000
    3        8.163583   1.000000
    4        8.864957   0.780055
    5       10.136424   0.000000
    6       11.325244   0.000000
    7       14.417132   0.000000
    8       14.908055   0.000000
 
  0.2857143E+00  0.1428571E+00  0.1428571E+00  0.4664723E-01
    1        0.709829   1.000000
    2        3.855825   1.000000
    3        4.702679   1.000000
    4        6.106760   1.000000
    5       10.607955   0.000000
    6       13.168155   0.000000
    7       14.033208   0.000000
    8       14.203933   0.000000
 
 -0.1428571E+00  0.1428571E+00  0.1428571E+00  0.1166181E-01
    1       -4.108099   1.000000
    2        3.847921   1.000000
    3        5.090868   1.000000
    4       10.406973   0.000000
    5       12.614695   0.000000
    6       13.095441   0.000000
    7       17.380757   0.000000
    8       18.254609   0.000000
 
  0.2857143E+00  0.2857143E+00  0.1428571E+00  0.2332362E-01
    1        2.090636   1.000000
    2        2.163495   1.000000
    3        4.357507   1.000000
    4        5.886144   1.000000
    5       11.746593   0.000000
    6       12.575910   0.000000
    7       14.613161   0.000000
    8       15.520630   0.000000
 
  0.4285714E+00  0.2857143E+00  0.1428571E+00  0.2332362E-01
    1       -0.702668   1.000000
    2        1.001911   1.000000
    3        8.251898   1.000000
    4        8.429012   0.999942
    5       10.819450   0.000000
    6       12.033522   0.000000
    7       12.767792   0.000000
    8       13.913918   0.000000
 
 -0.2857143E+00  0.2857143E+00  0.1428571E+00  0.2332362E-01
    1       -3.356868   1.000000
    2        1.737525   1.000000
    3        5.355911   1.000000
    4       10.194787   0.000000
    5       11.869541   0.000000
    6       15.926792   0.000000
    7       16.116546   0.000000
    8       17.422328   0.000000
 
 -0.1428571E+00  0.2857143E+00  0.1428571E+00  0.2332362E-01
    1       -3.063282   1.000000
    2        3.147663   1.000000
    3        4.535333   1.000000
    4       10.342469   0.000000
    5       11.597225   0.000000
    6       13.684341   0.000000
    7       15.426338   0.000000
    8       16.281214   0.000000
 
 -0.4285714E+00  0.4285714E+00  0.1428571E+00  0.2332362E-01
    1       -2.114508   1.000000
    2       -0.399212   1.000000
    3        6.497602   1.000000
    4        8.127460   1.000000
    5       13.116718   0.000000
    6       14.570678   0.000000
    7       16.927440   0.000000
    8       17.127182   0.000000
 
 -0.2857143E+00  0.4285714E+00  0.1428571E+00  0.4664723E-01
    1       -2.072021   1.000000
    2        1.290461   1.000000
    3        4.969386   1.000000
    4        8.166796   1.000000
    5       11.196260   0.000000
    6       14.956931   0.000000
    7       16.114468   0.000000
    8       17.863216   0.000000
 
 -0.1428571E+00  0.4285714E+00  0.1428571E+00  0.2332362E-01
    1       -0.955144   1.000000
    2        3.464782   1.000000
    3        4.914739   1.000000
    4        6.836267   1.000000
    5        9.173035   0.079853
    6       13.151107   0.000000
    7       14.434828   0.000000
    8       16.487596   0.000000
 
 -0.4285714E+00 -0.4285714E+00  0.1428571E+00  0.2332362E-01
    1       -0.609431   1.000000
    2       -0.598756   1.000000
    3        6.322639   1.000000
    4        6.338703   1.000000
    5       11.008035   0.000000
    6       15.797692   0.000000
    7       16.263415   0.000000
    8       16.741768   0.000000
 
 -0.2857143E+00 -0.4285714E+00  0.1428571E+00  0.4664723E-01
    1        0.253062   1.000000
    2        1.885903   1.000000
    3        5.479271   1.000000
    4        6.357763   1.000000
    5        7.288712   1.000000
    6       13.165496   0.000000
    7       16.334165   0.000000
    8       17.830337   0.000000
 
 -0.1428571E+00 -0.4285714E+00  0.1428571E+00  0.2332362E-01
    1        1.898747   1.000000
    2        2.756556   1.000000
    3        5.062719   1.000000
    4        6.200186   1.000000
    5        8.543621   0.998835
    6       11.118611   0.000000
    7       12.098888   0.000000
    8       16.648618   0.000000
 
 -0.2857143E+00 -0.2857143E+00  0.1428571E+00  0.2332362E-01
    1        2.052737   1.000000
    2        3.582209   1.000000
    3        3.845812   1.000000
    4        6.995292   1.000000
    5        7.162499   1.000000
    6       11.101917   0.000000
    7       13.812142   0.000000
    8       14.809607   0.000000
 
 -0.1428571E+00 -0.2857143E+00  0.1428571E+00  0.2332362E-01
    1       -0.743075   1.000000
    2        6.220288   1.000000
    3        7.342728   1.000000
    4        7.854813   1.000000
    5        8.275707   1.000000
    6       10.647374   0.000000
    7       11.135923   0.000000
    8       12.705017   0.000000
 
 -0.1428571E+00 -0.1428571E+00  0.1428571E+00  0.5830904E-02
    1       -2.931797   1.000000
    2        7.803632   1.000000
    3        7.803656   1.000000
    4        8.392388   0.999981
    5       10.755742   0.000000
    6       10.993906   0.000000
    7       12.369987   0.000000
    8       13.254321   0.000000
 
 -0.2857143E+00  0.2857143E+00  0.2857143E+00  0.1166181E-01
    1       -2.613759   1.000000
    2        1.879930   1.000000
    3        3.373102   1.000000
    4        7.720030   1.000000
    5       14.299280   0.000000
    6       15.960142   0.000000
    7       17.124331   0.000000
    8       17.614443   0.000000
 
 -0.4285714E+00  0.4285714E+00  0.2857143E+00  0.2332362E-01
    1       -1.389992   1.000000
    2        0.267066   1.000000
    3        4.015151   1.000000
    4        5.623242   1.000000
    5       15.107055   0.000000
    6       15.459201   0.000000
    7       17.700225   0.000000
    8       18.851950   0.000000
 
 -0.2857143E+00  0.4285714E+00  0.2857143E+00  0.2332362E-01
    1       -1.100147   1.000000
    2        1.665582   1.000000
    3        3.197020   1.000000
    4        5.888222   1.000000
    5       10.598482   0.000000
    6       17.736631   0.000000
    7       17.881523   0.000000
    8       18.874129   0.000000
 
 -0.4285714E+00 -0.4285714E+00  0.2857143E+00  0.2332362E-01
    1        0.296248   1.000000
    2        0.316612   1.000000
    3        4.052116   1.000000
    4        4.066148   1.000000
    5       10.384690   0.000000
    6       18.004011   0.000000
    7       19.231090   0.000000
    8       19.935739   0.000000
 
 -0.2857143E+00 -0.4285714E+00  0.2857143E+00  0.2332362E-01
    1        1.394425   1.000000
    2        2.485654   1.000000
    3        4.025991   1.000000
    4        5.042493   1.000000
    5        6.079054   1.000000
    6       15.181829   0.000000
    7       16.354618   0.000000
    8       18.013314   0.000000
 
 -0.2857143E+00 -0.2857143E+00  0.2857143E+00  0.5830904E-02
    1        1.880232   1.000000
    2        4.469491   1.000000
    3        4.703966   1.000000
    4        5.800602   1.000000
    5        5.800613   1.000000
    6       13.196681   0.000000
    7       13.559796   0.000000
    8       13.559866   0.000000
 
 -0.4285714E+00  0.4285714E+00  0.4285714E+00  0.1166181E-01
    1       -0.229092   1.000000
    2        0.880849   1.000000
    3        2.456771   1.000000
    4        3.551176   1.000000
    5       15.104296   0.000000
    6       15.160887   0.000000
    7       20.303055   0.000000
    8       21.269139   0.000000
 
 -0.4285714E+00 -0.4285714E+00  0.4285714E+00  0.5830904E-02
    1        1.148639   1.000000
    2        1.184369   1.000000
    3        2.736959   1.000000
    4        2.736960   1.000000
    5       10.170071   0.000000
    6       19.139014   0.000000
    7       20.548417   0.000000
    8       20.548478   0.000000
