    2    2   15    1
  0.1529437E+02  0.3691622E-09  0.3691622E-09  0.3691622E-09  0.5000000E-15
  1.000000000000000E-004
  CAR 
 unknown system                          
      8     28      8
 
  0.8333333E-01  0.8333333E-01  0.8333333E-01  0.3703704E-01
    1       -3.666818   1.000000
    2        3.922379   1.000000
    3        7.142191   1.000000
    4        8.673599   0.999919
    5       12.947463   0.000000
    6       13.806136   0.000000
    7       14.037728   0.000000
    8       15.859049   0.000000
 
  0.2500000E+00  0.8333333E-01  0.8333333E-01  0.7407407E-01
    1       -1.340173   1.000000
    2        4.295252   1.000000
    3        7.518737   1.000000
    4        8.007458   1.000000
    5        9.779883   0.000026
    6       12.356398   0.000000
    7       13.649481   0.000000
    8       14.414900   0.000000
 
  0.4166667E+00  0.8333333E-01  0.8333333E-01  0.3703704E-01
    1        2.205440   1.000000
    2        2.747552   1.000000
    3        6.045956   1.000000
    4        6.139470   1.000000
    5        9.607786   0.002303
    6       11.463359   0.000000
    7       13.694664   0.000000
    8       14.634244   0.000000
 
 -0.8333333E-01  0.8333333E-01  0.8333333E-01  0.1851852E-01
    1       -4.449686   1.000000
    2        4.517770   1.000000
    3        5.710219   1.000000
    4        8.268441   1.000000
    5       11.573963   0.000000
    6       14.433844   0.000000
    7       17.516463   0.000000
    8       18.341081   0.000000
 
  0.2500000E+00  0.2500000E+00  0.8333333E-01  0.3703704E-01
    1        2.108690   1.000000
    2        4.009710   1.000000
    3        4.111508   1.000000
    4        5.868106   1.000000
    5       11.030112   0.000000
    6       12.280523   0.000000
    7       13.912068   0.000000
    8       14.363394   0.000000
 
  0.4166667E+00  0.2500000E+00  0.8333333E-01  0.7407407E-01
    1       -0.047219   1.000000
    2        1.858084   1.000000
    3        7.024863   1.000000
    4        8.335158   1.000000
    5       10.020577   0.000000
    6       11.849737   0.000000
    7       13.619345   0.000000
    8       15.265900   0.000000
 
 -0.4166667E+00  0.2500000E+00  0.8333333E-01  0.3703704E-01
    1       -2.681286   1.000000
    2        1.175386   1.000000
    3        8.050998   1.000000
    4        9.884553   0.000001
    5       11.511939   0.000000
    6       13.002532   0.000000
    7       14.173990   0.000000
    8       14.364443   0.000000
 
 -0.2500000E+00  0.2500000E+00  0.8333333E-01  0.3703704E-01
    1       -3.789932   1.000000
    2        1.953656   1.000000
    3        5.979708   1.000000
    4        9.878641   0.000001
    5       11.518392   0.000000
    6       14.613097   0.000000
    7       15.417709   0.000000
    8       18.960223   0.000000
 
 -0.8333333E-01  0.2500000E+00  0.8333333E-01  0.3703704E-01
    1       -3.338210   1.000000
    2        3.665969   1.000000
    3        5.199000   1.000000
    4       10.728666   0.000000
    5       11.870716   0.000000
    6       13.308093   0.000000
    7       14.143566   0.000000
    8       15.988330   0.000000
 
  0.4166667E+00  0.4166667E+00  0.8333333E-01  0.1851852E-01
    1       -1.056271   1.000000
    2       -1.056268   1.000000
    3        9.522266   0.012917
    4        9.522271   0.012915
    5       11.423213   0.000000
    6       11.423236   0.000000
    7       13.784863   0.000000
    8       13.784893   0.000000
 
 -0.4166667E+00  0.4166667E+00  0.8333333E-01  0.3703704E-01
    1       -2.479525   1.000000
    2       -0.543807   1.000000
    3        7.208795   1.000000
    4        9.076224   0.822591
    5       11.305250   0.000000
    6       13.149433   0.000000
    7       18.346617   0.000000
    8       18.584282   0.000000
 
 -0.2500000E+00  0.4166667E+00  0.8333333E-01  0.7407407E-01
    1       -2.357956   1.000000
    2        1.438752   1.000000
    3        5.594712   1.000000
    4        9.222558   0.456420
    5       11.435635   0.000000
    6       13.531367   0.000000
    7       15.617365   0.000000
    8       16.816237   0.000000
 
 -0.8333333E-01  0.4166667E+00  0.8333333E-01  0.3703704E-01
    1       -0.696005   1.000000
    2        4.274006   1.000000
    3        5.908356   1.000000
    4        6.505035   1.000000
    5       10.119901   0.000000
    6       12.350874   0.000000
    7       13.451363   0.000000
    8       15.434376   0.000000
 
 -0.4166667E+00 -0.4166667E+00  0.8333333E-01  0.3703704E-01
    1       -0.748278   1.000000
    2       -0.742990   1.000000
    3        7.090269   1.000000
    4        7.110028   1.000000
    5       11.344215   0.000000
    6       14.568832   0.000000
    7       15.348180   0.000000
    8       15.466722   0.000000
 
 -0.2500000E+00 -0.4166667E+00  0.8333333E-01  0.7407407E-01
    1        0.578002   1.000000
    2        2.418272   1.000000
    3        5.832541   1.000000
    4        6.592117   1.000000
    5        8.280389   1.000000
    6       11.908918   0.000000
    7       15.509323   0.000000
    8       17.053245   0.000000
 
 -0.8333333E-01 -0.4166667E+00  0.8333333E-01  0.3703704E-01
    1        1.485381   1.000000
    2        3.453352   1.000000
    3        6.390960   1.000000
    4        7.634066   1.000000
    5        8.214948   1.000000
    6       10.918733   0.000000
    7       11.698688   0.000000
    8       15.758106   0.000000
 
 -0.2500000E+00 -0.2500000E+00  0.8333333E-01  0.3703704E-01
    1        1.179425   1.000000
    2        4.902548   1.000000
    3        4.947750   1.000000
    4        7.749370   1.000000
    5        8.750249   0.999382
    6       10.343094   0.000000
    7       12.766056   0.000000
    8       13.549143   0.000000
 
 -0.8333333E-01 -0.2500000E+00  0.8333333E-01  0.3703704E-01
    1       -1.991137   1.000000
    2        6.728695   1.000000
    3        7.745227   1.000000
    4        8.525040   0.999999
    5        9.921233   0.000000
    6       11.150144   0.000000
    7       12.488031   0.000000
    8       13.658060   0.000000
 
 -0.8333333E-01 -0.8333333E-01  0.8333333E-01  0.9259259E-02
    1       -3.996655   1.000000
    2        6.777971   1.000000
    3        6.838511   1.000000
    4        6.838536   1.000000
    5       11.285538   0.000000
    6       14.586107   0.000000
    7       14.872444   0.000000
    8       16.783399   0.000000
 
  0.2500000E+00  0.2500000E+00  0.2500000E+00  0.9259259E-02
    1        3.414039   1.000000
    2        3.414067   1.000000
    3        4.075391   1.000000
    4        4.075394   1.000000
    5       13.288210   0.000000
    6       13.288223   0.000000
    7       15.069964   0.000000
    8       15.069988   0.000000
 
 -0.2500000E+00  0.2500000E+00  0.2500000E+00  0.1851852E-01
    1       -3.135903   1.000000
    2        1.943626   1.000000
    3        3.644619   1.000000
    4        8.596378   0.999992
    5       12.961477   0.000000
    6       16.211953   0.000000
    7       17.421644   0.000000
    8       18.332100   0.000000
 
 -0.4166667E+00  0.4166667E+00  0.2500000E+00  0.3703704E-01
    1       -1.844059   1.000000
    2        0.029904   1.000000
    3        4.290104   1.000000
    4        6.118293   1.000000
    5       14.839221   0.000000
    6       16.310812   0.000000
    7       17.890952   0.000000
    8       18.244522   0.000000
 
 -0.2500000E+00  0.4166667E+00  0.2500000E+00  0.3703704E-01
    1       -1.397093   1.000000
    2        1.725998   1.000000
    3        3.483737   1.000000
    4        6.530995   1.000000
    5       10.889080   0.000000
    6       16.576845   0.000000
    7       17.561671   0.000000
    8       18.524854   0.000000
 
 -0.4166667E+00 -0.4166667E+00  0.2500000E+00  0.3703704E-01
    1        0.142371   1.000000
    2        0.152288   1.000000
    3        4.413683   1.000000
    4        4.414828   1.000000
    5       10.626881   0.000000
    6       17.745709   0.000000
    7       18.336815   0.000000
    8       19.079298   0.000000
 
 -0.2500000E+00 -0.4166667E+00  0.2500000E+00  0.3703704E-01
    1        1.777156   1.000000
    2        2.998810   1.000000
    3        4.767930   1.000000
    4        5.279435   1.000000
    5        6.035810   1.000000
    6       14.024272   0.000000
    7       15.496234   0.000000
    8       17.371252   0.000000
 
 -0.2500000E+00 -0.2500000E+00  0.2500000E+00  0.9259259E-02
    1        0.864637   1.000000
    2        5.791670   1.000000
    3        5.884603   1.000000
    4        7.301854   1.000000
    5        7.301871   1.000000
    6       11.596192   0.000000
    7       12.392330   0.000000
    8       12.392347   0.000000
 
 -0.4166667E+00  0.4166667E+00  0.4166667E+00  0.1851852E-01
    1       -0.622652   1.000000
    2        0.631225   1.000000
    3        2.445438   1.000000
    4        3.681270   1.000000
    5       16.316117   0.000000
    6       16.532985   0.000000
    7       19.429621   0.000000
    8       20.545087   0.000000
 
 -0.4166667E+00 -0.4166667E+00  0.4166667E+00  0.9259259E-02
    1        1.063168   1.000000
    2        1.079956   1.000000
    3        2.878842   1.000000
    4        2.878849   1.000000
    5       10.353892   0.000000
    6       19.284090   0.000000
    7       20.431133   0.000000
    8       20.431134   0.000000
