   2   2   0   0
  0.2001288E+02  0.3839590E-09  0.3839590E-09  0.3839590E-09  0.5000000E-15
  1.000000000000000E-004
  CAR 
 unknown system                          
     17.01135310     -8.14852231  301      5.94101281      1.00000000
     -8.149  0.0000E+00  0.0000E+00
     -8.065  0.0000E+00  0.0000E+00
     -7.981  0.0000E+00  0.0000E+00
     -7.897  0.0000E+00  0.0000E+00
     -7.813  0.0000E+00  0.0000E+00
     -7.729  0.0000E+00  0.0000E+00
     -7.645  0.0000E+00  0.0000E+00
     -7.561  0.0000E+00  0.0000E+00
     -7.478  0.0000E+00  0.0000E+00
     -7.394  0.0000E+00  0.0000E+00
     -7.310  0.6895E-18  0.5782E-19
     -7.226  0.7860E-16  0.6650E-17
     -7.142  0.6542E-14  0.5553E-15
     -7.058  0.3838E-12  0.3274E-13
     -6.974  0.1595E-10  0.1370E-11
     -6.891  0.4698E-09  0.4077E-10
     -6.807  0.9835E-08  0.8656E-09
     -6.723  0.1468E-06  0.1317E-07
     -6.639  0.1568E-05  0.1447E-06
     -6.555  0.1209E-04  0.1159E-05
     -6.471  0.6798E-04  0.6860E-05
     -6.387  0.2834E-03  0.3063E-04
     -6.303  0.8946E-03  0.1057E-03
     -6.220  0.2193E-02  0.2896E-03
     -6.136  0.4290E-02  0.6494E-03
     -6.052  0.6902E-02  0.1228E-02
     -5.968  0.9499E-02  0.2025E-02
     -5.884  0.1180E-01  0.3014E-02
     -5.800  0.1396E-01  0.4185E-02
     -5.716  0.1606E-01  0.5532E-02
     -5.633  0.1770E-01  0.7016E-02
     -5.549  0.1859E-01  0.8575E-02
     -5.465  0.1947E-01  0.1021E-01
     -5.381  0.2140E-01  0.1200E-01
     -5.297  0.2401E-01  0.1402E-01
     -5.213  0.2561E-01  0.1616E-01
     -5.129  0.2562E-01  0.1831E-01
     -5.045  0.2551E-01  0.2045E-01
     -4.962  0.2674E-01  0.2269E-01
     -4.878  0.2893E-01  0.2512E-01
     -4.794  0.3115E-01  0.2773E-01
     -4.710  0.3327E-01  0.3052E-01
     -4.626  0.3523E-01  0.3348E-01
     -4.542  0.3632E-01  0.3653E-01
     -4.458  0.3601E-01  0.3955E-01
     -4.375  0.3509E-01  0.4249E-01
     -4.291  0.3590E-01  0.4550E-01
     -4.207  0.4050E-01  0.4890E-01
     -4.123  0.4754E-01  0.5288E-01
     -4.039  0.5296E-01  0.5732E-01
     -3.955  0.5477E-01  0.6192E-01
     -3.871  0.5473E-01  0.6651E-01
     -3.787  0.5491E-01  0.7111E-01
     -3.704  0.5491E-01  0.7572E-01
     -3.620  0.5290E-01  0.8016E-01
     -3.536  0.4893E-01  0.8426E-01
     -3.452  0.4657E-01  0.8816E-01
     -3.368  0.4913E-01  0.9228E-01
     -3.284  0.5446E-01  0.9685E-01
     -3.200  0.5640E-01  0.1016E+00
     -3.117  0.5138E-01  0.1059E+00
     -3.033  0.4168E-01  0.1094E+00
     -2.949  0.3226E-01  0.1121E+00
     -2.865  0.2634E-01  0.1143E+00
     -2.781  0.2488E-01  0.1164E+00
     -2.697  0.2779E-01  0.1187E+00
     -2.613  0.3354E-01  0.1215E+00
     -2.529  0.3827E-01  0.1247E+00
     -2.446  0.3762E-01  0.1279E+00
     -2.362  0.3037E-01  0.1304E+00
     -2.278  0.1957E-01  0.1321E+00
     -2.194  0.9824E-02  0.1329E+00
     -2.110  0.3782E-02  0.1332E+00
     -2.026  0.1288E-02  0.1333E+00
     -1.942  0.1391E-02  0.1334E+00
     -1.859  0.4529E-02  0.1338E+00
     -1.775  0.1247E-01  0.1349E+00
     -1.691  0.2507E-01  0.1370E+00
     -1.607  0.3698E-01  0.1401E+00
     -1.523  0.4125E-01  0.1435E+00
     -1.439  0.3764E-01  0.1467E+00
     -1.355  0.3388E-01  0.1495E+00
     -1.271  0.3770E-01  0.1527E+00
     -1.188  0.4988E-01  0.1569E+00
     -1.104  0.6475E-01  0.1623E+00
     -1.020  0.7567E-01  0.1687E+00
     -0.936  0.7993E-01  0.1754E+00
     -0.852  0.7762E-01  0.1819E+00
     -0.768  0.6893E-01  0.1877E+00
     -0.684  0.5680E-01  0.1924E+00
     -0.601  0.4789E-01  0.1964E+00
     -0.517  0.4555E-01  0.2003E+00
     -0.433  0.4465E-01  0.2040E+00
     -0.349  0.3849E-01  0.2072E+00
     -0.265  0.2852E-01  0.2096E+00
     -0.181  0.2239E-01  0.2115E+00
     -0.097  0.2424E-01  0.2135E+00
     -0.013  0.3127E-01  0.2162E+00
      0.070  0.3739E-01  0.2193E+00
      0.154  0.3764E-01  0.2224E+00
      0.238  0.3143E-01  0.2251E+00
      0.322  0.2289E-01  0.2270E+00
      0.406  0.1728E-01  0.2284E+00
      0.490  0.1745E-01  0.2299E+00
      0.574  0.2231E-01  0.2318E+00
      0.657  0.2698E-01  0.2340E+00
      0.741  0.2612E-01  0.2362E+00
      0.825  0.1948E-01  0.2379E+00
      0.909  0.1228E-01  0.2389E+00
      0.993  0.9380E-02  0.2397E+00
      1.077  0.1141E-01  0.2406E+00
      1.161  0.1688E-01  0.2421E+00
      1.244  0.2552E-01  0.2442E+00
      1.328  0.3728E-01  0.2473E+00
      1.412  0.4912E-01  0.2514E+00
      1.496  0.5653E-01  0.2562E+00
      1.580  0.5921E-01  0.2612E+00
      1.664  0.6176E-01  0.2663E+00
      1.748  0.6729E-01  0.2720E+00
      1.832  0.7354E-01  0.2781E+00
      1.915  0.7680E-01  0.2846E+00
      1.999  0.7645E-01  0.2910E+00
      2.083  0.7430E-01  0.2972E+00
      2.167  0.7209E-01  0.3033E+00
      2.251  0.7036E-01  0.3092E+00
      2.335  0.6907E-01  0.3150E+00
      2.419  0.6886E-01  0.3207E+00
      2.502  0.7134E-01  0.3267E+00
      2.586  0.7842E-01  0.3333E+00
      2.670  0.8952E-01  0.3408E+00
      2.754  0.9875E-01  0.3491E+00
      2.838  0.9985E-01  0.3575E+00
      2.922  0.9515E-01  0.3654E+00
      3.006  0.9309E-01  0.3733E+00
      3.090  0.9613E-01  0.3813E+00
      3.173  0.9806E-01  0.3895E+00
      3.257  0.9437E-01  0.3975E+00
      3.341  0.8951E-01  0.4050E+00
      3.425  0.9154E-01  0.4126E+00
      3.509  0.1005E+00  0.4211E+00
      3.593  0.1059E+00  0.4299E+00
      3.677  0.9906E-01  0.4383E+00
      3.760  0.8354E-01  0.4453E+00
      3.844  0.7141E-01  0.4513E+00
      3.928  0.7122E-01  0.4572E+00
      4.012  0.8083E-01  0.4640E+00
      4.096  0.9041E-01  0.4716E+00
      4.180  0.9154E-01  0.4793E+00
      4.264  0.8350E-01  0.4863E+00
      4.348  0.7173E-01  0.4923E+00
      4.431  0.6260E-01  0.4975E+00
      4.515  0.5921E-01  0.5025E+00
      4.599  0.5889E-01  0.5074E+00
      4.683  0.5512E-01  0.5121E+00
      4.767  0.4512E-01  0.5158E+00
      4.851  0.3379E-01  0.5187E+00
      4.935  0.2764E-01  0.5210E+00
      5.018  0.2738E-01  0.5233E+00
      5.102  0.2809E-01  0.5256E+00
      5.186  0.2544E-01  0.5278E+00
      5.270  0.1993E-01  0.5294E+00
      5.354  0.1469E-01  0.5307E+00
      5.438  0.1121E-01  0.5316E+00
      5.522  0.8655E-02  0.5323E+00
      5.606  0.6047E-02  0.5329E+00
      5.689  0.3474E-02  0.5331E+00
      5.773  0.1554E-02  0.5333E+00
      5.857  0.5266E-03  0.5333E+00
      5.941  0.1548E-03  0.5333E+00
      6.025  0.1773E-03  0.5333E+00
      6.109  0.7000E-03  0.5334E+00
      6.193  0.2274E-02  0.5336E+00
      6.276  0.5395E-02  0.5341E+00
      6.360  0.9511E-02  0.5348E+00
      6.444  0.1307E-01  0.5359E+00
      6.528  0.1549E-01  0.5372E+00
      6.612  0.1846E-01  0.5388E+00
      6.696  0.2381E-01  0.5408E+00
      6.780  0.3044E-01  0.5433E+00
      6.864  0.3518E-01  0.5463E+00
      6.947  0.3755E-01  0.5494E+00
      7.031  0.4059E-01  0.5528E+00
      7.115  0.4548E-01  0.5567E+00
      7.199  0.4938E-01  0.5608E+00
      7.283  0.5077E-01  0.5651E+00
      7.367  0.5227E-01  0.5694E+00
      7.451  0.5672E-01  0.5742E+00
      7.534  0.6476E-01  0.5796E+00
      7.618  0.7650E-01  0.5860E+00
      7.702  0.9178E-01  0.5937E+00
      7.786  0.1066E+00  0.6027E+00
      7.870  0.1131E+00  0.6122E+00
      7.954  0.1080E+00  0.6212E+00
      8.038  0.9691E-01  0.6294E+00
      8.122  0.8841E-01  0.6368E+00
      8.205  0.8608E-01  0.6440E+00
      8.289  0.8693E-01  0.6513E+00
      8.373  0.8499E-01  0.6584E+00
      8.457  0.7836E-01  0.6650E+00
      8.541  0.7179E-01  0.6710E+00
      8.625  0.7137E-01  0.6770E+00
      8.709  0.8081E-01  0.6838E+00
      8.792  0.1004E+00  0.6922E+00
      8.876  0.1234E+00  0.7025E+00
      8.960  0.1374E+00  0.7141E+00
      9.044  0.1354E+00  0.7254E+00
      9.128  0.1224E+00  0.7357E+00
      9.212  0.1097E+00  0.7449E+00
      9.296  0.1047E+00  0.7537E+00
      9.380  0.1055E+00  0.7625E+00
      9.463  0.1054E+00  0.7714E+00
      9.547  0.1007E+00  0.7798E+00
      9.631  0.9322E-01  0.7876E+00
      9.715  0.8773E-01  0.7950E+00
      9.799  0.8675E-01  0.8022E+00
      9.883  0.8760E-01  0.8096E+00
      9.967  0.8612E-01  0.8168E+00
     10.050  0.8266E-01  0.8237E+00
     10.134  0.8070E-01  0.8305E+00
     10.218  0.8146E-01  0.8373E+00
     10.302  0.8374E-01  0.8444E+00
     10.386  0.8749E-01  0.8517E+00
     10.470  0.9361E-01  0.8596E+00
     10.554  0.9964E-01  0.8679E+00
     10.638  0.9937E-01  0.8762E+00
     10.721  0.8976E-01  0.8838E+00
     10.805  0.7539E-01  0.8901E+00
     10.889  0.6366E-01  0.8954E+00
     10.973  0.5774E-01  0.9003E+00
     11.057  0.5626E-01  0.9050E+00
     11.141  0.5871E-01  0.9099E+00
     11.225  0.6738E-01  0.9156E+00
     11.308  0.8172E-01  0.9224E+00
     11.392  0.9549E-01  0.9304E+00
     11.476  0.1022E+00  0.9390E+00
     11.560  0.9949E-01  0.9474E+00
     11.644  0.8787E-01  0.9547E+00
     11.728  0.7032E-01  0.9606E+00
     11.812  0.5352E-01  0.9651E+00
     11.896  0.4464E-01  0.9689E+00
     11.979  0.4514E-01  0.9726E+00
     12.063  0.4906E-01  0.9768E+00
     12.147  0.4901E-01  0.9809E+00
     12.231  0.4395E-01  0.9845E+00
     12.315  0.3988E-01  0.9879E+00
     12.399  0.4397E-01  0.9916E+00
     12.483  0.5849E-01  0.9965E+00
     12.566  0.7710E-01  0.1003E+01
     12.650  0.8761E-01  0.1010E+01
     12.734  0.8192E-01  0.1017E+01
     12.818  0.6297E-01  0.1022E+01
     12.902  0.4129E-01  0.1026E+01
     12.986  0.2689E-01  0.1028E+01
     13.070  0.2354E-01  0.1030E+01
     13.154  0.2721E-01  0.1032E+01
     13.237  0.3067E-01  0.1035E+01
     13.321  0.3070E-01  0.1038E+01
     13.405  0.2938E-01  0.1040E+01
     13.489  0.2903E-01  0.1042E+01
     13.573  0.2970E-01  0.1045E+01
     13.657  0.3141E-01  0.1048E+01
     13.741  0.3461E-01  0.1050E+01
     13.824  0.3716E-01  0.1054E+01
     13.908  0.3449E-01  0.1057E+01
     13.992  0.2522E-01  0.1059E+01
     14.076  0.1383E-01  0.1060E+01
     14.160  0.5565E-02  0.1060E+01
     14.244  0.1706E-02  0.1060E+01
     14.328  0.8028E-03  0.1060E+01
     14.411  0.1671E-02  0.1061E+01
     14.495  0.4007E-02  0.1061E+01
     14.579  0.7074E-02  0.1062E+01
     14.663  0.9140E-02  0.1062E+01
     14.747  0.9239E-02  0.1063E+01
     14.831  0.8615E-02  0.1064E+01
     14.915  0.8767E-02  0.1065E+01
     14.999  0.9030E-02  0.1065E+01
     15.082  0.7796E-02  0.1066E+01
     15.166  0.5102E-02  0.1066E+01
     15.250  0.2448E-02  0.1067E+01
     15.334  0.8524E-03  0.1067E+01
     15.418  0.2143E-03  0.1067E+01
     15.502  0.3879E-04  0.1067E+01
     15.586  0.5039E-05  0.1067E+01
     15.669  0.4685E-06  0.1067E+01
     15.753  0.3111E-07  0.1067E+01
     15.837  0.1471E-08  0.1067E+01
     15.921  0.4950E-10  0.1067E+01
     16.005  0.1183E-11  0.1067E+01
     16.089  0.2003E-13  0.1067E+01
     16.173  0.2399E-15  0.1067E+01
     16.257  0.2068E-17  0.1067E+01
     16.340  0.0000E+00  0.1067E+01
     16.424  0.0000E+00  0.1067E+01
     16.508  0.0000E+00  0.1067E+01
     16.592  0.0000E+00  0.1067E+01
     16.676  0.0000E+00  0.1067E+01
     16.760  0.0000E+00  0.1067E+01
     16.844  0.0000E+00  0.1067E+01
     16.927  0.0000E+00  0.1067E+01
     17.011  0.0000E+00  0.1067E+01
