       N       E                     dE             d eps       ncg     rms          rms(c)
DAV:   1     0.982714294821E+00    0.98271E+00   -0.23745E+03   168   0.451E+02
DAV:   2    -0.108926622117E+02   -0.11875E+02   -0.11242E+02   264   0.634E+01
DAV:   3    -0.110004209650E+02   -0.10776E+00   -0.10776E+00   184   0.776E+00
DAV:   4    -0.110008342019E+02   -0.41324E-03   -0.41324E-03   272   0.555E-01
DAV:   5    -0.110008343167E+02   -0.11479E-06   -0.11371E-06   168   0.836E-03    0.300E+00
DAV:   6    -0.108763766253E+02    0.12446E+00   -0.81777E-02   184   0.149E+00    0.178E+00
DAV:   7    -0.108197680097E+02    0.56609E-01   -0.15037E-01   200   0.215E+00    0.153E-01
DAV:   8    -0.108210757976E+02   -0.13078E-02   -0.39583E-03   160   0.468E-01    0.250E-02
DAV:   9    -0.108211696704E+02   -0.93873E-04   -0.96096E-05   128   0.776E-02
   1 F= -.10821170E+02 E0= -.10821168E+02  d E =-.108212E+02
