unknown system                          
   1.00000000000000     
     0.000000    2.761434    2.761434
     2.761434    0.000000    2.761434
     2.761434    2.761434    0.000000
   Si
     2
Direct
  0.500000  0.500000  0.500000
  0.750000  0.750000  0.750000
 
   36   36   36
 0.82757     0.84309     0.89074     0.97363      1.0965      1.2652      1.4863      1.7662      2.1105      2.5226    
  3.0016      3.5401      4.1214      4.7184      5.2945      5.8071      6.2124      6.4728      6.5626      6.4727    
  6.2124      5.8071      5.2946      4.7185      4.1215      3.5402      3.0017      2.5226      2.1105      1.7662    
  1.4863      1.2652      1.0965     0.97363     0.89074     0.84309     0.84309     0.87016     0.92605      1.0141    
  1.1387      1.3050      1.5184      1.7836      2.1038      2.4795      2.9065      3.3743      3.8647      4.3515    
  4.8022      5.1817      5.4567      5.6012      5.6012      5.4567      5.1817      4.8023      4.3516      3.8648    
  3.3744      2.9065      2.4794      2.1037      1.7835      1.5184      1.3050      1.1387      1.0141     0.92605    
 0.87016     0.84309     0.89074     0.92605     0.98725      1.0776      1.2011      1.3621      1.5647      1.8121    
  2.1054      2.4425      2.8167      3.2159      3.6214      4.0093      4.3520      4.6218      4.7945      4.8541    
  4.7945      4.6218      4.3520      4.0093      3.6214      3.2159      2.8167      2.4424      2.1053      1.8121    
  1.5647      1.3621      1.2011      1.0776     0.98724     0.92604     0.89073     0.87921     0.97363      1.0141    
  1.0776      1.1672      1.2866      1.4392      1.6280      1.8547      2.1185      2.4155      2.7375      3.0715    
  3.3999      3.7016      3.9541      4.1364      4.2320      4.2320      4.1364      3.9541      3.7016      3.3999    
  3.0715      2.7375      2.4155      2.1185      1.8547      1.6280      1.4392      1.2866      1.1672      1.0776    
  1.0141     0.97361     0.95399     0.95400      1.0965      1.1387      1.2011      1.2866      1.3983      1.5390    
  1.7106      1.9135      2.1455      2.4014      2.6723      2.9455      3.2052      3.4333      3.6123      3.7266    
  3.7659      3.7266      3.6123      3.4333      3.2051      2.9455      2.6723      2.4013      2.1454      1.9135    
  1.7107      1.5390      1.3983      1.2866      1.2011      1.1387      1.0965      1.0722      1.0643      1.0722    
  1.2652      1.3050      1.3621      1.4392      1.5390      1.6636      1.8141      1.9897      2.1874      2.4014    
  2.6228      2.8400      3.0390      3.2053      3.3253      3.3882      3.3882      3.3253      3.2053      3.0390    
  2.8399      2.6228      2.4014      2.1874      1.9897      1.8141      1.6637      1.5391      1.4392      1.3621    
  1.3050      1.2652      1.2403      1.2283      1.2283      1.2403      1.4863      1.5184      1.5647      1.6280    
  1.7106      1.8141      1.9388      2.0833      2.2441      2.4155      2.5893      2.7550      2.9011      3.0160    
  3.0896      3.1149      3.0896      3.0160      2.9011      2.7550      2.5892      2.4155      2.2441      2.0833    
  1.9388      1.8141      1.7107      1.6280      1.5647      1.5184      1.4863      1.4658      1.4545      1.4509    
  1.4545      1.4658      1.7662      1.7836      1.8121      1.8547      1.9135      1.9897      2.0833      2.1925    
  2.3141      2.4425      2.5705      2.6893      2.7897      2.8626      2.9010      2.9010      2.8626      2.7897    
  2.6893      2.5705      2.4425      2.3141      2.1926      2.0833      1.9897      1.9135      1.8547      1.8121    
  1.7835      1.7662      1.7569      1.7527      1.7512      1.7512      1.7527      1.7569      2.1105      2.1038    
  2.1054      2.1185      2.1455      2.1874      2.2441      2.3141      2.3941      2.4795      2.5641      2.6408    
  2.7024      2.7424      2.7562      2.7424      2.7024      2.6408      2.5641      2.4795      2.3941      2.3141    
  2.2441      2.1874      2.1454      2.1185      2.1053      2.1038      2.1105      2.1217      2.1333      2.1420    
  2.1452      2.1420      2.1333      2.1217      2.5226      2.4795      2.4425      2.4155      2.4014      2.4014    
  2.4155      2.4425      2.4795      2.5226      2.5668      2.6068      2.6371      2.6534      2.6534      2.6371    
  2.6068      2.5669      2.5226      2.4794      2.4424      2.4155      2.4013      2.4013      2.4155      2.4424    
  2.4794      2.5226      2.5669      2.6068      2.6371      2.6534      2.6534      2.6371      2.6068      2.5668    
  3.0016      2.9065      2.8167      2.7375      2.6723      2.6228      2.5893      2.5705      2.5641      2.5668    
  2.5750      2.5844      2.5918      2.5945      2.5918      2.5845      2.5750      2.5668      2.5640      2.5704    
  2.5892      2.6227      2.6722      2.7375      2.8167      2.9065      3.0017      3.0956      3.1807      3.2488    
  3.2930      3.3083      3.2930      3.2488      3.1806      3.0956      3.5401      3.3743      3.2159      3.0715    
  2.9455      2.8400      2.7550      2.6893      2.6408      2.6068      2.5844      2.5712      2.5652      2.5652    
  2.5712      2.5845      2.6068      2.6408      2.6892      2.7549      2.8399      2.9455      3.0715      3.2159    
  3.3744      3.5402      3.7045      3.8564      3.9843      4.0770      4.1259      4.1259      4.0770      3.9842    
  3.8563      3.7044      4.1214      3.8647      3.6214      3.3999      3.2052      3.0390      2.9011      2.7897    
  2.7024      2.6371      2.5918      2.5652      2.5564      2.5652      2.5918      2.6370      2.7023      2.7896    
  2.9010      3.0389      3.2051      3.4000      3.6215      3.8648      4.1215      4.3797      4.6247      4.8398    
  5.0085      5.1163      5.1535      5.1164      5.0085      4.8398      4.6247      4.3797      4.7184      4.3515    
  4.0093      3.7016      3.4333      3.2053      3.0160      2.8626      2.7424      2.6534      2.5945      2.5652    
  2.5652      2.5945      2.6534      2.7423      2.8624      3.0159      3.2053      3.4333      3.7017      4.0094    
  4.3516      4.7184      5.0951      5.4619      5.7960      6.0739      6.2735      6.3780      6.3780      6.2735    
  6.0739      5.7961      5.4619      5.0950      5.2945      4.8022      4.3520      3.9541      3.6123      3.3253    
  3.0896      2.9010      2.7562      2.6534      2.5918      2.5712      2.5918      2.6534      2.7561      2.9008    
  3.0894      3.3252      3.6123      3.9542      4.3521      4.8023      5.2946      5.8113      6.3279      6.8143    
  7.2383      7.5685      7.7785      7.8505      7.7785      7.5685      7.2383      6.8144      6.3279      5.8113    
  5.8071      5.1817      4.6218      4.1364      3.7266      3.3882      3.1149      2.9010      2.7424      2.6371    
  2.5845      2.5845      2.6370      2.7423      2.9008      3.1148      3.3881      3.7266      4.1365      4.6218    
  5.1817      5.8070      6.4788      7.1680      7.8372      8.4445      8.9473      9.3072      9.4951      9.4951    
  9.3072      8.9473      8.4446      7.8373      7.1680      6.4788      6.2124      5.4567      4.7945      4.2320    
  3.7659      3.3882      3.0896      2.8626      2.7024      2.6068      2.5750      2.6068      2.7023      2.8624    
  3.0894      3.3881      3.7660      4.2321      4.7946      5.4566      6.2123      7.0433      7.9180      8.7927    
  9.6159      10.333      10.890      11.245      11.366      11.245      10.890      10.333      9.6159      8.7928    
  7.9180      7.0434      6.4728      5.6012      4.8541      4.2320      3.7266      3.3253      3.0160      2.7897    
  2.6408      2.5669      2.5668      2.6408      2.7896      3.0159      3.3252      3.7266      4.2321      4.8541    
  5.6012      6.4727      7.4536      8.5126      9.6024      10.663      11.629      12.431      13.007      13.309    
  13.309      13.007      12.431      11.629      10.663      9.6024      8.5127      7.4537      6.5626      5.6012    
  4.7945      4.1364      3.6123      3.2053      2.9011      2.6893      2.5641      2.5226      2.5640      2.6892    
  2.9010      3.2053      3.6123      4.1365      4.7946      5.6012      6.5625      7.6698      8.8953      10.192    
  11.496      12.731      13.816      14.667      15.213      15.400      15.212      14.667      13.815      12.731    
  11.496      10.192      8.8954      7.6699      6.4727      5.4567      4.6218      3.9541      3.4333      3.0390    
  2.7550      2.5705      2.4795      2.4794      2.5704      2.7549      3.0389      3.4333      3.9542      4.6218    
  5.4566      6.4727      7.6698      9.0275      10.503      12.032      13.537      14.923      16.091      16.936    
  17.378      17.378      16.935      16.091      14.923      13.536      12.032      10.503      9.0275      7.6698    
  6.2124      5.1817      4.3520      3.7016      3.2051      2.8399      2.5892      2.4425      2.3941      2.4424    
  2.5892      2.8399      3.2051      3.7017      4.3521      5.1817      6.2123      7.4536      8.8953      10.503    
  12.218      13.963      15.642      17.137      18.313      19.064      19.323      19.064      18.313      17.136    
  15.642      13.963      12.218      10.503      8.8953      7.4537      5.8071      4.8023      4.0093      3.3999    
  2.9455      2.6228      2.4155      2.3141      2.3141      2.4155      2.6227      2.9455      3.4000      4.0094    
  4.8023      5.8070      7.0433      8.5126      10.192      12.032      13.963      15.891      17.690      19.203    
  20.296      20.869      20.869      20.296      19.203      17.690      15.891      13.963      12.032      10.192    
  8.5126      7.0433      5.2946      4.3516      3.6214      3.0715      2.6723      2.4014      2.2441      2.1926    
  2.2441      2.4013      2.6722      3.0715      3.6215      4.3516      5.2946      6.4788      7.9180      9.6024    
  11.496      13.537      15.642      17.690      19.511      20.947      21.868      22.185      21.868      20.947    
  19.511      17.690      15.642      13.537      11.496      9.6023      7.9180      6.4788      4.7185      3.8648    
  3.2159      2.7375      2.4013      2.1874      2.0833      2.0833      2.1874      2.4013      2.7375      3.2159    
  3.8648      4.7184      5.8113      7.1680      8.7927      10.663      12.731      14.923      17.137      19.203    
  20.947      22.213      22.881      22.881      22.214      20.947      19.203      17.136      14.923      12.731    
  10.663      8.7927      7.1680      5.8113      4.1215      3.3744      2.8167      2.4155      2.1454      1.9897    
  1.9388      1.9897      2.1454      2.4155      2.8167      3.3744      4.1215      5.0951      6.3279      7.8372    
  9.6159      11.629      13.816      16.091      18.313      20.296      21.868      22.881      23.232      22.881    
  21.868      20.296      18.313      16.091      13.815      11.629      9.6159      7.8372      6.3279      5.0951    
  3.5402      2.9065      2.4424      2.1185      1.9135      1.8141      1.8141      1.9135      2.1185      2.4424    
  2.9065      3.5402      4.3797      5.4619      6.8143      8.4445      10.333      12.431      14.667      16.936    
  19.064      20.869      22.185      22.881      22.881      22.185      20.869      19.064      16.936      14.667    
  12.431      10.333      8.4445      6.8144      5.4619      4.3798      3.0017      2.4794      2.1053      1.8547    
  1.7107      1.6637      1.7107      1.8547      2.1053      2.4794      3.0017      3.7045      4.6247      5.7960    
  7.2383      8.9473      10.890      13.007      15.213      17.378      19.323      20.869      21.868      22.214    
  21.868      20.869      19.323      17.379      15.213      13.007      10.890      8.9472      7.2383      5.7961    
  4.6248      3.7045      2.5226      2.1037      1.8121      1.6280      1.5390      1.5391      1.6280      1.8121    
  2.1038      2.5226      3.0956      3.8564      4.8398      6.0739      7.5685      9.3072      11.245      13.309    
  15.400      17.378      19.064      20.296      20.947      20.947      20.296      19.064      17.379      15.400    
  13.309      11.245      9.3072      7.5685      6.0740      4.8399      3.8564      3.0957      2.1105      1.7835    
  1.5647      1.4392      1.3983      1.4392      1.5647      1.7835      2.1105      2.5669      3.1807      3.9843    
  5.0085      6.2735      7.7785      9.4951      11.366      13.309      15.212      16.935      18.313      19.203    
  19.511      19.203      18.313      16.936      15.213      13.309      11.366      9.4950      7.7784      6.2736    
  5.0086      3.9844      3.1807      2.5669      1.7662      1.5184      1.3621      1.2866      1.2866      1.3621    
  1.5184      1.7662      2.1217      2.6068      3.2488      4.0770      5.1163      6.3780      7.8505      9.4951    
  11.245      13.007      14.667      16.091      17.136      17.690      17.690      17.136      16.091      14.667    
  13.007      11.245      9.4950      7.8505      6.3780      5.1165      4.0771      3.2489      2.6068      2.1216    
  1.4863      1.3050      1.2011      1.1672      1.2011      1.3050      1.4863      1.7569      2.1333      2.6371    
  3.2930      4.1259      5.1535      6.3780      7.7785      9.3072      10.890      12.431      13.815      14.923    
  15.642      15.891      15.642      14.923      13.815      12.431      10.890      9.3072      7.7784      6.3780    
  5.1536      4.1260      3.2931      2.6371      2.1333      1.7569      1.2652      1.1387      1.0776      1.0776    
  1.1387      1.2652      1.4658      1.7527      2.1420      2.6534      3.3083      4.1259      5.1164      6.2735    
  7.5685      8.9473      10.333      11.629      12.731      13.536      13.963      13.963      13.537      12.731    
  11.629      10.333      8.9472      7.5685      6.2736      5.1165      4.1260      3.3084      2.6534      2.1420    
  1.7526      1.4658      1.0965      1.0141     0.98724      1.0141      1.0965      1.2403      1.4545      1.7512    
  2.1452      2.6534      3.2930      4.0770      5.0085      6.0739      7.2383      8.4446      9.6159      10.663    
  11.496      12.032      12.218      12.032      11.496      10.663      9.6159      8.4445      7.2383      6.0740    
  5.0086      4.0771      3.2931      2.6534      2.1451      1.7512      1.4545      1.2403     0.97363     0.92605    
 0.92604     0.97361      1.0722      1.2283      1.4509      1.7512      2.1420      2.6371      3.2488      3.9842    
  4.8398      5.7961      6.8144      7.8373      8.7928      9.6024      10.192      10.503      10.503      10.192    
  9.6023      8.7927      7.8372      6.8144      5.7961      4.8399      3.9844      3.2489      2.6371      2.1420    
  1.7512      1.4509      1.2283      1.0722     0.89074     0.87016     0.89073     0.95399      1.0643      1.2283    
  1.4545      1.7527      2.1333      2.6068      3.1806      3.8563      4.6247      5.4619      6.3279      7.1680    
  7.9180      8.5127      8.8954      9.0275      8.8953      8.5126      7.9180      7.1680      6.3279      5.4619    
  4.6248      3.8564      3.1807      2.6068      2.1333      1.7526      1.4545      1.2283      1.0643     0.95401    
 0.84309     0.84309     0.87921     0.95400      1.0722      1.2403      1.4658      1.7569      2.1217      2.5668    
  3.0956      3.7044      4.3797      5.0950      5.8113      6.4788      7.0434      7.4537      7.6699      7.6698    
  7.4537      7.0433      6.4788      5.8113      5.0951      4.3798      3.7045      3.0957      2.5669      2.1216    
  1.7569      1.4658      1.2403      1.0722     0.95401     0.87922     0.84309     0.87016     0.92605      1.0141    
  1.1387      1.3050      1.5184      1.7836      2.1038      2.4795      2.9065      3.3743      3.8647      4.3515    
  4.8022      5.1817      5.4567      5.6012      5.6012      5.4567      5.1817      4.8023      4.3516      3.8648    
  3.3744      2.9065      2.4794      2.1037      1.7835      1.5184      1.3050      1.1387      1.0141     0.92605    
 0.87016     0.84309     0.87016     0.90495     0.96515      1.0539      1.1751      1.3330      1.5319      1.7747    
  2.0628      2.3941      2.7622      3.1548      3.5536      3.9350      4.2719      4.5369      4.7066      4.7651    
  4.7066      4.5369      4.2719      3.9351      3.5537      3.1548      2.7622      2.3941      2.0627      1.7747    
  1.5318      1.3330      1.1751      1.0539     0.96515     0.90494     0.87015     0.85879     0.92605     0.96515    
  1.0264      1.1125      1.2271      1.3736      1.5549      1.7730      2.0274      2.3141      2.6251      2.9478    
  3.2649      3.5561      3.7995      3.9750      4.0671      4.0671      3.9750      3.7995      3.5561      3.2650    
  2.9478      2.6251      2.3140      2.0273      1.7730      1.5549      1.3736      1.2271      1.1126      1.0264    
 0.96514     0.92604     0.90702     0.90703      1.0141      1.0539      1.1125      1.1927      1.2973      1.4292    
  1.5906      1.7820      2.0015      2.2441      2.5011      2.7603      3.0061      3.2219      3.3908      3.4986    
  3.5357      3.4986      3.3908      3.2219      3.0061      2.7602      2.5011      2.2441      2.0015      1.7819    
  1.5906      1.4292      1.2973      1.1927      1.1126      1.0539      1.0141     0.99101     0.98348     0.99102    
  1.1387      1.1751      1.2271      1.2973      1.3883      1.5025      1.6412      1.8039      1.9879      2.1874    
  2.3939      2.5961      2.7810      2.9351      3.0460      3.1040      3.1040      3.0460      2.9351      2.7810    
  2.5961      2.3938      2.1874      1.9879      1.8039      1.6412      1.5025      1.3883      1.2973      1.2271    
  1.1751      1.1387      1.1157      1.1046      1.1046      1.1157      1.3050      1.3330      1.3736      1.4292    
  1.5025      1.5953      1.7083      1.8402      1.9879      2.1455      2.3051      2.4570      2.5904      2.6950    
  2.7618      2.7847      2.7618      2.6950      2.5904      2.4569      2.3051      2.1455      1.9879      1.8403    
  1.7083      1.5954      1.5025      1.4292      1.3735      1.3330      1.3050      1.2870      1.2770      1.2739    
  1.2770      1.2870      1.5184      1.5319      1.5549      1.5906      1.6412      1.7083      1.7920      1.8909    
  2.0015      2.1185      2.2350      2.3428      2.4334      2.4990      2.5334      2.5334      2.4990      2.4334    
  2.3428      2.2350      2.1185      2.0015      1.8909      1.7920      1.7083      1.6412      1.5906      1.5549    
  1.5318      1.5184      1.5116      1.5088      1.5079      1.5079      1.5088      1.5116      1.7836      1.7747    
  1.7730      1.7820      1.8039      1.8402      1.8909      1.9543      2.0274      2.1054      2.1825      2.2523    
  2.3079      2.3440      2.3564      2.3440      2.3080      2.2523      2.1825      2.1054      2.0274      1.9543    
  1.8909      1.8402      1.8039      1.7819      1.7730      1.7747      1.7836      1.7960      1.8082      1.8169    
  1.8201      1.8169      1.8081      1.7960      2.1038      2.0628      2.0274      2.0015      1.9879      1.9879    
  2.0015      2.0274      2.0628      2.1038      2.1457      2.1833      2.2116      2.2269      2.2269      2.2116    
  2.1833      2.1457      2.1038      2.0627      2.0273      2.0015      1.9878      1.9878      2.0015      2.0273    
  2.0627      2.1038      2.1457      2.1833      2.2116      2.2269      2.2269      2.2116      2.1833      2.1457    
  2.4795      2.3941      2.3141      2.2441      2.1874      2.1455      2.1185      2.1054      2.1038      2.1105    
  2.1217      2.1333      2.1420      2.1452      2.1420      2.1333      2.1217      2.1105      2.1038      2.1053    
  2.1185      2.1454      2.1874      2.2441      2.3141      2.3941      2.4795      2.5641      2.6408      2.7024    
  2.7424      2.7562      2.7424      2.7024      2.6408      2.5641      2.9065      2.7622      2.6251      2.5011    
  2.3939      2.3051      2.2350      2.1825      2.1457      2.1217      2.1074      2.1000      2.0969      2.0970    
  2.1000      2.1074      2.1216      2.1456      2.1825      2.2349      2.3050      2.3939      2.5012      2.6252    
  2.7622      2.9065      3.0503      3.1839      3.2970      3.3792      3.4226      3.4226      3.3792      3.2969    
  3.1839      3.0503      3.3743      3.1548      2.9478      2.7603      2.5961      2.4570      2.3428      2.2523    
  2.1833      2.1333      2.1000      2.0810      2.0749      2.0810      2.1000      2.1333      2.1832      2.2522    
  2.3427      2.4569      2.5961      2.7603      2.9479      3.1548      3.3744      3.5967      3.8090      3.9968    
  4.1449      4.2399      4.2727      4.2399      4.1449      3.9968      3.8090      3.5966      3.8647      3.5536    
  3.2649      3.0061      2.7810      2.5904      2.4334      2.3079      2.2116      2.1420      2.0969      2.0749    
  2.0749      2.0969      2.1420      2.2115      2.3079      2.4334      2.5904      2.7810      3.0062      3.2650    
  3.5537      3.8648      4.1864      4.5023      4.7928      5.0364      5.2126      5.3052      5.3052      5.2126    
  5.0364      4.7928      4.5023      4.1863      4.3515      3.9350      3.5561      3.2219      2.9351      2.6950    
  2.4990      2.3440      2.2269      2.1452      2.0970      2.0810      2.0969      2.1451      2.2268      2.3439    
  2.4989      2.6950      2.9352      3.2220      3.5561      3.9351      4.3515      4.7922      5.2372      5.6610    
  6.0346      6.3284      6.5165      6.5813      6.5165      6.3284      6.0347      5.6611      5.2371      4.7921    
  4.8022      4.2719      3.7995      3.3908      3.0460      2.7618      2.5334      2.3564      2.2269      2.1420    
  2.1000      2.1000      2.1420      2.2268      2.3563      2.5334      2.7618      3.0460      3.3909      3.7995    
  4.2719      4.8023      5.3770      5.9735      6.5606      7.1006      7.5531      7.8800      8.0516      8.0516    
  7.8800      7.5531      7.1006      6.5606      5.9735      5.3770      5.1817      4.5369      3.9750      3.4986    
  3.1040      2.7847      2.5334      2.3440      2.2116      2.1333      2.1074      2.1333      2.2115      2.3439    
  2.5334      2.7847      3.1041      3.4987      3.9751      4.5369      5.1817      5.8974      6.6604      7.4349    
  8.1749      8.8280      9.3418      9.6708      9.7842      9.6708      9.3418      8.8280      8.1749      7.4349    
  6.6604      5.8974      5.4567      4.7066      4.0671      3.5357      3.1040      2.7618      2.4990      2.3080    
  2.1833      2.1217      2.1216      2.1832      2.3079      2.4989      2.7618      3.1041      3.5357      4.0671    
  4.7066      5.4567      6.3091      7.2419      8.2170      9.1816      10.072      10.821      11.362      11.647    
  11.647      11.362      10.820      10.072      9.1816      8.2169      7.2419      6.3091      5.6012      4.7651    
  4.0671      3.4986      3.0460      2.6950      2.4334      2.2523      2.1457      2.1105      2.1456      2.2522    
  2.4334      2.6950      3.0460      3.4987      4.0671      4.7651      5.6012      6.5737      7.6649      8.8380    
  10.037      11.189      12.212      13.021      13.541      13.721      13.541      13.021      12.212      11.189    
  10.037      8.8379      7.6648      6.5737      5.6012      4.7066      3.9750      3.3908      2.9351      2.5904    
  2.3428      2.1825      2.1038      2.1038      2.1825      2.3427      2.5904      2.9352      3.3909      3.9751    
  4.7066      5.6012      6.6650      7.8878      9.2380      10.661      12.080      13.401      14.521      15.337    
  15.769      15.769      15.337      14.520      13.401      12.080      10.661      9.2380      7.8877      6.6650    
  5.4567      4.5369      3.7995      3.2219      2.7810      2.4569      2.2350      2.1054      2.0627      2.1053    
  2.2349      2.4569      2.7810      3.2220      3.7995      4.5369      5.4567      6.5737      7.8878      9.3762    
  10.990      12.656      14.273      15.724      16.884      17.636      17.897      17.636      16.884      15.724    
  14.273      12.655      10.990      9.3761      7.8877      6.5737      5.1817      4.2719      3.5561      3.0061    
  2.5961      2.3051      2.1185      2.0274      2.0273      2.1185      2.3050      2.5961      3.0062      3.5561    
  4.2719      5.1817      6.3091      7.6649      9.2380      10.990      12.855      14.735      16.507      18.028    
  19.149      19.745      19.745      19.149      18.028      16.506      14.734      12.855      10.990      9.2379    
  7.6648      6.3091      4.8023      3.9351      3.2650      2.7602      2.3938      2.1455      2.0015      1.9543    
  2.0015      2.1454      2.3939      2.7603      3.2650      3.9351      4.8023      5.8974      7.2419      8.8380    
  10.661      12.656      14.735      16.778      18.637      20.137      21.113      21.452      21.113      20.137    
  18.637      16.778      14.734      12.655      10.661      8.8379      7.2419      5.8974      4.3516      3.5537    
  2.9478      2.5011      2.1874      1.9879      1.8909      1.8909      1.9878      2.1874      2.5012      2.9479    
  3.5537      4.3515      5.3770      6.6604      8.2170      10.037      12.080      14.273      16.507      18.637    
  20.481      21.842      22.567      22.567      21.842      20.481      18.637      16.507      14.273      12.080    
  10.037      8.2169      6.6604      5.3770      3.8648      3.1548      2.6251      2.2441      1.9879      1.8403    
  1.7920      1.8402      1.9878      2.2441      2.6252      3.1548      3.8648      4.7922      5.9735      7.4349    
  9.1816      11.189      13.401      15.724      18.028      20.137      21.842      22.954      23.341      22.955    
  21.843      20.137      18.028      15.724      13.401      11.189      9.1815      7.4349      5.9735      4.7922    
  3.3744      2.7622      2.3140      2.0015      1.8039      1.7083      1.7083      1.8039      2.0015      2.3141    
  2.7622      3.3744      4.1864      5.2372      6.5606      8.1749      10.072      12.212      14.521      16.884    
  19.149      21.113      22.567      23.341      23.341      22.567      21.113      19.149      16.884      14.521    
  12.212      10.072      8.1749      6.5607      5.2372      4.1864      2.9065      2.3941      2.0273      1.7819    
  1.6412      1.5954      1.6412      1.7819      2.0273      2.3941      2.9065      3.5967      4.5023      5.6610    
  7.1006      8.8280      10.821      13.021      15.337      17.636      19.745      21.452      22.567      22.955    
  22.567      21.452      19.745      17.637      15.337      13.021      10.820      8.8280      7.1007      5.6612    
  4.5024      3.5967      2.4794      2.0627      1.7730      1.5906      1.5025      1.5025      1.5906      1.7730    
  2.0627      2.4795      3.0503      3.8090      4.7928      6.0346      7.5531      9.3418      11.362      13.541    
  15.769      17.897      19.745      21.113      21.842      21.843      21.113      19.745      17.898      15.769    
  13.541      11.362      9.3418      7.5531      6.0348      4.7929      3.8091      3.0503      2.1037      1.7747    
  1.5549      1.4292      1.3883      1.4292      1.5549      1.7747      2.1038      2.5641      3.1839      3.9968    
  5.0364      6.3284      7.8800      9.6708      11.647      13.721      15.769      17.636      19.149      20.137    
  20.481      20.137      19.149      17.637      15.769      13.721      11.647      9.6708      7.8801      6.3285    
  5.0365      3.9969      3.1839      2.5640      1.7835      1.5318      1.3736      1.2973      1.2973      1.3735    
  1.5318      1.7836      2.1457      2.6408      3.2970      4.1449      5.2126      6.5165      8.0516      9.7842    
  11.647      13.541      15.337      16.884      18.028      18.637      18.637      18.028      16.884      15.337    
  13.541      11.647      9.7842      8.0517      6.5166      5.2127      4.1450      3.2970      2.6408      2.1456    
  1.5184      1.3330      1.2271      1.1927      1.2271      1.3330      1.5184      1.7960      2.1833      2.7024    
  3.3792      4.2399      5.3052      6.5813      8.0516      9.6708      11.362      13.021      14.520      15.724    
  16.506      16.778      16.507      15.724      14.521      13.021      11.362      9.6708      8.0517      6.5814    
  5.3053      4.2400      3.3792      2.7024      2.1832      1.7959      1.3050      1.1751      1.1126      1.1126    
  1.1751      1.3050      1.5116      1.8082      2.2116      2.7424      3.4226      4.2727      5.3052      6.5165    
  7.8800      9.3418      10.820      12.212      13.401      14.273      14.734      14.734      14.273      13.401    
  12.212      10.820      9.3418      7.8801      6.5166      5.3053      4.2728      3.4226      2.7423      2.2116    
  1.8081      1.5116      1.1387      1.0539      1.0264      1.0539      1.1387      1.2870      1.5088      1.8169    
  2.2269      2.7562      3.4226      4.2399      5.2126      6.3284      7.5531      8.8280      10.072      11.189    
  12.080      12.655      12.855      12.655      12.080      11.189      10.072      8.8280      7.5531      6.3285    
  5.2127      4.2400      3.4226      2.7562      2.2268      1.8169      1.5088      1.2870      1.0141     0.96515    