unknown system                          
   1.00000000000000     
     0.000000    2.761434    2.761434
     2.761434    0.000000    2.761434
     2.761434    2.761434    0.000000
   Si
     2
Direct
  0.500000  0.500000  0.500000
  0.750000  0.750000  0.750000
 
   36   36   36
 0.82756936145E+00 0.84309084688E+00 0.89074081453E+00 0.97362625861E+00 0.10964984865E+01
 0.12652416657E+01 0.14863256991E+01 0.17662062549E+01 0.21104878266E+01 0.25225749476E+01
 0.30016486546E+01 0.35401492621E+01 0.41214065038E+01 0.47183937896E+01 0.52945423511E+01
 0.58070524399E+01 0.62123667894E+01 0.64727578806E+01 0.65625813205E+01 0.64727495459E+01
 0.62123573749E+01 0.58070582588E+01 0.52945819198E+01 0.47184712269E+01 0.41215015853E+01
 0.35402276418E+01 0.30016848665E+01 0.25225675474E+01 0.21104552129E+01 0.17661709431E+01
 0.14863014905E+01 0.12652310297E+01 0.10964973563E+01 0.97362948232E+00 0.89074473322E+00
 0.84309332516E+00 0.84309084688E+00 0.87016134667E+00 0.92605225625E+00 0.10140636014E+01
 0.11386663379E+01 0.13050186373E+01 0.15184096211E+01 0.17835813578E+01 0.21037903382E+01
 0.24794671437E+01 0.29064839589E+01 0.33743205031E+01 0.38647117995E+01 0.43514974936E+01
 0.48022355603E+01 0.51816843512E+01 0.54566560991E+01 0.56012477796E+01 0.56012485610E+01
 0.54566599309E+01 0.51816982221E+01 0.48022706038E+01 0.43515558573E+01 0.38647757191E+01
 0.33743614942E+01 0.29064850781E+01 0.24794342441E+01 0.21037435202E+01 0.17835401294E+01
 0.15183846758E+01 0.13050106760E+01 0.11386683391E+01 0.10140661349E+01 0.92605018399E+00
 0.87015647112E+00 0.84308834328E+00 0.89074081453E+00 0.92605225625E+00 0.98724560149E+00
 0.10775711098E+01 0.12010657197E+01 0.13620871244E+01 0.15647379487E+01 0.18121270392E+01
 0.21053922671E+01 0.24424687551E+01 0.28167386486E+01 0.32158870823E+01 0.36214229570E+01
 0.40093182696E+01 0.43520251965E+01 0.46217636691E+01 0.47945438907E+01 0.48540647941E+01
 0.47945477266E+01 0.46217739830E+01 0.43520458940E+01 0.40093476701E+01 0.36214476738E+01
 0.32158885233E+01 0.28167089737E+01 0.24424180809E+01 0.21053396574E+01 0.18120877878E+01
 0.15647188855E+01 0.13620873202E+01 0.12010768981E+01 0.10775805965E+01 0.98724450754E+00
 0.92604213175E+00 0.89073140030E+00 0.87920846802E+00 0.97362625861E+00 0.10140636014E+01
 0.10775711098E+01 0.11672295761E+01 0.12865877894E+01 0.14391994533E+01 0.16280283664E+01
 0.18546887840E+01 0.21185140984E+01 0.24155300845E+01 0.27375274622E+01 0.30715241334E+01
 0.33999283278E+01 0.37016385229E+01 0.39541404293E+01 0.41363957542E+01 0.42320182761E+01
 0.42320181829E+01 0.41363970671E+01 0.39541447399E+01 0.37016419016E+01 0.33999211209E+01
 0.30714984744E+01 0.27374853626E+01 0.24154831361E+01 0.21184756291E+01 0.18546673788E+01
 0.16280269044E+01 0.14392155129E+01 0.12866125033E+01 0.11672494957E+01 0.10775760013E+01
 0.10140538694E+01 0.97361222474E+00 0.95399351961E+00 0.95399989486E+00 0.10964984865E+01
 0.11386663379E+01 0.12010657197E+01 0.12865877894E+01 0.13983075585E+01 0.15390164420E+01
 0.17106294120E+01 0.19134668309E+01 0.21454561652E+01 0.24013699798E+01 0.26722907912E+01
 0.29455256291E+01 0.32051583747E+01 0.34333372537E+01 0.36122564664E+01 0.37265935347E+01
 0.37659359633E+01 0.37265905257E+01 0.36122516260E+01 0.34333277453E+01 0.32051380934E+01
 0.29454938018E+01 0.26722564066E+01 0.24013450846E+01 0.21454472472E+01 0.19134742879E+01
 0.17106515215E+01 0.15390494139E+01 0.13983426481E+01 0.12866131225E+01 0.12010735336E+01
 0.11386582355E+01 0.10964837416E+01 0.10722061957E+01 0.10642953412E+01 0.10722168861E+01
 0.12652416657E+01 0.13050186373E+01 0.13620871244E+01 0.14391994533E+01 0.15390164420E+01
 0.16636467402E+01 0.18141002414E+01 0.19896802887E+01 0.21873767760E+01 0.24013699124E+01
 0.26227987700E+01 0.28399545802E+01 0.30390131593E+01 0.32053397659E+01 0.33252807825E+01
 0.33881810219E+01 0.33881795948E+01 0.33252763348E+01 0.32053303409E+01 0.30389957373E+01
 0.28399316093E+01 0.26227811036E+01 0.24013688012E+01 0.21873945682E+01 0.19897116332E+01
 0.18141390277E+01 0.16636873225E+01 0.15390505799E+01 0.14392185310E+01 0.13620886718E+01
 0.13050080381E+01 0.12652273636E+01 0.12402817525E+01 0.12283121013E+01 0.12283162865E+01
 0.12402929833E+01 0.14863256991E+01 0.15184096211E+01 0.15647379487E+01 0.16280283664E+01
 0.17106294120E+01 0.18141002414E+01 0.19387635638E+01 0.20832554891E+01 0.22441200145E+01
 0.24155300658E+01 0.25892519260E+01 0.27549765278E+01 0.29011050972E+01 0.30159982143E+01
 0.30895667743E+01 0.31149093948E+01 0.30895668466E+01 0.30159954927E+01 0.29010969136E+01
 0.27549654448E+01 0.25892470106E+01 0.24155403939E+01 0.22441469758E+01 0.20832929068E+01
 0.19388033586E+01 0.18141346521E+01 0.17106500950E+01 0.16280298744E+01 0.15647236177E+01
 0.15183902547E+01 0.14863107621E+01 0.14657837599E+01 0.14545089450E+01 0.14509345096E+01
 0.14545120447E+01 0.14657917959E+01 0.17662062549E+01 0.17835813578E+01 0.18121270392E+01
 0.18546887840E+01 0.19134668309E+01 0.19896802887E+01 0.20832554891E+01 0.21925416285E+01
 0.23140780573E+01 0.24424689619E+01 0.25704594938E+01 0.26893265293E+01 0.27896661005E+01
 0.28625620095E+01 0.29009666240E+01 0.29009692058E+01 0.28625668840E+01 0.27896684115E+01
 0.26893258462E+01 0.25704607110E+01 0.24424773421E+01 0.23140950473E+01 0.21925648728E+01
 0.20832798727E+01 0.19896975011E+01 0.19134672329E+01 0.18546684374E+01 0.18120935187E+01
 0.17835499696E+01 0.17661886657E+01 0.17568822688E+01 0.17526646681E+01 0.17512000529E+01
 0.17511978399E+01 0.17526611551E+01 0.17568854863E+01 0.21104878266E+01 0.21037903382E+01
 0.21053922671E+01 0.21185140984E+01 0.21454561652E+01 0.21873767760E+01 0.22441200145E+01
 0.23140780573E+01 0.23940974558E+01 0.24794673820E+01 0.25640718456E+01 0.26408159187E+01
 0.27023949515E+01 0.27423518942E+01 0.27562101330E+01 0.27423614173E+01 0.27024076626E+01
 0.26408260606E+01 0.25640775988E+01 0.24794682741E+01 0.23940935808E+01 0.23140722313E+01
 0.22441152273E+01 0.21873693200E+01 0.21454362704E+01 0.21184771546E+01 0.21053469992E+01
 0.21037532951E+01 0.21104705917E+01 0.21216621064E+01 0.21333467763E+01 0.21419972196E+01
 0.21451685460E+01 0.21419870892E+01 0.21333345275E+01 0.21216598070E+01 0.25225749476E+01
 0.24794671437E+01 0.24424687551E+01 0.24155300845E+01 0.24013699798E+01 0.24013699124E+01
 0.24155300658E+01 0.24424689619E+01 0.24794673820E+01 0.25225750445E+01 0.25668433535E+01
 0.26067778670E+01 0.26370519252E+01 0.26533901138E+01 0.26533980744E+01 0.26370714495E+01
 0.26067989812E+01 0.25668552945E+01 0.25225689372E+01 0.24794401836E+01 0.24424279059E+01
 0.24154883713E+01 0.24013339441E+01 0.24013346326E+01 0.24154900036E+01 0.24424296976E+01
 0.24794416904E+01 0.25225699561E+01 0.25668555775E+01 0.26067985204E+01 0.26370706926E+01
 0.26533974278E+01 0.26533895269E+01 0.26370512786E+01 0.26067773682E+01 0.25668431709E+01
 0.30016486546E+01 0.29064839589E+01 0.28167386486E+01 0.27375274622E+01 0.26722907912E+01
 0.26227987700E+01 0.25892519260E+01 0.25704594938E+01 0.25640718456E+01 0.25668433535E+01
 0.25749503175E+01 0.25844306253E+01 0.25917659684E+01 0.25945107175E+01 0.25917842752E+01
 0.25844577117E+01 0.25749686389E+01 0.25668336243E+01 0.25640249088E+01 0.25703855622E+01
 0.25891749818E+01 0.26227381723E+01 0.26722499060E+01 0.27375012793E+01 0.28167267607E+01
 0.29064899162E+01 0.30016705438E+01 0.30956304253E+01 0.31806627107E+01 0.32488060115E+01
 0.32929913641E+01 0.33083028042E+01 0.32929770027E+01 0.32487821605E+01 0.31806340412E+01
 0.30956012371E+01 0.35401492621E+01 0.33743205031E+01 0.32158870823E+01 0.30715241334E+01
 0.29455256291E+01 0.28399545802E+01 0.27549765278E+01 0.26893265293E+01 0.26408159187E+01
 0.26067778670E+01 0.25844306253E+01 0.25712171093E+01 0.25651579781E+01 0.25651678953E+01
 0.25712413963E+01 0.25844512282E+01 0.26067679502E+01 0.26407577061E+01 0.26892297602E+01
 0.27548748491E+01 0.28398807176E+01 0.29454917659E+01 0.30715248505E+01 0.32159134520E+01
 0.33743651107E+01 0.35402013991E+01 0.37044593702E+01 0.38563604949E+01 0.39842511772E+01
 0.40770282244E+01 0.41258705999E+01 0.41258677054E+01 0.40770192134E+01 0.39842334512E+01
 0.38563290862E+01 0.37044133620E+01 0.41214065038E+01 0.38647117995E+01 0.36214229570E+01
 0.33999283278E+01 0.32051583747E+01 0.30390131593E+01 0.29011050972E+01 0.27896661005E+01
 0.27023949515E+01 0.26370519252E+01 0.25917659684E+01 0.25651579781E+01 0.25563884468E+01
 0.25651732894E+01 0.25917827098E+01 0.26370419098E+01 0.27023329829E+01 0.27895579492E+01
 0.29009913411E+01 0.30389385029E+01 0.32051404567E+01 0.33999570375E+01 0.36214797754E+01
 0.38647809092E+01 0.41214731961E+01 0.43797026548E+01 0.46246780640E+01 0.48398162339E+01
 0.50085070204E+01 0.51163487899E+01 0.51534731927E+01 0.51163572929E+01 0.50085161051E+01
 0.48398135850E+01 0.46246530479E+01 0.43796527466E+01 0.47183937896E+01 0.43514974936E+01
 0.40093182696E+01 0.37016385229E+01 0.34333372537E+01 0.32053397659E+01 0.30159982143E+01
 0.28625620095E+01 0.27423518942E+01 0.26533901138E+01 0.25945107175E+01 0.25651678953E+01
 0.25651732894E+01 0.25945188895E+01 0.26533765413E+01 0.27422883301E+01 0.28624486626E+01
 0.30158786516E+01 0.32052691936E+01 0.34333366053E+01 0.37016871819E+01 0.40093847170E+01
 0.43515625494E+01 0.47184476659E+01 0.50950776954E+01 0.54618654771E+01 0.57960402600E+01
 0.60738741545E+01 0.62734988708E+01 0.63779668469E+01 0.63779776495E+01 0.62735253864E+01
 0.60739024703E+01 0.57960556059E+01 0.54618573978E+01 0.50950437699E+01 0.52945423511E+01
 0.48022355603E+01 0.43520251965E+01 0.39541404293E+01 0.36122564664E+01 0.33252807825E+01
 0.30895667743E+01 0.29009666240E+01 0.27562101330E+01 0.26533980744E+01 0.25917842752E+01
 0.25712413963E+01 0.25917827098E+01 0.26533765413E+01 0.27561426624E+01 0.29008499161E+01
 0.30894429541E+01 0.33252117139E+01 0.36122673615E+01 0.39542003071E+01 0.43520858500E+01
 0.48022740528E+01 0.52945608014E+01 0.58113098818E+01 0.63278732957E+01 0.68143310118E+01
 0.72383012083E+01 0.75684672690E+01 0.77784531165E+01 0.78505418261E+01 0.77784731479E+01
 0.75685004739E+01 0.72383375107E+01 0.68143600347E+01 0.63278872379E+01 0.58113071575E+01
 0.58070524399E+01 0.51816843512E+01 0.46217636691E+01 0.41363957542E+01 0.37265935347E+01
 0.33881810219E+01 0.31149093948E+01 0.29009692058E+01 0.27423614173E+01 0.26370714495E+01
 0.25844577117E+01 0.25844512282E+01 0.26370419098E+01 0.27422883301E+01 0.29008499161E+01
 0.31147836119E+01 0.33881121269E+01 0.37266104243E+01 0.41364619858E+01 0.46218163641E+01
 0.51816935391E+01 0.58070308610E+01 0.64788077370E+01 0.71679589920E+01 0.78372246393E+01
 0.84445297359E+01 0.89472939680E+01 0.93072110225E+01 0.94950960036E+01 0.94950955975E+01
 0.93072133563E+01 0.89473064365E+01 0.84445555057E+01 0.78372581271E+01 0.71679928692E+01
 0.64788392108E+01 0.62123667894E+01 0.54566560991E+01 0.47945438907E+01 0.42320182761E+01
 0.37659359633E+01 0.33881795948E+01 0.30895668466E+01 0.28625668840E+01 0.27024076626E+01
 0.26067989812E+01 0.25749686389E+01 0.26067679502E+01 0.27023329829E+01 0.28624486626E+01
 0.30894429541E+01 0.33881121269E+01 0.37659561509E+01 0.42320890293E+01 0.47945935322E+01
 0.54566467942E+01 0.62123164175E+01 0.70433233932E+01 0.79179762557E+01 0.87927358872E+01
 0.96159157154E+01 0.10332610449E+02 0.10890274280E+02 0.11244771285E+02 0.11366418725E+02
 0.11244725732E+02 0.10890212940E+02 0.10332570304E+02 0.96159138254E+01 0.87927643406E+01
 0.79180223001E+01 0.70433800823E+01 0.64727578806E+01 0.56012477796E+01 0.48540647941E+01
 0.42320181829E+01 0.37265905257E+01 0.33252763348E+01 0.30159954927E+01 0.27896684115E+01
 0.26408260606E+01 0.25668552945E+01 0.25668336243E+01 0.26407577061E+01 0.27895579492E+01
 0.30158786516E+01 0.33252117139E+01 0.37266104243E+01 0.42320890293E+01 0.48541136432E+01
 0.56012317002E+01 0.64726949051E+01 0.74536493106E+01 0.85126413206E+01 0.96023899414E+01
 0.10663364682E+02 0.11628884311E+02 0.12430960357E+02 0.13007158605E+02 0.13308722433E+02
 0.13308665447E+02 0.13007017041E+02 0.12430803866E+02 0.11628777568E+02 0.10663328761E+02
 0.96024067341E+01 0.85126892764E+01 0.74537168208E+01 0.65625813205E+01 0.56012485610E+01
 0.47945477266E+01 0.41363970671E+01 0.36122516260E+01 0.32053303409E+01 0.29010969136E+01
 0.26893258462E+01 0.25640775988E+01 0.25225689372E+01 0.25640249088E+01 0.26892297602E+01
 0.29009913411E+01 0.32052691936E+01 0.36122673615E+01 0.41364619858E+01 0.47945935322E+01
 0.56012317002E+01 0.65625185473E+01 0.76697876766E+01 0.88953288456E+01 0.10191887350E+02
 0.11495647969E+02 0.12730964177E+02 0.13815576789E+02 0.14667098098E+02 0.15212503012E+02
 0.15400366493E+02 0.15212352586E+02 0.14666859028E+02 0.13815343377E+02 0.12730809651E+02
 0.11495585863E+02 0.10191888515E+02 0.88953673536E+01 0.76698515881E+01 0.64727495459E+01
 0.54566599309E+01 0.46217739830E+01 0.39541447399E+01 0.34333277453E+01 0.30389957373E+01
 0.27549654448E+01 0.25704607110E+01 0.24794682741E+01 0.24794401836E+01 0.25703855622E+01
 0.27548748491E+01 0.30389385029E+01 0.34333366053E+01 0.39542003071E+01 0.46218163641E+01
 0.54566467942E+01 0.64726949051E+01 0.76697876766E+01 0.90274577572E+01 0.10502782312E+02
 0.12032411537E+02 0.13536622485E+02 0.14923173016E+02 0.16090861042E+02 0.16935681755E+02
 0.17378484706E+02 0.17378407874E+02 0.16935473347E+02 0.16090586995E+02 0.14922922412E+02
 0.13536457566E+02 0.12032335148E+02 0.10502763618E+02 0.90274776532E+01 0.76698387979E+01
 0.62123573749E+01 0.51816982221E+01 0.43520458940E+01 0.37016419016E+01 0.32051380934E+01
 0.28399316093E+01 0.25892470106E+01 0.24424773421E+01 0.23940935808E+01 0.24424279059E+01
 0.25891749818E+01 0.28398807176E+01 0.32051404567E+01 0.37016871819E+01 0.43520858500E+01
 0.51816935391E+01 0.62123164175E+01 0.74536493106E+01 0.88953288456E+01 0.10502782312E+02
 0.12217990039E+02 0.13962914085E+02 0.15641991148E+02 0.17136546028E+02 0.18312892263E+02
 0.19064333941E+02 0.19322663255E+02 0.19064233169E+02 0.18312701492E+02 0.17136308286E+02
 0.15641773553E+02 0.13962762618E+02 0.12217905057E+02 0.10502744003E+02 0.88953301529E+01
 0.74536852491E+01 0.58070582588E+01 0.48022706038E+01 0.40093476701E+01 0.33999211209E+01
 0.29454938018E+01 0.26227811036E+01 0.24155403939E+01 0.23140950473E+01 0.23140722313E+01
 0.24154883713E+01 0.26227381723E+01 0.29454917659E+01 0.33999570375E+01 0.40093847170E+01
 0.48022740528E+01 0.58070308610E+01 0.70433233932E+01 0.85126413206E+01 0.10191887350E+02
 0.12032411537E+02 0.13962914085E+02 0.15891364073E+02 0.17690321766E+02 0.19203195673E+02
 0.20295826849E+02 0.20869075583E+02 0.20869059942E+02 0.20295763489E+02 0.19203063860E+02
 0.17690140556E+02 0.15891185585E+02 0.13962777827E+02 0.12032323385E+02 0.10191839388E+02
 0.85126328353E+01 0.70433476313E+01 0.52945819198E+01 0.43515558573E+01 0.36214476738E+01
 0.30714984744E+01 0.26722564066E+01 0.24013688012E+01 0.22441469758E+01 0.21925648728E+01
 0.22441152273E+01 0.24013339441E+01 0.26722499060E+01 0.30715248505E+01 0.36214797754E+01
 0.43515625494E+01 0.52945608014E+01 0.64788077370E+01 0.79179762557E+01 0.96023899414E+01
 0.11495647969E+02 0.13536622485E+02 0.15641991148E+02 0.17690321766E+02 0.19511300691E+02
 0.20946896947E+02 0.21867735898E+02 0.22185349813E+02 0.21867757335E+02 0.20946884923E+02
 0.19511211393E+02 0.17690172285E+02 0.15641836057E+02 0.13536500457E+02 0.11495566296E+02
 0.96023450119E+01 0.79179691083E+01 0.64788290651E+01 0.47184712269E+01 0.38647757191E+01
 0.32158885233E+01 0.27374853626E+01 0.24013450846E+01 0.21873945682E+01 0.20832929068E+01
 0.20832798727E+01 0.21873693200E+01 0.24013346326E+01 0.27375012793E+01 0.32159134520E+01
 0.38647809092E+01 0.47184476659E+01 0.58113098818E+01 0.71679589920E+01 0.87927358872E+01
 0.10663364682E+02 0.12730964177E+02 0.14923173016E+02 0.17136546028E+02 0.19203195673E+02
 0.20946896947E+02 0.22213440236E+02 0.22881342600E+02 0.22881381954E+02 0.22213511035E+02
 0.20946910804E+02 0.19203114757E+02 0.17136408986E+02 0.14923038356E+02 0.12730860383E+02
 0.10663294098E+02 0.87927007353E+01 0.71679635085E+01 0.58113397914E+01 0.41215015853E+01
 0.33743614942E+01 0.28167089737E+01 0.24154831361E+01 0.21454472472E+01 0.19897116332E+01
 0.19388033586E+01 0.19896975011E+01 0.21454362704E+01 0.24154900036E+01 0.28167267607E+01
 0.33743651107E+01 0.41214731961E+01 0.50950776954E+01 0.63278732957E+01 0.78372246393E+01
 0.96159157154E+01 0.11628884311E+02 0.13815576789E+02 0.16090861042E+02 0.18312892263E+02
 0.20295826849E+02 0.21867735898E+02 0.22881342600E+02 0.23232092208E+02 0.22881437505E+02
 0.21867831321E+02 0.20295836198E+02 0.18312813016E+02 0.16090747534E+02 0.13815469802E+02
 0.11628795606E+02 0.96158541060E+01 0.78372076000E+01 0.63279028719E+01 0.50951252464E+01
 0.35402276418E+01 0.29064850781E+01 0.24424180809E+01 0.21184756291E+01 0.19134742879E+01
 0.18141390277E+01 0.18141346521E+01 0.19134672329E+01 0.21184771546E+01 0.24424296976E+01
 0.29064899162E+01 0.35402013991E+01 0.43797026548E+01 0.54618654771E+01 0.68143310118E+01
 0.84445297359E+01 0.10332610449E+02 0.12430960357E+02 0.14667098098E+02 0.16935681755E+02
 0.19064333941E+02 0.20869075583E+02 0.22185349813E+02 0.22881381954E+02 0.22881437505E+02
 0.22185466005E+02 0.20869158223E+02 0.19064338691E+02 0.16935631138E+02 0.14667024027E+02
 0.12430875130E+02 0.10332530283E+02 0.84444887731E+01 0.68143531340E+01 0.54619311405E+01
 0.43797645443E+01 0.30016848665E+01 0.24794342441E+01 0.21053396574E+01 0.18546673788E+01
 0.17106515215E+01 0.16636873225E+01 0.17106500950E+01 0.18546684374E+01 0.21053469992E+01
 0.24794416904E+01 0.30016705438E+01 0.37044593702E+01 0.46246780640E+01 0.57960402600E+01
 0.72383012083E+01 0.89472939680E+01 0.10890274280E+02 0.13007158605E+02 0.15212503012E+02
 0.17378484706E+02 0.19322663255E+02 0.20869059942E+02 0.21867757335E+02 0.22213511035E+02
 0.21867831321E+02 0.20869158223E+02 0.19322738034E+02 0.17378521625E+02 0.15212500590E+02
 0.13007111841E+02 0.10890198488E+02 0.89472375203E+01 0.72383127021E+01 0.57961179365E+01
 0.46247707086E+01 0.37045175194E+01 0.25225675474E+01 0.21037435202E+01 0.18120877878E+01
 0.16280269044E+01 0.15390494139E+01 0.15390505799E+01 0.16280298744E+01 0.18120935187E+01
 0.21037532951E+01 0.25225699561E+01 0.30956304253E+01 0.38563604949E+01 0.48398162339E+01
 0.60738741545E+01 0.75684672690E+01 0.93072110225E+01 0.11244771285E+02 0.13308722433E+02
 0.15400366493E+02 0.17378407874E+02 0.19064233169E+02 0.20295763489E+02 0.20946884923E+02
 0.20946910804E+02 0.20295836198E+02 0.19064338691E+02 0.17378521625E+02 0.15400450125E+02
 0.13308739248E+02 0.11244724002E+02 0.93071542189E+01 0.75684694720E+01 0.60739559219E+01
 0.48399321555E+01 0.38564476148E+01 0.30956633464E+01 0.21104552129E+01 0.17835401294E+01
 0.15647188855E+01 0.14392155129E+01 0.13983426481E+01 0.14392185310E+01 0.15647236177E+01
 0.17835499696E+01 0.21104705917E+01 0.25668555775E+01 0.31806627107E+01 0.39842511772E+01
 0.50085070204E+01 0.62734988708E+01 0.77784531165E+01 0.94950960036E+01 0.11366418725E+02
 0.13308665447E+02 0.15212352586E+02 0.16935473347E+02 0.18312701492E+02 0.19203063860E+02
 0.19511211393E+02 0.19203114757E+02 0.18312813016E+02 0.16935631138E+02 0.15212500590E+02
 0.13308739248E+02 0.11366404160E+02 0.94950465193E+01 0.77784476275E+01 0.62735751419E+01
 0.50086319027E+01 0.39843574845E+01 0.31807098852E+01 0.25668544213E+01 0.17661709431E+01
 0.15183846758E+01 0.13620873202E+01 0.12866125033E+01 0.12866131225E+01 0.13620886718E+01
 0.15183902547E+01 0.17661886657E+01 0.21216621064E+01 0.26067985204E+01 0.32488060115E+01
 0.40770282244E+01 0.51163487899E+01 0.63779668469E+01 0.78505418261E+01 0.94950955975E+01
 0.11244725732E+02 0.13007017041E+02 0.14666859028E+02 0.16090586995E+02 0.17136308286E+02
 0.17690140556E+02 0.17690172285E+02 0.17136408986E+02 0.16090747534E+02 0.14667024027E+02
 0.13007111841E+02 0.11244724002E+02 0.94950465193E+01 0.78505271804E+01 0.63780317984E+01
 0.51164696851E+01 0.40771411168E+01 0.32488617223E+01 0.26067965591E+01 0.21216371730E+01
 0.14863014905E+01 0.13050106760E+01 0.12010768981E+01 0.11672494957E+01 0.12010735336E+01
 0.13050080381E+01 0.14863107621E+01 0.17568822688E+01 0.21333467763E+01 0.26370706926E+01
 0.32929913641E+01 0.41258705999E+01 0.51534731927E+01 0.63779776495E+01 0.77784731479E+01
 0.93072133563E+01 0.10890212940E+02 0.12430803866E+02 0.13815343377E+02 0.14922922412E+02
 0.15641773553E+02 0.15891185585E+02 0.15641836057E+02 0.14923038356E+02 0.13815469802E+02
 0.12430875130E+02 0.10890198488E+02 0.93071542189E+01 0.77784476275E+01 0.63780317984E+01
 0.51535873503E+01 0.41259846006E+01 0.32930533234E+01 0.26370704223E+01 0.21333136474E+01
 0.17568534628E+01 0.12652310297E+01 0.11386683391E+01 0.10775805965E+01 0.10775760013E+01
 0.11386582355E+01 0.12652273636E+01 0.14657837599E+01 0.17526646681E+01 0.21419972196E+01
 0.26533974278E+01 0.33083028042E+01 0.41258677054E+01 0.51163572929E+01 0.62735253864E+01
 0.75685004739E+01 0.89473064365E+01 0.10332570304E+02 0.11628777568E+02 0.12730809651E+02
 0.13536457566E+02 0.13962762618E+02 0.13962777827E+02 0.13536500457E+02 0.12730860383E+02
 0.11628795606E+02 0.10332530283E+02 0.89472375203E+01 0.75684694720E+01 0.62735751419E+01
 0.51164696851E+01 0.41259846006E+01 0.33083722049E+01 0.26534037439E+01 0.21419624408E+01
 0.17526262370E+01 0.14657665333E+01 0.10964973563E+01 0.10140661349E+01 0.98724450754E+00
 0.10140538694E+01 0.10964837416E+01 0.12402817525E+01 0.14545089450E+01 0.17512000529E+01
 0.21451685460E+01 0.26533895269E+01 0.32929770027E+01 0.40770192134E+01 0.50085161051E+01
 0.60739024703E+01 0.72383375107E+01 0.84445555057E+01 0.96159138254E+01 0.10663328761E+02
 0.11495585863E+02 0.12032335148E+02 0.12217905057E+02 0.12032323385E+02 0.11495566296E+02
 0.10663294098E+02 0.96158541060E+01 0.84444887731E+01 0.72383127021E+01 0.60739559219E+01
 0.50086319027E+01 0.40771411168E+01 0.32930533234E+01 0.26534037439E+01 0.21451381152E+01
 0.17511577379E+01 0.14544825177E+01 0.12402802120E+01 0.97362948232E+00 0.92605018399E+00
 0.92604213175E+00 0.97361222474E+00 0.10722061957E+01 0.12283121013E+01 0.14509345096E+01
 0.17511978399E+01 0.21419870892E+01 0.26370512786E+01 0.32487821605E+01 0.39842334512E+01
 0.48398135850E+01 0.57960556059E+01 0.68143600347E+01 0.78372581271E+01 0.87927643406E+01
 0.96024067341E+01 0.10191888515E+02 0.10502763618E+02 0.10502744003E+02 0.10191839388E+02
 0.96023450119E+01 0.87927007353E+01 0.78372076000E+01 0.68143531340E+01 0.57961179365E+01
 0.48399321555E+01 0.39843574845E+01 0.32488617223E+01 0.26370704223E+01 0.21419624408E+01
 0.17511577379E+01 0.14509032009E+01 0.12283025091E+01 0.10722168073E+01 0.89074473322E+00
 0.87015647112E+00 0.89073140030E+00 0.95399351961E+00 0.10642953412E+01 0.12283162865E+01
 0.14545120447E+01 0.17526611551E+01 0.21333345275E+01 0.26067773682E+01 0.31806340412E+01
 0.38563290862E+01 0.46246530479E+01 0.54618573978E+01 0.63278872379E+01 0.71679928692E+01
 0.79180223001E+01 0.85126892764E+01 0.88953673536E+01 0.90274776532E+01 0.88953301529E+01
 0.85126328353E+01 0.79179691083E+01 0.71679635085E+01 0.63279028719E+01 0.54619311405E+01
 0.46247707086E+01 0.38564476148E+01 0.31807098852E+01 0.26067965591E+01 0.21333136474E+01
 0.17526262370E+01 0.14544825177E+01 0.12283025091E+01 0.10642996580E+01 0.95400908993E+00
 0.84309332516E+00 0.84308834328E+00 0.87920846802E+00 0.95399989486E+00 0.10722168861E+01
 0.12402929833E+01 0.14657917959E+01 0.17568854863E+01 0.21216598070E+01 0.25668431709E+01
 0.30956012371E+01 0.37044133620E+01 0.43796527466E+01 0.50950437699E+01 0.58113071575E+01
 0.64788392108E+01 0.70433800823E+01 0.74537168208E+01 0.76698515881E+01 0.76698387979E+01
 0.74536852491E+01 0.70433476313E+01 0.64788290651E+01 0.58113397914E+01 0.50951252464E+01
 0.43797645443E+01 0.37045175194E+01 0.30956633464E+01 0.25668544213E+01 0.21216371730E+01
 0.17568534628E+01 0.14657665333E+01 0.12402802120E+01 0.10722168073E+01 0.95400908993E+00
 0.87921969302E+00 0.84309105962E+00 0.87016143889E+00 0.92605238961E+00 0.10140637690E+01
 0.11386664099E+01 0.13050186154E+01 0.15184096314E+01 0.17835814158E+01 0.21037903575E+01
 0.24794671537E+01 0.29064840701E+01 0.33743206587E+01 0.38647117848E+01 0.43514971813E+01
 0.48022349484E+01 0.51816834270E+01 0.54566549469E+01 0.56012468066E+01 0.56012483164E+01
 0.54566605999E+01 0.51816994314E+01 0.48022716897E+01 0.43515561680E+01 0.38647748115E+01
 0.33743594139E+01 0.29064825155E+01 0.24794321652E+01 0.21037425391E+01 0.17835403093E+01
 0.15183857924E+01 0.13050123914E+01 0.11386701800E+01 0.10140676500E+01 0.92605122695E+00
 0.87015716475E+00 0.84308878707E+00 0.87016143889E+00 0.90494692294E+00 0.96515042059E+00
 0.10538918036E+01 0.11750924567E+01 0.13330460035E+01 0.15318567242E+01 0.17746888684E+01
 0.20627621274E+01 0.23940972310E+01 0.27621656592E+01 0.31547742246E+01 0.35536331634E+01
 0.39350365046E+01 0.42718831243E+01 0.45369125530E+01 0.47066285225E+01 0.47650846869E+01
 0.47066315630E+01 0.45369218488E+01 0.42719037888E+01 0.39350689045E+01 0.35536661974E+01
 0.31547898706E+01 0.27621531894E+01 0.23940614830E+01 0.20627181568E+01 0.17746516525E+01
 0.15318354143E+01 0.13330420183E+01 0.11750989000E+01 0.10538971368E+01 0.96514691694E+00
 0.90493639240E+00 0.87015249728E+00 0.85879215538E+00 0.92605238961E+00 0.96515042059E+00
 0.10263636370E+01 0.11125489061E+01 0.12271040086E+01 0.13735515560E+01 0.15549415741E+01
 0.17730451064E+01 0.20273643630E+01 0.23140779196E+01 0.26251405283E+01 0.29478201116E+01
 0.32649469524E+01 0.35560609064E+01 0.37994735557E+01 0.39750279101E+01 0.40670848254E+01
 0.40670837736E+01 0.39750271161E+01 0.37994771805E+01 0.35560690763E+01 0.32649530457E+01
 0.29478149592E+01 0.26251198197E+01 0.23140455398E+01 0.20273294406E+01 0.17730171625E+01
 0.15549274264E+01 0.13735529166E+01 0.12271153087E+01 0.11125591084E+01 0.10263635449E+01
 0.96513959680E+00 0.92603904338E+00 0.90702309885E+00 0.90702898846E+00 0.10140637690E+01
 0.10538918036E+01 0.11125489061E+01 0.11926864040E+01 0.12972843164E+01 0.14292090309E+01
 0.15905780716E+01 0.17819569685E+01 0.20014878466E+01 0.22441199978E+01 0.25011489723E+01
 0.27602529395E+01 0.30061491423E+01 0.32219021115E+01 0.33908045273E+01 0.34986033491E+01
 0.35356694213E+01 0.34985981285E+01 0.33907978745E+01 0.32218954514E+01 0.30061391429E+01
 0.27602364891E+01 0.25011276800E+01 0.22440984456E+01 0.20014700771E+01 0.17819464440E+01
 0.15905784148E+01 0.14292211881E+01 0.12973030264E+01 0.11927019460E+01 0.11125536405E+01
 0.10538851920E+01 0.10140519578E+01 0.99101080691E+00 0.98347941956E+00 0.99101951016E+00
 0.11386664099E+01 0.11750924567E+01 0.12271040086E+01 0.12972843164E+01 0.13883204110E+01
 0.15025223621E+01 0.16411908759E+01 0.18039043102E+01 0.19878527409E+01 0.21873767513E+01
 0.23938597461E+01 0.25960726210E+01 0.27810001130E+01 0.29351143768E+01 0.30459903587E+01
 0.31040439223E+01 0.31040413008E+01 0.30459838904E+01 0.29351054647E+01 0.27809875741E+01
 0.25960564804E+01 0.23938449973E+01 0.21873696813E+01 0.19878551885E+01 0.18039145723E+01
 0.16412079663E+01 0.15025451853E+01 0.13883439087E+01 0.12973008171E+01 0.12271092075E+01
 0.11750881842E+01 0.11386579431E+01 0.11156607292E+01 0.11045614663E+01 0.11045644007E+01
 0.11156682209E+01 0.13050186154E+01 0.13330460035E+01 0.13735515560E+01 0.14292090309E+01
 0.15025223621E+01 0.15953371219E+01 0.17082827823E+01 0.18402275460E+01 0.19878527169E+01
 0.21454560696E+01 0.23050719946E+01 0.24569535873E+01 0.25904146708E+01 0.26949843673E+01
 0.27617583846E+01 0.27847253820E+01 0.27617578725E+01 0.26949816890E+01 0.25904078792E+01
 0.24569438314E+01 0.23050652150E+01 0.21454590204E+01 0.19878672656E+01 0.18402504355E+01
 0.17083095640E+01 0.15953633065E+01 0.15025420902E+01 0.14292172727E+01 0.13735488311E+01
 0.13330382170E+01 0.13050114387E+01 0.12870034733E+01 0.12770463905E+01 0.12738738337E+01
 0.12770487050E+01 0.12870081467E+01 0.15184096314E+01 0.15318567242E+01 0.15549415741E+01
 0.15905780716E+01 0.16411908759E+01 0.17082827823E+01 0.17920198560E+01 0.18908886624E+01
 0.20014878076E+01 0.21185140497E+01 0.22349937897E+01 0.23427929476E+01 0.24334080042E+01
 0.24989872132E+01 0.25334460079E+01 0.25334484418E+01 0.24989915961E+01 0.24334091493E+01
 0.23427898290E+01 0.22349910811E+01 0.21185176722E+01 0.20015002374E+01 0.18909083727E+01
 0.17920427452E+01 0.17083024633E+01 0.16411998224E+01 0.15905723198E+01 0.15549252494E+01
 0.15318398364E+01 0.15184000756E+01 0.15116111882E+01 0.15087925143E+01 0.15079252429E+01
 0.15079241293E+01 0.15087906633E+01 0.15116128339E+01 0.17835814158E+01 0.17746888684E+01
 0.17730451064E+01 0.17819569685E+01 0.18039043102E+01 0.18402275460E+01 0.18908886624E+01
 0.19543173832E+01 0.20273643572E+01 0.21053923273E+01 0.21825477419E+01 0.22522559062E+01
 0.23079488865E+01 0.23439599415E+01 0.23564248423E+01 0.23439666003E+01 0.23079562253E+01
 0.22522588534E+01 0.21825463297E+01 0.21053894804E+01 0.20273629952E+01 0.19543200300E+01
 0.18908957913E+01 0.18402342876E+01 0.18039018975E+01 0.17819404954E+01 0.17730192979E+01
 0.17746648682E+01 0.17835683510E+01 0.17959751314E+01 0.18081527638E+01 0.18169073570E+01
 0.18200778294E+01 0.18169009705E+01 0.18081457740E+01 0.17959755625E+01 0.21037903575E+01
 0.20627621274E+01 0.20273643630E+01 0.20014878466E+01 0.19878527409E+01 0.19878527169E+01
 0.20014878076E+01 0.20273643572E+01 0.20627621556E+01 0.21037903888E+01 0.21456789772E+01
 0.21832554862E+01 0.22116107749E+01 0.22268665550E+01 0.22268712962E+01 0.22116212195E+01
 0.21832637775E+01 0.21456788280E+01 0.21037794270E+01 0.20627425315E+01 0.20273431585E+01
 0.20014730022E+01 0.19878451519E+01 0.19878444851E+01 0.20014713312E+01 0.20273413154E+01
 0.20627414276E+01 0.21037795722E+01 0.21456801267E+01 0.21832657228E+01 0.22116232392E+01
 0.22268729652E+01 0.22268676584E+01 0.22116113231E+01 0.21832556625E+01 0.21456789902E+01
 0.24794671537E+01 0.23940972310E+01 0.23140779196E+01 0.22441199978E+01 0.21873767513E+01
 0.21454560696E+01 0.21185140497E+01 0.21053923273E+01 0.21037903888E+01 0.21104877863E+01