   2   2   0   0
  0.2105736E+02  0.3905257E-09  0.3905257E-09  0.3905257E-09  0.5000000E-15
  1.000000000000000E-004
  CAR 
 unknown system                          
     16.50901673     -8.24368567  301      5.67507481      1.00000000
     -8.244  0.0000E+00  0.0000E+00
     -8.161  0.0000E+00  0.0000E+00
     -8.079  0.0000E+00  0.0000E+00
     -7.996  0.0000E+00  0.0000E+00
     -7.914  0.0000E+00  0.0000E+00
     -7.831  0.0000E+00  0.0000E+00
     -7.749  0.0000E+00  0.0000E+00
     -7.666  0.0000E+00  0.0000E+00
     -7.584  0.0000E+00  0.0000E+00
     -7.501  0.0000E+00  0.0000E+00
     -7.419  0.3504E-18  0.2891E-19
     -7.336  0.3504E-16  0.2920E-17
     -7.254  0.2896E-14  0.2419E-15
     -7.171  0.1704E-12  0.1430E-13
     -7.089  0.7177E-11  0.6065E-12
     -7.006  0.2167E-09  0.1849E-10
     -6.924  0.4700E-08  0.4063E-09
     -6.841  0.7340E-07  0.6462E-08
     -6.759  0.8289E-06  0.7485E-07
     -6.676  0.6812E-05  0.6369E-06
     -6.594  0.4113E-04  0.4030E-05
     -6.511  0.1849E-03  0.1929E-04
     -6.428  0.6308E-03  0.7134E-04
     -6.346  0.1668E-02  0.2090E-03
     -6.263  0.3508E-02  0.4984E-03
     -6.181  0.6025E-02  0.9955E-03
     -6.098  0.8746E-02  0.1717E-02
     -6.016  0.1125E-01  0.2645E-02
     -5.933  0.1353E-01  0.3762E-02
     -5.851  0.1573E-01  0.5060E-02
     -5.768  0.1763E-01  0.6514E-02
     -5.686  0.1882E-01  0.8067E-02
     -5.603  0.1970E-01  0.9692E-02
     -5.521  0.2132E-01  0.1145E-01
     -5.438  0.2385E-01  0.1342E-01
     -5.356  0.2589E-01  0.1556E-01
     -5.273  0.2639E-01  0.1773E-01
     -5.191  0.2627E-01  0.1990E-01
     -5.108  0.2715E-01  0.2214E-01
     -5.026  0.2918E-01  0.2455E-01
     -4.943  0.3151E-01  0.2715E-01
     -4.861  0.3378E-01  0.2993E-01
     -4.778  0.3589E-01  0.3290E-01
     -4.696  0.3725E-01  0.3597E-01
     -4.613  0.3724E-01  0.3904E-01
     -4.531  0.3644E-01  0.4205E-01
     -4.448  0.3703E-01  0.4510E-01
     -4.366  0.4120E-01  0.4850E-01
     -4.283  0.4815E-01  0.5248E-01
     -4.201  0.5409E-01  0.5694E-01
     -4.118  0.5655E-01  0.6161E-01
     -4.036  0.5680E-01  0.6629E-01
     -3.953  0.5688E-01  0.7099E-01
     -3.871  0.5658E-01  0.7565E-01
     -3.788  0.5422E-01  0.8013E-01
     -3.706  0.5012E-01  0.8426E-01
     -3.623  0.4790E-01  0.8821E-01
     -3.541  0.5060E-01  0.9239E-01
     -3.458  0.5585E-01  0.9700E-01
     -3.376  0.5753E-01  0.1017E+00
     -3.293  0.5227E-01  0.1061E+00
     -3.211  0.4244E-01  0.1096E+00
     -3.128  0.3298E-01  0.1123E+00
     -3.046  0.2712E-01  0.1145E+00
     -2.963  0.2582E-01  0.1166E+00
     -2.881  0.2887E-01  0.1190E+00
     -2.798  0.3456E-01  0.1219E+00
     -2.716  0.3888E-01  0.1251E+00
     -2.633  0.3759E-01  0.1282E+00
     -2.551  0.2976E-01  0.1306E+00
     -2.468  0.1875E-01  0.1322E+00
     -2.386  0.9195E-02  0.1330E+00
     -2.303  0.3488E-02  0.1332E+00
     -2.221  0.1309E-02  0.1333E+00
     -2.138  0.1861E-02  0.1335E+00
     -2.056  0.5848E-02  0.1340E+00
     -1.973  0.1483E-01  0.1352E+00
     -1.890  0.2767E-01  0.1375E+00
     -1.808  0.3838E-01  0.1407E+00
     -1.725  0.4082E-01  0.1440E+00
     -1.643  0.3608E-01  0.1470E+00
     -1.560  0.3188E-01  0.1496E+00
     -1.478  0.3524E-01  0.1525E+00
     -1.395  0.4735E-01  0.1564E+00
     -1.313  0.6349E-01  0.1617E+00
     -1.230  0.7667E-01  0.1680E+00
     -1.148  0.8274E-01  0.1748E+00
     -1.065  0.8121E-01  0.1815E+00
     -0.983  0.7249E-01  0.1875E+00
     -0.900  0.5936E-01  0.1924E+00
     -0.818  0.4855E-01  0.1964E+00
     -0.735  0.4465E-01  0.2001E+00
     -0.653  0.4389E-01  0.2037E+00
     -0.570  0.3937E-01  0.2070E+00
     -0.488  0.3093E-01  0.2095E+00
     -0.405  0.2486E-01  0.2116E+00
     -0.323  0.2546E-01  0.2137E+00
     -0.240  0.3125E-01  0.2163E+00
     -0.158  0.3729E-01  0.2193E+00
     -0.075  0.3844E-01  0.2225E+00
      0.007  0.3286E-01  0.2252E+00
      0.090  0.2406E-01  0.2272E+00
      0.172  0.1780E-01  0.2287E+00
      0.255  0.1740E-01  0.2301E+00
      0.337  0.2178E-01  0.2319E+00
      0.420  0.2615E-01  0.2341E+00
      0.502  0.2563E-01  0.2362E+00
      0.585  0.1991E-01  0.2378E+00
      0.667  0.1354E-01  0.2389E+00
      0.750  0.1079E-01  0.2398E+00
      0.832  0.1205E-01  0.2408E+00
      0.915  0.1564E-01  0.2421E+00
      0.997  0.2100E-01  0.2438E+00
      1.080  0.2829E-01  0.2462E+00
      1.162  0.3655E-01  0.2492E+00
      1.245  0.4407E-01  0.2528E+00
      1.327  0.5006E-01  0.2570E+00
      1.410  0.5565E-01  0.2616E+00
      1.492  0.6328E-01  0.2668E+00
      1.575  0.7321E-01  0.2728E+00
      1.657  0.8130E-01  0.2795E+00
      1.740  0.8298E-01  0.2864E+00
      1.822  0.7871E-01  0.2929E+00
      1.905  0.7322E-01  0.2989E+00
      1.987  0.7056E-01  0.3047E+00
      2.070  0.7079E-01  0.3106E+00
      2.152  0.7160E-01  0.3165E+00
      2.235  0.7234E-01  0.3224E+00
      2.317  0.7572E-01  0.3287E+00
      2.400  0.8447E-01  0.3357E+00
      2.482  0.9584E-01  0.3436E+00
      2.565  0.1020E+00  0.3520E+00
      2.648  0.9939E-01  0.3602E+00
      2.730  0.9452E-01  0.3680E+00
      2.813  0.9510E-01  0.3758E+00
      2.895  0.9959E-01  0.3840E+00
      2.978  0.1008E+00  0.3924E+00
      3.060  0.9691E-01  0.4004E+00
      3.143  0.9436E-01  0.4081E+00
      3.225  0.9875E-01  0.4163E+00
      3.308  0.1058E+00  0.4250E+00
      3.390  0.1053E+00  0.4337E+00
      3.473  0.9375E-01  0.4415E+00
      3.555  0.7908E-01  0.4480E+00
      3.638  0.7256E-01  0.4540E+00
      3.720  0.7795E-01  0.4604E+00
      3.803  0.8875E-01  0.4677E+00
      3.885  0.9490E-01  0.4755E+00
      3.968  0.9130E-01  0.4831E+00
      4.050  0.8033E-01  0.4897E+00
      4.133  0.6849E-01  0.4954E+00
      4.215  0.6148E-01  0.5004E+00
      4.298  0.5985E-01  0.5054E+00
      4.380  0.5809E-01  0.5102E+00
      4.463  0.5076E-01  0.5144E+00
      4.545  0.3946E-01  0.5176E+00
      4.628  0.3076E-01  0.5201E+00
      4.710  0.2812E-01  0.5225E+00
      4.793  0.2858E-01  0.5248E+00
      4.875  0.2714E-01  0.5271E+00
      4.958  0.2239E-01  0.5289E+00
      5.040  0.1676E-01  0.5303E+00
      5.123  0.1253E-01  0.5313E+00
      5.205  0.9634E-02  0.5321E+00
      5.288  0.7017E-02  0.5327E+00
      5.370  0.4366E-02  0.5331E+00
      5.453  0.2170E-02  0.5332E+00
      5.535  0.8296E-03  0.5333E+00
      5.618  0.2414E-03  0.5333E+00
      5.700  0.7784E-04  0.5333E+00
      5.783  0.1734E-03  0.5333E+00
      5.865  0.7289E-03  0.5334E+00
      5.948  0.2329E-02  0.5336E+00
      6.030  0.5473E-02  0.5341E+00
      6.113  0.9641E-02  0.5348E+00
      6.195  0.1331E-01  0.5359E+00
      6.278  0.1589E-01  0.5373E+00
      6.360  0.1901E-01  0.5388E+00
      6.443  0.2455E-01  0.5409E+00
      6.525  0.3150E-01  0.5435E+00
      6.608  0.3684E-01  0.5465E+00
      6.690  0.3999E-01  0.5498E+00
      6.773  0.4367E-01  0.5534E+00
      6.855  0.4925E-01  0.5575E+00
      6.938  0.5453E-01  0.5620E+00
      7.020  0.5752E-01  0.5667E+00
      7.103  0.5907E-01  0.5716E+00
      7.185  0.6192E-01  0.5767E+00
      7.268  0.6962E-01  0.5824E+00
      7.351  0.8457E-01  0.5894E+00
      7.433  0.1038E+00  0.5980E+00
      7.516  0.1178E+00  0.6077E+00
      7.598  0.1183E+00  0.6174E+00
      7.681  0.1070E+00  0.6263E+00
      7.763  0.9337E-01  0.6340E+00
      7.846  0.8555E-01  0.6410E+00
      7.928  0.8483E-01  0.6480E+00
      8.011  0.8597E-01  0.6551E+00
      8.093  0.8323E-01  0.6620E+00
      8.176  0.7667E-01  0.6683E+00
      8.258  0.7140E-01  0.6742E+00
      8.341  0.7276E-01  0.6802E+00
      8.423  0.8403E-01  0.6872E+00
      8.506  0.1040E+00  0.6957E+00
      8.588  0.1251E+00  0.7061E+00
      8.671  0.1370E+00  0.7174E+00
      8.753  0.1360E+00  0.7286E+00
      8.836  0.1273E+00  0.7391E+00
      8.918  0.1190E+00  0.7489E+00
      9.001  0.1135E+00  0.7583E+00
      9.083  0.1081E+00  0.7672E+00
      9.166  0.1013E+00  0.7755E+00
      9.248  0.9480E-01  0.7834E+00
      9.331  0.9007E-01  0.7908E+00
      9.413  0.8740E-01  0.7980E+00
      9.496  0.8656E-01  0.8052E+00
      9.578  0.8636E-01  0.8123E+00
      9.661  0.8585E-01  0.8194E+00
      9.743  0.8594E-01  0.8265E+00
      9.826  0.8731E-01  0.8337E+00
      9.908  0.8860E-01  0.8410E+00
      9.991  0.8982E-01  0.8484E+00
     10.073  0.9367E-01  0.8561E+00
     10.156  0.9973E-01  0.8643E+00
     10.238  0.1016E+00  0.8727E+00
     10.321  0.9409E-01  0.8805E+00
     10.403  0.8055E-01  0.8871E+00
     10.486  0.6873E-01  0.8928E+00
     10.568  0.6271E-01  0.8980E+00
     10.651  0.6094E-01  0.9030E+00
     10.733  0.6162E-01  0.9081E+00
     10.816  0.6693E-01  0.9136E+00
     10.898  0.7878E-01  0.9201E+00
     10.981  0.9278E-01  0.9278E+00
     11.063  0.1015E+00  0.9361E+00
     11.146  0.1011E+00  0.9445E+00
     11.228  0.9208E-01  0.9521E+00
     11.311  0.7678E-01  0.9584E+00
     11.393  0.6030E-01  0.9634E+00
     11.476  0.4896E-01  0.9674E+00
     11.558  0.4610E-01  0.9712E+00
     11.641  0.4871E-01  0.9753E+00
     11.723  0.4996E-01  0.9794E+00
     11.806  0.4672E-01  0.9832E+00
     11.889  0.4286E-01  0.9868E+00
     11.971  0.4500E-01  0.9905E+00
     12.054  0.5670E-01  0.9952E+00
     12.136  0.7436E-01  0.1001E+01
     12.219  0.8705E-01  0.1008E+01
     12.301  0.8480E-01  0.1015E+01
     12.384  0.6814E-01  0.1021E+01
     12.466  0.4668E-01  0.1025E+01
     12.549  0.3061E-01  0.1027E+01
     12.631  0.2487E-01  0.1030E+01
     12.714  0.2719E-01  0.1032E+01
     12.796  0.3056E-01  0.1034E+01
     12.879  0.3038E-01  0.1037E+01
     12.961  0.2864E-01  0.1039E+01
     13.044  0.2910E-01  0.1042E+01
     13.126  0.3188E-01  0.1044E+01
     13.209  0.3515E-01  0.1047E+01
     13.291  0.3811E-01  0.1050E+01
     13.374  0.3935E-01  0.1053E+01
     13.456  0.3560E-01  0.1056E+01
     13.539  0.2591E-01  0.1059E+01
     13.621  0.1439E-01  0.1060E+01
     13.704  0.5966E-02  0.1060E+01
     13.786  0.2003E-02  0.1060E+01
     13.869  0.1256E-02  0.1061E+01
     13.951  0.2584E-02  0.1061E+01
     14.034  0.5315E-02  0.1061E+01
     14.116  0.8117E-02  0.1062E+01
     14.199  0.9303E-02  0.1063E+01
     14.281  0.8814E-02  0.1063E+01
     14.364  0.8399E-02  0.1064E+01
     14.446  0.8908E-02  0.1065E+01
     14.529  0.8973E-02  0.1065E+01
     14.611  0.7237E-02  0.1066E+01
     14.694  0.4356E-02  0.1066E+01
     14.776  0.1916E-02  0.1067E+01
     14.859  0.6125E-03  0.1067E+01
     14.941  0.1419E-03  0.1067E+01
     15.024  0.2378E-04  0.1067E+01
     15.106  0.2881E-05  0.1067E+01
     15.189  0.2518E-06  0.1067E+01
     15.271  0.1586E-07  0.1067E+01
     15.354  0.7194E-09  0.1067E+01
     15.436  0.2345E-10  0.1067E+01
     15.519  0.5488E-12  0.1067E+01
     15.601  0.9213E-14  0.1067E+01
     15.684  0.1093E-15  0.1067E+01
     15.766  0.0000E+00  0.1067E+01
     15.849  0.0000E+00  0.1067E+01
     15.931  0.0000E+00  0.1067E+01
     16.014  0.0000E+00  0.1067E+01
     16.096  0.0000E+00  0.1067E+01
     16.179  0.0000E+00  0.1067E+01
     16.261  0.0000E+00  0.1067E+01
     16.344  0.0000E+00  0.1067E+01
     16.427  0.0000E+00  0.1067E+01
     16.509  0.0000E+00  0.1067E+01
