    2    2   15    1
  0.2105736E+02  0.3905257E-09  0.3905257E-09  0.3905257E-09  0.5000000E-15
  1.000000000000000E-004
  CAR 
 unknown system                          
      8     60      8
 
  0.6250000E-01  0.6250000E-01  0.6250000E-01  0.3906250E-02
    1       -6.243686   1.000000
    2        4.790238   1.000000
    3        5.246127   0.998790
    4        5.246127   0.998790
    5        7.859772   0.000000
    6        7.988547   0.000000
    7        7.988547   0.000000
    8        8.589194   0.000000
 
  0.1875000E+00  0.6250000E-01  0.6250000E-01  0.1171875E-01
    1       -5.984184   1.000000
    2        3.300736   1.000000
    3        4.469589   1.000000
    4        5.129394   0.999943
    5        7.877138   0.000000
    6        8.227532   0.000000
    7        8.492123   0.000000
    8       10.110975   0.000000
 
  0.3125000E+00  0.6250000E-01  0.6250000E-01  0.1171875E-01
    1       -5.358871   1.000000
    2        1.137218   1.000000
    3        3.990803   1.000000
    4        4.681267   1.000000
    5        7.424350   0.000000
    6        8.718839   0.000000
    7        8.994954   0.000000
    8       11.718869   0.000000
 
  0.4375000E+00  0.6250000E-01  0.6250000E-01  0.1171875E-01
    1       -4.491166   1.000000
    2       -0.687828   1.000000
    3        3.775985   1.000000
    4        4.286886   1.000000
    5        7.111497   0.000000
    6        8.801341   0.000000
    7        8.815006   0.000000
    8       13.018125   0.000000
 
 -0.4375000E+00  0.6250000E-01  0.6250000E-01  0.1171875E-01
    1       -4.065154   1.000000
    2       -1.359128   1.000000
    3        3.820785   1.000000
    4        4.076836   1.000000
    5        7.033170   0.000000
    6        8.618321   0.000000
    7        8.880329   0.000000
    8       13.118908   0.000000
 
 -0.3125000E+00  0.6250000E-01  0.6250000E-01  0.1171875E-01
    1       -4.787353   1.000000
    2       -0.149616   1.000000
    3        4.098076   1.000000
    4        4.099669   1.000000
    5        7.201273   0.000000
    6        8.612713   0.000000
    7        9.119891   0.000000
    8       12.157327   0.000000
 
 -0.1875000E+00  0.6250000E-01  0.6250000E-01  0.1171875E-01
    1       -5.603813   1.000000
    2        1.845981   1.000000
    3        4.370062   1.000000
    4        4.550003   1.000000
    5        7.565874   0.000000
    6        8.441608   0.000000
    7        9.150876   0.000000
    8       10.950725   0.000000
 
 -0.6250000E-01  0.6250000E-01  0.6250000E-01  0.1171875E-01
    1       -6.113229   1.000000
    2        4.038221   1.000000
    3        4.837390   1.000000
    4        4.981826   1.000000
    5        7.707213   0.000000
    6        8.201069   0.000000
    7        8.546668   0.000000
    8        9.361649   0.000000
 
  0.1875000E+00  0.1875000E+00  0.6250000E-01  0.1171875E-01
    1       -5.853542   1.000000
    2        3.143625   1.000000
    3        4.299758   1.000000
    4        4.370082   1.000000
    5        7.302426   0.000000
    6        8.924161   0.000000
    7        9.378293   0.000000
    8        9.837946   0.000000
 
  0.3125000E+00  0.1875000E+00  0.6250000E-01  0.2343750E-01
    1       -5.346167   1.000000
    2        1.677202   1.000000
    3        3.360131   1.000000
    4        4.120900   1.000000
    5        7.464797   0.000000
    6        9.028285   0.000000
    7        9.773716   0.000000
    8       10.156474   0.000000
 
  0.4375000E+00  0.1875000E+00  0.6250000E-01  0.2343750E-01
    1       -4.531414   1.000000
    2       -0.114809   1.000000
    3        2.867011   1.000000
    4        3.728354   1.000000
    5        7.642087   0.000000
    6        9.016658   0.000000
    7       10.184221   0.000000
    8       10.489555   0.000000
 
 -0.4375000E+00  0.1875000E+00  0.6250000E-01  0.2343750E-01
    1       -3.804448   1.000000
    2       -1.274085   1.000000
    3        2.582963   1.000000
    4        3.639811   1.000000
    5        7.693483   0.000000
    6        8.752222   0.000000
    7       10.048800   0.000000
    8       12.437221   0.000000
 
 -0.3125000E+00  0.1875000E+00  0.6250000E-01  0.2343750E-01
    1       -4.240368   1.000000
    2       -0.614001   1.000000
    3        2.517896   1.000000
    4        3.912583   1.000000
    5        7.941824   0.000000
    6        8.687302   0.000000
    7        9.988973   0.000000
    8       11.713118   0.000000
 
 -0.1875000E+00  0.1875000E+00  0.6250000E-01  0.2343750E-01
    1       -5.106895   1.000000
    2        1.049573   1.000000
    3        2.823596   1.000000
    4        4.400315   1.000000
    5        8.254881   0.000000
    6        8.577933   0.000000
    7        9.861698   0.000000
    8       10.357635   0.000000
 
 -0.6250000E-01  0.1875000E+00  0.6250000E-01  0.2343750E-01
    1       -5.727492   1.000000
    2        2.494821   1.000000
    3        3.911959   1.000000
    4        4.759396   1.000000
    5        7.837137   0.000000
    6        8.421192   0.000000
    7        9.197350   0.000000
    8       10.375388   0.000000
 
  0.3125000E+00  0.3125000E+00  0.6250000E-01  0.1171875E-01
    1       -4.958167   1.000000
    2        1.164341   1.000000
    3        3.223780   1.000000
    4        3.341403   1.000000
    5        6.519799   0.000000
    6        8.154326   0.000000
    7       11.174683   0.000000
    8       11.329519   0.000000
 
  0.4375000E+00  0.3125000E+00  0.6250000E-01  0.2343750E-01
    1       -4.231745   1.000000
    2       -0.037723   1.000000
    3        2.466519   1.000000
    4        3.007913   1.000000
    5        6.828142   0.000000
    6        7.996781   0.000000
    7       11.140414   0.000000
    8       12.293166   0.000000
 
 -0.4375000E+00  0.3125000E+00  0.6250000E-01  0.2343750E-01
    1       -3.369764   1.000000
    2       -1.189204   1.000000
    3        1.656117   1.000000
    4        2.976974   1.000000
    5        7.061767   0.000000
    6        9.612947   0.000000
    7       10.725953   0.000000
    8       12.206010   0.000000
 
 -0.3125000E+00  0.3125000E+00  0.6250000E-01  0.2343750E-01
    1       -3.440533   1.000000
    2       -1.096991   1.000000
    3        1.319492   1.000000
    4        3.308024   1.000000
    5        7.446208   0.000000
    6       10.307393   0.000000
    7       11.552811   0.000000
    8       11.909333   0.000000
 
 -0.1875000E+00  0.3125000E+00  0.6250000E-01  0.2343750E-01
    1       -4.302031   1.000000
    2       -0.165094   1.000000
    3        1.896496   1.000000
    4        3.870703   1.000000
    5        8.035135   0.000000
    6        9.229415   0.000000
    7       10.601522   0.000000
    8       10.908248   0.000000
 
 -0.6250000E-01  0.3125000E+00  0.6250000E-01  0.2343750E-01
    1       -4.998112   1.000000
    2        0.478951   1.000000
    3        3.461338   1.000000
    4        4.303463   1.000000
    5        7.702679   0.000000
    6        8.617434   0.000000
    7        9.457587   0.000000
    8       11.115501   0.000000
 
  0.4375000E+00  0.4375000E+00  0.6250000E-01  0.1171875E-01
    1       -3.598519   1.000000
    2       -0.878063   1.000000
    3        2.559757   1.000000
    4        2.766018   1.000000
    5        6.145544   0.000439
    6        6.850627   0.000000
    7       13.407452   0.000000
    8       13.435762   0.000000
 
 -0.4375000E+00  0.4375000E+00  0.6250000E-01  0.2343750E-01
    1       -2.720332   1.000000
    2       -1.837848   1.000000
    3        2.027322   1.000000
    4        2.534131   1.000000
    5        6.569202   0.000000
    6        7.276760   0.000000
    7       13.177473   0.000000
    8       14.135773   0.000000
 
 -0.3125000E+00  0.4375000E+00  0.6250000E-01  0.2343750E-01
    1       -2.822397   1.000000
    2       -1.671665   1.000000
    3        1.329557   1.000000
    4        2.838099   1.000000
    5        6.920772   0.000000
    6        9.456958   0.000000
    7       11.693161   0.000000
    8       12.793500   0.000000
 
 -0.1875000E+00  0.4375000E+00  0.6250000E-01  0.2343750E-01
    1       -3.556283   1.000000
    2       -1.245377   1.000000
    3        1.839736   1.000000
    4        3.417363   1.000000
    5        7.556566   0.000000
    6        9.469681   0.000000
    7       10.967085   0.000000
    8       12.194868   0.000000
 
 -0.6250000E-01  0.4375000E+00  0.6250000E-01  0.2343750E-01
    1       -4.143152   1.000000
    2       -1.078989   1.000000
    3        3.285034   1.000000
    4        3.981192   1.000000
    5        7.493572   0.000000
    6        8.552879   0.000000
    7        9.294863   0.000000
    8       12.758627   0.000000
 
 -0.4375000E+00 -0.4375000E+00  0.6250000E-01  0.1171875E-01
    1       -2.767928   1.000000
    2       -1.853367   1.000000
    3        2.426505   1.000000
    4        2.648400   1.000000
    5        6.148162   0.000411
    6        6.499362   0.000000
    7       14.456582   0.000000
    8       14.509017   0.000000
 
 -0.3125000E+00 -0.4375000E+00  0.6250000E-01  0.2343750E-01
    1       -3.517187   1.000000
    2       -0.940527   1.000000
    3        2.177678   1.000000
    4        2.688948   1.000000
    5        6.649912   0.000000
    6        7.525352   0.000000
    7       12.133107   0.000000
    8       13.416908   0.000000
 
 -0.1875000E+00 -0.4375000E+00  0.6250000E-01  0.2343750E-01
    1       -3.976597   1.000000
    2       -0.660334   1.000000
    3        2.221710   1.000000
    4        3.266630   1.000000
    5        7.325323   0.000000
    6        9.790899   0.000000
    7        9.958089   0.000000
    8       11.177683   0.000000
 
 -0.3125000E+00 -0.3125000E+00  0.6250000E-01  0.1171875E-01
    1       -4.332489   1.000000
    2        0.136862   1.000000
    3        2.825950   1.000000
    4        2.998861   1.000000
    5        6.268011   0.000014
    6        7.415341   0.000000
    7       12.274657   0.000000
    8       12.369397   0.000000
 
 -0.1875000E+00 -0.3125000E+00  0.6250000E-01  0.2343750E-01
    1       -4.845107   1.000000
    2        0.837696   1.000000
    3        2.869469   1.000000
    4        3.496839   1.000000
    5        7.106560   0.000000
    6        8.645628   0.000000
    7       10.221764   0.000000
    8       11.195193   0.000000
 
 -0.1875000E+00 -0.1875000E+00  0.6250000E-01  0.1171875E-01
    1       -5.467172   1.000000
    2        2.176028   1.000000
    3        3.747420   1.000000
    4        3.782660   1.000000
    5        6.878854   0.000000
    6        8.953692   0.000000
    7       10.169224   0.000000
    8       10.325812   0.000000
 
  0.1875000E+00  0.1875000E+00  0.1875000E+00  0.3906250E-02
    1       -5.856816   1.000000
    2        2.600422   1.000000
    3        4.819405   1.000000
    4        4.819405   1.000000
    5        7.425276   0.000000
    6        8.589052   0.000000
    7        8.589052   0.000000
    8       10.736520   0.000000
 
  0.3125000E+00  0.1875000E+00  0.1875000E+00  0.1171875E-01
    1       -5.477276   1.000000
    2        1.765328   1.000000
    3        3.358460   1.000000
    4        4.832716   1.000000
    5        8.077826   0.000000
    6        8.711717   0.000000
    7        8.986387   0.000000
    8       10.897442   0.000000
 
  0.4375000E+00  0.1875000E+00  0.1875000E+00  0.1171875E-01
    1       -4.755358   1.000000
    2        0.424886   1.000000
    3        2.313197   1.000000
    4        4.345368   1.000000
    5        7.972563   0.000000
    6        9.451028   0.000000
    7        9.635700   0.000000
    8       11.183029   0.000000
 
 -0.4375000E+00  0.1875000E+00  0.1875000E+00  0.1171875E-01
    1       -3.896558   1.000000
    2       -1.005990   1.000000
    3        2.153405   1.000000
    4        3.833087   1.000000
    5        7.510890   0.000000
    6        9.596299   0.000000
    7        9.850514   0.000000
    8       13.014177   0.000000
 
 -0.3125000E+00  0.1875000E+00  0.1875000E+00  0.1171875E-01
    1       -3.881090   1.000000
    2       -1.033725   1.000000
    3        2.439255   1.000000
    4        3.527073   1.000000
    5        7.254417   0.000000
    6        9.655196   0.000000
    7       10.188311   0.000000
    8       11.134660   0.000000
 
 -0.1875000E+00  0.1875000E+00  0.1875000E+00  0.1171875E-01
    1       -4.738316   1.000000
    2        0.421730   1.000000
    3        3.034790   1.000000
    4        3.505979   1.000000
    5        7.192103   0.000000
    6        9.316034   0.000000
    7        9.945768   0.000000
    8       10.537132   0.000000
 
  0.3125000E+00  0.3125000E+00  0.1875000E+00  0.1171875E-01
    1       -5.228854   1.000000
    2        1.121646   1.000000
    3        3.830646   1.000000
    4        3.911022   1.000000
    5        7.554596   0.000000
    6        8.847314   0.000000
    7        9.808575   0.000000
    8       10.205958   0.000000
 
  0.4375000E+00  0.3125000E+00  0.1875000E+00  0.2343750E-01
    1       -4.623239   1.000000
    2        0.352235   1.000000
    3        2.368409   1.000000
    4        3.720120   1.000000
    5        8.049695   0.000000
    6        9.029633   0.000000
    7        9.575709   0.000000
    8       11.023766   0.000000
 
 -0.4375000E+00  0.3125000E+00  0.1875000E+00  0.2343750E-01
    1       -3.764321   1.000000
    2       -0.724245   1.000000
    3        1.608934   1.000000
    4        3.176112   1.000000
    5        8.492736   0.000000
    6        8.970256   0.000000
    7       10.216449   0.000000
    8       12.093852   0.000000
 
 -0.3125000E+00  0.3125000E+00  0.1875000E+00  0.2343750E-01
    1       -3.297585   1.000000
    2       -1.311935   1.000000
    3        1.606654   1.000000
    4        2.876482   1.000000
    5        8.041761   0.000000
    6        9.289716   0.000000
    7       10.981060   0.000000
    8       12.209793   0.000000
 
 -0.1875000E+00  0.3125000E+00  0.1875000E+00  0.2343750E-01
    1       -4.037184   1.000000
    2       -0.348351   1.000000
    3        2.019177   1.000000
    4        3.047953   1.000000
    5        7.778028   0.000000
    6        8.977753   0.000000
    7        9.784192   0.000000
    8       12.210948   0.000000
 
  0.4375000E+00  0.4375000E+00  0.1875000E+00  0.1171875E-01
    1       -4.142562   1.000000
    2       -0.287620   1.000000
    3        2.337565   1.000000
    4        3.185564   1.000000
    5        6.830242   0.000000
    6        8.813251   0.000000
    7       10.968111   0.000000
    8       11.341446   0.000000
 
 -0.4375000E+00  0.4375000E+00  0.1875000E+00  0.2343750E-01
    1       -3.366193   1.000000
    2       -1.075693   1.000000
    3        1.788074   1.000000
    4        2.532442   1.000000
    5        7.583567   0.000000
    6        8.578724   0.000000
    7       10.659507   0.000000
    8       13.379573   0.000000
 
 -0.3125000E+00  0.4375000E+00  0.1875000E+00  0.2343750E-01
    1       -2.588641   1.000000
    2       -1.811586   1.000000
    3        1.486400   1.000000
    4        2.051627   1.000000
    5        8.681636   0.000000
    6        9.602801   0.000000
    7       10.212584   0.000000
    8       11.207712   0.000000
 
 -0.1875000E+00  0.4375000E+00  0.1875000E+00  0.2343750E-01
    1       -3.171210   1.000000
    2       -1.273837   1.000000
    3        1.474270   1.000000
    4        2.509002   1.000000
    5        8.777486   0.000000
    6        9.184476   0.000000
    7        9.913071   0.000000
    8       12.345315   0.000000
 
 -0.4375000E+00 -0.4375000E+00  0.1875000E+00  0.1171875E-01
    1       -2.744005   1.000000
    2       -1.786757   1.000000
    3        1.586095   1.000000
    4        2.853612   1.000000
    5        6.416205   0.000000
    6        8.265272   0.000000
    7       13.105425   0.000000
    8       13.266536   0.000000
 
 -0.3125000E+00 -0.4375000E+00  0.1875000E+00  0.2343750E-01
    1       -2.646607   1.000000
    2       -1.819982   1.000000
    3        1.676483   1.000000
    4        2.255384   1.000000
    5        7.484105   0.000000
    6        8.377736   0.000000
    7       11.641626   0.000000
    8       12.726603   0.000000
 
 -0.3125000E+00 -0.3125000E+00  0.1875000E+00  0.1171875E-01
    1       -3.459902   1.000000
    2       -1.035549   1.000000
    3        1.839260   1.000000
    4        2.965417   1.000000
    5        6.559347   0.000000
    6        8.446994   0.000000
    7       12.101307   0.000000
    8       12.223401   0.000000
 
  0.3125000E+00  0.3125000E+00  0.3125000E+00  0.3906250E-02
    1       -5.125901   1.000000
    2        0.456856   1.000000
    3        4.416691   1.000000
    4        4.416691   1.000000
    5        6.972362   0.000000
    6        8.835576   0.000000
    7        8.835576   0.000000
    8       12.775003   0.000000
 
  0.4375000E+00  0.3125000E+00  0.3125000E+00  0.1171875E-01
    1       -4.662875   1.000000
    2       -0.112105   1.000000
    3        2.991922   1.000000
    4        4.330540   1.000000
    5        7.705886   0.000000
    6        9.048628   0.000000
    7        9.101156   0.000000
    8       12.189044   0.000000
 
 -0.4375000E+00  0.3125000E+00  0.3125000E+00  0.1171875E-01
    1       -3.898435   1.000000
    2       -0.654995   1.000000
    3        1.530984   1.000000
    4        3.771629   1.000000
    5        7.449369   0.000000
    6       10.448647   0.000000
    7       10.594513   0.000000
    8       11.929564   0.000000
 
 -0.3125000E+00  0.3125000E+00  0.3125000E+00  0.1171875E-01
    1       -3.108140   1.000000
    2       -1.421544   1.000000
    3        1.211600   1.000000
    4        3.244024   1.000000
    5        6.864709   0.000000
    6       10.674705   0.000000
    7       11.686710   0.000000
    8       11.894343   0.000000
 
  0.4375000E+00  0.4375000E+00  0.3125000E+00  0.1171875E-01
    1       -4.360839   1.000000
    2       -0.650768   1.000000
    3        3.309255   1.000000
    4        3.788929   1.000000
    5        7.459037   0.000000
    6        8.804222   0.000000
    7        9.576102   0.000000
    8       11.561584   0.000000
 
 -0.4375000E+00  0.4375000E+00  0.3125000E+00  0.2343750E-01
    1       -3.763451   1.000000
    2       -1.014730   1.000000
    3        2.051552   1.000000
    4        3.334422   1.000000
    5        8.231980   0.000000
    6        8.602690   0.000000
    7       11.038250   0.000000
    8       11.323208   0.000000
 
 -0.3125000E+00  0.4375000E+00  0.3125000E+00  0.2343750E-01
    1       -2.973673   1.000000
    2       -1.490436   1.000000
    3        1.300764   1.000000
    4        2.648594   1.000000
    5        7.919627   0.000000
    6       10.119229   0.000000
    7       10.868225   0.000000
    8       11.372057   0.000000
 
 -0.4375000E+00 -0.4375000E+00  0.3125000E+00  0.1171875E-01
    1       -3.418759   1.000000
    2       -1.291811   1.000000
    3        1.679933   1.000000
    4        3.340546   1.000000
    5        7.005738   0.000000
    6       10.631722   0.000000
    7       10.929517   0.000000
    8       10.946099   0.000000
 
  0.4375000E+00  0.4375000E+00  0.4375000E+00  0.3906250E-02
    1       -4.272527   1.000000
    2       -1.132434   1.000000
    3        4.200428   1.000000
    4        4.200428   1.000000
    5        6.720465   0.000000
    6        8.715476   0.000000
    7        8.715476   0.000000
    8       13.022783   0.000000
 
 -0.4375000E+00  0.4375000E+00  0.4375000E+00  0.1171875E-01
    1       -3.935648   1.000000
    2       -1.306974   1.000000
    3        3.004628   1.000000
    4        3.943273   1.000000
    5        7.470848   0.000000
    6        8.816602   0.000000
    7        9.276740   0.000000
    8       13.350181   0.000000
