<?xml version="1.0" encoding="ISO-8859-1"?>
<modeling>
 <generator>
  <i name="program" type="string">vasp </i>
  <i name="version" type="string">5.4.4.18Apr17-6-g9f103f2a35  </i>
  <i name="subversion" type="string">(build Dec 09 2018 21:25:21) complex            parallel </i>
  <i name="platform" type="string">IFC18.0.1.163_CrayMPICH7.7.0_MKL18.0.1.163 </i>
  <i name="date" type="string">2019 03 23 </i>
  <i name="time" type="string">21:21:35 </i>
 </generator>
 <incar>
  <i type="string" name="PREC">normal</i>
  <i type="int" name="IBRION">     2</i>
  <i name="EDIFF">      0.00040000</i>
  <i name="EDIFFG">     -0.01000000</i>
  <i type="int" name="NSW">    15</i>
  <i type="int" name="ISIF">     2</i>
  <i name="ENCUT">    350.00000000</i>
  <i type="int" name="NBANDS">     8</i>
  <i type="logical" name="LREAL"> F  </i>
  <i type="int" name="ISMEAR">     0</i>
  <i name="SIGMA">      0.20000000</i>
  <v type="int" name="KPOINT_BSE">    -1     0     0     0</v>
 </incar>
 <structure name="primitive_cell" >
  <crystal>
   <varray name="basis" >
    <v>       0.00000000       2.76143400       2.76143400 </v>
    <v>       2.76143400       0.00000000       2.76143400 </v>
    <v>       2.76143400       2.76143400       0.00000000 </v>
   </varray>
   <i name="volume">     42.11472789 </i>
   <varray name="rec_basis" >
    <v>      -0.18106535       0.18106535       0.18106535 </v>
    <v>       0.18106535      -0.18106535       0.18106535 </v>
    <v>       0.18106535       0.18106535      -0.18106535 </v>
   </varray>
  </crystal>
  <varray name="positions" >
   <v>      -0.50000000      -0.50000000      -0.50000000 </v>
   <v>      -0.25000000      -0.25000000      -0.25000000 </v>
  </varray>
 </structure>
 <varray name="primitive_index" >
  <v type="int" >        1 </v>
  <v type="int" >        2 </v>
 </varray>
 <kpoints>
  <generation param="Monkhorst-Pack">
   <v type="int" name="divisions">       8        8        8 </v>
   <v name="usershift">      0.00000000       0.00000000       0.00000000 </v>
   <v name="genvec1">      0.12500000       0.00000000      -0.00000000 </v>
   <v name="genvec2">      0.00000000       0.12500000       0.00000000 </v>
   <v name="genvec3">     -0.00000000      -0.00000000       0.12500000 </v>
   <v name="shift">      0.50000000       0.50000000       0.50000000 </v>
  </generation>
  <varray name="kpointlist" >
   <v>       0.06250000       0.06250000       0.06250000 </v>
   <v>       0.18750000       0.06250000       0.06250000 </v>
   <v>       0.31250000       0.06250000       0.06250000 </v>
   <v>       0.43750000       0.06250000       0.06250000 </v>
   <v>      -0.43750000       0.06250000       0.06250000 </v>
   <v>      -0.31250000       0.06250000       0.06250000 </v>
   <v>      -0.18750000       0.06250000       0.06250000 </v>
   <v>      -0.06250000       0.06250000       0.06250000 </v>
   <v>       0.18750000       0.18750000       0.06250000 </v>
   <v>       0.31250000       0.18750000       0.06250000 </v>
   <v>       0.43750000       0.18750000       0.06250000 </v>
   <v>      -0.43750000       0.18750000       0.06250000 </v>
   <v>      -0.31250000       0.18750000       0.06250000 </v>
   <v>      -0.18750000       0.18750000       0.06250000 </v>
   <v>      -0.06250000       0.18750000       0.06250000 </v>
   <v>       0.31250000       0.31250000       0.06250000 </v>
   <v>       0.43750000       0.31250000       0.06250000 </v>
   <v>      -0.43750000       0.31250000       0.06250000 </v>
   <v>      -0.31250000       0.31250000       0.06250000 </v>
   <v>      -0.18750000       0.31250000       0.06250000 </v>
   <v>      -0.06250000       0.31250000       0.06250000 </v>
   <v>       0.43750000       0.43750000       0.06250000 </v>
   <v>      -0.43750000       0.43750000       0.06250000 </v>
   <v>      -0.31250000       0.43750000       0.06250000 </v>
   <v>      -0.18750000       0.43750000       0.06250000 </v>
   <v>      -0.06250000       0.43750000       0.06250000 </v>
   <v>      -0.43750000      -0.43750000       0.06250000 </v>
   <v>      -0.31250000      -0.43750000       0.06250000 </v>
   <v>      -0.18750000      -0.43750000       0.06250000 </v>
   <v>      -0.31250000      -0.31250000       0.06250000 </v>
   <v>      -0.18750000      -0.31250000       0.06250000 </v>
   <v>      -0.18750000      -0.18750000       0.06250000 </v>
   <v>       0.18750000       0.18750000       0.18750000 </v>
   <v>       0.31250000       0.18750000       0.18750000 </v>
   <v>       0.43750000       0.18750000       0.18750000 </v>
   <v>      -0.43750000       0.18750000       0.18750000 </v>
   <v>      -0.31250000       0.18750000       0.18750000 </v>
   <v>      -0.18750000       0.18750000       0.18750000 </v>
   <v>       0.31250000       0.31250000       0.18750000 </v>
   <v>       0.43750000       0.31250000       0.18750000 </v>
   <v>      -0.43750000       0.31250000       0.18750000 </v>
   <v>      -0.31250000       0.31250000       0.18750000 </v>
   <v>      -0.18750000       0.31250000       0.18750000 </v>
   <v>       0.43750000       0.43750000       0.18750000 </v>
   <v>      -0.43750000       0.43750000       0.18750000 </v>
   <v>      -0.31250000       0.43750000       0.18750000 </v>
   <v>      -0.18750000       0.43750000       0.18750000 </v>
   <v>      -0.43750000      -0.43750000       0.18750000 </v>
   <v>      -0.31250000      -0.43750000       0.18750000 </v>
   <v>      -0.31250000      -0.31250000       0.18750000 </v>
   <v>       0.31250000       0.31250000       0.31250000 </v>
   <v>       0.43750000       0.31250000       0.31250000 </v>
   <v>      -0.43750000       0.31250000       0.31250000 </v>
   <v>      -0.31250000       0.31250000       0.31250000 </v>
   <v>       0.43750000       0.43750000       0.31250000 </v>
   <v>      -0.43750000       0.43750000       0.31250000 </v>
   <v>      -0.31250000       0.43750000       0.31250000 </v>
   <v>      -0.43750000      -0.43750000       0.31250000 </v>
   <v>       0.43750000       0.43750000       0.43750000 </v>
   <v>      -0.43750000       0.43750000       0.43750000 </v>
  </varray>
  <varray name="weights" >
   <v>       0.00390625 </v>
   <v>       0.01171875 </v>
   <v>       0.01171875 </v>
   <v>       0.01171875 </v>
   <v>       0.01171875 </v>
   <v>       0.01171875 </v>
   <v>       0.01171875 </v>
   <v>       0.01171875 </v>
   <v>       0.01171875 </v>
   <v>       0.02343750 </v>
   <v>       0.02343750 </v>
   <v>       0.02343750 </v>
   <v>       0.02343750 </v>
   <v>       0.02343750 </v>
   <v>       0.02343750 </v>
   <v>       0.01171875 </v>
   <v>       0.02343750 </v>
   <v>       0.02343750 </v>
   <v>       0.02343750 </v>
   <v>       0.02343750 </v>
   <v>       0.02343750 </v>
   <v>       0.01171875 </v>
   <v>       0.02343750 </v>
   <v>       0.02343750 </v>
   <v>       0.02343750 </v>
   <v>       0.02343750 </v>
   <v>       0.01171875 </v>
   <v>       0.02343750 </v>
   <v>       0.02343750 </v>
   <v>       0.01171875 </v>
   <v>       0.02343750 </v>
   <v>       0.01171875 </v>
   <v>       0.00390625 </v>
   <v>       0.01171875 </v>
   <v>       0.01171875 </v>
   <v>       0.01171875 </v>
   <v>       0.01171875 </v>
   <v>       0.01171875 </v>
   <v>       0.01171875 </v>
   <v>       0.02343750 </v>
   <v>       0.02343750 </v>
   <v>       0.02343750 </v>
   <v>       0.02343750 </v>
   <v>       0.01171875 </v>
   <v>       0.02343750 </v>
   <v>       0.02343750 </v>
   <v>       0.02343750 </v>
   <v>       0.01171875 </v>
   <v>       0.02343750 </v>
   <v>       0.01171875 </v>
   <v>       0.00390625 </v>
   <v>       0.01171875 </v>
   <v>       0.01171875 </v>
   <v>       0.01171875 </v>
   <v>       0.01171875 </v>
   <v>       0.02343750 </v>
   <v>       0.02343750 </v>
   <v>       0.01171875 </v>
   <v>       0.00390625 </v>
   <v>       0.01171875 </v>
  </varray>
 </kpoints>
 <parameters>
  <separator name="general" >
   <i type="string" name="SYSTEM">unknown system</i>
   <i type="logical" name="LCOMPAT"> F  </i>
  </separator>
  <separator name="electronic" >
   <i type="string" name="PREC">normal</i>
   <i name="ENMAX">    350.00000000</i>
   <i name="ENAUG">    322.06900000</i>
   <i name="EDIFF">      0.00040000</i>
   <i type="int" name="IALGO">    38</i>
   <i type="int" name="IWAVPR">    11</i>
   <i type="int" name="NBANDS">     8</i>
   <i name="NELECT">      8.00000000</i>
   <i type="int" name="TURBO">     0</i>
   <i type="int" name="IRESTART">     0</i>
   <i type="int" name="NREBOOT">     0</i>
   <i type="int" name="NMIN">     0</i>
   <i name="EREF">      0.00000000</i>
   <separator name="electronic smearing" >
    <i type="int" name="ISMEAR">     0</i>
    <i name="SIGMA">      0.20000000</i>
    <i name="KSPACING">      0.50000000</i>
    <i type="logical" name="KGAMMA"> T  </i>
   </separator>
   <separator name="electronic projectors" >
    <i type="logical" name="LREAL"> F  </i>
    <v name="ROPT">      0.00000000</v>
    <i type="int" name="LMAXPAW">  -100</i>
    <i type="int" name="LMAXMIX">     2</i>
    <i type="logical" name="NLSPLINE"> F  </i>
   </separator>
   <separator name="electronic startup" >
    <i type="int" name="ISTART">     0</i>
    <i type="int" name="ICHARG">     2</i>
    <i type="int" name="INIWAV">     1</i>
   </separator>
   <separator name="electronic spin" >
    <i type="int" name="ISPIN">     1</i>
    <i type="logical" name="LNONCOLLINEAR"> F  </i>
    <v name="MAGMOM">      1.00000000      1.00000000</v>
    <i name="NUPDOWN">     -1.00000000</i>
    <i type="logical" name="LSORBIT"> F  </i>
    <v name="SAXIS">      0.00000000      0.00000000      1.00000000</v>
    <i type="logical" name="LSPIRAL"> F  </i>
    <v name="QSPIRAL">      0.00000000      0.00000000      0.00000000</v>
    <i type="logical" name="LZEROZ"> F  </i>
   </separator>
   <separator name="electronic exchange-correlation" >
    <i type="logical" name="LASPH"> F  </i>
    <i type="logical" name="LMETAGGA"> F  </i>
   </separator>
   <separator name="electronic convergence" >
    <i type="int" name="NELM">    60</i>
    <i type="int" name="NELMDL">    -5</i>
    <i type="int" name="NELMIN">     2</i>
    <i name="ENINI">    350.00000000</i>
    <separator name="electronic convergence detail" >
     <i type="logical" name="LDIAG"> T  </i>
     <i type="logical" name="LSUBROT"> F  </i>
     <i name="WEIMIN">      0.00100000</i>
     <i name="EBREAK">      0.00001250</i>
     <i name="DEPER">      0.30000000</i>
     <i type="int" name="NRMM">     4</i>
     <i name="TIME">      0.40000000</i>
    </separator>
   </separator>
   <separator name="electronic mixer" >
    <i name="AMIX">      0.40000000</i>
    <i name="BMIX">      1.00000000</i>
    <i name="AMIN">      0.10000000</i>
    <i name="AMIX_MAG">      1.60000000</i>
    <i name="BMIX_MAG">      1.00000000</i>
    <separator name="electronic mixer details" >
     <i type="int" name="IMIX">     4</i>
     <i type="logical" name="MIXFIRST"> F  </i>
     <i type="int" name="MAXMIX">   -45</i>
     <i name="WC">    100.00000000</i>
     <i type="int" name="INIMIX">     1</i>
     <i type="int" name="MIXPRE">     1</i>
     <i type="int" name="MREMOVE">     5</i>
    </separator>
   </separator>
   <separator name="electronic dipolcorrection" >
    <i type="logical" name="LDIPOL"> F  </i>
    <i type="logical" name="LMONO"> F  </i>
    <i type="int" name="IDIPOL">     0</i>
    <i name="EPSILON">      1.00000000</i>
    <v name="DIPOL">   -100.00000000   -100.00000000   -100.00000000</v>
    <i name="EFIELD">      0.00000000</i>
   </separator>
  </separator>
  <separator name="grids" >
   <i type="int" name="NGX">    18</i>
   <i type="int" name="NGY">    18</i>
   <i type="int" name="NGZ">    18</i>
   <i type="int" name="NGXF">    36</i>
   <i type="int" name="NGYF">    36</i>
   <i type="int" name="NGZF">    36</i>
   <i type="logical" name="ADDGRID"> F  </i>
  </separator>
  <separator name="ionic" >
   <i type="int" name="NSW">    15</i>
   <i type="int" name="IBRION">     2</i>
   <i type="int" name="MDALGO">     0</i>
   <i type="int" name="ISIF">     2</i>
   <i name="PSTRESS">      0.00000000</i>
   <i name="EDIFFG">     -0.01000000</i>
   <i type="int" name="NFREE">     1</i>
   <i name="POTIM">      0.50000000</i>
   <i name="SMASS">     -3.00000000</i>
   <i name="SCALEE">      1.00000000</i>
  </separator>
  <separator name="ionic md" >
   <i name="TEBEG">      0.00010000</i>
   <i name="TEEND">      0.00010000</i>
   <i type="int" name="NBLOCK">     1</i>
   <i type="int" name="KBLOCK">    15</i>
   <i type="int" name="NPACO">   256</i>
   <i name="APACO">     16.00000000</i>
  </separator>
  <separator name="symmetry" >
   <i type="int" name="ISYM">     2</i>
   <i name="SYMPREC">      0.00001000</i>
  </separator>
  <separator name="dos" >
   <i type="int" name="LORBIT">     0</i>
   <v name="RWIGS">     -1.00000000</v>
   <i type="int" name="NEDOS">   301</i>
   <i name="EMIN">     10.00000000</i>
   <i name="EMAX">    -10.00000000</i>
   <i name="EFERMI">      0.00000000</i>
  </separator>
  <separator name="writing" >
   <i type="int" name="NWRITE">     2</i>
   <i type="logical" name="LWAVE"> T  </i>
   <i type="logical" name="LDOWNSAMPLE"> F  </i>
   <i type="logical" name="LCHARG"> T  </i>
   <i type="logical" name="LPARD"> F  </i>
   <i type="logical" name="LVTOT"> F  </i>
   <i type="logical" name="LVHAR"> F  </i>
   <i type="logical" name="LELF"> F  </i>
   <i type="logical" name="LOPTICS"> F  </i>
   <v name="STM">      0.00000000      0.00000000      0.00000000      0.00000000      0.00000000      0.00000000      0.00000000</v>
  </separator>
  <separator name="performance" >
   <i type="int" name="NPAR">     8</i>
   <i type="int" name="NSIM">     4</i>
   <i type="int" name="NBLK">    -1</i>
   <i type="logical" name="LPLANE"> T  </i>
   <i type="logical" name="LSCALAPACK"> T  </i>
   <i type="logical" name="LSCAAWARE"> F  </i>
   <i type="logical" name="LSCALU"> F  </i>
   <i type="logical" name="LASYNC"> F  </i>
   <i type="logical" name="LORBITALREAL"> F  </i>
  </separator>
  <separator name="miscellaneous" >
   <i type="int" name="IDIOT">     3</i>
   <i type="int" name="ISPECIAL">     0</i>
   <i type="logical" name="LMUSIC"> F  </i>
   <v name="POMASS">     28.08500000</v>
   <v name="DARWINR">      0.00000000</v>
   <v name="DARWINV">      1.00000000</v>
   <i type="logical" name="LCORR"> T  </i>
  </separator>
  <i type="logical" name="GGA_COMPAT"> T  </i>
  <i type="logical" name="LBERRY"> F  </i>
  <i type="int" name="ICORELEVEL">     0</i>
  <i type="logical" name="LDAU"> F  </i>
  <i type="int" name="I_CONSTRAINED_M">     0</i>
  <separator name="electronic exchange-correlation" >
   <i type="string" name="GGA">--</i>
   <i type="int" name="VOSKOWN">     0</i>
   <i type="logical" name="LHFCALC"> F  </i>
   <i type="string" name="PRECFOCK"></i>
   <i type="logical" name="LSYMGRAD"> F  </i>
   <i type="logical" name="LHFONE"> F  </i>
   <i type="logical" name="LRHFCALC"> F  </i>
   <i type="logical" name="LTHOMAS"> F  </i>
   <i type="logical" name="LMODELHF"> F  </i>
   <i name="ENCUT4O">     -1.00000000</i>
   <i type="int" name="EXXOEP">     0</i>
   <i type="int" name="FOURORBIT">     0</i>
   <i name="AEXX">      0.00000000</i>
   <i name="HFALPHA">      0.00000000</i>
   <i name="MCALPHA">      0.00000000</i>
   <i name="ALDAX">      1.00000000</i>
   <i name="AGGAX">      1.00000000</i>
   <i name="ALDAC">      1.00000000</i>
   <i name="AGGAC">      1.00000000</i>
   <i type="int" name="NKREDX">     1</i>
   <i type="int" name="NKREDY">     1</i>
   <i type="int" name="NKREDZ">     1</i>
   <i type="logical" name="SHIFTRED"> F  </i>
   <i type="logical" name="ODDONLY"> F  </i>
   <i type="logical" name="EVENONLY"> F  </i>
   <i type="int" name="LMAXFOCK">     0</i>
   <i type="int" name="NMAXFOCKAE">     0</i>
   <i type="logical" name="LFOCKAEDFT"> F  </i>
   <i name="HFSCREEN">      0.00000000</i>
   <i name="HFSCREENC">      0.00000000</i>
   <i type="int" name="NBANDSGWLOW">     0</i>
  </separator>
  <separator name="vdW DFT" >
   <i type="logical" name="LUSE_VDW"> F  </i>
   <i name="Zab_VDW">     -0.84910000</i>
   <i name="PARAM1">      0.12340000</i>
   <i name="PARAM2">      1.00000000</i>
   <i name="PARAM3">      0.00000000</i>
  </separator>
  <separator name="model GW" >
   <i type="int" name="MODEL_GW">     0</i>
   <i name="MODEL_EPS0">     12.63441837</i>
   <i name="MODEL_ALPHA">      1.00000000</i>
  </separator>
  <separator name="linear response parameters" >
   <i type="logical" name="LEPSILON"> F  </i>
   <i type="logical" name="LRPA"> F  </i>
   <i type="logical" name="LNABLA"> F  </i>
   <i type="logical" name="LVEL"> F  </i>
   <i type="int" name="KINTER">     0</i>
   <i name="CSHIFT">      0.10000000</i>
   <i name="OMEGAMAX">     -1.00000000</i>
   <i name="DEG_THRESHOLD">      0.00200000</i>
   <i name="RTIME">     -0.10000000</i>
   <i name="WPLASMAI">      0.00000000</i>
   <v name="DFIELD">      0.00000000      0.00000000      0.00000000</v>
   <v name="WPLASMA">      0.00000000      0.00000000      0.00000000      0.00000000      0.00000000      0.00000000      0.00000000      0.00000000      0.00000000</v>
  </separator>
  <separator name="orbital magnetization" >
   <i type="logical" name="NUCIND"> F  </i>
   <v name="MAGPOS">      0.00000000      0.00000000      0.00000000</v>
   <i type="logical" name="LNICSALL"> T  </i>
   <i type="logical" name="ORBITALMAG"> F  </i>
   <i type="logical" name="LMAGBLOCH"> F  </i>
   <i type="logical" name="LCHIMAG"> F  </i>
   <i type="logical" name="LGAUGE"> T  </i>
   <i type="int" name="MAGATOM">     0</i>
   <v name="MAGDIPOL">      0.00000000      0.00000000      0.00000000</v>
   <v name="AVECCONST">      0.00000000      0.00000000      0.00000000</v>
  </separator>
  <separator name="response functions" >
   <i type="logical" name="LADDER"> F  </i>
   <i type="logical" name="LRPAFORCE"> F  </i>
   <i type="logical" name="LFXC"> F  </i>
   <i type="logical" name="LHARTREE"> T  </i>
   <i type="int" name="IBSE">     0</i>
   <v type="int" name="KPOINT">    -1     0     0     0</v>
   <i type="logical" name="LTCTE"> F  </i>
   <i type="logical" name="LTETE"> F  </i>
   <i type="logical" name="LTRIPLET"> F  </i>
   <i type="logical" name="LFXCEPS"> F  </i>
   <i type="logical" name="LFXHEG"> F  </i>
   <i type="int" name="NATURALO">     2</i>
   <i type="logical" name="L2ORDER"> F  </i>
   <i type="logical" name="LMP2LT"> F  </i>
   <i type="logical" name="LUSEW"> F  </i>
   <i name="ENCUTGW">     -2.00000000</i>
   <i name="ENCUTGWSOFT">     -2.00000000</i>
   <i name="ENCUTLF">     -1.00000000</i>
   <i type="int" name="LMAXMP2">    -1</i>
   <i name="SCISSOR">      0.00000000</i>
   <i type="int" name="NOMEGA">     0</i>
   <i type="int" name="NOMEGAR">     0</i>
   <i type="int" name="NBANDSGW">    -1</i>
   <i type="int" name="NBANDSO">    -1</i>
   <i type="int" name="NBANDSV">    -1</i>
   <i type="int" name="NELM">     1</i>
   <i type="int" name="NELMHF">     1</i>
   <i type="int" name="DIM">     3</i>
   <i type="int" name="ANTIRES">     0</i>
   <i name="OMEGAMAX">    -30.00000000</i>
   <i name="OMEGAMIN">    -30.00000000</i>
   <i name="OMEGATL">   -200.00000000</i>
   <i type="int" name="OMEGAGRID">   140</i>
   <i name="CSHIFT">     -0.10000000</i>
   <i type="logical" name="SELFENERGY"> F  </i>
   <i type="logical" name="LSPECTRAL"> F  </i>
   <i type="logical" name="LSPECTRALGW"> F  </i>
   <i type="logical" name="LSINGLES"> F  </i>
   <i type="logical" name="LFERMIGW"> F  </i>
   <i type="logical" name="ODDONLYGW"> F  </i>
   <i type="logical" name="EVENONLYGW"> F  </i>
   <i type="int" name="NKREDLFX">     1</i>
   <i type="int" name="NKREDLFY">     1</i>
   <i type="int" name="NKREDLFZ">     1</i>
   <i type="int" name="MAXMEM">  2800</i>
   <i type="int" name="TELESCOPE">     0</i>
   <i type="int" name="TAUPAR">     1</i>
   <i type="int" name="OMEGAPAR">    -1</i>
   <i name="LAMBDA">      1.00000000</i>
  </separator>
  <separator name="External order field" >
   <i name="OFIELD_KAPPA">      0.00000000</i>
   <v name="OFIELD_K">      0.00000000      0.00000000      0.00000000</v>
   <i name="OFIELD_Q6_NEAR">      0.00000000</i>
   <i name="OFIELD_Q6_FAR">      0.00000000</i>
   <i name="OFIELD_A">      0.00000000</i>
  </separator>
 </parameters>
 <atominfo>
  <atoms>       2 </atoms>
  <types>       1 </types>
  <array name="atoms" >
   <dimension dim="1">ion</dimension>
   <field type="string">element</field>
   <field type="int">atomtype</field>
   <set>
    <rc><c>Si</c><c>   1</c></rc>
    <rc><c>Si</c><c>   1</c></rc>
   </set>
  </array>
  <array name="atomtypes" >
   <dimension dim="1">type</dimension>
   <field type="int">atomspertype</field>
   <field type="string">element</field>
   <field>mass</field>
   <field>valence</field>
   <field type="string">pseudopotential</field>
   <set>
    <rc><c>   2</c><c>Si</c><c>     28.08500000</c><c>      4.00000000</c><c> PAW_PBE Si 05Jan2001                   </c></rc>
   </set>
  </array>
 </atominfo>
 <structure name="initialpos" >
  <crystal>
   <varray name="basis" >
    <v>       0.00000000       2.76143400       2.76143400 </v>
    <v>       2.76143400       0.00000000       2.76143400 </v>
    <v>       2.76143400       2.76143400       0.00000000 </v>
   </varray>
   <i name="volume">     42.11472789 </i>
   <varray name="rec_basis" >
    <v>      -0.18106535       0.18106535       0.18106535 </v>
    <v>       0.18106535      -0.18106535       0.18106535 </v>
    <v>       0.18106535       0.18106535      -0.18106535 </v>
   </varray>
  </crystal>
  <varray name="positions" >
   <v>       0.50000000       0.50000000       0.50000000 </v>
   <v>       0.75000000       0.75000000       0.75000000 </v>
  </varray>
 </structure>
 <calculation>
  <scstep>
   <time name="dav">    0.80    0.81</time>
   <time name="total">    0.85    0.87</time>
   <energy>
    <i name="alphaZ">      3.19727374 </i>
    <i name="ewald">   -224.72018892 </i>
    <i name="hartreedc">    -11.77784628 </i>
    <i name="XCdc">    -18.79882074 </i>
    <i name="pawpsdc">     65.95520812 </i>
    <i name="pawaedc">    -30.76852678 </i>
    <i name="eentropy">     -0.01180696 </i>
    <i name="bandstr">     16.02252638 </i>
    <i name="atom">    206.13125414 </i>
    <i name="e_fr_energy">      5.22907269 </i>
    <i name="e_wo_entrp">      5.24087965 </i>
    <i name="e_0_energy">      5.23497617 </i>
   </energy>
  </scstep>
  <scstep>
   <time name="dav">    1.21    1.24</time>
   <time name="total">    1.22    1.24</time>
   <energy>
    <i name="e_fr_energy">    -10.78947102 </i>
    <i name="e_wo_entrp">    -10.78947009 </i>
    <i name="e_0_energy">    -10.78947056 </i>
   </energy>
  </scstep>
  <scstep>
   <time name="dav">    0.91    0.91</time>
   <time name="total">    0.91    0.92</time>
   <energy>
    <i name="e_fr_energy">    -10.98922738 </i>
    <i name="e_wo_entrp">    -10.98922676 </i>
    <i name="e_0_energy">    -10.98922707 </i>
   </energy>
  </scstep>
  <scstep>
   <time name="dav">    1.24    1.25</time>
   <time name="total">    1.24    1.25</time>
   <energy>
    <i name="e_fr_energy">    -10.99017879 </i>
    <i name="e_wo_entrp">    -10.99017818 </i>
    <i name="e_0_energy">    -10.99017848 </i>
   </energy>
  </scstep>
  <scstep>
   <time name="dav">    0.93    0.94</time>
   <time name="total">    1.00    1.00</time>
   <energy>
    <i name="e_fr_energy">    -10.99017917 </i>
    <i name="e_wo_entrp">    -10.99017856 </i>
    <i name="e_0_energy">    -10.99017886 </i>
   </energy>
  </scstep>
  <scstep>
   <time name="dav">    0.89    0.89</time>
   <time name="total">    0.98    1.01</time>
   <energy>
    <i name="e_fr_energy">    -10.88607443 </i>
    <i name="e_wo_entrp">    -10.88607090 </i>
    <i name="e_0_energy">    -10.88607267 </i>
   </energy>
  </scstep>
  <scstep>
   <time name="dav">    0.91    0.91</time>
   <time name="total">    1.00    1.01</time>
   <energy>
    <i name="e_fr_energy">    -10.83672879 </i>
    <i name="e_wo_entrp">    -10.83670267 </i>
    <i name="e_0_energy">    -10.83671573 </i>
   </energy>
  </scstep>
  <scstep>
   <time name="dav">    0.83    0.83</time>
   <time name="total">    0.93    0.94</time>
   <energy>
    <i name="e_fr_energy">    -10.83806066 </i>
    <i name="e_wo_entrp">    -10.83804041 </i>
    <i name="e_0_energy">    -10.83805054 </i>
   </energy>
  </scstep>
  <scstep>
   <time name="dav">    0.65    0.65</time>
   <time name="total">    0.69    0.71</time>
   <energy>
    <i name="alphaZ">      3.19727374 </i>
    <i name="ewald">   -224.72018892 </i>
    <i name="hartreedc">    -15.51573555 </i>
    <i name="XCdc">    -18.19228271 </i>
    <i name="pawpsdc">     72.78226007 </i>
    <i name="pawaedc">    -37.77657636 </i>
    <i name="eentropy">     -0.00001998 </i>
    <i name="bandstr">      3.25585041 </i>
    <i name="atom">    206.13125414 </i>
    <i name="e_fr_energy">    -10.83816517 </i>
    <i name="e_wo_entrp">    -10.83814518 </i>
    <i name="e_0_energy">    -10.83815518 </i>
   </energy>
  </scstep>
  <structure>
   <crystal>
    <varray name="basis" >
     <v>       0.00000000       2.76143400       2.76143400 </v>
     <v>       2.76143400       0.00000000       2.76143400 </v>
     <v>       2.76143400       2.76143400       0.00000000 </v>
    </varray>
    <i name="volume">     42.11472789 </i>
    <varray name="rec_basis" >
     <v>      -0.18106535       0.18106535       0.18106535 </v>
     <v>       0.18106535      -0.18106535       0.18106535 </v>
     <v>       0.18106535       0.18106535      -0.18106535 </v>
    </varray>
   </crystal>
   <varray name="positions" >
    <v>       0.50000000       0.50000000       0.50000000 </v>
    <v>       0.75000000       0.75000000       0.75000000 </v>
   </varray>
  </structure>
  <varray name="forces" >
   <v>       0.00000000       0.00000000       0.00000000 </v>
   <v>      -0.00000000      -0.00000000      -0.00000000 </v>
  </varray>
  <varray name="stress" >
   <v>     -24.84509523      -0.00000000       0.00000000 </v>
   <v>      -0.00000000     -24.84509523      -0.00000000 </v>
   <v>       0.00000000       0.00000000     -24.84509523 </v>
  </varray>
  <energy>
   <i name="e_fr_energy">    -10.83816517 </i>
   <i name="e_wo_entrp">    -10.83815518 </i>
   <i name="e_0_energy">     -0.00001998 </i>
  </energy>
  <time name="totalsc">   10.06   10.84</time>
  <eigenvalues>
   <array>
    <dimension dim="1">band</dimension>
    <dimension dim="2">kpoint</dimension>
    <dimension dim="3">spin</dimension>
    <field>eigene</field>
    <field>occ</field>
    <set>
     <set comment="spin 1">
      <set comment="kpoint 1">
       <r>   -6.2437    1.0000 </r>
       <r>    4.7902    1.0000 </r>
       <r>    5.2461    0.9988 </r>
       <r>    5.2461    0.9988 </r>
       <r>    7.8598    0.0000 </r>
       <r>    7.9885    0.0000 </r>
       <r>    7.9885    0.0000 </r>
       <r>    8.5892    0.0000 </r>
      </set>
      <set comment="kpoint 2">
       <r>   -5.9842    1.0000 </r>
       <r>    3.3007    1.0000 </r>
       <r>    4.4696    1.0000 </r>
       <r>    5.1294    0.9999 </r>
       <r>    7.8771    0.0000 </r>
       <r>    8.2275    0.0000 </r>
       <r>    8.4921    0.0000 </r>
       <r>   10.1110    0.0000 </r>
      </set>
      <set comment="kpoint 3">
       <r>   -5.3589    1.0000 </r>
       <r>    1.1372    1.0000 </r>
       <r>    3.9908    1.0000 </r>
       <r>    4.6813    1.0000 </r>
       <r>    7.4244    0.0000 </r>
       <r>    8.7188    0.0000 </r>
       <r>    8.9950    0.0000 </r>
       <r>   11.7189    0.0000 </r>
      </set>
      <set comment="kpoint 4">
       <r>   -4.4912    1.0000 </r>
       <r>   -0.6878    1.0000 </r>
       <r>    3.7760    1.0000 </r>
       <r>    4.2869    1.0000 </r>
       <r>    7.1115    0.0000 </r>
       <r>    8.8013    0.0000 </r>
       <r>    8.8150    0.0000 </r>
       <r>   13.0181    0.0000 </r>
      </set>
      <set comment="kpoint 5">
       <r>   -4.0652    1.0000 </r>
       <r>   -1.3591    1.0000 </r>
       <r>    3.8208    1.0000 </r>
       <r>    4.0768    1.0000 </r>
       <r>    7.0332    0.0000 </r>
       <r>    8.6183    0.0000 </r>
       <r>    8.8803    0.0000 </r>
       <r>   13.1189    0.0000 </r>
      </set>
      <set comment="kpoint 6">
       <r>   -4.7874    1.0000 </r>
       <r>   -0.1496    1.0000 </r>
       <r>    4.0981    1.0000 </r>
       <r>    4.0997    1.0000 </r>
       <r>    7.2013    0.0000 </r>
       <r>    8.6127    0.0000 </r>
       <r>    9.1199    0.0000 </r>
       <r>   12.1573    0.0000 </r>
      </set>
      <set comment="kpoint 7">
       <r>   -5.6038    1.0000 </r>
       <r>    1.8460    1.0000 </r>
       <r>    4.3701    1.0000 </r>
       <r>    4.5500    1.0000 </r>
       <r>    7.5659    0.0000 </r>
       <r>    8.4416    0.0000 </r>
       <r>    9.1509    0.0000 </r>
       <r>   10.9507    0.0000 </r>
      </set>
      <set comment="kpoint 8">
       <r>   -6.1132    1.0000 </r>
       <r>    4.0382    1.0000 </r>
       <r>    4.8374    1.0000 </r>
       <r>    4.9818    1.0000 </r>
       <r>    7.7072    0.0000 </r>
       <r>    8.2011    0.0000 </r>
       <r>    8.5467    0.0000 </r>
       <r>    9.3616    0.0000 </r>
      </set>
      <set comment="kpoint 9">
       <r>   -5.8535    1.0000 </r>
       <r>    3.1436    1.0000 </r>
       <r>    4.2998    1.0000 </r>
       <r>    4.3701    1.0000 </r>
       <r>    7.3024    0.0000 </r>
       <r>    8.9242    0.0000 </r>
       <r>    9.3783    0.0000 </r>
       <r>    9.8379    0.0000 </r>
      </set>
      <set comment="kpoint 10">
       <r>   -5.3462    1.0000 </r>
       <r>    1.6772    1.0000 </r>
       <r>    3.3601    1.0000 </r>
       <r>    4.1209    1.0000 </r>
       <r>    7.4648    0.0000 </r>
       <r>    9.0283    0.0000 </r>
       <r>    9.7737    0.0000 </r>
       <r>   10.1565    0.0000 </r>
      </set>
      <set comment="kpoint 11">
       <r>   -4.5314    1.0000 </r>
       <r>   -0.1148    1.0000 </r>
       <r>    2.8670    1.0000 </r>
       <r>    3.7284    1.0000 </r>
       <r>    7.6421    0.0000 </r>
       <r>    9.0167    0.0000 </r>
       <r>   10.1842    0.0000 </r>
       <r>   10.4896    0.0000 </r>
      </set>
      <set comment="kpoint 12">
       <r>   -3.8044    1.0000 </r>
       <r>   -1.2741    1.0000 </r>
       <r>    2.5830    1.0000 </r>
       <r>    3.6398    1.0000 </r>
       <r>    7.6935    0.0000 </r>
       <r>    8.7522    0.0000 </r>
       <r>   10.0488    0.0000 </r>
       <r>   12.4372    0.0000 </r>
      </set>
      <set comment="kpoint 13">
       <r>   -4.2404    1.0000 </r>
       <r>   -0.6140    1.0000 </r>
       <r>    2.5179    1.0000 </r>
       <r>    3.9126    1.0000 </r>
       <r>    7.9418    0.0000 </r>
       <r>    8.6873    0.0000 </r>
       <r>    9.9890    0.0000 </r>
       <r>   11.7131    0.0000 </r>
      </set>
      <set comment="kpoint 14">
       <r>   -5.1069    1.0000 </r>
       <r>    1.0496    1.0000 </r>
       <r>    2.8236    1.0000 </r>
       <r>    4.4003    1.0000 </r>
       <r>    8.2549    0.0000 </r>
       <r>    8.5779    0.0000 </r>
       <r>    9.8617    0.0000 </r>
       <r>   10.3576    0.0000 </r>
      </set>
      <set comment="kpoint 15">
       <r>   -5.7275    1.0000 </r>
       <r>    2.4948    1.0000 </r>
       <r>    3.9120    1.0000 </r>
       <r>    4.7594    1.0000 </r>
       <r>    7.8371    0.0000 </r>
       <r>    8.4212    0.0000 </r>
       <r>    9.1973    0.0000 </r>
       <r>   10.3754    0.0000 </r>
      </set>
      <set comment="kpoint 16">
       <r>   -4.9582    1.0000 </r>
       <r>    1.1643    1.0000 </r>
       <r>    3.2238    1.0000 </r>
       <r>    3.3414    1.0000 </r>
       <r>    6.5198    0.0000 </r>
       <r>    8.1543    0.0000 </r>
       <r>   11.1747    0.0000 </r>
       <r>   11.3295    0.0000 </r>
      </set>
      <set comment="kpoint 17">
       <r>   -4.2317    1.0000 </r>
       <r>   -0.0377    1.0000 </r>
       <r>    2.4665    1.0000 </r>
       <r>    3.0079    1.0000 </r>
       <r>    6.8281    0.0000 </r>
       <r>    7.9968    0.0000 </r>
       <r>   11.1404    0.0000 </r>
       <r>   12.2932    0.0000 </r>
      </set>
      <set comment="kpoint 18">
       <r>   -3.3698    1.0000 </r>
       <r>   -1.1892    1.0000 </r>
       <r>    1.6561    1.0000 </r>
       <r>    2.9770    1.0000 </r>
       <r>    7.0618    0.0000 </r>
       <r>    9.6129    0.0000 </r>
       <r>   10.7260    0.0000 </r>
       <r>   12.2060    0.0000 </r>
      </set>
      <set comment="kpoint 19">
       <r>   -3.4405    1.0000 </r>
       <r>   -1.0970    1.0000 </r>
       <r>    1.3195    1.0000 </r>
       <r>    3.3080    1.0000 </r>
       <r>    7.4462    0.0000 </r>
       <r>   10.3074    0.0000 </r>
       <r>   11.5528    0.0000 </r>
       <r>   11.9093    0.0000 </r>
      </set>
      <set comment="kpoint 20">
       <r>   -4.3020    1.0000 </r>
       <r>   -0.1651    1.0000 </r>
       <r>    1.8965    1.0000 </r>
       <r>    3.8707    1.0000 </r>
       <r>    8.0351    0.0000 </r>
       <r>    9.2294    0.0000 </r>
       <r>   10.6015    0.0000 </r>
       <r>   10.9082    0.0000 </r>
      </set>
      <set comment="kpoint 21">
       <r>   -4.9981    1.0000 </r>
       <r>    0.4790    1.0000 </r>
       <r>    3.4613    1.0000 </r>
       <r>    4.3035    1.0000 </r>
       <r>    7.7027    0.0000 </r>
       <r>    8.6174    0.0000 </r>
       <r>    9.4576    0.0000 </r>
       <r>   11.1155    0.0000 </r>
      </set>
      <set comment="kpoint 22">
       <r>   -3.5985    1.0000 </r>
       <r>   -0.8781    1.0000 </r>
       <r>    2.5598    1.0000 </r>
       <r>    2.7660    1.0000 </r>
       <r>    6.1455    0.0004 </r>
       <r>    6.8506    0.0000 </r>
       <r>   13.4075    0.0000 </r>
       <r>   13.4358    0.0000 </r>
      </set>
      <set comment="kpoint 23">
       <r>   -2.7203    1.0000 </r>
       <r>   -1.8378    1.0000 </r>
       <r>    2.0273    1.0000 </r>
       <r>    2.5341    1.0000 </r>
       <r>    6.5692    0.0000 </r>
       <r>    7.2768    0.0000 </r>
       <r>   13.1775    0.0000 </r>
       <r>   14.1358    0.0000 </r>
      </set>
      <set comment="kpoint 24">
       <r>   -2.8224    1.0000 </r>
       <r>   -1.6717    1.0000 </r>
       <r>    1.3296    1.0000 </r>
       <r>    2.8381    1.0000 </r>
       <r>    6.9208    0.0000 </r>
       <r>    9.4570    0.0000 </r>
       <r>   11.6932    0.0000 </r>
       <r>   12.7935    0.0000 </r>
      </set>
      <set comment="kpoint 25">
       <r>   -3.5563    1.0000 </r>
       <r>   -1.2454    1.0000 </r>
       <r>    1.8397    1.0000 </r>
       <r>    3.4174    1.0000 </r>
       <r>    7.5566    0.0000 </r>
       <r>    9.4697    0.0000 </r>
       <r>   10.9671    0.0000 </r>
       <r>   12.1949    0.0000 </r>
      </set>
      <set comment="kpoint 26">
       <r>   -4.1432    1.0000 </r>
       <r>   -1.0790    1.0000 </r>
       <r>    3.2850    1.0000 </r>
       <r>    3.9812    1.0000 </r>
       <r>    7.4936    0.0000 </r>
       <r>    8.5529    0.0000 </r>
       <r>    9.2949    0.0000 </r>
       <r>   12.7586    0.0000 </r>
      </set>
      <set comment="kpoint 27">
       <r>   -2.7679    1.0000 </r>
       <r>   -1.8534    1.0000 </r>
       <r>    2.4265    1.0000 </r>
       <r>    2.6484    1.0000 </r>
       <r>    6.1482    0.0004 </r>
       <r>    6.4994    0.0000 </r>
       <r>   14.4566    0.0000 </r>
       <r>   14.5090    0.0000 </r>
      </set>
      <set comment="kpoint 28">
       <r>   -3.5172    1.0000 </r>
       <r>   -0.9405    1.0000 </r>
       <r>    2.1777    1.0000 </r>
       <r>    2.6889    1.0000 </r>
       <r>    6.6499    0.0000 </r>
       <r>    7.5254    0.0000 </r>
       <r>   12.1331    0.0000 </r>
       <r>   13.4169    0.0000 </r>
      </set>
      <set comment="kpoint 29">
       <r>   -3.9766    1.0000 </r>
       <r>   -0.6603    1.0000 </r>
       <r>    2.2217    1.0000 </r>
       <r>    3.2666    1.0000 </r>
       <r>    7.3253    0.0000 </r>
       <r>    9.7909    0.0000 </r>
       <r>    9.9581    0.0000 </r>
       <r>   11.1777    0.0000 </r>
      </set>
      <set comment="kpoint 30">
       <r>   -4.3325    1.0000 </r>
       <r>    0.1369    1.0000 </r>
       <r>    2.8259    1.0000 </r>
       <r>    2.9989    1.0000 </r>
       <r>    6.2680    0.0000 </r>
       <r>    7.4153    0.0000 </r>
       <r>   12.2747    0.0000 </r>
       <r>   12.3694    0.0000 </r>
      </set>
      <set comment="kpoint 31">
       <r>   -4.8451    1.0000 </r>
       <r>    0.8377    1.0000 </r>
       <r>    2.8695    1.0000 </r>
       <r>    3.4968    1.0000 </r>
       <r>    7.1066    0.0000 </r>
       <r>    8.6456    0.0000 </r>
       <r>   10.2218    0.0000 </r>
       <r>   11.1952    0.0000 </r>
      </set>
      <set comment="kpoint 32">
       <r>   -5.4672    1.0000 </r>
       <r>    2.1760    1.0000 </r>
       <r>    3.7474    1.0000 </r>
       <r>    3.7827    1.0000 </r>
       <r>    6.8789    0.0000 </r>
       <r>    8.9537    0.0000 </r>
       <r>   10.1692    0.0000 </r>
       <r>   10.3258    0.0000 </r>
      </set>
      <set comment="kpoint 33">
       <r>   -5.8568    1.0000 </r>
       <r>    2.6004    1.0000 </r>
       <r>    4.8194    1.0000 </r>
       <r>    4.8194    1.0000 </r>
       <r>    7.4253    0.0000 </r>
       <r>    8.5891    0.0000 </r>
       <r>    8.5891    0.0000 </r>
       <r>   10.7365    0.0000 </r>
      </set>
      <set comment="kpoint 34">
       <r>   -5.4773    1.0000 </r>
       <r>    1.7653    1.0000 </r>
       <r>    3.3585    1.0000 </r>
       <r>    4.8327    1.0000 </r>
       <r>    8.0778    0.0000 </r>
       <r>    8.7117    0.0000 </r>
       <r>    8.9864    0.0000 </r>
       <r>   10.8974    0.0000 </r>
      </set>
      <set comment="kpoint 35">
       <r>   -4.7554    1.0000 </r>
       <r>    0.4249    1.0000 </r>
       <r>    2.3132    1.0000 </r>
       <r>    4.3454    1.0000 </r>
       <r>    7.9726    0.0000 </r>
       <r>    9.4510    0.0000 </r>
       <r>    9.6357    0.0000 </r>
       <r>   11.1830    0.0000 </r>
      </set>
      <set comment="kpoint 36">
       <r>   -3.8966    1.0000 </r>
       <r>   -1.0060    1.0000 </r>
       <r>    2.1534    1.0000 </r>
       <r>    3.8331    1.0000 </r>
       <r>    7.5109    0.0000 </r>
       <r>    9.5963    0.0000 </r>
       <r>    9.8505    0.0000 </r>
       <r>   13.0142    0.0000 </r>
      </set>
      <set comment="kpoint 37">
       <r>   -3.8811    1.0000 </r>
       <r>   -1.0337    1.0000 </r>
       <r>    2.4393    1.0000 </r>
       <r>    3.5271    1.0000 </r>
       <r>    7.2544    0.0000 </r>
       <r>    9.6552    0.0000 </r>
       <r>   10.1883    0.0000 </r>
       <r>   11.1347    0.0000 </r>
      </set>
      <set comment="kpoint 38">
       <r>   -4.7383    1.0000 </r>
       <r>    0.4217    1.0000 </r>
       <r>    3.0348    1.0000 </r>
       <r>    3.5060    1.0000 </r>
       <r>    7.1921    0.0000 </r>
       <r>    9.3160    0.0000 </r>
       <r>    9.9458    0.0000 </r>
       <r>   10.5371    0.0000 </r>
      </set>
      <set comment="kpoint 39">
       <r>   -5.2289    1.0000 </r>
       <r>    1.1216    1.0000 </r>
       <r>    3.8306    1.0000 </r>
       <r>    3.9110    1.0000 </r>
       <r>    7.5546    0.0000 </r>
       <r>    8.8473    0.0000 </r>
       <r>    9.8086    0.0000 </r>
       <r>   10.2060    0.0000 </r>
      </set>
      <set comment="kpoint 40">
       <r>   -4.6232    1.0000 </r>
       <r>    0.3522    1.0000 </r>
       <r>    2.3684    1.0000 </r>
       <r>    3.7201    1.0000 </r>
       <r>    8.0497    0.0000 </r>
       <r>    9.0296    0.0000 </r>
       <r>    9.5757    0.0000 </r>
       <r>   11.0238    0.0000 </r>
      </set>
      <set comment="kpoint 41">
       <r>   -3.7643    1.0000 </r>
       <r>   -0.7242    1.0000 </r>
       <r>    1.6089    1.0000 </r>
       <r>    3.1761    1.0000 </r>
       <r>    8.4927    0.0000 </r>
       <r>    8.9703    0.0000 </r>
       <r>   10.2164    0.0000 </r>
       <r>   12.0939    0.0000 </r>
      </set>
      <set comment="kpoint 42">
       <r>   -3.2976    1.0000 </r>
       <r>   -1.3119    1.0000 </r>
       <r>    1.6067    1.0000 </r>
       <r>    2.8765    1.0000 </r>
       <r>    8.0418    0.0000 </r>
       <r>    9.2897    0.0000 </r>
       <r>   10.9811    0.0000 </r>
       <r>   12.2098    0.0000 </r>
      </set>
      <set comment="kpoint 43">
       <r>   -4.0372    1.0000 </r>
       <r>   -0.3484    1.0000 </r>
       <r>    2.0192    1.0000 </r>
       <r>    3.0480    1.0000 </r>
       <r>    7.7780    0.0000 </r>
       <r>    8.9778    0.0000 </r>
       <r>    9.7842    0.0000 </r>
       <r>   12.2109    0.0000 </r>
      </set>
      <set comment="kpoint 44">
       <r>   -4.1426    1.0000 </r>
       <r>   -0.2876    1.0000 </r>
       <r>    2.3376    1.0000 </r>
       <r>    3.1856    1.0000 </r>
       <r>    6.8302    0.0000 </r>
       <r>    8.8133    0.0000 </r>
       <r>   10.9681    0.0000 </r>
       <r>   11.3414    0.0000 </r>
      </set>
      <set comment="kpoint 45">
       <r>   -3.3662    1.0000 </r>
       <r>   -1.0757    1.0000 </r>
       <r>    1.7881    1.0000 </r>
       <r>    2.5324    1.0000 </r>
       <r>    7.5836    0.0000 </r>
       <r>    8.5787    0.0000 </r>
       <r>   10.6595    0.0000 </r>
       <r>   13.3796    0.0000 </r>
      </set>
      <set comment="kpoint 46">
       <r>   -2.5886    1.0000 </r>
       <r>   -1.8116    1.0000 </r>
       <r>    1.4864    1.0000 </r>
       <r>    2.0516    1.0000 </r>
       <r>    8.6816    0.0000 </r>
       <r>    9.6028    0.0000 </r>
       <r>   10.2126    0.0000 </r>
       <r>   11.2077    0.0000 </r>
      </set>
      <set comment="kpoint 47">
       <r>   -3.1712    1.0000 </r>
       <r>   -1.2738    1.0000 </r>
       <r>    1.4743    1.0000 </r>
       <r>    2.5090    1.0000 </r>
       <r>    8.7775    0.0000 </r>
       <r>    9.1845    0.0000 </r>
       <r>    9.9131    0.0000 </r>
       <r>   12.3453    0.0000 </r>
      </set>
      <set comment="kpoint 48">
       <r>   -2.7440    1.0000 </r>
       <r>   -1.7868    1.0000 </r>
       <r>    1.5861    1.0000 </r>
       <r>    2.8536    1.0000 </r>
       <r>    6.4162    0.0000 </r>
       <r>    8.2653    0.0000 </r>
       <r>   13.1054    0.0000 </r>
       <r>   13.2665    0.0000 </r>
      </set>
      <set comment="kpoint 49">
       <r>   -2.6466    1.0000 </r>
       <r>   -1.8200    1.0000 </r>
       <r>    1.6765    1.0000 </r>
       <r>    2.2554    1.0000 </r>
       <r>    7.4841    0.0000 </r>
       <r>    8.3777    0.0000 </r>
       <r>   11.6416    0.0000 </r>
       <r>   12.7266    0.0000 </r>
      </set>
      <set comment="kpoint 50">
       <r>   -3.4599    1.0000 </r>
       <r>   -1.0355    1.0000 </r>
       <r>    1.8393    1.0000 </r>
       <r>    2.9654    1.0000 </r>
       <r>    6.5593    0.0000 </r>
       <r>    8.4470    0.0000 </r>
       <r>   12.1013    0.0000 </r>
       <r>   12.2234    0.0000 </r>
      </set>
      <set comment="kpoint 51">
       <r>   -5.1259    1.0000 </r>
       <r>    0.4569    1.0000 </r>
       <r>    4.4167    1.0000 </r>
       <r>    4.4167    1.0000 </r>
       <r>    6.9724    0.0000 </r>
       <r>    8.8356    0.0000 </r>
       <r>    8.8356    0.0000 </r>
       <r>   12.7750    0.0000 </r>
      </set>
      <set comment="kpoint 52">
       <r>   -4.6629    1.0000 </r>
       <r>   -0.1121    1.0000 </r>
       <r>    2.9919    1.0000 </r>
       <r>    4.3305    1.0000 </r>
       <r>    7.7059    0.0000 </r>
       <r>    9.0486    0.0000 </r>
       <r>    9.1012    0.0000 </r>
       <r>   12.1890    0.0000 </r>
      </set>
      <set comment="kpoint 53">
       <r>   -3.8984    1.0000 </r>
       <r>   -0.6550    1.0000 </r>
       <r>    1.5310    1.0000 </r>
       <r>    3.7716    1.0000 </r>
       <r>    7.4494    0.0000 </r>
       <r>   10.4486    0.0000 </r>
       <r>   10.5945    0.0000 </r>
       <r>   11.9296    0.0000 </r>
      </set>
      <set comment="kpoint 54">
       <r>   -3.1081    1.0000 </r>
       <r>   -1.4215    1.0000 </r>
       <r>    1.2116    1.0000 </r>
       <r>    3.2440    1.0000 </r>
       <r>    6.8647    0.0000 </r>
       <r>   10.6747    0.0000 </r>
       <r>   11.6867    0.0000 </r>
       <r>   11.8943    0.0000 </r>
      </set>
      <set comment="kpoint 55">
       <r>   -4.3608    1.0000 </r>
       <r>   -0.6508    1.0000 </r>
       <r>    3.3093    1.0000 </r>
       <r>    3.7889    1.0000 </r>
       <r>    7.4590    0.0000 </r>
       <r>    8.8042    0.0000 </r>
       <r>    9.5761    0.0000 </r>
       <r>   11.5616    0.0000 </r>
      </set>
      <set comment="kpoint 56">
       <r>   -3.7635    1.0000 </r>
       <r>   -1.0147    1.0000 </r>
       <r>    2.0516    1.0000 </r>
       <r>    3.3344    1.0000 </r>
       <r>    8.2320    0.0000 </r>
       <r>    8.6027    0.0000 </r>
       <r>   11.0382    0.0000 </r>
       <r>   11.3232    0.0000 </r>
      </set>
      <set comment="kpoint 57">
       <r>   -2.9737    1.0000 </r>
       <r>   -1.4904    1.0000 </r>
       <r>    1.3008    1.0000 </r>
       <r>    2.6486    1.0000 </r>
       <r>    7.9196    0.0000 </r>
       <r>   10.1192    0.0000 </r>
       <r>   10.8682    0.0000 </r>
       <r>   11.3721    0.0000 </r>
      </set>
      <set comment="kpoint 58">
       <r>   -3.4188    1.0000 </r>
       <r>   -1.2918    1.0000 </r>
       <r>    1.6799    1.0000 </r>
       <r>    3.3405    1.0000 </r>
       <r>    7.0057    0.0000 </r>
       <r>   10.6317    0.0000 </r>
       <r>   10.9295    0.0000 </r>
       <r>   10.9461    0.0000 </r>
      </set>
      <set comment="kpoint 59">
       <r>   -4.2725    1.0000 </r>
       <r>   -1.1324    1.0000 </r>
       <r>    4.2004    1.0000 </r>
       <r>    4.2004    1.0000 </r>
       <r>    6.7205    0.0000 </r>
       <r>    8.7155    0.0000 </r>
       <r>    8.7155    0.0000 </r>
       <r>   13.0228    0.0000 </r>
      </set>
      <set comment="kpoint 60">
       <r>   -3.9356    1.0000 </r>
       <r>   -1.3070    1.0000 </r>
       <r>    3.0046    1.0000 </r>
       <r>    3.9433    1.0000 </r>
       <r>    7.4708    0.0000 </r>
       <r>    8.8166    0.0000 </r>
       <r>    9.2767    0.0000 </r>
       <r>   13.3502    0.0000 </r>
      </set>
     </set>
    </set>
   </array>
  </eigenvalues>
  <separator name="orbital magnetization" >
   <v name="MAGDIPOLOUT">      0.00000000      0.00000000      0.00000000</v>
  </separator>
  <dos>
   <i name="efermi">      5.67507481 </i>
   <total>
    <array>
     <dimension dim="1">gridpoints</dimension>
     <dimension dim="2">spin</dimension>
     <field>energy</field>
     <field>total</field>
     <field>integrated</field>
     <set>
      <set comment="spin 1">
       <r>    -8.2437     0.0000     0.0000 </r>
       <r>    -8.1612     0.0000     0.0000 </r>
       <r>    -8.0787     0.0000     0.0000 </r>
       <r>    -7.9962     0.0000     0.0000 </r>
       <r>    -7.9136     0.0000     0.0000 </r>
       <r>    -7.8311     0.0000     0.0000 </r>
       <r>    -7.7486     0.0000     0.0000 </r>
       <r>    -7.6661     0.0000     0.0000 </r>
       <r>    -7.5836     0.0000     0.0000 </r>
       <r>    -7.5011     0.0000     0.0000 </r>
       <r>    -7.4186     0.0000     0.0000 </r>
       <r>    -7.3361     0.0000     0.0000 </r>
       <r>    -7.2536     0.0000     0.0000 </r>
       <r>    -7.1711     0.0000     0.0000 </r>
       <r>    -7.0886     0.0000     0.0000 </r>
       <r>    -7.0061     0.0000     0.0000 </r>
       <r>    -6.9235     0.0000     0.0000 </r>
       <r>    -6.8410     0.0000     0.0000 </r>
       <r>    -6.7585     0.0000     0.0000 </r>
       <r>    -6.6760     0.0001     0.0000 </r>
       <r>    -6.5935     0.0006     0.0001 </r>
       <r>    -6.5110     0.0028     0.0003 </r>
       <r>    -6.4285     0.0095     0.0011 </r>
       <r>    -6.3460     0.0250     0.0031 </r>
       <r>    -6.2635     0.0526     0.0075 </r>
       <r>    -6.1810     0.0904     0.0149 </r>
       <r>    -6.0985     0.1312     0.0258 </r>
       <r>    -6.0159     0.1687     0.0397 </r>
       <r>    -5.9334     0.2029     0.0564 </r>
       <r>    -5.8509     0.2360     0.0759 </r>
       <r>    -5.7684     0.2644     0.0977 </r>
       <r>    -5.6859     0.2822     0.1210 </r>
       <r>    -5.6034     0.2954     0.1454 </r>
       <r>    -5.5209     0.3198     0.1718 </r>
       <r>    -5.4384     0.3577     0.2013 </r>
       <r>    -5.3559     0.3884     0.2333 </r>
       <r>    -5.2734     0.3959     0.2660 </r>
       <r>    -5.1909     0.3941     0.2985 </r>
       <r>    -5.1083     0.4072     0.3321 </r>
       <r>    -5.0258     0.4377     0.3682 </r>
       <r>    -4.9433     0.4727     0.4072 </r>
       <r>    -4.8608     0.5066     0.4490 </r>
       <r>    -4.7783     0.5384     0.4934 </r>
       <r>    -4.6958     0.5587     0.5395 </r>
       <r>    -4.6133     0.5586     0.5856 </r>
       <r>    -4.5308     0.5466     0.6307 </r>
       <r>    -4.4483     0.5554     0.6766 </r>
       <r>    -4.3658     0.6180     0.7275 </r>
       <r>    -4.2833     0.7223     0.7871 </r>
       <r>    -4.2007     0.8113     0.8541 </r>
       <r>    -4.1182     0.8483     0.9241 </r>
       <r>    -4.0357     0.8520     0.9944 </r>
       <r>    -3.9532     0.8533     1.0648 </r>
       <r>    -3.8707     0.8487     1.1348 </r>
       <r>    -3.7882     0.8133     1.2019 </r>
       <r>    -3.7057     0.7518     1.2639 </r>
       <r>    -3.6232     0.7185     1.3232 </r>
       <r>    -3.5407     0.7590     1.3858 </r>
       <r>    -3.4582     0.8377     1.4550 </r>
       <r>    -3.3757     0.8630     1.5262 </r>
       <r>    -3.2931     0.7841     1.5909 </r>
       <r>    -3.2106     0.6366     1.6434 </r>
       <r>    -3.1281     0.4947     1.6842 </r>
       <r>    -3.0456     0.4068     1.7178 </r>
       <r>    -2.9631     0.3872     1.7497 </r>
       <r>    -2.8806     0.4331     1.7855 </r>
       <r>    -2.7981     0.5184     1.8282 </r>
       <r>    -2.7156     0.5832     1.8763 </r>
       <r>    -2.6331     0.5638     1.9229 </r>
       <r>    -2.5506     0.4464     1.9597 </r>
       <r>    -2.4681     0.2812     1.9829 </r>
       <r>    -2.3855     0.1379     1.9943 </r>
       <r>    -2.3030     0.0523     1.9986 </r>
       <r>    -2.2205     0.0196     2.0002 </r>
       <r>    -2.1380     0.0279     2.0025 </r>
       <r>    -2.0555     0.0877     2.0097 </r>
       <r>    -1.9730     0.2224     2.0281 </r>
       <r>    -1.8905     0.4150     2.0623 </r>
       <r>    -1.8080     0.5756     2.1098 </r>
       <r>    -1.7255     0.6123     2.1604 </r>
       <r>    -1.6430     0.5412     2.2050 </r>
       <r>    -1.5605     0.4782     2.2445 </r>
       <r>    -1.4779     0.5286     2.2881 </r>
       <r>    -1.3954     0.7102     2.3467 </r>
       <r>    -1.3129     0.9523     2.4252 </r>
       <r>    -1.2304     1.1500     2.5201 </r>
       <r>    -1.1479     1.2412     2.6225 </r>
       <r>    -1.0654     1.2181     2.7231 </r>
       <r>    -0.9829     1.0874     2.8128 </r>
       <r>    -0.9004     0.8904     2.8862 </r>
       <r>    -0.8179     0.7282     2.9463 </r>
       <r>    -0.7354     0.6697     3.0016 </r>
       <r>    -0.6529     0.6583     3.0559 </r>
       <r>    -0.5703     0.5906     3.1046 </r>
       <r>    -0.4878     0.4640     3.1429 </r>
       <r>    -0.4053     0.3729     3.1737 </r>
       <r>    -0.3228     0.3820     3.2052 </r>
       <r>    -0.2403     0.4688     3.2439 </r>
       <r>    -0.1578     0.5594     3.2900 </r>
       <r>    -0.0753     0.5766     3.3376 </r>
       <r>     0.0072     0.4930     3.3783 </r>
       <r>     0.0897     0.3609     3.4081 </r>
       <r>     0.1722     0.2670     3.4301 </r>
       <r>     0.2547     0.2610     3.4516 </r>
       <r>     0.3373     0.3267     3.4786 </r>
       <r>     0.4198     0.3923     3.5109 </r>
       <r>     0.5023     0.3845     3.5427 </r>
       <r>     0.5848     0.2987     3.5673 </r>
       <r>     0.6673     0.2031     3.5841 </r>
       <r>     0.7498     0.1619     3.5974 </r>
       <r>     0.8323     0.1808     3.6123 </r>
       <r>     0.9148     0.2347     3.6317 </r>
       <r>     0.9973     0.3151     3.6577 </r>
       <r>     1.0798     0.4244     3.6927 </r>
       <r>     1.1623     0.5482     3.7380 </r>
       <r>     1.2449     0.6611     3.7925 </r>
       <r>     1.3274     0.7510     3.8545 </r>
       <r>     1.4099     0.8348     3.9233 </r>
       <r>     1.4924     0.9492     4.0017 </r>
       <r>     1.5749     1.0981     4.0923 </r>
       <r>     1.6574     1.2194     4.1929 </r>
       <r>     1.7399     1.2448     4.2956 </r>
       <r>     1.8224     1.1806     4.3930 </r>
       <r>     1.9049     1.0983     4.4836 </r>
       <r>     1.9874     1.0583     4.5709 </r>
       <r>     2.0699     1.0619     4.6585 </r>
       <r>     2.1524     1.0740     4.7472 </r>
       <r>     2.2350     1.0851     4.8367 </r>
       <r>     2.3175     1.1358     4.9304 </r>
       <r>     2.4000     1.2671     5.0350 </r>
       <r>     2.4825     1.4376     5.1536 </r>
       <r>     2.5650     1.5298     5.2798 </r>
       <r>     2.6475     1.4908     5.4028 </r>
       <r>     2.7300     1.4178     5.5198 </r>
       <r>     2.8125     1.4265     5.6375 </r>
       <r>     2.8950     1.4938     5.7607 </r>
       <r>     2.9775     1.5117     5.8855 </r>
       <r>     3.0600     1.4536     6.0054 </r>
       <r>     3.1426     1.4154     6.1222 </r>
       <r>     3.2251     1.4813     6.2444 </r>
       <r>     3.3076     1.5876     6.3754 </r>
       <r>     3.3901     1.5801     6.5058 </r>
       <r>     3.4726     1.4062     6.6218 </r>
       <r>     3.5551     1.1861     6.7197 </r>
       <r>     3.6376     1.0884     6.8095 </r>
       <r>     3.7201     1.1692     6.9059 </r>
       <r>     3.8026     1.3313     7.0158 </r>
       <r>     3.8851     1.4235     7.1332 </r>
       <r>     3.9676     1.3695     7.2462 </r>
       <r>     4.0502     1.2050     7.3456 </r>
       <r>     4.1327     1.0273     7.4304 </r>
       <r>     4.2152     0.9222     7.5065 </r>
       <r>     4.2977     0.8978     7.5806 </r>
       <r>     4.3802     0.8713     7.6525 </r>
       <r>     4.4627     0.7614     7.7153 </r>
       <r>     4.5452     0.5919     7.7641 </r>
       <r>     4.6277     0.4613     7.8022 </r>
       <r>     4.7102     0.4218     7.8370 </r>
       <r>     4.7927     0.4287     7.8724 </r>
       <r>     4.8752     0.4071     7.9059 </r>
       <r>     4.9578     0.3358     7.9337 </r>
       <r>     5.0403     0.2514     7.9544 </r>
       <r>     5.1228     0.1880     7.9699 </r>
       <r>     5.2053     0.1445     7.9818 </r>
       <r>     5.2878     0.1052     7.9905 </r>
       <r>     5.3703     0.0655     7.9959 </r>
       <r>     5.4528     0.0325     7.9986 </r>
       <r>     5.5353     0.0124     7.9996 </r>
       <r>     5.6178     0.0036     7.9999 </r>
       <r>     5.7003     0.0012     8.0000 </r>
       <r>     5.7828     0.0026     8.0002 </r>
       <r>     5.8654     0.0109     8.0011 </r>
       <r>     5.9479     0.0349     8.0040 </r>
       <r>     6.0304     0.0821     8.0108 </r>
       <r>     6.1129     0.1446     8.0227 </r>
       <r>     6.1954     0.1997     8.0392 </r>
       <r>     6.2779     0.2383     8.0589 </r>
       <r>     6.3604     0.2852     8.0824 </r>
       <r>     6.4429     0.3683     8.1128 </r>
       <r>     6.5254     0.4724     8.1518 </r>
       <r>     6.6079     0.5525     8.1974 </r>
       <r>     6.6904     0.5999     8.2468 </r>
       <r>     6.7730     0.6551     8.3009 </r>
       <r>     6.8555     0.7387     8.3619 </r>
       <r>     6.9380     0.8180     8.4293 </r>
       <r>     7.0205     0.8628     8.5005 </r>
       <r>     7.1030     0.8860     8.5736 </r>
       <r>     7.1855     0.9289     8.6503 </r>
       <r>     7.2680     1.0443     8.7364 </r>
       <r>     7.3505     1.2686     8.8411 </r>
       <r>     7.4330     1.5566     8.9695 </r>
       <r>     7.5155     1.7664     9.1153 </r>
       <r>     7.5980     1.7742     9.2617 </r>
       <r>     7.6806     1.6052     9.3941 </r>
       <r>     7.7631     1.4006     9.5097 </r>
       <r>     7.8456     1.2833     9.6156 </r>
       <r>     7.9281     1.2724     9.7205 </r>
       <r>     8.0106     1.2896     9.8269 </r>
       <r>     8.0931     1.2485     9.9300 </r>
       <r>     8.1756     1.1501    10.0249 </r>
       <r>     8.2581     1.0709    10.1132 </r>
       <r>     8.3406     1.0915    10.2033 </r>
       <r>     8.4231     1.2605    10.3073 </r>
       <r>     8.5056     1.5606    10.4360 </r>
       <r>     8.5882     1.8759    10.5908 </r>
       <r>     8.6707     2.0548    10.7604 </r>
       <r>     8.7532     2.0394    10.9286 </r>
       <r>     8.8357     1.9098    11.0862 </r>
       <r>     8.9182     1.7851    11.2335 </r>
       <r>     9.0007     1.7029    11.3740 </r>
       <r>     9.0832     1.6221    11.5078 </r>
       <r>     9.1657     1.5199    11.6332 </r>
       <r>     9.2482     1.4221    11.7506 </r>
       <r>     9.3307     1.3511    11.8620 </r>
       <r>     9.4132     1.3110    11.9702 </r>
       <r>     9.4958     1.2984    12.0774 </r>
       <r>     9.5783     1.2955    12.1842 </r>
       <r>     9.6608     1.2877    12.2905 </r>
       <r>     9.7433     1.2892    12.3969 </r>
       <r>     9.8258     1.3097    12.5049 </r>
       <r>     9.9083     1.3290    12.6146 </r>
       <r>     9.9908     1.3474    12.7257 </r>
       <r>    10.0733     1.4051    12.8417 </r>
       <r>    10.1558     1.4959    12.9651 </r>
       <r>    10.2383     1.5234    13.0908 </r>
       <r>    10.3208     1.4113    13.2072 </r>
       <r>    10.4034     1.2083    13.3069 </r>
       <r>    10.4859     1.0309    13.3920 </r>
       <r>    10.5684     0.9406    13.4696 </r>
       <r>    10.6509     0.9142    13.5450 </r>
       <r>    10.7334     0.9243    13.6213 </r>
       <r>    10.8159     1.0039    13.7041 </r>
       <r>    10.8984     1.1817    13.8016 </r>
       <r>    10.9809     1.3917    13.9164 </r>
       <r>    11.0634     1.5221    14.0420 </r>
       <r>    11.1459     1.5172    14.1672 </r>
       <r>    11.2284     1.3813    14.2812 </r>
       <r>    11.3109     1.1517    14.3762 </r>
       <r>    11.3935     0.9045    14.4508 </r>
       <r>    11.4760     0.7344    14.5114 </r>
       <r>    11.5585     0.6916    14.5685 </r>
       <r>    11.6410     0.7306    14.6288 </r>
       <r>    11.7235     0.7494    14.6906 </r>
       <r>    11.8060     0.7008    14.7484 </r>
       <r>    11.8885     0.6430    14.8015 </r>
       <r>    11.9710     0.6750    14.8572 </r>
       <r>    12.0535     0.8505    14.9273 </r>
       <r>    12.1360     1.1154    15.0194 </r>
       <r>    12.2185     1.3057    15.1271 </r>
       <r>    12.3011     1.2721    15.2321 </r>
       <r>    12.3836     1.0221    15.3164 </r>
       <r>    12.4661     0.7002    15.3742 </r>
       <r>    12.5486     0.4592    15.4121 </r>
       <r>    12.6311     0.3730    15.4428 </r>
       <r>    12.7136     0.4079    15.4765 </r>
       <r>    12.7961     0.4584    15.5143 </r>
       <r>    12.8786     0.4557    15.5519 </r>
       <r>    12.9611     0.4296    15.5873 </r>
       <r>    13.0436     0.4365    15.6234 </r>
       <r>    13.1261     0.4782    15.6628 </r>
       <r>    13.2087     0.5272    15.7063 </r>
       <r>    13.2912     0.5717    15.7535 </r>
       <r>    13.3737     0.5903    15.8022 </r>
       <r>    13.4562     0.5340    15.8463 </r>
       <r>    13.5387     0.3887    15.8783 </r>
       <r>    13.6212     0.2158    15.8961 </r>
       <r>    13.7037     0.0895    15.9035 </r>
       <r>    13.7862     0.0300    15.9060 </r>
       <r>    13.8687     0.0188    15.9075 </r>
       <r>    13.9512     0.0388    15.9107 </r>
       <r>    14.0337     0.0797    15.9173 </r>
       <r>    14.1163     0.1218    15.9274 </r>
       <r>    14.1988     0.1395    15.9389 </r>
       <r>    14.2813     0.1322    15.9498 </r>
       <r>    14.3638     0.1260    15.9602 </r>
       <r>    14.4463     0.1336    15.9712 </r>
       <r>    14.5288     0.1346    15.9823 </r>
       <r>    14.6113     0.1086    15.9913 </r>
       <r>    14.6938     0.0653    15.9967 </r>
       <r>    14.7763     0.0287    15.9990 </r>
       <r>    14.8588     0.0092    15.9998 </r>
       <r>    14.9413     0.0021    16.0000 </r>
       <r>    15.0239     0.0004    16.0000 </r>
       <r>    15.1064     0.0000    16.0000 </r>
       <r>    15.1889     0.0000    16.0000 </r>
       <r>    15.2714     0.0000    16.0000 </r>
       <r>    15.3539     0.0000    16.0000 </r>
       <r>    15.4364     0.0000    16.0000 </r>
       <r>    15.5189     0.0000    16.0000 </r>
       <r>    15.6014     0.0000    16.0000 </r>
       <r>    15.6839     0.0000    16.0000 </r>
       <r>    15.7664     0.0000    16.0000 </r>
       <r>    15.8489     0.0000    16.0000 </r>
       <r>    15.9315     0.0000    16.0000 </r>
       <r>    16.0140     0.0000    16.0000 </r>
       <r>    16.0965     0.0000    16.0000 </r>
       <r>    16.1790     0.0000    16.0000 </r>
       <r>    16.2615     0.0000    16.0000 </r>
       <r>    16.3440     0.0000    16.0000 </r>
       <r>    16.4265     0.0000    16.0000 </r>
       <r>    16.5090     0.0000    16.0000 </r>
      </set>
     </set>
    </array>
   </total>
  </dos>
 </calculation>
 <structure name="finalpos" >
  <crystal>
   <varray name="basis" >
    <v>       0.00000000       2.76143400       2.76143400 </v>
    <v>       2.76143400       0.00000000       2.76143400 </v>
    <v>       2.76143400       2.76143400       0.00000000 </v>
   </varray>
   <i name="volume">     42.11472789 </i>
   <varray name="rec_basis" >
    <v>      -0.18106535       0.18106535       0.18106535 </v>
    <v>       0.18106535      -0.18106535       0.18106535 </v>
    <v>       0.18106535       0.18106535      -0.18106535 </v>
   </varray>
  </crystal>
  <varray name="positions" >
   <v>       0.50000000       0.50000000       0.50000000 </v>
   <v>       0.75000000       0.75000000       0.75000000 </v>
  </varray>
 </structure>
</modeling>
