unknown system                          
           1
    -2.450000    2.450000    1.274000
     2.450000   -2.450000    1.274000
     2.450000    2.450000   -1.274000
   Si
   2
Direct configuration=     1
   0.25000000  0.75000000  0.50000000
   0.00000000  0.00000000  0.00000000
unknown system                          
           1
    -2.416095    2.416095    1.313811
     2.416095   -2.416095    1.313811
     2.416095    2.416095   -1.313811
   Si
   2
Direct configuration=     2
   0.25000000  0.75000000  0.50000000
  -0.00000000  0.00000000 -0.00000000
unknown system                          
           1
    -2.359172    2.359172    1.380650
     2.359172   -2.359172    1.380650
     2.359172    2.359172   -1.380650
   Si
   2
Direct configuration=     3
   0.25000000  0.75000000  0.50000000
  -0.00000000  0.00000000 -0.00000000
unknown system                          
           1
    -2.387413    2.387413    1.347490
     2.387413   -2.387413    1.347490
     2.387413    2.387413   -1.347490
   Si
   2
Direct configuration=     4
   0.25000000  0.75000000  0.50000000
  -0.00000000  0.00000000 -0.00000000
unknown system                          
           1
    -2.385831    2.385831    1.349347
     2.385831   -2.385831    1.349347
     2.385831    2.385831   -1.349347
   Si
   2
Direct configuration=     5
   0.25000000  0.75000000  0.50000000
  -0.00000000  0.00000000 -0.00000000
unknown system                          
           1
    -2.385482    2.385482    1.349757
     2.385482   -2.385482    1.349757
     2.385482    2.385482   -1.349757
   Si
   2
Direct configuration=     6
   0.25000000  0.75000000  0.50000000
  -0.00000000  0.00000000 -0.00000000
unknown system                          
           1
    -2.385732    2.385732    1.349463
     2.385732   -2.385732    1.349463
     2.385732    2.385732   -1.349463
   Si
   2
Direct configuration=     7
   0.25000000  0.75000000  0.50000000
  -0.00000000  0.00000000 -0.00000000
unknown system                          
           1
    -2.385804    2.385804    1.349379
     2.385804   -2.385804    1.349379
     2.385804    2.385804   -1.349379
   Si
   2
Direct configuration=     8
   0.25000000  0.75000000  0.50000000
  -0.00000000  0.00000000 -0.00000000
unknown system                          
           1
    -2.385822    2.385822    1.349358
     2.385822   -2.385822    1.349358
     2.385822    2.385822   -1.349358
   Si
   2
Direct configuration=     9
   0.25000000  0.75000000  0.50000000
  -0.00000000  0.00000000 -0.00000000
unknown system                          
           1
    -2.385828    2.385828    1.349351
     2.385828   -2.385828    1.349351
     2.385828    2.385828   -1.349351
   Si
   2
Direct configuration=    10
   0.25000000  0.75000000  0.50000000
  -0.00000000  0.00000000 -0.00000000
unknown system                          
           1
    -2.385830    2.385830    1.349349
     2.385830   -2.385830    1.349349
     2.385830    2.385830   -1.349349
   Si
   2
Direct configuration=    11
   0.25000000  0.75000000  0.50000000
  -0.00000000  0.00000000 -0.00000000
unknown system                          
           1
    -2.385831    2.385831    1.349348
     2.385831   -2.385831    1.349348
     2.385831    2.385831   -1.349348
   Si
   2
Direct configuration=    12
   0.25000000  0.75000000  0.50000000
  -0.00000000  0.00000000 -0.00000000
unknown system                          
           1
    -2.385831    2.385831    1.349347
     2.385831   -2.385831    1.349347
     2.385831    2.385831   -1.349347
   Si
   2
Direct configuration=    13
   0.25000000  0.75000000  0.50000000
  -0.00000000  0.00000000 -0.00000000
unknown system                          
           1
    -2.385831    2.385831    1.349347
     2.385831   -2.385831    1.349347
     2.385831    2.385831   -1.349347
   Si
   2
Direct configuration=    14
   0.25000000  0.75000000  0.50000000
  -0.00000000  0.00000000 -0.00000000
unknown system                          
           1
    -2.385831    2.385831    1.349347
     2.385831   -2.385831    1.349347
     2.385831    2.385831   -1.349347
   Si
   2
Direct configuration=    15
   0.25000000  0.75000000  0.50000000
  -0.00000000  0.00000000 -0.00000000
