unknown system                          
   1.00000000000000     
    -2.450000    2.450000    1.274000
     2.450000   -2.450000    1.274000
     2.450000    2.450000   -1.274000
   Si
     2
Direct
  0.250000  0.750000  0.500000
  0.000000  0.000000  0.000000
 
   32   32   32
 -.53469786563E+01 -.41656278737E+01 -.99445229989E+00 0.32052429753E+01 0.72689260665E+01
 0.10245523428E+02 0.11667515495E+02 0.11602406859E+02 0.10517537910E+02 0.90380368019E+01
 0.75804831969E+01 0.62900548872E+01 0.52396658786E+01 0.44507152472E+01 0.39125077006E+01
 0.36025856585E+01 0.35017308465E+01 0.36025857725E+01 0.39124889384E+01 0.44506839426E+01
 0.52396486475E+01 0.62900510814E+01 0.75804710276E+01 0.90380211354E+01 0.10517540945E+02
 0.11602419284E+02 0.11667511004E+02 0.10245512488E+02 0.72689378224E+01 0.32052637368E+01
 -.99446029546E+00 -.41656544992E+01 -.41656544992E+01 -.47863957359E+01 -.31189878263E+01
 0.30721355959E+00 0.44629728955E+01 0.82239681900E+01 0.10757365105E+02 0.11736889545E+02
 0.11343765310E+02 0.10101453102E+02 0.86130617471E+01 0.71965463139E+01 0.59705145848E+01
 0.49928814888E+01 0.42748212708E+01 0.38011006268E+01 0.35490715693E+01 0.35018832807E+01
 0.36556926159E+01 0.40212048589E+01 0.46194726389E+01 0.54717511861E+01 0.65831475246E+01
 0.79220375736E+01 0.94025148277E+01 0.10847581569E+02 0.11769389065E+02 0.11560005066E+02
 0.98288017023E+01 0.66230168589E+01 0.25249125865E+01 -.14501310956E+01 -.99446029546E+00
 -.31190082598E+01 -.31823552097E+01 -.11717545122E+01 0.22690295828E+01 0.61094217855E+01
 0.93290706355E+01 0.11253960018E+02 0.11710322057E+02 0.10980033525E+02 0.96149926779E+01
 0.81447092042E+01 0.67865330484E+01 0.56380793534E+01 0.47416842413E+01 0.40991172876E+01
 0.36916540549E+01 0.34972904666E+01 0.35021551777E+01 0.37061083634E+01 0.41227417017E+01
 0.47739417536E+01 0.56788089436E+01 0.68365610120E+01 0.82062079866E+01 0.96914396975E+01
 0.11084397665E+02 0.11864506462E+02 0.11469312228E+02 0.95959819894E+01 0.63949497827E+01
 0.25249125865E+01 0.32052637368E+01 0.30720857712E+00 -.11717667807E+01 -.75589096553E+00
 0.14079898363E+01 0.46168843118E+01 0.79042181872E+01 0.10404480850E+02 0.11625661499E+02
 0.11542092022E+02 0.10512443461E+02 0.90820145548E+01 0.76512616053E+01 0.63669738661E+01
 0.53062456769E+01 0.44961901689E+01 0.39304391338E+01 0.35881605576E+01 0.34490099108E+01
 0.35024539216E+01 0.37517310272E+01 0.42126039058E+01 0.49070145801E+01 0.58512538761E+01
 0.70385375561E+01 0.84198318810E+01 0.98918918878E+01 0.11226120768E+02 0.11906570262E+02
 0.11434470472E+02 0.95959819894E+01 0.66230168589E+01 0.72689378224E+01 0.44629836863E+01
 0.22690290654E+01 0.14079878695E+01 0.21664978931E+01 0.42768145514E+01 0.70363648099E+01
 0.95982320515E+01 0.11284176848E+02 0.11787812538E+02 0.11212295861E+02 0.99616053131E+01
 0.85237713615E+01 0.71520074967E+01 0.59545307185E+01 0.49878389719E+01 0.42654215566E+01
 0.37747622649E+01 0.34942965765E+01 0.34059375685E+01 0.35025623158E+01 0.37904575221E+01
 0.42868200525E+01 0.50126848863E+01 0.59808923190E+01 0.71791170860E+01 0.85524486763E+01
 0.99945487456E+01 0.11273273664E+02 0.11906570262E+02 0.11469312228E+02 0.98288017023E+01
 0.10245512488E+02 0.82239689748E+01 0.61094267813E+01 0.46168885857E+01 0.42768191957E+01
 0.52093176382E+01 0.70754851544E+01 0.92284723377E+01 0.10979473801E+02 0.11848163291E+02
 0.11699166041E+02 0.10734366146E+02 0.93674255021E+01 0.79620850844E+01 0.66666527044E+01
 0.55648532455E+01 0.46943337976E+01 0.40574167209E+01 0.36373805223E+01 0.34131036627E+01
 0.33693528018E+01 0.35023811200E+01 0.38208041761E+01 0.43422167748E+01 0.50859643688E+01
 0.60613096766E+01 0.72512780153E+01 0.85974627233E+01 0.99945487456E+01 0.11226120768E+02
 0.11864506462E+02 0.11560005066E+02 0.11667511004E+02 0.10757357978E+02 0.93290647824E+01
 0.79042150191E+01 0.70363684957E+01 0.70754927210E+01 0.80135670396E+01 0.94919074090E+01
 0.10961585627E+02 0.11909430356E+02 0.12043578515E+02 0.11371031530E+02 0.10155678109E+02
 0.87682780958E+01 0.74199705668E+01 0.62141559145E+01 0.52122297255E+01 0.44357903179E+01
 0.38788174554E+01 0.35224446599E+01 0.33470964750E+01 0.33405925734E+01 0.35020522190E+01
 0.38415817320E+01 0.43763674487E+01 0.51234849442E+01 0.60885982050E+01 0.72512780153E+01
 0.85524486763E+01 0.98918918878E+01 0.11084397665E+02 0.11769389065E+02 0.11602419284E+02
 0.11736894154E+02 0.11253952274E+02 0.10404466864E+02 0.95982238443E+01 0.92284763159E+01
 0.94919154634E+01 0.10297530633E+02 0.11311034454E+02 0.12106159633E+02 0.12342710584E+02
 0.11891587037E+02 0.10864445644E+02 0.95467328862E+01 0.81920507282E+01 0.69203747741E+01
 0.58119144454E+01 0.49087648212E+01 0.42201941968E+01 0.37348401428E+01 0.34333782689E+01
 0.32983949269E+01 0.33206932557E+01 0.35016969881E+01 0.38521329477E+01 0.43879302684E+01
 0.51234849442E+01 0.60613096766E+01 0.71791170860E+01 0.84198318810E+01 0.96914396975E+01
 0.10847581569E+02 0.10517540945E+02 0.11343773169E+02 0.11710324994E+02 0.11625655737E+02
 0.11284165700E+02 0.10979465923E+02 0.10961587134E+02 0.11311040257E+02 0.11897334783E+02
 0.12441783123E+02 0.12646981438E+02 0.12326345611E+02 0.11477518671E+02 0.10275898469E+02
 0.89608606979E+01 0.76664507285E+01 0.64841715456E+01 0.54743617363E+01 0.46639702606E+01
 0.40537231311E+01 0.36294262686E+01 0.33726180457E+01 0.32684911274E+01 0.33105147133E+01
 0.35015707044E+01 0.38521329477E+01 0.43763674487E+01 0.50859643688E+01 0.59808923190E+01
 0.70385375561E+01 0.82062079866E+01 0.94025148277E+01 0.90380211354E+01 0.10101443996E+02
 0.10980035548E+02 0.11542098992E+02 0.11787813765E+02 0.11848154989E+02 0.11909421068E+02
 0.12106159325E+02 0.12441788538E+02 0.12781169379E+02 0.12916919117E+02 0.12671076933E+02
 0.11980496301E+02 0.10929028489E+02 0.97011860961E+01 0.84319099788E+01 0.72164554069E+01
 0.61285826981E+01 0.52126614204E+01 0.44847864756E+01 0.39405826095E+01 0.35651522989E+01
 0.33418296661E+01 0.32584268683E+01 0.33105147133E+01 0.35016969881E+01 0.38415817320E+01
 0.43422167748E+01 0.50126848863E+01 0.58512538761E+01 0.68365610120E+01 0.79220375736E+01
 0.75804710276E+01 0.86130470517E+01 0.96149839148E+01 0.10512443008E+02 0.11212300396E+02
 0.11699168427E+02 0.12043574069E+02 0.12342704435E+02 0.12646982379E+02 0.12916925007E+02
 0.13035770546E+02 0.12869262669E+02 0.12338391891E+02 0.11467727700E+02 0.10379291072E+02
 0.91890380356E+01 0.79896620466E+01 0.68624383443E+01 0.58664492979E+01 0.50344186705E+01
 0.43756358605E+01 0.38834044088E+01 0.35435805634E+01 0.33418296661E+01 0.32684911274E+01
 0.33206932557E+01 0.35020522190E+01 0.38208041761E+01 0.42868200525E+01 0.49070145801E+01
 0.56788089436E+01 0.65831475246E+01 0.62900510814E+01 0.71965468189E+01 0.81447042765E+01
 0.90820023064E+01 0.99615960917E+01 0.10734369208E+02 0.11371039838E+02 0.11891587455E+02
 0.12326340308E+02 0.12671078320E+02 0.12869269911E+02 0.12833590471E+02 0.12493773649E+02
 0.11843000293E+02 0.10950266199E+02 0.98993261514E+01 0.87742539677E+01 0.76577203049E+01
 0.66189695829E+01 0.57061163563E+01 0.49442519833E+01 0.43390130729E+01 0.38834044088E+01
 0.35651522989E+01 0.33726180457E+01 0.32983949269E+01 0.33405925734E+01 0.35023811200E+01
 0.37904575221E+01 0.42126039058E+01 0.47739417536E+01 0.54717511861E+01 0.52396486475E+01
 0.59705160518E+01 0.67865398867E+01 0.76512594914E+01 0.85237596376E+01 0.93674184700E+01
 0.10155684327E+02 0.10864454254E+02 0.11477517148E+02 0.11980491065E+02 0.12338395670E+02
 0.12493782161E+02 0.12389741413E+02 0.12004011977E+02 0.11361961635E+02 0.10513589566E+02
 0.95282207351E+01 0.84833240007E+01 0.74523584787E+01 0.64951315394E+01 0.56522123001E+01
 0.49442519833E+01 0.43756358605E+01 0.39405826095E+01 0.36294262686E+01 0.34333782689E+01
 0.33470964750E+01 0.33693528018E+01 0.35025623158E+01 0.37517310272E+01 0.41227417017E+01
 0.46194726389E+01 0.44506839426E+01 0.49928615503E+01 0.56380796802E+01 0.63669882115E+01
 0.71520160230E+01 0.79620793993E+01 0.87682715240E+01 0.95467371134E+01 0.10275905316E+02
 0.10929026945E+02 0.11467723734E+02 0.11843004221E+02 0.12004019012E+02 0.11914716273E+02
 0.11565559504E+02 0.10977786160E+02 0.10199136676E+02 0.92942886172E+01 0.83336466335E+01
 0.73829281277E+01 0.64951315394E+01 0.57061163563E+01 0.50344186705E+01 0.44847864756E+01
 0.40537231311E+01 0.37348401428E+01 0.35224446599E+01 0.34131036627E+01 0.34059375685E+01
 0.35024539216E+01 0.37061083634E+01 0.40212048589E+01 0.39124889384E+01 0.42747987382E+01
 0.47416721158E+01 0.53062562212E+01 0.59545521751E+01 0.66666619052E+01 0.74199643620E+01
 0.81920468536E+01 0.89608676980E+01 0.97011924040E+01 0.10379287896E+02 0.10950261558E+02
 0.11361963810E+02 0.11565563547E+02 0.11528414432E+02 0.11243331817E+02 0.10730857783E+02
 0.10034922192E+02 0.92144736621E+01 0.83336466335E+01 0.74523584787E+01 0.66189695829E+01
 0.58664492979E+01 0.52126614204E+01 0.46639702606E+01 0.42201941968E+01 0.38788174554E+01
 0.36373805223E+01 0.34942965765E+01 0.34490099108E+01 0.35021551777E+01 0.36556926159E+01
 0.36025857725E+01 0.38011081515E+01 0.40991197933E+01 0.44961926219E+01 0.49878506615E+01
 0.55648691104E+01 0.62141636895E+01 0.69203741559E+01 0.76664515967E+01 0.84319150793E+01
 0.91890406539E+01 0.98993235517E+01 0.10513586659E+02 0.10977785778E+02 0.11243331724E+02
 0.11277980597E+02 0.11073171938E+02 0.10645825766E+02 0.10034922192E+02 0.92942886172E+01
 0.84833240007E+01 0.76577203049E+01 0.68624383443E+01 0.61285826981E+01 0.54743617363E+01
 0.49087648212E+01 0.44357903179E+01 0.40574167209E+01 0.37747622649E+01 0.35881605576E+01
 0.34972904666E+01 0.35018832807E+01 0.35017308465E+01 0.35491005718E+01 0.36916865369E+01
 0.39304566750E+01 0.42654302248E+01 0.46943459590E+01 0.52122438471E+01 0.58119214547E+01
 0.64841707896E+01 0.72164542054E+01 0.79896643547E+01 0.87742572429E+01 0.95282216505E+01
 0.10199134655E+02 0.10730854208E+02 0.11073169121E+02 0.11191396915E+02 0.11073171938E+02
 0.10730857783E+02 0.10199136676E+02 0.95282207351E+01 0.87742539677E+01 0.79896620466E+01
 0.72164554069E+01 0.64841715456E+01 0.58119144454E+01 0.52122297255E+01 0.46943337976E+01
 0.42654215566E+01 0.39304391338E+01 0.36916540549E+01 0.35490715693E+01 0.36025856585E+01
 0.35019048995E+01 0.34973300550E+01 0.35882010878E+01 0.37747920100E+01 0.40574350499E+01
 0.44358004846E+01 0.49087694010E+01 0.54743630543E+01 0.61285823152E+01 0.68624371095E+01
 0.76577202931E+01 0.84833269290E+01 0.92942918183E+01 0.10034921199E+02 0.10645821374E+02
 0.11073169121E+02 0.11277980597E+02 0.11243331817E+02 0.10977786160E+02 0.10513589566E+02
 0.98993261514E+01 0.91890380356E+01 0.84319099788E+01 0.76664507285E+01 0.69203747741E+01
 0.62141559145E+01 0.55648532455E+01 0.49878389719E+01 0.44961901689E+01 0.40991172876E+01
 0.38011006268E+01 0.39125077006E+01 0.36557108651E+01 0.35021847034E+01 0.34490528228E+01
 0.34943416092E+01 0.36374126302E+01 0.38788295731E+01 0.42201930030E+01 0.46639689720E+01
 0.52126645901E+01 0.58664499278E+01 0.66189639905E+01 0.74523544802E+01 0.83336504464E+01
 0.92144789118E+01 0.10034921199E+02 0.10730854208E+02 0.11243331724E+02 0.11528414432E+02
 0.11565559504E+02 0.11361961635E+02 0.10950266199E+02 0.10379291072E+02 0.97011860961E+01
 0.89608606979E+01 0.81920507282E+01 0.74199705668E+01 0.66666527044E+01 0.59545307185E+01
 0.53062456769E+01 0.47416842413E+01 0.42748212708E+01 0.44507152472E+01 0.40212393864E+01
 0.37061439235E+01 0.35024889833E+01 0.34059702527E+01 0.34131318990E+01 0.35224628281E+01
 0.37348429692E+01 0.40537161617E+01 0.44847825366E+01 0.50344205935E+01 0.57061150456E+01
 0.64951242727E+01 0.73829242814E+01 0.83336504464E+01 0.92942918183E+01 0.10199134655E+02
 0.10977785778E+02 0.11565563547E+02 0.11914716273E+02 0.12004011977E+02 0.11843000293E+02
 0.11467727700E+02 0.10929028489E+02 0.10275898469E+02 0.95467328862E+01 0.87682780958E+01
 0.79620850844E+01 0.71520074967E+01 0.63669738661E+01 0.56380793534E+01 0.49928814888E+01
 0.52396658786E+01 0.46195109442E+01 0.41227893625E+01 0.37517685047E+01 0.35025800935E+01
 0.33693607546E+01 0.33471064286E+01 0.34333842696E+01 0.36294167463E+01 0.39405647790E+01
 0.43756281220E+01 0.49442558006E+01 0.56522127402E+01 0.64951242727E+01 0.74523544802E+01
 0.84833269290E+01 0.95282216505E+01 0.10513586659E+02 0.11361963810E+02 0.12004019012E+02
 0.12389741413E+02 0.12493773649E+02 0.12338391891E+02 0.11980496301E+02 0.11477518671E+02
 0.10864445644E+02 0.10155678109E+02 0.93674255021E+01 0.85237713615E+01 0.76512616053E+01
 0.67865330484E+01 0.59705145848E+01 0.62900548872E+01 0.54717678519E+01 0.47739727595E+01
 0.42126387023E+01 0.37904783392E+01 0.35023809441E+01 0.33405823020E+01 0.32983850230E+01
 0.33726038616E+01 0.35651289437E+01 0.38833833946E+01 0.43390075978E+01 0.49442558006E+01
 0.57061150456E+01 0.66189639905E+01 0.76577202931E+01 0.87742572429E+01 0.98993235517E+01
 0.10950261558E+02 0.11843004221E+02 0.12493782161E+02 0.12833590471E+02 0.12869262669E+02
 0.12671076933E+02 0.12326345611E+02 0.11891587037E+02 0.11371031530E+02 0.10734366146E+02
 0.99616053131E+01 0.90820145548E+01 0.81447092042E+01 0.71965463139E+01 0.75804831969E+01
 0.65831503253E+01 0.56788089202E+01 0.49070253667E+01 0.42868391316E+01 0.38208095367E+01
 0.35020308428E+01 0.33206588701E+01 0.32684627710E+01 0.33418073827E+01 0.35435564026E+01
 0.38833833946E+01 0.43756281220E+01 0.50344205935E+01 0.58664499278E+01 0.68624371095E+01
 0.79896643547E+01 0.91890406539E+01 0.10379287896E+02 0.11467723734E+02 0.12338395670E+02
 0.12869269911E+02 0.13035770546E+02 0.12916919117E+02 0.12646981438E+02 0.12342710584E+02
 0.12043578515E+02 0.11699166041E+02 0.11212295861E+02 0.10512443461E+02 0.96149926779E+01
 0.86130617471E+01 0.90380368019E+01 0.79220476944E+01 0.68365585040E+01 0.58512457711E+01
 0.50126815641E+01 0.43422128737E+01 0.38415604054E+01 0.35016557460E+01 0.33104720855E+01
 0.32583973041E+01 0.33418073827E+01 0.35651289437E+01 0.39405647790E+01 0.44847825366E+01
 0.52126645901E+01 0.61285823152E+01 0.72164542054E+01 0.84319150793E+01 0.97011924040E+01
 0.10929026945E+02 0.11980491065E+02 0.12671078320E+02 0.12916925007E+02 0.12781169379E+02
 0.12441783123E+02 0.12106159633E+02 0.11909430356E+02 0.11848163291E+02 0.11787812538E+02
 0.11542092022E+02 0.10980033525E+02 0.10101453102E+02 0.10517537910E+02 0.94025240587E+01
 0.82062224645E+01 0.70385394645E+01 0.59808742338E+01 0.50859371842E+01 0.43763410586E+01
 0.38521017788E+01 0.35015286651E+01 0.33104720855E+01 0.32684627710E+01 0.33726038616E+01
 0.36294167463E+01 0.40537161617E+01 0.46639689720E+01 0.54743630543E+01 0.64841707896E+01
 0.76664515967E+01 0.89608676980E+01 0.10275905316E+02 0.11477517148E+02 0.12326340308E+02
 0.12646982379E+02 0.12441788538E+02 0.11897334783E+02 0.11311034454E+02 0.10961585627E+02
 0.10979473801E+02 0.11284176848E+02 0.11625661499E+02 0.11710322057E+02 0.11343765310E+02
 0.11602406859E+02 0.10847574710E+02 0.96914476674E+01 0.84198443119E+01 0.71791118900E+01
 0.60612814307E+01 0.51234511175E+01 0.43879026332E+01 0.38521017788E+01 0.35016557460E+01
 0.33206588701E+01 0.32983850230E+01 0.34333842696E+01 0.37348429692E+01 0.42201930030E+01
 0.49087694010E+01 0.58119214547E+01 0.69203741559E+01 0.81920468536E+01 0.95467371134E+01
 0.10864454254E+02 0.11891587455E+02 0.12342704435E+02 0.12106159325E+02 0.11311040257E+02
 0.10297530633E+02 0.94919074090E+01 0.92284723377E+01 0.95982320515E+01 0.10404480850E+02
 0.11253960018E+02 0.11736889545E+02 0.11667515495E+02 0.11769382571E+02 0.11084383327E+02
 0.98918863632E+01 0.85524554186E+01 0.72512765524E+01 0.60885740753E+01 0.51234511175E+01
 0.43763410586E+01 0.38415604054E+01 0.35020308428E+01 0.33405823020E+01 0.33471064286E+01
 0.35224628281E+01 0.38788295731E+01 0.44358004846E+01 0.52122438471E+01 0.62141636895E+01
 0.74199643620E+01 0.87682715240E+01 0.10155684327E+02 0.11371039838E+02 0.12043574069E+02
 0.11909421068E+02 0.10961587134E+02 0.94919154634E+01 0.80135670396E+01 0.70754851544E+01
 0.70363648099E+01 0.79042181872E+01 0.93290706355E+01 0.10757365105E+02 0.10245523428E+02
 0.11560016251E+02 0.11864497252E+02 0.11226098276E+02 0.99945424051E+01 0.85974748569E+01
 0.72512765524E+01 0.60612814307E+01 0.50859371842E+01 0.43422128737E+01 0.38208095367E+01
 0.35023809441E+01 0.33693607546E+01 0.34131318990E+01 0.36374126302E+01 0.40574350499E+01
 0.46943459590E+01 0.55648691104E+01 0.66666619052E+01 0.79620793993E+01 0.93674184700E+01
 0.10734369208E+02 0.11699168427E+02 0.11848154989E+02 0.10979465923E+02 0.92284763159E+01
 0.70754927210E+01 0.52093176382E+01 0.42768145514E+01 0.46168843118E+01 0.61094217855E+01
 0.82239681900E+01 0.72689260665E+01 0.98288078871E+01 0.11469326736E+02 0.11906566693E+02
 0.11273255214E+02 0.99945424051E+01 0.85524554186E+01 0.71791118900E+01 0.59808742338E+01
 0.50126815641E+01 0.42868391316E+01 0.37904783392E+01 0.35025800935E+01 0.34059702527E+01
 0.34943416092E+01 0.37747920100E+01 0.42654302248E+01 0.49878506615E+01 0.59545521751E+01
 0.71520160230E+01 0.85237596376E+01 0.99615960917E+01 0.11212300396E+02 0.11787813765E+02
 0.11284165700E+02 0.95982238443E+01 0.70363684957E+01 0.42768191957E+01 0.21664978931E+01
 0.14079898363E+01 0.22690295828E+01 0.44629728955E+01 0.32052429753E+01 0.66229948308E+01
 0.95959905514E+01 0.11434492169E+02 0.11906566693E+02 0.11226098276E+02 0.98918863632E+01
 0.84198443119E+01 0.70385394645E+01 0.58512457711E+01 0.49070253667E+01 0.42126387023E+01
 0.37517685047E+01 0.35024889833E+01 0.34490528228E+01 0.35882010878E+01 0.39304566750E+01
 0.44961926219E+01 0.53062562212E+01 0.63669882115E+01 0.76512594914E+01 0.90820023064E+01
 0.10512443008E+02 0.11542098992E+02 0.11625655737E+02 0.10404466864E+02 0.79042150191E+01
 0.46168885857E+01 0.14079878695E+01 -.75589096553E+00 -.11717545122E+01 0.30721355959E+00
 -.99445229989E+00 0.25248893764E+01 0.63949280815E+01 0.95959905514E+01 0.11469326736E+02
 0.11864497252E+02 0.11084383327E+02 0.96914476674E+01 0.82062224645E+01 0.68365585040E+01
 0.56788089202E+01 0.47739727595E+01 0.41227893625E+01 0.37061439235E+01 0.35021847034E+01
 0.34973300550E+01 0.36916865369E+01 0.40991197933E+01 0.47416721158E+01 0.56380796802E+01
 0.67865398867E+01 0.81447042765E+01 0.96149839148E+01 0.10980035548E+02 0.11710324994E+02
 0.11253952274E+02 0.93290647824E+01 0.61094267813E+01 0.22690290654E+01 -.11717667807E+01
 -.31823552097E+01 -.31189878263E+01 -.41656278737E+01 -.14501196990E+01 0.25248893764E+01
 0.66229948308E+01 0.98288078871E+01 0.11560016251E+02 0.11769382571E+02 0.10847574710E+02
 0.94025240587E+01 0.79220476944E+01 0.65831503253E+01 0.54717678519E+01 0.46195109442E+01
 0.40212393864E+01 0.36557108651E+01 0.35019048995E+01 0.35491005718E+01 0.38011081515E+01
 0.42747987382E+01 0.49928615503E+01 0.59705160518E+01 0.71965468189E+01 0.86130470517E+01
 0.10101443996E+02 0.11343773169E+02 0.11736894154E+02 0.10757357978E+02 0.82239689748E+01
 0.44629836863E+01 0.30720857712E+00 -.31190082598E+01 -.47863957359E+01 -.41655447315E+01
 -.32936843975E+01 -.49609715942E+00 0.33701826877E+01 0.72096300619E+01 0.10086974303E+02
 0.11505326713E+02 0.11481358557E+02 0.10435388826E+02 0.89678109895E+01 0.75066538061E+01
 0.62038295289E+01 0.51362075437E+01 0.43280155153E+01 0.37694218721E+01 0.34372424610E+01
 0.33106326115E+01 0.33802567979E+01 0.36516574877E+01 0.41432370619E+01 0.48786174905E+01
 0.58725607227E+01 0.71109700390E+01 0.85306800065E+01 0.10005662542E+02 0.11192081610E+02
 0.11493292186E+02 0.10426187952E+02 0.78673695388E+01 0.41958157037E+01 0.26384029082E+00
 -.28381637973E+01 -.32937070437E+01 -.41656315532E+01 -.28382210448E+01 0.26385121511E+00
 0.41958293952E+01 0.78673332889E+01 0.10426153019E+02 0.11493326024E+02 0.11192147023E+02
 0.10005669964E+02 0.85306292889E+01 0.71109468695E+01 0.58725970784E+01 0.48786482893E+01
 0.41432149872E+01 0.36516268029E+01 0.33802709683E+01 0.33106644415E+01 0.34372333134E+01
 0.37693789454E+01 0.43279989224E+01 0.51362372899E+01 0.62038610288E+01 0.75066494676E+01
 0.89677907454E+01 0.10435388427E+02 0.11481367957E+02 0.11505306765E+02 0.10086928790E+02
 0.72096178737E+01 0.33702341954E+01 -.49604207089E+00 -.40328937949E+00 -.27375950768E+01
 -.31189486937E+01 -.14363697973E+01 0.17637267034E+01 0.55063223351E+01 0.87680249873E+01
 0.10825138562E+02 0.11436156065E+02 0.10825823604E+02 0.95174171732E+01 0.80587510982E+01
 0.66964625689E+01 0.55355737044E+01 0.46240979560E+01 0.39664611915E+01 0.35441340668E+01
 0.33340298899E+01 0.33207758182E+01 0.35028350510E+01 0.38930352668E+01 0.45137891837E+01
 0.53867066983E+01 0.65159449380E+01 0.78676057095E+01 0.93534691413E+01 0.10793390526E+02
 0.11706789321E+02 0.11522653526E+02 0.98978867197E+01 0.69163102401E+01 0.31610859062E+01
 0.36050552231E+01 0.53105187308E+00 -.12473234788E+01 -.11718100053E+01 0.71394630079E+00
 0.37854692617E+01 0.70982153488E+01 0.97502589121E+01 0.11178510386E+02 0.11284254890E+02
 0.10377105823E+02 0.89909487648E+01 0.75690027001E+01 0.62787321335E+01 0.52055654996E+01
 0.43820987849E+01 0.38040725965E+01 0.34505194216E+01 0.32999849503E+01 0.33406257665E+01
 0.35746876286E+01 0.40177686010E+01 0.46929659316E+01 0.56194858094E+01 0.67954353538E+01
 0.81782000903E+01 0.96712735176E+01 0.11071135808E+02 0.11881566344E+02 0.11583157211E+02
 0.99152336867E+01 0.70458581657E+01 0.75839610881E+01 0.46384013046E+01 0.21741830739E+01
 0.96973845402E+00 0.14079606066E+01 0.33161297447E+01 0.60435902908E+01 0.87329091686E+01
 0.10644316431E+02 0.11389978003E+02 0.11004162512E+02 0.98554353844E+01 0.84460927551E+01
 0.70784992696E+01 0.58729849982E+01 0.48943655005E+01 0.41608505219E+01 0.36613422412E+01
 0.33738563030E+01 0.32792428286E+01 0.33693417477E+01 0.36499225546E+01 0.41386036544E+01
 0.48580639809E+01 0.58242230921E+01 0.70292846750E+01 0.84237112813E+01 0.99062168469E+01
 0.11262057339E+02 0.12012062356E+02 0.11701827605E+02 0.10149740702E+02 0.10564790768E+02
 0.84461006768E+01 0.61082649685E+01 0.42949540405E+01 0.36121727410E+01 0.42767609258E+01
 0.60262512301E+01 0.82366263537E+01 0.10182114799E+02 0.11306782072E+02 0.11394467254E+02
 0.10589939324E+02 0.92888985312E+01 0.79009074356E+01 0.66045345054E+01 0.54933404323E+01
 0.46123634855E+01 0.39674966482E+01 0.35427392916E+01 0.33163705412E+01 0.32722222669E+01
 0.34058384910E+01 0.37258099031E+01 0.42506700155E+01 0.50017247923E+01 0.59912212273E+01
 0.72060189733E+01 0.85916613233E+01 0.10045727437E+02 0.11359178490E+02 0.12094422855E+02
 0.11867473554E+02 0.12044320724E+02 0.11083308987E+02 0.94934528404E+01 0.77999870727E+01
 0.66036514044E+01 0.63362352273E+01 0.70754073893E+01 0.85147053494E+01 0.10101899010E+02
 0.11269906375E+02 0.11648536408E+02 0.11173731123E+02 0.10068856482E+02 0.87149763770E+01
 0.73748659016E+01 0.61640274533E+01 0.51528040474E+01 0.43686199817E+01 0.38077689930E+01
 0.34515307965E+01 0.32796513464E+01 0.32791936869E+01 0.34489347632E+01 0.37994367656E+01
 0.43492250219E+01 0.51174404079E+01 0.61123608622E+01 0.73163731903E+01 0.86726069204E+01
 0.10081304202E+02 0.11355141930E+02 0.12114456341E+02 0.12050623450E+02 0.12180026807E+02
 0.11603142093E+02 0.10558036582E+02 0.94746446461E+01 0.88028033962E+01 0.88164735703E+01
 0.94918630896E+01 0.10522516284E+02 0.11459647092E+02 0.11902599224E+02 0.11650800004E+02
 0.10760656799E+02 0.94975998772E+01 0.81594623496E+01 0.68884408284E+01 0.57730413160E+01
 0.48625766068E+01 0.41703185392E+01 0.36860801827E+01 0.33902700111E+01 0.32647968923E+01
 0.32999338513E+01 0.34971535511E+01 0.38680557956E+01 0.44301377432E+01 0.51997307985E+01
 0.61813301053E+01 0.73541938314E+01 0.86615463402E+01 0.10009489866E+02 0.11242912457E+02
 0.11018568714E+02 0.11880246634E+02 0.12217172091E+02 0.12016863461E+02 0.11473950439E+02
 0.10912397490E+02 0.10639316280E+02 0.10800240019E+02 0.11310969999E+02 0.11900409495E+02
 0.12238014591E+02 0.12079362708E+02 0.11364137462E+02 0.10231161526E+02 0.89363862100E+01
 0.76474127550E+01 0.64613745302E+01 0.54454629738E+01 0.46316977064E+01 0.40230736796E+01
 0.36056815573E+01 0.33605353282E+01 0.32722172943E+01 0.33339308668E+01 0.35489746200E+01
 0.39289834161E+01 0.44897261188E+01 0.52445008578E+01 0.61944442630E+01 0.73170865903E+01
 0.85581545002E+01 0.98323320018E+01 0.95574003306E+01 0.10684288578E+02 0.11586423620E+02
 0.12107019352E+02 0.12234421186E+02 0.12108938158E+02 0.11950797318E+02 0.11945249128E+02
 0.12144883314E+02 0.12441768273E+02 0.12622385216E+02 0.12473175921E+02 0.11882463933E+02
 0.10893126069E+02 0.96830964996E+01 0.84200636248E+01 0.72032200346E+01 0.61109738127E+01
 0.51925428416E+01 0.44669618016E+01 0.39307069168E+01 0.35685492688E+01 0.33631651769E+01
 0.33018631009E+01 0.33802023797E+01 0.36024900918E+01 0.39796467903E+01 0.45252105942E+01
 0.52493970991E+01 0.61507043681E+01 0.72065271069E+01 0.83671139650E+01 0.80974820266E+01
 0.91967140399E+01 0.10251538921E+02 0.11165823950E+02 0.11822802576E+02 0.12202177237E+02
 0.12388386975E+02 0.12510623465E+02 0.12659807336E+02 0.12829951601E+02 0.12916908096E+02
 0.12773415370E+02 0.12288818101E+02 0.11452342904E+02 0.10369597435E+02 0.91801673342E+01
 0.79787778817E+01 0.68482452602E+01 0.58509422273E+01 0.50223220178E+01 0.43728169348E+01
 0.38955693301E+01 0.35757120980E+01 0.33981742473E+01 0.33528919867E+01 0.34372048244E+01
 0.36556394424E+01 0.40177689278E+01 0.45347017645E+01 0.52139134453E+01 0.60521496839E+01
 0.70279676851E+01 0.67901032719E+01 0.77619951388E+01 0.87662559944E+01 0.97427343137E+01
 0.10633819634E+02 0.11368546655E+02 0.11914968275E+02 0.12307617372E+02 0.12603458600E+02
 0.12827677065E+02 0.12944253924E+02 0.12869287504E+02 0.12518523753E+02 0.11861604719E+02
 0.10953120265E+02 0.98913760511E+01 0.87592340416E+01 0.76382827078E+01 0.65988784645E+01
 0.56907677848E+01 0.49399296923E+01 0.43518343398E+01 0.39186463157E+01 0.36270840331E+01
 0.34647087050E+01 0.34238138191E+01 0.35028970304E+01 0.37061309143E+01 0.40414536299E+01
 0.45175808650E+01 0.51396668320E+01 0.59035715007E+01 0.57122752728E+01 0.65045232148E+01
 0.73762385873E+01 0.82847769026E+01 0.91824883497E+01 0.10026356567E+02 0.10782034940E+02
 0.11417573580E+02 0.11928526293E+02 0.12320432306E+02 0.12577902462E+02 0.12654901384E+02
 0.12493795384E+02 0.12061632160E+02 0.11380114178E+02 0.10505478542E+02 0.95038007537E+01
 0.84503086101E+01 0.74177733352E+01 0.64661639030E+01 0.56361569318E+01 0.49479264354E+01
 0.44048010138E+01 0.39996758459E+01 0.37216422511E+01 0.35610518808E+01 0.35123355898E+01
 0.35747622091E+01 0.37517779540E+01 0.40495086059E+01 0.44744752554E+01 0.50301351786E+01
 0.48907198474E+01 0.54875409817E+01 0.61845583675E+01 0.69575105684E+01 0.77731911941E+01
 0.85948569605E+01 0.93889195110E+01 0.10129183130E+02 0.10795038367E+02 0.11363270836E+02
 0.11807063403E+02 0.12089662708E+02 0.12166522637E+02 0.12004044732E+02 0.11597060408E+02
 0.10967145570E+02 0.10160555514E+02 0.92401757148E+01 0.82749482124E+01 0.73295520408E+01
 0.64561110784E+01 0.56894459822E+01 0.50467203843E+01 0.45310278028E+01 0.41371454637E+01
 0.38571874972E+01 0.36845235247E+01 0.36155742036E+01 0.36500703178E+01 0.37905529915E+01
 0.40414404715E+01 0.44074136594E+01 0.43196502152E+01 0.47280151534E+01 0.52398043280E+01
 0.58447034612E+01 0.65242307653E+01 0.72535653212E+01 0.80054885853E+01 0.87543107815E+01
 0.94771405058E+01 0.10151064815E+02 0.10747706574E+02 0.11229489994E+02 0.11552012721E+02
 0.11673249885E+02 0.11565580298E+02 0.11224812958E+02 0.10672649044E+02 0.99527737797E+01
 0.91229773828E+01 0.82457772221E+01 0.73793638821E+01 0.65704146089E+01 0.58501904829E+01
 0.52346579743E+01 0.47280519175E+01 0.43280402435E+01 0.40303471592E+01 0.38315434779E+01
 0.37300126882E+01 0.37259106801E+01 0.38208917666E+01 0.40177679602E+01 0.39796425038E+01
 0.42153007460E+01 0.45496057635E+01 0.49802430135E+01 0.54996489824E+01 0.60946297699E+01
 0.67478793853E+01 0.74403867165E+01 0.81529486871E+01 0.88652518159E+01 0.95524103395E+01
 0.10181036794E+02 0.10708376107E+02 0.11087028212E+02 0.11274452533E+02 0.11243344022E+02
 0.10988609652E+02 0.10528890248E+02 0.99030777575E+01 0.91634346977E+01 0.83670231647E+01
 0.75671616438E+01 0.68067361714E+01 0.61148955845E+01 0.55076439219E+01 0.49914145960E+01
 0.45676354531E+01 0.42362813844E+01 0.39974953306E+01 0.38517299434E+01 0.37995270578E+01
 0.38416836226E+01 0.38521986836E+01 0.39290004358E+01 0.40992371742E+01 0.43633426172E+01
 0.47197425263E+01 0.51634706850E+01 0.56861045512E+01 0.62768952317E+01 0.69238081905E+01
 0.76130016196E+01 0.83262059437E+01 0.90370051447E+01 0.97083489347E+01 0.10293796196E+02
 0.10743456276E+02 0.11013093508E+02 0.11073183789E+02 0.10914990785E+02 0.10552294479E+02
 0.10018806263E+02 0.93620239954E+01 0.86348400026E+01 0.78869260278E+01 0.71582693046E+01
 0.64765732105E+01 0.58586279114E+01 0.53140554239E+01 0.48490879886E+01 0.44687013320E+01
 0.41769282592E+01 0.39763712518E+01 0.38680758371E+01 0.39289591996E+01 0.38522174191E+01
 0.38681186621E+01 0.39763676461E+01 0.41768866691E+01 0.44686912078E+01 0.48491250250E+01
 0.53140844611E+01 0.58586201066E+01 0.64765638782E+01 0.71582848827E+01 0.78869409457E+01
 0.86348306899E+01 0.93620110740E+01 0.10018814059E+02 0.10552309491E+02 0.10914988103E+02
 0.11073165852E+02 0.11013079982E+02 0.10743455073E+02 0.10293800140E+02 0.97083488151E+01
 0.90369991973E+01 0.83262027750E+01 0.76130085323E+01 0.69238123599E+01 0.62768763261E+01
 0.56860747114E+01 0.51634687129E+01 0.47197693234E+01 0.43633451326E+01 0.40991903865E+01
 0.42153104006E+01 0.39796031222E+01 0.38416336437E+01 0.37995065072E+01 0.38517316573E+01
 0.39974945461E+01 0.42362751644E+01 0.45676359615E+01 0.49914266303E+01 0.55076602712E+01
 0.61149035403E+01 0.68067295358E+01 0.75671528040E+01 0.83670305915E+01 0.91634518757E+01
 0.99030773349E+01 0.10528868303E+02 0.10988593996E+02 0.11243344137E+02 0.11274441145E+02
 0.11086995631E+02 0.10708358370E+02 0.10181056167E+02 0.95524320891E+01 0.88652424347E+01
 0.81529342757E+01 0.74404019882E+01 0.67478977230E+01 0.60946061735E+01 0.54996039565E+01