   2   2   0   0
  0.1529437E+02  0.3691622E-09  0.3691622E-09  0.3691622E-09  0.5000000E-15
  1.000000000000000E-004
  CAR 
 unknown system                          
     21.98451478     -6.24203997  301      9.23833749      1.00000000
     -6.242  0.0000E+00  0.0000E+00
     -6.148  0.0000E+00  0.0000E+00
     -6.054  0.0000E+00  0.0000E+00
     -5.960  0.0000E+00  0.0000E+00
     -5.866  0.0000E+00  0.0000E+00
     -5.772  0.0000E+00  0.0000E+00
     -5.678  0.0000E+00  0.0000E+00
     -5.583  0.0000E+00  0.0000E+00
     -5.489  0.0000E+00  0.0000E+00
     -5.395  0.1475E-16  0.1388E-17
     -5.301  0.3058E-14  0.2891E-15
     -5.207  0.3897E-12  0.3695E-13
     -5.113  0.3214E-10  0.3061E-11
     -5.019  0.1716E-08  0.1645E-09
     -4.925  0.5937E-07  0.5751E-08
     -4.831  0.1333E-05  0.1311E-06
     -4.737  0.1942E-04  0.1959E-05
     -4.643  0.1841E-03  0.1928E-04
     -4.548  0.1135E-02  0.1261E-03
     -4.454  0.4562E-02  0.5553E-03
     -4.360  0.1195E-01  0.1680E-02
     -4.266  0.2043E-01  0.3602E-02
     -4.172  0.2279E-01  0.5746E-02
     -4.078  0.1660E-01  0.7308E-02
     -3.984  0.7888E-02  0.8050E-02
     -3.890  0.2445E-02  0.8280E-02
     -3.796  0.4952E-03  0.8327E-02
     -3.702  0.8059E-04  0.8334E-02
     -3.608  0.1415E-03  0.8348E-02
     -3.513  0.7710E-03  0.8420E-02
     -3.419  0.2848E-02  0.8688E-02
     -3.325  0.6870E-02  0.9335E-02
     -3.231  0.1087E-01  0.1036E-01
     -3.137  0.1176E-01  0.1146E-01
     -3.043  0.1112E-01  0.1251E-01
     -2.949  0.1629E-01  0.1404E-01
     -2.855  0.3132E-01  0.1699E-01
     -2.761  0.4838E-01  0.2154E-01
     -2.667  0.5670E-01  0.2688E-01
     -2.573  0.5785E-01  0.3232E-01
     -2.478  0.5602E-01  0.3759E-01
     -2.384  0.4585E-01  0.4190E-01
     -2.290  0.2731E-01  0.4447E-01
     -2.196  0.1114E-01  0.4552E-01
     -2.102  0.4071E-02  0.4591E-01
     -2.008  0.6027E-02  0.4647E-01
     -1.914  0.1721E-01  0.4809E-01
     -1.820  0.3478E-01  0.5136E-01
     -1.726  0.4619E-01  0.5571E-01
     -1.632  0.4115E-01  0.5958E-01
     -1.538  0.2794E-01  0.6221E-01
     -1.444  0.2181E-01  0.6426E-01
     -1.349  0.2348E-01  0.6647E-01
     -1.255  0.2251E-01  0.6859E-01
     -1.161  0.1499E-01  0.7000E-01
     -1.067  0.6575E-02  0.7062E-01
     -0.973  0.1884E-02  0.7080E-01
     -0.879  0.3556E-03  0.7083E-01
     -0.785  0.9354E-04  0.7084E-01
     -0.691  0.4621E-03  0.7088E-01
     -0.597  0.2700E-02  0.7114E-01
     -0.503  0.1035E-01  0.7211E-01
     -0.409  0.2589E-01  0.7455E-01
     -0.314  0.4240E-01  0.7853E-01
     -0.220  0.4623E-01  0.8288E-01
     -0.126  0.3722E-01  0.8639E-01
     -0.032  0.3268E-01  0.8946E-01
      0.062  0.4319E-01  0.9353E-01
      0.156  0.6143E-01  0.9931E-01
      0.250  0.8020E-01  0.1069E+00
      0.344  0.9770E-01  0.1160E+00
      0.438  0.1001E+00  0.1255E+00
      0.532  0.7601E-01  0.1326E+00
      0.626  0.4327E-01  0.1367E+00
      0.721  0.2610E-01  0.1391E+00
      0.815  0.2458E-01  0.1415E+00
      0.909  0.2517E-01  0.1438E+00
      1.003  0.2494E-01  0.1462E+00
      1.097  0.3163E-01  0.1491E+00
      1.191  0.4351E-01  0.1532E+00
      1.285  0.4567E-01  0.1575E+00
      1.379  0.3237E-01  0.1606E+00
      1.473  0.1567E-01  0.1621E+00
      1.567  0.7719E-02  0.1628E+00
      1.661  0.1027E-01  0.1637E+00
      1.755  0.1820E-01  0.1655E+00
      1.850  0.2292E-01  0.1676E+00
      1.944  0.1915E-01  0.1694E+00
      2.038  0.1124E-01  0.1705E+00
      2.132  0.8085E-02  0.1712E+00
      2.226  0.1557E-01  0.1727E+00
      2.320  0.3289E-01  0.1758E+00
      2.414  0.4949E-01  0.1805E+00
      2.508  0.5376E-01  0.1855E+00
      2.602  0.4738E-01  0.1900E+00
      2.696  0.4070E-01  0.1938E+00
      2.790  0.4131E-01  0.1977E+00
      2.885  0.4947E-01  0.2023E+00
      2.979  0.5794E-01  0.2078E+00
      3.073  0.6604E-01  0.2140E+00
      3.167  0.8185E-01  0.2217E+00
      3.261  0.9607E-01  0.2307E+00
      3.355  0.8731E-01  0.2390E+00
      3.449  0.6114E-01  0.2447E+00
      3.543  0.4333E-01  0.2488E+00
      3.637  0.4117E-01  0.2527E+00
      3.731  0.4217E-01  0.2566E+00
      3.825  0.3876E-01  0.2603E+00
      3.920  0.3709E-01  0.2638E+00
      4.014  0.4327E-01  0.2678E+00
      4.108  0.4832E-01  0.2724E+00
      4.202  0.3980E-01  0.2761E+00
      4.296  0.2209E-01  0.2782E+00
      4.390  0.8405E-02  0.2790E+00
      4.484  0.4052E-02  0.2794E+00
      4.578  0.8348E-02  0.2802E+00
      4.672  0.2119E-01  0.2822E+00
      4.766  0.4048E-01  0.2860E+00
      4.860  0.5826E-01  0.2914E+00
      4.954  0.6514E-01  0.2976E+00
      5.049  0.6169E-01  0.3034E+00
      5.143  0.6012E-01  0.3090E+00
      5.237  0.6642E-01  0.3153E+00
      5.331  0.7188E-01  0.3221E+00
      5.425  0.7015E-01  0.3287E+00
      5.519  0.6485E-01  0.3348E+00
      5.613  0.5534E-01  0.3400E+00
      5.707  0.3851E-01  0.3436E+00
      5.801  0.2380E-01  0.3458E+00
      5.895  0.2697E-01  0.3484E+00
      5.989  0.5340E-01  0.3534E+00
      6.084  0.9042E-01  0.3619E+00
      6.178  0.1179E+00  0.3730E+00
      6.272  0.1285E+00  0.3851E+00
      6.366  0.1217E+00  0.3965E+00
      6.460  0.9293E-01  0.4053E+00
      6.554  0.5155E-01  0.4101E+00
      6.648  0.1951E-01  0.4120E+00
      6.742  0.4896E-02  0.4124E+00
      6.836  0.8071E-03  0.4125E+00
      6.930  0.1126E-03  0.4125E+00
      7.024  0.2884E-03  0.4125E+00
      7.119  0.2014E-02  0.4127E+00
      7.213  0.9499E-02  0.4136E+00
      7.307  0.2972E-01  0.4164E+00
      7.401  0.6191E-01  0.4222E+00
      7.495  0.8632E-01  0.4304E+00
      7.589  0.8118E-01  0.4380E+00
      7.683  0.5248E-01  0.4429E+00
      7.777  0.2620E-01  0.4454E+00
      7.871  0.1941E-01  0.4472E+00
      7.965  0.3221E-01  0.4503E+00
      8.059  0.5335E-01  0.4553E+00
      8.154  0.6994E-01  0.4619E+00
      8.248  0.7871E-01  0.4693E+00
      8.342  0.8213E-01  0.4770E+00
      8.436  0.7914E-01  0.4844E+00
      8.530  0.6952E-01  0.4910E+00
      8.624  0.6385E-01  0.4970E+00
      8.718  0.7519E-01  0.5041E+00
      8.812  0.9238E-01  0.5127E+00
      8.906  0.8706E-01  0.5209E+00
      9.000  0.5676E-01  0.5263E+00
      9.094  0.2890E-01  0.5290E+00
      9.188  0.2515E-01  0.5314E+00
      9.283  0.4676E-01  0.5358E+00
      9.377  0.7923E-01  0.5432E+00
      9.471  0.1014E+00  0.5528E+00
      9.565  0.1032E+00  0.5625E+00
      9.659  0.9156E-01  0.5711E+00
      9.753  0.7517E-01  0.5782E+00
      9.847  0.5393E-01  0.5832E+00
      9.941  0.2994E-01  0.5860E+00
     10.035  0.1175E-01  0.5872E+00
     10.129  0.3275E-02  0.5875E+00
     10.223  0.1803E-02  0.5876E+00
     10.318  0.5965E-02  0.5882E+00
     10.412  0.1809E-01  0.5899E+00
     10.506  0.3676E-01  0.5934E+00
     10.600  0.5176E-01  0.5982E+00
     10.694  0.5668E-01  0.6036E+00
     10.788  0.5856E-01  0.6091E+00
     10.882  0.6411E-01  0.6151E+00
     10.976  0.7801E-01  0.6224E+00
     11.070  0.1110E+00  0.6329E+00
     11.164  0.1544E+00  0.6474E+00
     11.258  0.1698E+00  0.6634E+00
     11.353  0.1365E+00  0.6762E+00
     11.447  0.8119E-01  0.6839E+00
     11.541  0.4402E-01  0.6880E+00
     11.635  0.3850E-01  0.6916E+00
     11.729  0.4870E-01  0.6962E+00
     11.823  0.5228E-01  0.7011E+00
     11.917  0.4479E-01  0.7053E+00
     12.011  0.3801E-01  0.7089E+00
     12.105  0.4198E-01  0.7129E+00
     12.199  0.5669E-01  0.7182E+00
     12.293  0.7161E-01  0.7249E+00
     12.387  0.7360E-01  0.7319E+00
     12.482  0.6289E-01  0.7378E+00
     12.576  0.5455E-01  0.7429E+00
     12.670  0.5882E-01  0.7485E+00
     12.764  0.6606E-01  0.7547E+00
     12.858  0.5998E-01  0.7603E+00
     12.952  0.4006E-01  0.7641E+00
     13.046  0.1920E-01  0.7659E+00
     13.140  0.6496E-02  0.7665E+00
     13.234  0.1525E-02  0.7666E+00
     13.328  0.3020E-03  0.7667E+00
     13.422  0.5947E-03  0.7667E+00
     13.517  0.3570E-02  0.7671E+00
     13.611  0.1503E-01  0.7685E+00
     13.705  0.4308E-01  0.7725E+00
     13.799  0.8543E-01  0.7806E+00
     13.893  0.1193E+00  0.7918E+00
     13.987  0.1201E+00  0.8031E+00
     14.081  0.9279E-01  0.8118E+00
     14.175  0.7166E-01  0.8186E+00
     14.269  0.8370E-01  0.8264E+00
     14.363  0.1171E+00  0.8375E+00
     14.457  0.1338E+00  0.8501E+00
     14.552  0.1174E+00  0.8611E+00
     14.646  0.9462E-01  0.8700E+00
     14.740  0.9282E-01  0.8787E+00
     14.834  0.1029E+00  0.8884E+00
     14.928  0.1030E+00  0.8981E+00
     15.022  0.9029E-01  0.9066E+00
     15.116  0.7310E-01  0.9135E+00
     15.210  0.5676E-01  0.9188E+00
     15.304  0.4860E-01  0.9234E+00
     15.398  0.4991E-01  0.9281E+00
     15.492  0.4742E-01  0.9325E+00
     15.586  0.3372E-01  0.9357E+00
     15.681  0.1993E-01  0.9376E+00
     15.775  0.1719E-01  0.9392E+00
     15.869  0.2183E-01  0.9413E+00
     15.963  0.2268E-01  0.9434E+00
     16.057  0.1590E-01  0.9449E+00
     16.151  0.7542E-02  0.9456E+00
     16.245  0.3725E-02  0.9460E+00
     16.339  0.6542E-02  0.9466E+00
     16.433  0.1682E-01  0.9482E+00
     16.527  0.3338E-01  0.9513E+00
     16.621  0.5051E-01  0.9561E+00
     16.716  0.5872E-01  0.9616E+00
     16.810  0.5088E-01  0.9664E+00
     16.904  0.3215E-01  0.9694E+00
     16.998  0.1695E-01  0.9710E+00
     17.092  0.1213E-01  0.9721E+00
     17.186  0.1256E-01  0.9733E+00
     17.280  0.1312E-01  0.9745E+00
     17.374  0.1918E-01  0.9763E+00
     17.468  0.4219E-01  0.9803E+00
     17.562  0.8101E-01  0.9879E+00
     17.656  0.1097E+00  0.9983E+00
     17.751  0.1025E+00  0.1008E+01
     17.845  0.6978E-01  0.1014E+01
     17.939  0.4399E-01  0.1019E+01
     18.033  0.3807E-01  0.1022E+01
     18.127  0.4434E-01  0.1026E+01
     18.221  0.5638E-01  0.1032E+01
     18.315  0.7013E-01  0.1038E+01
     18.409  0.7588E-01  0.1045E+01
     18.503  0.6531E-01  0.1052E+01
     18.597  0.4263E-01  0.1056E+01
     18.691  0.2049E-01  0.1057E+01
     18.786  0.7050E-02  0.1058E+01
     18.880  0.1691E-02  0.1058E+01
     18.974  0.2761E-03  0.1058E+01
     19.068  0.3014E-04  0.1058E+01
     19.162  0.2173E-05  0.1058E+01
     19.256  0.1139E-06  0.1058E+01
     19.350  0.3125E-06  0.1058E+01
     19.444  0.5562E-05  0.1058E+01
     19.538  0.6499E-04  0.1058E+01
     19.632  0.4940E-03  0.1058E+01
     19.726  0.2445E-02  0.1059E+01
     19.820  0.7888E-02  0.1059E+01
     19.915  0.1660E-01  0.1061E+01
     20.009  0.2279E-01  0.1063E+01
     20.103  0.2043E-01  0.1065E+01
     20.197  0.1195E-01  0.1066E+01
     20.291  0.4562E-02  0.1067E+01
     20.385  0.1135E-02  0.1067E+01
     20.479  0.1841E-03  0.1067E+01
     20.573  0.1942E-04  0.1067E+01
     20.667  0.1333E-05  0.1067E+01
     20.761  0.5937E-07  0.1067E+01
     20.855  0.1716E-08  0.1067E+01
     20.950  0.3214E-10  0.1067E+01
     21.044  0.3897E-12  0.1067E+01
     21.138  0.3048E-14  0.1067E+01
     21.232  0.1967E-16  0.1067E+01
     21.326  0.0000E+00  0.1067E+01
     21.420  0.0000E+00  0.1067E+01
     21.514  0.0000E+00  0.1067E+01
     21.608  0.0000E+00  0.1067E+01
     21.702  0.0000E+00  0.1067E+01
     21.796  0.0000E+00  0.1067E+01
     21.890  0.0000E+00  0.1067E+01
     21.985  0.0000E+00  0.1067E+01
