    2    2   15    1
  0.1529437E+02  0.3691622E-09  0.3691622E-09  0.3691622E-09  0.5000000E-15
  1.000000000000000E-004
  CAR 
 unknown system                          
      8     11      8
 
  0.1250000E+00  0.1250000E+00  0.1250000E+00  0.1250000E+00
    1       -2.487839   1.000000
    2        3.221755   1.000000
    3        8.060071   1.000000
    4        9.544877   0.015096
    5       11.179458   0.000000
    6       11.303352   0.000000
    7       14.318765   0.000000
    8       15.082102   0.000000
 
  0.3750000E+00  0.1250000E+00  0.1250000E+00  0.1250000E+00
    1        2.397908   1.000000
    2        2.921595   1.000000
    3        5.303181   1.000000
    4        5.554237   1.000000
    5       10.562770   0.000000
    6       12.258855   0.000000
    7       13.886759   0.000000
    8       14.427642   0.000000
 
 -0.1250000E+00  0.1250000E+00  0.1250000E+00  0.6250000E-01
    1       -4.242040   1.000000
    2        3.748656   1.000000
    3        5.164460   1.000000
    4        9.340002   0.236109
    5       12.380301   0.000000
    6       12.842734   0.000000
    7       17.676874   0.000000
    8       18.013218   0.000000
 
  0.3750000E+00  0.3750000E+00  0.1250000E+00  0.6250000E-01
    1       -0.300611   1.000000
    2       -0.300611   1.000000
    3        9.404990   0.119316
    4        9.404996   0.119308
    5       11.128092   0.000000
    6       11.128101   0.000000
    7       12.712497   0.000000
    8       12.712510   0.000000
 
 -0.3750000E+00  0.3750000E+00  0.1250000E+00  0.1250000E+00
    1       -2.766387   1.000000
    2        0.118436   1.000000
    3        6.064405   1.000000
    4        8.829260   0.998090
    5       11.728320   0.000000
    6       14.438329   0.000000
    7       17.585259   0.000000
    8       18.362619   0.000000
 
 -0.1250000E+00  0.3750000E+00  0.1250000E+00  0.1250000E+00
    1       -1.758308   1.000000
    2        3.264683   1.000000
    3        4.917267   1.000000
    4        8.787399   0.999285
    5        9.746717   0.000162
    6       13.810681   0.000000
    7       14.876992   0.000000
    8       15.416826   0.000000
 
 -0.3750000E+00 -0.3750000E+00  0.1250000E+00  0.1250000E+00
    1        0.379090   1.000000
    2        0.392882   1.000000
    3        6.345613   1.000000
    4        6.345882   1.000000
    5        8.272365   1.000000
    6       13.979792   0.000000
    7       16.717239   0.000000
    8       17.664003   0.000000
 
 -0.1250000E+00 -0.3750000E+00  0.1250000E+00  0.1250000E+00
    1        1.209912   1.000000
    2        4.073366   1.000000
    3        6.139561   1.000000
    4        7.484925   1.000000
    5        8.459010   1.000000
    6       10.847512   0.000000
    7       11.205448   0.000000
    8       14.769860   0.000000
 
 -0.1250000E+00 -0.1250000E+00  0.1250000E+00  0.3125000E-01
    1       -3.225474   1.000000
    2        7.424513   1.000000
    3        7.454172   1.000000
    4        7.454178   1.000000
    5       11.924828   0.000000
    6       12.071793   0.000000
    7       12.460436   0.000000
    8       14.679101   0.000000
 
 -0.3750000E+00  0.3750000E+00  0.3750000E+00  0.6250000E-01
    1       -1.342509   1.000000
    2        0.823771   1.000000
    3        2.630513   1.000000
    4        4.756473   1.000000
    5       15.885149   0.000000
    6       16.535703   0.000000
    7       18.494370   0.000000
    8       19.984515   0.000000
 
 -0.3750000E+00 -0.3750000E+00  0.3750000E+00  0.3125000E-01
    1        1.791216   1.000000
    2        1.825348   1.000000
    3        3.596359   1.000000
    4        3.596359   1.000000
    5        7.587713   1.000000
    6       17.156076   0.000000
    7       18.211347   0.000000
    8       18.211354   0.000000
