 vasp.5.4.4.18Apr17-6-g9f103f2a35 (build Dec 09 2018 21:25:21) complex          
  
 executed on IFC18.0.1.163_CrayMP date 2019.03.19  13:18:09
 running on    8 total cores
 distrk:  each k-point on    8 cores,    1 groups
 distr:  one band on NCORES_PER_BAND=   1 cores,    8 groups


--------------------------------------------------------------------------------------------------------


 INCAR:
 POTCAR:   PAW_PBE Si 05Jan2001                   

 ----------------------------------------------------------------------------- 
|                                                                             |
|           W    W    AA    RRRRR   N    N  II  N    N   GGGG   !!!           |
|           W    W   A  A   R    R  NN   N  II  NN   N  G    G  !!!           |
|           W    W  A    A  R    R  N N  N  II  N N  N  G       !!!           |
|           W WW W  AAAAAA  RRRRR   N  N N  II  N  N N  G  GGG   !            |
|           WW  WW  A    A  R   R   N   NN  II  N   NN  G    G                |
|           W    W  A    A  R    R  N    N  II  N    N   GGGG   !!!           |
|                                                                             |
|      For optimal performance we recommend to set                            |
|        NCORE= 4 - approx SQRT( number of cores)                             |
|      NCORE specifies how many cores store one orbital (NPAR=cpu/NCORE).     |
|      This setting can  greatly improve the performance of VASP for DFT.     |
|      The default,   NCORE=1            might be grossly inefficient         |
|      on modern multi-core architectures or massively parallel machines.     |
|      Do your own testing !!!!                                               |
|      Unfortunately you need to use the default for GW and RPA calculations. |
|      (for HF NCORE is supported but not extensively tested yet)             |
|                                                                             |
 ----------------------------------------------------------------------------- 

 POTCAR:   PAW_PBE Si 05Jan2001                   
   VRHFIN =Si: s2p2                                                             
   LEXCH  = PE                                                                  
   EATOM  =   103.0669 eV,    7.5752 Ry                                         
                                                                                
   TITEL  = PAW_PBE Si 05Jan2001                                                
   LULTRA =        F    use ultrasoft PP ?                                      
   IUNSCR =        1    unscreen: 0-lin 1-nonlin 2-no                           
   RPACOR =    1.500    partial core radius                                     
   POMASS =   28.085; ZVAL   =    4.000    mass and valenz                      
   RCORE  =    1.900    outmost cutoff radius                                   
   RWIGS  =    2.480; RWIGS  =    1.312    wigner-seitz radius (au A)           
   ENMAX  =  245.345; ENMIN  =  184.009 eV                                      
   ICORE  =        2    local potential                                         
   LCOR   =        T    correct aug charges                                     
   LPAW   =        T    paw PP                                                  
   EAUG   =  322.069                                                            
   DEXC   =    -.007                                                            
   RMAX   =    2.944    core radius for proj-oper                               
   RAUG   =    1.300    factor for augmentation sphere                          
   RDEP   =    1.993    radius for radial grids                                 
   QCUT   =   -4.246; QGAM   =    8.493    optimization parameters              
                                                                                
   Description                                                                  
     l     E      TYP  RCUT    TYP  RCUT                                        
     0   .000     23  1.900                                                     
     0   .000     23  1.900                                                     
     1   .000     23  1.900                                                     
     1   .000     23  1.900                                                     
     2   .000      7  1.900                                                     
  local pseudopotential read in
  partial core-charges read in
  atomic valenz-charges read in
  non local Contribution for L=           0  read in
    real space projection operators read in
  non local Contribution for L=           0  read in
    real space projection operators read in
  non local Contribution for L=           1  read in
    real space projection operators read in
  non local Contribution for L=           1  read in
    real space projection operators read in
    PAW grid and wavefunctions read in
 
   number of l-projection  operators is LMAX  =           4
   number of lm-projection operators is LMMAX =           8
 
 PAW_PBE Si 05Jan2001                   :
 energy of atom  1       EATOM= -103.0669
 kinetic energy error for atom=    0.0021 (will be added to EATOM!!)
 
 
 POSCAR: Si2                                     
  positions in direct lattice
  No initial velocities read in
 exchange correlation table for  LEXCH =        8
   RHO(1)=    0.500       N(1)  =     2000
   RHO(2)=  100.500       N(2)  =     4000
 


--------------------------------------------------------------------------------------------------------


 ion  position               nearest neighbor table
   1  0.250  0.750  0.500-   2 2.53   2 2.53   2 2.53   2 2.53   2 3.11   2 3.11   2 3.11   2 3.11

   2  0.000  0.000  0.000-   1 2.53   1 2.53   1 2.53   1 2.53   1 3.11   1 3.11   1 3.11   1 3.11

 
  LATTYP: Found a body centered tetragonal cell.
 ALAT       =     4.9000000000
 C/A-ratio  =     0.5200000000
  
  Lattice vectors:
  
 A1 = (  -2.4500000000,   2.4500000000,   1.2740000000)
 A2 = (   2.4500000000,  -2.4500000000,   1.2740000000)
 A3 = (   2.4500000000,   2.4500000000,  -1.2740000000)


Analysis of symmetry for initial positions (statically):
=====================================================================
 Subroutine PRICEL returns:
 Original cell was already a primitive cell.
 

 Routine SETGRP: Setting up the symmetry group for a 
 body centered tetragonal supercell.


 Subroutine GETGRP returns: Found 16 space group operations
 (whereof  8 operations were pure point group operations)
 out of a pool of 16 trial point group operations.


The static configuration has the point symmetry D_2d.
 The point group associated with its full space group is D_4h.


Analysis of symmetry for dynamics (positions and initial velocities):
=====================================================================
 Subroutine PRICEL returns:
 Original cell was already a primitive cell.
 

 Routine SETGRP: Setting up the symmetry group for a 
 body centered tetragonal supercell.


 Subroutine GETGRP returns: Found 16 space group operations
 (whereof  8 operations were pure point group operations)
 out of a pool of 16 trial point group operations.


The dynamic configuration has the point symmetry D_2d.
 The point group associated with its full space group is D_4h.


 Subroutine INISYM returns: Found 16 space group operations
 (whereof  8 operations are pure point group operations),
 and found     1 'primitive' translations

 
 
 KPOINTS: Automatic kpoint scheme                 

Automatic generation of k-mesh.
Space group operators:
 irot       det(A)        alpha          n_x          n_y          n_z        tau_x        tau_y        tau_z
    1     1.000000     0.000000     1.000000     0.000000     0.000000     0.000000     0.000000     0.000000
    2    -1.000000    90.000000    -0.000000    -0.000000    -1.000000     0.000000     0.000000     0.000000
    3     1.000000   180.000000    -0.000000    -0.000000    -1.000000     0.000000     0.000000     0.000000
    4    -1.000000    90.000000    -0.000000     0.000000     1.000000     0.000000     0.000000     0.000000
    5    -1.000000   180.000000     0.000000    -1.000000     0.000000     0.000000     0.000000     0.000000
    6     1.000000   180.000000     0.707107     0.707107    -0.000000     0.000000     0.000000     0.000000
    7    -1.000000   180.000000     1.000000     0.000000     0.000000     0.000000     0.000000     0.000000
    8     1.000000   180.000000     0.707107    -0.707107     0.000000     0.000000     0.000000     0.000000
    9    -1.000000     0.000000     1.000000     0.000000     0.000000     0.250000     0.750000     0.500000
   10     1.000000    90.000000    -0.000000    -0.000000    -1.000000     0.250000     0.750000     0.500000
   11    -1.000000   180.000000    -0.000000    -0.000000    -1.000000     0.250000     0.750000     0.500000
   12     1.000000    90.000000    -0.000000     0.000000     1.000000     0.250000     0.750000     0.500000
   13     1.000000   180.000000     0.000000    -1.000000     0.000000     0.250000     0.750000     0.500000
   14    -1.000000   180.000000     0.707107     0.707107    -0.000000     0.250000     0.750000     0.500000
   15     1.000000   180.000000     1.000000     0.000000     0.000000     0.250000     0.750000     0.500000
   16    -1.000000   180.000000     0.707107    -0.707107     0.000000     0.250000     0.750000     0.500000
 
 Subroutine IBZKPT returns following result:
 ===========================================
 
 Found     11 irreducible k-points:
 
 Following reciprocal coordinates:
            Coordinates               Weight
  0.125000  0.125000  0.125000    128.000000
  0.375000  0.125000  0.125000    128.000000
 -0.125000  0.125000  0.125000     64.000000
  0.375000  0.375000  0.125000     64.000000
 -0.375000  0.375000  0.125000    128.000000
 -0.125000  0.375000  0.125000    128.000000
 -0.375000 -0.375000  0.125000    128.000000
 -0.125000 -0.375000  0.125000    128.000000
 -0.125000 -0.125000  0.125000     32.000000
 -0.375000  0.375000  0.375000     64.000000
 -0.375000 -0.375000  0.375000     32.000000
 
 Following cartesian coordinates:
            Coordinates               Weight
  0.051020  0.051020  0.098116    128.000000
  0.051020  0.102041  0.196232    128.000000
  0.051020  0.000000  0.000000     64.000000
  0.102041  0.102041  0.294349     64.000000
  0.102041 -0.051020  0.000000    128.000000
  0.102041  0.000000  0.098116    128.000000
 -0.051020 -0.051020 -0.294349    128.000000
 -0.051020  0.000000 -0.196232    128.000000
 -0.000000  0.000000 -0.098116     32.000000
  0.153061  0.000000  0.000000     64.000000
  0.000000  0.000000 -0.294349     32.000000
 


--------------------------------------------------------------------------------------------------------




 Dimension of arrays:
   k-points           NKPTS =     11   k-points in BZ     NKDIM =     11   number of bands    NBANDS=      8
   number of dos      NEDOS =    301   number of ions     NIONS =      2
   non local maximal  LDIM  =      4   non local SUM 2l+1 LMDIM =      8
   total plane-waves  NPLWV =   4096
   max r-space proj   IRMAX =      1   max aug-charges    IRDMAX=   4676
   dimension x,y,z NGX =    16 NGY =   16 NGZ =   16
   dimension x,y,z NGXF=    32 NGYF=   32 NGZF=   32
   support grid    NGXF=    32 NGYF=   32 NGZF=   32
   ions per type =               2
   NGX,Y,Z   is equivalent  to a cutoff of   7.21,  7.21,  7.21 a.u.
   NGXF,Y,Z  is equivalent  to a cutoff of  14.41, 14.41, 14.41 a.u.

 SYSTEM =  unknown system                          
 POSCAR =  Si2                                     

 Startparameter for this run:
   NWRITE =      2    write-flag & timer
   PREC   = normal    normal or accurate (medium, high low for compatibility)
   ISTART =      1    job   : 0-new  1-cont  2-samecut
   ICHARG =      0    charge: 1-file 2-atom 10-const
   ISPIN  =      1    spin polarized calculation?
   LNONCOLLINEAR =      F non collinear calculations
   LSORBIT =      F    spin-orbit coupling
   INIWAV =      1    electr: 0-lowe 1-rand  2-diag
   LASPH  =      F    aspherical Exc in radial PAW
   METAGGA=      F    non-selfconsistent MetaGGA calc.

 Electronic Relaxation 1
   ENCUT  =  300.0 eV  22.05 Ry    4.70 a.u.   5.21  5.21  5.21*2*pi/ulx,y,z
   ENINI  =  300.0     initial cutoff
   ENAUG  =  322.1 eV  augmentation charge cutoff
   NELM   =     60;   NELMIN=  2; NELMDL=  0     # of ELM steps 
   EDIFF  = 0.4E-03   stopping-criterion for ELM
   LREAL  =      F    real-space projection
   NLSPLINE    = F    spline interpolate recip. space projectors
   LCOMPAT=      F    compatible to vasp.4.4
   GGA_COMPAT  = T    GGA compatible to vasp.4.4-vasp.4.6
   LMAXPAW     = -100 max onsite density
   LMAXMIX     =    2 max onsite mixed and CHGCAR
   VOSKOWN=      0    Vosko Wilk Nusair interpolation
   ROPT   =    0.00000
 Ionic relaxation
   EDIFFG = -.1E-01   stopping-criterion for IOM
   NSW    =     15    number of steps for IOM
   NBLOCK =      1;   KBLOCK =     15    inner block; outer block 
   IBRION =      2    ionic relax: 0-MD 1-quasi-New 2-CG
   NFREE  =      1    steps in history (QN), initial steepest desc. (CG)
   ISIF   =      2    stress and relaxation
   IWAVPR =     11    prediction:  0-non 1-charg 2-wave 3-comb
   ISYM   =      2    0-nonsym 1-usesym 2-fastsym
   LCORR  =      T    Harris-Foulkes like correction to forces

   POTIM  = 0.5000    time-step for ionic-motion
   TEIN   =    0.0    initial temperature
   TEBEG  =    0.0;   TEEND  =   0.0 temperature during run
   SMASS  =  -3.00    Nose mass-parameter (am)
   estimated Nose-frequenzy (Omega)   =  0.10E-29 period in steps =****** mass=  -0.311E-27a.u.
   SCALEE = 1.0000    scale energy and forces
   NPACO  =    256;   APACO  = 16.0  distance and # of slots for P.C.
   PSTRESS=    0.0 pullay stress

  Mass of Ions in am
   POMASS =  28.09
  Ionic Valenz
   ZVAL   =   4.00
  Atomic Wigner-Seitz radii
   RWIGS  =  -1.00
  virtual crystal weights 
   VCA    =   1.00
   NELECT =       8.0000    total number of electrons
   NUPDOWN=      -1.0000    fix difference up-down

 DOS related values:
   EMIN   =  10.00;   EMAX   =-10.00  energy-range for DOS
   EFERMI =   0.00
   ISMEAR =     0;   SIGMA  =   0.20  broadening in eV -4-tet -1-fermi 0-gaus

 Electronic relaxation 2 (details)
   IALGO  =     38    algorithm
   LDIAG  =      T    sub-space diagonalisation (order eigenvalues)
   LSUBROT=      F    optimize rotation matrix (better conditioning)
   TURBO    =      0    0=normal 1=particle mesh
   IRESTART =      0    0=no restart 2=restart with 2 vectors
   NREBOOT  =      0    no. of reboots
   NMIN     =      0    reboot dimension
   EREF     =   0.00    reference energy to select bands
   IMIX   =      4    mixing-type and parameters
     AMIX     =   0.40;   BMIX     =  1.00
     AMIX_MAG =   1.60;   BMIX_MAG =  1.00
     AMIN     =   0.10
     WC   =   100.;   INIMIX=   1;  MIXPRE=   1;  MAXMIX= -45

 Intra band minimization:
   WEIMIN = 0.0010     energy-eigenvalue tresh-hold
   EBREAK =  0.13E-04  absolut break condition
   DEPER  =   0.30     relativ break condition  

   TIME   =   0.40     timestep for ELM

  volume/ion in A,a.u.               =      15.29       103.21
  Fermi-wavevector in a.u.,A,eV,Ry     =   1.046930  1.978411 14.912834  1.096062
  Thomas-Fermi vector in A             =   2.181789
 
 Write flags
   LWAVE        =      T    write WAVECAR
   LDOWNSAMPLE  =      F    k-point downsampling of WAVECAR
   LCHARG       =      T    write CHGCAR
   LVTOT        =      F    write LOCPOT, total local potential
   LVHAR        =      F    write LOCPOT, Hartree potential only
   LELF         =      F    write electronic localiz. function (ELF)
   LORBIT       =      0    0 simple, 1 ext, 2 COOP (PROOUT), +10 PAW based schemes


 Dipole corrections
   LMONO  =      F    monopole corrections only (constant potential shift)
   LDIPOL =      F    correct potential (dipole corrections)
   IDIPOL =      0    1-x, 2-y, 3-z, 4-all directions 
   EPSILON=  1.0000000 bulk dielectric constant

 Exchange correlation treatment:
   GGA     =    --    GGA type
   LEXCH   =     8    internal setting for exchange type
   VOSKOWN=      0    Vosko Wilk Nusair interpolation
   LHFCALC =     F    Hartree Fock is set to
   LHFONE  =     F    Hartree Fock one center treatment
   AEXX    =    0.0000 exact exchange contribution

 Linear response parameters
   LEPSILON=     F    determine dielectric tensor
   LRPA    =     F    only Hartree local field effects (RPA)
   LNABLA  =     F    use nabla operator in PAW spheres
   LVEL    =     F    velocity operator in full k-point grid
   LINTERFAST=   F  fast interpolation
   KINTER  =     0    interpolate to denser k-point grid
   CSHIFT  =0.1000    complex shift for real part using Kramers Kronig
   OMEGAMAX=  -1.0    maximum frequency
   DEG_THRESHOLD= 0.2000000E-02 threshold for treating states as degnerate
   RTIME   =   -0.100 relaxation time in fs
  (WPLASMAI=    0.000 imaginary part of plasma frequency in eV, 0.658/RTIME)
   DFIELD  = 0.0000000 0.0000000 0.0000000 field for delta impulse in time
 
 Orbital magnetization related:
   ORBITALMAG=     F  switch on orbital magnetization
   LCHIMAG   =     F  perturbation theory with respect to B field
   DQ        =  0.001000  dq finite difference perturbation B field
   LLRAUG    =     F  two centre corrections for induced B field



--------------------------------------------------------------------------------------------------------


 conjugate gradient relaxation of ions
 charge density and potential will be updated during run
 non-spin polarized calculation
 Variant of blocked Davidson
 Davidson routine will perform the subspace rotation
 perform sub-space diagonalisation
    after iterative eigenvector-optimisation
 modified Broyden-mixing scheme, WC =      100.0
 initial mixing is a Kerker type mixing with AMIX =  0.4000 and BMIX =      1.0000
 Hartree-type preconditioning will be used
 using additional bands            4
 reciprocal scheme for non local part
 use partial core corrections
 calculate Harris-corrections to forces 
   (improved forces if not selfconsistent)
 use gradient corrections 
 use of overlap-Matrix (Vanderbilt PP)
 Gauss-broadening in eV      SIGMA  =   0.20


--------------------------------------------------------------------------------------------------------


  energy-cutoff  :      300.00
  volume of cell :       30.59
      direct lattice vectors                 reciprocal lattice vectors
    -2.450000000  2.450000000  1.274000000     0.000000000  0.204081633  0.392464678
     2.450000000 -2.450000000  1.274000000     0.204081633  0.000000000  0.392464678
     2.450000000  2.450000000 -1.274000000     0.204081633  0.204081633 -0.000000000

  length of vectors
     3.691622408  3.691622408  3.691622408     0.442354876  0.442354876  0.288615013


 
 old parameters found on file WAVECAR:
  energy-cutoff  :      300.00
  volume of cell :       30.59
      direct lattice vectors                 reciprocal lattice vectors
    -2.450000000  2.450000000  1.274000000     0.000000000  0.204081633  0.392464678
     2.450000000 -2.450000000  1.274000000     0.204081633  0.000000000  0.392464678
     2.450000000  2.450000000 -1.274000000     0.204081633  0.204081633 -0.000000000

  length of vectors

 
 k-points in units of 2pi/SCALE and weight: Automatic kpoint scheme                 
   0.05102041  0.05102041  0.09811617       0.125
   0.05102041  0.10204082  0.19623234       0.125
   0.05102041  0.00000000 -0.00000000       0.062
   0.10204082  0.10204082  0.29434851       0.062
   0.10204082 -0.05102041  0.00000000       0.125
   0.10204082  0.00000000  0.09811617       0.125
  -0.05102041 -0.05102041 -0.29434851       0.125
  -0.05102041 -0.00000000 -0.19623234       0.125
   0.00000000  0.00000000 -0.09811617       0.031
   0.15306122  0.00000000  0.00000000       0.062
   0.00000000 -0.00000000 -0.29434851       0.031
 
 k-points in reciprocal lattice and weights: Automatic kpoint scheme                 
   0.12500000  0.12500000  0.12500000       0.125
   0.37500000  0.12500000  0.12500000       0.125
  -0.12500000  0.12500000  0.12500000       0.062
   0.37500000  0.37500000  0.12500000       0.062
  -0.37500000  0.37500000  0.12500000       0.125
  -0.12500000  0.37500000  0.12500000       0.125
  -0.37500000 -0.37500000  0.12500000       0.125
  -0.12500000 -0.37500000  0.12500000       0.125
  -0.12500000 -0.12500000  0.12500000       0.031
  -0.37500000  0.37500000  0.37500000       0.062
  -0.37500000 -0.37500000  0.37500000       0.031
 
 position of ions in fractional coordinates (direct lattice) 
   0.25000000  0.75000000  0.50000000
   0.00000000  0.00000000  0.00000000
 
 position of ions in cartesian coordinates  (Angst):
   2.45000000  0.00000000  0.63700000
   0.00000000  0.00000000  0.00000000
 


--------------------------------------------------------------------------------------------------------


 k-point  1 :   0.1250 0.1250 0.1250  plane waves:     369
 k-point  2 :   0.3750 0.1250 0.1250  plane waves:     358
 k-point  3 :  -0.1250 0.1250 0.1250  plane waves:     369
 k-point  4 :   0.3750 0.3750 0.1250  plane waves:     360
 k-point  5 :  -0.3750 0.3750 0.1250  plane waves:     365
 k-point  6 :  -0.1250 0.3750 0.1250  plane waves:     356
 k-point  7 :  -0.3750-0.3750 0.1250  plane waves:     361
 k-point  8 :  -0.1250-0.3750 0.1250  plane waves:     358
 k-point  9 :  -0.1250-0.1250 0.1250  plane waves:     363
 k-point 10 :  -0.3750 0.3750 0.3750  plane waves:     361
 k-point 11 :  -0.3750-0.3750 0.3750  plane waves:     360

 maximum and minimum number of plane-waves per node :       369      356

 maximum number of plane-waves:       369
 maximum index in each direction: 
   IXMAX=    5   IYMAX=    5   IZMAX=    5
   IXMIN=   -5   IYMIN=   -5   IZMIN=   -5


 serial   3D FFT for wavefunctions
 parallel 3D FFT for charge:
    minimum data exchange during FFTs selected (reduces bandwidth)


 total amount of memory used by VASP MPI-rank0    30882. kBytes
=======================================================================

   base      :      30000. kBytes
   nonl-proj :        276. kBytes
   fftplans  :        160. kBytes
   grid      :        372. kBytes
   one-center:          6. kBytes
   wavefun   :         68. kBytes
 
     INWAV:  cpu time    0.0280: real time    0.0645
 Broyden mixing: mesh for mixing (old mesh)
   NGX = 11   NGY = 11   NGZ = 11
  (NGX  = 32   NGY  = 32   NGZ  = 32)
  gives a total of   1331 points

 charge density for first step will be calculated from the start-wavefunctions


--------------------------------------------------------------------------------------------------------


 Maximum index for augmentation-charges          547 (set IRDMAX)


--------------------------------------------------------------------------------------------------------


 initial charge from wavefunction
 First call to EWALD:  gamma=   0.567
 Maximum number of real-space cells 4x 4x 3
 Maximum number of reciprocal cells 3x 3x 3

    FEWALD:  cpu time    0.0080: real time    0.0074


--------------------------------------- Iteration      1(   1)  ---------------------------------------


    POTLOK:  cpu time    0.0240: real time    0.0369
    SETDIJ:  cpu time    0.0120: real time    0.0089
     EDDAV:  cpu time    0.0760: real time    0.0855
       DOS:  cpu time    0.0040: real time    0.0021
    CHARGE:  cpu time    0.0080: real time    0.0099
    MIXING:  cpu time    0.0040: real time    0.0022
    --------------------------------------------
      LOOP:  cpu time    0.1320: real time    0.1462

 eigenvalue-minimisations  :   120
 total energy-change (2. order) :-0.9992311E+01  (-0.4342047E-06)
 number of electron       7.9999991 magnetization 
 augmentation part       -0.4747721 magnetization 

 Broyden mixing:
  rms(total) = 0.76137E-04    rms(broyden)= 0.76129E-04
  rms(prec ) = 0.22702E-03
  weight for this iteration     100.00

 Free energy of the ion-electron system (eV)
  ---------------------------------------------------
  alpha Z        PSCENC =         4.40202223
  Ewald energy   TEWEN  =      -265.18101312
  -Hartree energ DENC   =        -2.51586854
  -exchange      EXHF   =         0.00000000
  -V(xc)+E(xc)   XCENC  =       -17.57876658
  PAW double counting   =        70.37384391      -35.28858097
  entropy T*S    EENTRO =        -0.01416116
  eigenvalues    EBANDS =        29.68052743
  atomic energy  EATOM  =       206.12968587
  Solvation  Ediel_sol  =         0.00000000
  ---------------------------------------------------
  free energy    TOTEN  =        -9.99231092 eV

  energy without entropy =       -9.97814976  energy(sigma->0) =       -9.98523034


--------------------------------------------------------------------------------------------------------




--------------------------------------- Iteration      1(   2)  ---------------------------------------


    POTLOK:  cpu time    0.0200: real time    0.0309
    SETDIJ:  cpu time    0.0080: real time    0.0084
     EDDAV:  cpu time    0.0600: real time    0.0617
       DOS:  cpu time    0.0040: real time    0.0017
    --------------------------------------------
      LOOP:  cpu time    0.0920: real time    0.1030

 eigenvalue-minimisations  :   104
 total energy-change (2. order) :-0.2750372E-07  (-0.2902476E-07)
 number of electron       7.9999991 magnetization 
 augmentation part       -0.4747721 magnetization 

 Free energy of the ion-electron system (eV)
  ---------------------------------------------------
  alpha Z        PSCENC =         4.40202223
  Ewald energy   TEWEN  =      -265.18101312
  -Hartree energ DENC   =        -2.51603904
  -exchange      EXHF   =         0.00000000
  -V(xc)+E(xc)   XCENC  =       -17.57873991
  PAW double counting   =        70.37397668      -35.28871757
  entropy T*S    EENTRO =        -0.01416113
  eigenvalues    EBANDS =        29.68067502
  atomic energy  EATOM  =       206.12968587
  Solvation  Ediel_sol  =         0.00000000
  ---------------------------------------------------
  free energy    TOTEN  =        -9.99231095 eV

  energy without entropy =       -9.97814982  energy(sigma->0) =       -9.98523039


--------------------------------------------------------------------------------------------------------




 average (electrostatic) potential at core
  the test charge radii are     0.9892
  (the norm of the test charge is              1.0000)
       1 -80.5340       2 -80.5340
 
 
 
 E-fermi :   9.2383     XC(G=0): -10.8897     alpha+bet :-15.6819


 k-point     1 :       0.1250    0.1250    0.1250
  band No.  band energies     occupation 
      1      -2.4878      2.00000
      2       3.2218      2.00000
      3       8.0601      2.00000
      4       9.5449      0.03019
      5      11.1795      0.00000
      6      11.3034      0.00000
      7      14.3188      0.00000
      8      15.0821      0.00000

 k-point     2 :       0.3750    0.1250    0.1250
  band No.  band energies     occupation 
      1       2.3979      2.00000
      2       2.9216      2.00000
      3       5.3032      2.00000
      4       5.5542      2.00000
      5      10.5628      0.00000
      6      12.2589      0.00000
      7      13.8868      0.00000
      8      14.4276      0.00000

 k-point     3 :      -0.1250    0.1250    0.1250
  band No.  band energies     occupation 
      1      -4.2420      2.00000
      2       3.7487      2.00000
      3       5.1645      2.00000
      4       9.3400      0.47222
      5      12.3803      0.00000
      6      12.8427      0.00000
      7      17.6769      0.00000
      8      18.0132      0.00000

 k-point     4 :       0.3750    0.3750    0.1250
  band No.  band energies     occupation 
      1      -0.3006      2.00000
      2      -0.3006      2.00000
      3       9.4050      0.23863
      4       9.4050      0.23862
      5      11.1281      0.00000
      6      11.1281      0.00000
      7      12.7125      0.00000
      8      12.7125      0.00000

 k-point     5 :      -0.3750    0.3750    0.1250
  band No.  band energies     occupation 
      1      -2.7664      2.00000
      2       0.1184      2.00000
      3       6.0644      2.00000
      4       8.8293      1.99618
      5      11.7283      0.00000
      6      14.4383      0.00000
      7      17.5853      0.00000
      8      18.3626      0.00000

 k-point     6 :      -0.1250    0.3750    0.1250
  band No.  band energies     occupation 
      1      -1.7583      2.00000
      2       3.2647      2.00000
      3       4.9173      2.00000
      4       8.7874      1.99857
      5       9.7467      0.00032
      6      13.8107      0.00000
      7      14.8770      0.00000
      8      15.4168      0.00000

 k-point     7 :      -0.3750   -0.3750    0.1250
  band No.  band energies     occupation 
      1       0.3791      2.00000
      2       0.3929      2.00000
      3       6.3456      2.00000
      4       6.3459      2.00000
      5       8.2724      2.00000
      6      13.9798      0.00000
      7      16.7172      0.00000
      8      17.6640      0.00000

 k-point     8 :      -0.1250   -0.3750    0.1250
  band No.  band energies     occupation 
      1       1.2099      2.00000
      2       4.0734      2.00000
      3       6.1396      2.00000
      4       7.4849      2.00000
      5       8.4590      2.00000
      6      10.8475      0.00000
      7      11.2054      0.00000
      8      14.7699      0.00000

 k-point     9 :      -0.1250   -0.1250    0.1250
  band No.  band energies     occupation 
      1      -3.2255      2.00000
      2       7.4245      2.00000
      3       7.4542      2.00000
      4       7.4542      2.00000
      5      11.9248      0.00000
      6      12.0718      0.00000
      7      12.4604      0.00000
      8      14.6791      0.00000

 k-point    10 :      -0.3750    0.3750    0.3750
  band No.  band energies     occupation 
      1      -1.3425      2.00000
      2       0.8238      2.00000
      3       2.6305      2.00000
      4       4.7565      2.00000
      5      15.8851      0.00000
      6      16.5357      0.00000
      7      18.4944      0.00000
      8      19.9845      0.00000

 k-point    11 :      -0.3750   -0.3750    0.3750
  band No.  band energies     occupation 
      1       1.7912      2.00000
      2       1.8253      2.00000
      3       3.5964      2.00000
      4       3.5964      2.00000
      5       7.5877      2.00000
      6      17.1561      0.00000
      7      18.2113      0.00000
      8      18.2114      0.00000


--------------------------------------------------------------------------------------------------------


 soft charge-density along one line, spin component           1
         0         1         2         3         4         5         6         7         8         9
 total charge-density along one line
 
 pseudopotential strength for first ion, spin component:           1
 18.063  -0.003   0.000  -0.000  -0.000  -0.000   0.000   0.000
 -0.003   0.005  -0.000   0.000   0.000   0.000  -0.000  -0.000
  0.000  -0.000   4.116   0.000   0.000  -0.006  -0.000  -0.000
 -0.000   0.000   0.000   4.117   0.000  -0.000  -0.006  -0.000
 -0.000   0.000   0.000   0.000   4.116  -0.000  -0.000  -0.006
 -0.000   0.000  -0.006  -0.000  -0.000   0.005   0.000   0.000
  0.000  -0.000  -0.000  -0.006  -0.000   0.000   0.005   0.000
  0.000  -0.000  -0.000  -0.000  -0.006   0.000   0.000   0.005
 total augmentation occupancy for first ion, spin component:           1
  1.620  -0.487  -0.000   0.000  -0.000   0.000   0.000   0.000
 -0.487   0.922   0.000   0.000  -0.000   0.000   0.000  -0.000
  0.000   0.000   0.887  -0.000  -0.000  -0.489   0.000   0.000
  0.000   0.000   0.000   0.880   0.000   0.000  -0.504   0.000
 -0.000  -0.000  -0.000   0.000   0.887   0.000   0.000  -0.489
  0.000   0.000  -0.489  -0.000   0.000   0.353   0.000  -0.000
  0.000   0.000   0.000  -0.504   0.000   0.000   0.389   0.000
  0.000  -0.000   0.000   0.000  -0.489  -0.000   0.000   0.353


------------------------ aborting loop because EDIFF is reached ----------------------------------------


    CHARGE:  cpu time    0.0080: real time    0.0100
    FORLOC:  cpu time    0.0040: real time    0.0007
    FORNL :  cpu time    0.0080: real time    0.0089
    STRESS:  cpu time    0.0480: real time    0.0504
    FORCOR:  cpu time    0.0160: real time    0.0144
    FORHAR:  cpu time    0.0040: real time    0.0040
    MIXING:  cpu time    0.0000: real time    0.0013
    OFIELD:  cpu time    0.0000: real time    0.0004

  FORCE on cell =-STRESS in cart. coord.  units (eV):
  Direction    XX          YY          ZZ          XY          YZ          ZX
  --------------------------------------------------------------------------------------
  Alpha Z     4.40202     4.40202     4.40202
  Ewald     -90.96023   -90.96023   -83.26083    -0.00000     0.00000     0.00000
  Hartree     0.56162     0.56162     1.39298    -0.00000    -0.00000    -0.00000
  E(xc)     -25.44027   -25.44027   -25.37166     0.00001     0.00000     0.00000
  Local     -11.42299   -11.42299   -17.15806    -0.00005    -0.00003    -0.00003
  n-local    77.13930    77.30627    76.24549    -0.30557    -0.21076    -0.32094
  augment   -12.09467   -12.09467   -12.05772     0.00003     0.00003     0.00003
  Kinetic    55.02261    58.25942    58.81863     1.02585    -0.70422    -0.82391
  Fock        0.00000     0.00000     0.00000     0.00000     0.00000     0.00000
  -------------------------------------------------------------------------------------
  Total      -1.09071    -1.09071     3.01085     0.00000    -0.00000     0.00000
  in kB     -57.12927   -57.12927   157.70249     0.00000    -0.00000     0.00000
  external pressure =       14.48 kB  Pullay stress =        0.00 kB


 VOLUME and BASIS-vectors are now :
 -----------------------------------------------------------------------------
  energy-cutoff  :      300.00
  volume of cell :       30.59
      direct lattice vectors                 reciprocal lattice vectors
    -2.450000000  2.450000000  1.274000000     0.000000000  0.204081633  0.392464678
     2.450000000 -2.450000000  1.274000000     0.204081633  0.000000000  0.392464678
     2.450000000  2.450000000 -1.274000000     0.204081633  0.204081633 -0.000000000

  length of vectors
     3.691622408  3.691622408  3.691622408     0.442354876  0.442354876  0.288615013


 FORCES acting on ions
    electron-ion (+dipol)            ewald-force                    non-local-force                 convergence-correction
 -----------------------------------------------------------------------------------------------
   0.298E-06 -.298E-06 -.936E-14   0.198E-14 0.156E-15 0.342E-17   0.950E-16 -.127E-15 -.418E-17   -.237E-10 0.237E-10 -.194E-16
   -.298E-06 0.298E-06 -.682E-14   -.185E-14 0.943E-16 0.891E-15   -.482E-16 0.906E-16 -.491E-17   0.237E-10 -.237E-10 -.582E-16
 -----------------------------------------------------------------------------------------------
   0.915E-14 0.817E-14 -.162E-13   0.139E-15 0.250E-15 0.894E-15   0.468E-16 -.364E-16 -.909E-17   0.912E-16 0.459E-16 -.776E-16
 
 
 POSITION                                       TOTAL-FORCE (eV/Angst)
 -----------------------------------------------------------------------------------
      2.45000      0.00000      0.63700         0.000000      0.000000      0.000000
      0.00000      0.00000      0.00000        -0.000000     -0.000000     -0.000000
 -----------------------------------------------------------------------------------
    total drift:                                0.000000      0.000000     -0.000000


--------------------------------------------------------------------------------------------------------



  FREE ENERGIE OF THE ION-ELECTRON SYSTEM (eV)
  ---------------------------------------------------
  free  energy   TOTEN  =        -9.99231095 eV

  energy  without entropy=       -9.97814982  energy(sigma->0) =       -9.98523039
 


--------------------------------------------------------------------------------------------------------


    POTLOK:  cpu time    0.0320: real time    0.0488


--------------------------------------------------------------------------------------------------------




--------------------------------------------------------------------------------------------------------


  
 reached required accuracy - stopping structural energy minimisation
 writing wavefunctions
     LOOP+:  cpu time    1.0840: real time    1.7802
    4ORBIT:  cpu time    0.0000: real time    0.0000

 total amount of memory used by VASP MPI-rank0    30882. kBytes
=======================================================================

   base      :      30000. kBytes
   nonl-proj :        276. kBytes
   fftplans  :        160. kBytes
   grid      :        372. kBytes
   one-center:          6. kBytes
   wavefun   :         68. kBytes
 
  
  
 General timing and accounting informations for this job:
 ========================================================
  
                  Total CPU time used (sec):        5.172
                            User time (sec):        3.616
                          System time (sec):        1.556
                         Elapsed time (sec):        9.711
  
                   Maximum memory used (kb):        9004.
                   Average memory used (kb):           0.
  
                          Minor page faults:        37967
                          Major page faults:           27
                 Voluntary context switches:        27385
