   2   2   0   0
  0.1529437E+02  0.3691622E-09  0.3691622E-09  0.3691622E-09  0.5000000E-15
  1.000000000000000E-004
  CAR 
 unknown system                          
     21.65213212     -6.57242578  301      9.11110826      1.00000000
     -6.572  0.0000E+00  0.0000E+00
     -6.478  0.0000E+00  0.0000E+00
     -6.384  0.0000E+00  0.0000E+00
     -6.290  0.0000E+00  0.0000E+00
     -6.196  0.0000E+00  0.0000E+00
     -6.102  0.0000E+00  0.0000E+00
     -6.008  0.0000E+00  0.0000E+00
     -5.914  0.0000E+00  0.0000E+00
     -5.820  0.0000E+00  0.0000E+00
     -5.726  0.8741E-17  0.8224E-18
     -5.632  0.1807E-14  0.1708E-15
     -5.538  0.2301E-12  0.2182E-13
     -5.443  0.1898E-10  0.1807E-11
     -5.349  0.1013E-08  0.9715E-10
     -5.255  0.3507E-07  0.3397E-08
     -5.161  0.7873E-06  0.7747E-07
     -5.067  0.1148E-04  0.1157E-05
     -4.973  0.1088E-03  0.1140E-04
     -4.879  0.6714E-03  0.7457E-04
     -4.785  0.2699E-02  0.3285E-03
     -4.691  0.7075E-02  0.9941E-03
     -4.597  0.1210E-01  0.2133E-02
     -4.503  0.1351E-01  0.3403E-02
     -4.409  0.9844E-02  0.4330E-02
     -4.314  0.4682E-02  0.4770E-02
     -4.220  0.1452E-02  0.4907E-02
     -4.126  0.2937E-03  0.4934E-02
     -4.032  0.3868E-04  0.4938E-02
     -3.938  0.3318E-05  0.4938E-02
     -3.844  0.3544E-06  0.4938E-02
     -3.750  0.3728E-05  0.4939E-02
     -3.656  0.5292E-04  0.4944E-02
     -3.562  0.4893E-03  0.4990E-02
     -3.468  0.2945E-02  0.5267E-02
     -3.374  0.1155E-01  0.6353E-02
     -3.280  0.2953E-01  0.9132E-02
     -3.185  0.4928E-01  0.1377E-01
     -3.091  0.5367E-01  0.1882E-01
     -2.997  0.3816E-01  0.2241E-01
     -2.903  0.1770E-01  0.2407E-01
     -2.809  0.5358E-02  0.2458E-01
     -2.715  0.1057E-02  0.2468E-01
     -2.621  0.1358E-03  0.2469E-01
     -2.527  0.1136E-04  0.2469E-01
     -2.433  0.1121E-05  0.2469E-01
     -2.339  0.9921E-05  0.2469E-01
     -2.245  0.1281E-03  0.2470E-01
     -2.151  0.1102E-02  0.2481E-01
     -2.056  0.6368E-02  0.2541E-01
     -1.962  0.2493E-01  0.2775E-01
     -1.868  0.6674E-01  0.3403E-01
     -1.774  0.1228E+00  0.4558E-01
     -1.680  0.1551E+00  0.6017E-01
     -1.586  0.1339E+00  0.7277E-01
     -1.492  0.7838E-01  0.8015E-01
     -1.398  0.3080E-01  0.8305E-01
     -1.304  0.8056E-02  0.8380E-01
     -1.210  0.1393E-02  0.8393E-01
     -1.116  0.1582E-03  0.8395E-01
     -1.022  0.1176E-04  0.8395E-01
     -0.928  0.5703E-06  0.8395E-01
     -0.833  0.1799E-07  0.8395E-01
     -0.739  0.3684E-09  0.8395E-01
     -0.645  0.4890E-11  0.8395E-01
     -0.551  0.4205E-13  0.8395E-01
     -0.457  0.2331E-15  0.8395E-01
     -0.363  0.0000E+00  0.8395E-01
     -0.269  0.0000E+00  0.8395E-01
     -0.175  0.8158E-16  0.8395E-01
     -0.081  0.1779E-13  0.8395E-01
      0.013  0.2199E-11  0.8395E-01
      0.107  0.1775E-09  0.8395E-01
      0.201  0.9369E-08  0.8395E-01
      0.296  0.3242E-06  0.8395E-01
      0.390  0.7378E-05  0.8395E-01
      0.484  0.1109E-03  0.8396E-01
      0.578  0.1104E-02  0.8407E-01
      0.672  0.7324E-02  0.8475E-01
      0.766  0.3246E-01  0.8781E-01
      0.860  0.9648E-01  0.9689E-01
      0.954  0.1930E+00  0.1150E+00
      1.048  0.2600E+00  0.1395E+00
      1.142  0.2361E+00  0.1617E+00
      1.236  0.1444E+00  0.1753E+00
      1.330  0.5972E-01  0.1809E+00
      1.425  0.1922E-01  0.1827E+00
      1.519  0.1459E-01  0.1841E+00
      1.613  0.3001E-01  0.1869E+00
      1.707  0.4939E-01  0.1916E+00
      1.801  0.5364E-01  0.1966E+00
      1.895  0.3804E-01  0.2002E+00
      1.989  0.1761E-01  0.2019E+00
      2.083  0.5317E-02  0.2024E+00
      2.177  0.1051E-02  0.2025E+00
      2.271  0.1868E-03  0.2025E+00
      2.365  0.4418E-03  0.2025E+00
      2.459  0.2290E-02  0.2027E+00
      2.554  0.7942E-02  0.2035E+00
      2.648  0.1809E-01  0.2052E+00
      2.742  0.2778E-01  0.2078E+00
      2.836  0.3214E-01  0.2108E+00
      2.930  0.3775E-01  0.2144E+00
      3.024  0.5379E-01  0.2194E+00
      3.118  0.7170E-01  0.2262E+00
      3.212  0.7259E-01  0.2330E+00
      3.306  0.5325E-01  0.2380E+00
      3.400  0.2814E-01  0.2407E+00
      3.494  0.1060E-01  0.2417E+00
      3.588  0.2787E-02  0.2419E+00
      3.682  0.4998E-03  0.2420E+00
      3.777  0.6008E-04  0.2420E+00
      3.871  0.6301E-05  0.2420E+00
      3.965  0.2512E-04  0.2420E+00
      4.059  0.2619E-03  0.2420E+00
      4.153  0.1797E-02  0.2422E+00
      4.247  0.8046E-02  0.2429E+00
      4.341  0.2365E-01  0.2452E+00
      4.435  0.4623E-01  0.2495E+00
      4.529  0.6208E-01  0.2553E+00
      4.623  0.6139E-01  0.2611E+00
      4.717  0.4939E-01  0.2658E+00
      4.811  0.3386E-01  0.2690E+00
      4.906  0.1852E-01  0.2707E+00
      5.000  0.7372E-02  0.2714E+00
      5.094  0.2519E-02  0.2716E+00
      5.188  0.4277E-02  0.2720E+00
      5.282  0.1867E-01  0.2738E+00
      5.376  0.5939E-01  0.2794E+00
      5.470  0.1287E+00  0.2915E+00
      5.564  0.1917E+00  0.3095E+00
      5.658  0.1975E+00  0.3281E+00
      5.752  0.1409E+00  0.3414E+00
      5.846  0.6921E-01  0.3479E+00
      5.940  0.2316E-01  0.3500E+00
      6.035  0.5327E-02  0.3505E+00
      6.129  0.1696E-02  0.3507E+00
      6.223  0.4885E-02  0.3512E+00
      6.317  0.1661E-01  0.3527E+00
      6.411  0.3843E-01  0.3563E+00
      6.505  0.6361E-01  0.3623E+00
      6.599  0.8770E-01  0.3706E+00
      6.693  0.1185E+00  0.3817E+00
      6.787  0.1505E+00  0.3959E+00
      6.881  0.1614E+00  0.4111E+00
      6.975  0.1528E+00  0.4254E+00
      7.069  0.1400E+00  0.4386E+00
      7.164  0.1136E+00  0.4493E+00
      7.258  0.7037E-01  0.4559E+00
      7.352  0.3381E-01  0.4591E+00
      7.446  0.1844E-01  0.4608E+00
      7.540  0.1506E-01  0.4623E+00
      7.634  0.1172E-01  0.4634E+00
      7.728  0.7412E-02  0.4641E+00
      7.822  0.8240E-02  0.4648E+00
      7.916  0.2133E-01  0.4668E+00
      8.010  0.5053E-01  0.4716E+00
      8.104  0.9069E-01  0.4801E+00
      8.198  0.1264E+00  0.4920E+00
      8.293  0.1363E+00  0.5048E+00
      8.387  0.1084E+00  0.5150E+00
      8.481  0.6022E-01  0.5207E+00
      8.575  0.2258E-01  0.5228E+00
      8.669  0.5631E-02  0.5234E+00
      8.763  0.1241E-02  0.5235E+00
      8.857  0.2564E-02  0.5237E+00
      8.951  0.1207E-01  0.5249E+00
      9.045  0.3843E-01  0.5285E+00
      9.139  0.7988E-01  0.5360E+00
      9.233  0.1084E+00  0.5462E+00
      9.327  0.9594E-01  0.5552E+00
      9.421  0.5545E-01  0.5604E+00
      9.516  0.2093E-01  0.5624E+00
      9.610  0.5391E-02  0.5629E+00
      9.704  0.2798E-02  0.5632E+00
      9.798  0.1027E-01  0.5641E+00
      9.892  0.3432E-01  0.5674E+00
      9.986  0.7609E-01  0.5745E+00
     10.080  0.1133E+00  0.5852E+00
     10.174  0.1198E+00  0.5964E+00
     10.268  0.1017E+00  0.6060E+00
     10.362  0.7899E-01  0.6134E+00
     10.456  0.5681E-01  0.6188E+00
     10.550  0.4354E-01  0.6229E+00
     10.645  0.5765E-01  0.6283E+00
     10.739  0.9648E-01  0.6374E+00
     10.833  0.1222E+00  0.6489E+00
     10.927  0.1036E+00  0.6586E+00
     11.021  0.5794E-01  0.6641E+00
     11.115  0.2135E-01  0.6661E+00
     11.209  0.5193E-02  0.6666E+00
     11.303  0.8821E-03  0.6667E+00
     11.397  0.5506E-03  0.6667E+00
     11.491  0.2830E-02  0.6670E+00
     11.585  0.1130E-01  0.6680E+00
     11.679  0.3007E-01  0.6709E+00
     11.774  0.5553E-01  0.6761E+00
     11.868  0.7915E-01  0.6835E+00
     11.962  0.1013E+00  0.6931E+00
     12.056  0.1190E+00  0.7043E+00
     12.150  0.1117E+00  0.7148E+00
     12.244  0.7403E-01  0.7217E+00
     12.338  0.3284E-01  0.7248E+00
     12.432  0.9575E-02  0.7257E+00
     12.526  0.1824E-02  0.7259E+00
     12.620  0.2263E-03  0.7259E+00
     12.714  0.1827E-04  0.7259E+00
     12.808  0.9598E-06  0.7259E+00
     12.903  0.1050E-06  0.7259E+00
     12.997  0.1931E-05  0.7259E+00
     13.091  0.3340E-04  0.7259E+00
     13.185  0.3755E-03  0.7260E+00
     13.279  0.2747E-02  0.7262E+00
     13.373  0.1309E-01  0.7275E+00
     13.467  0.4064E-01  0.7313E+00
     13.561  0.8234E-01  0.7390E+00
     13.655  0.1089E+00  0.7493E+00
     13.749  0.9413E-01  0.7581E+00
     13.843  0.5419E-01  0.7632E+00
     13.937  0.2559E-01  0.7656E+00
     14.032  0.2424E-01  0.7679E+00
     14.126  0.4237E-01  0.7719E+00
     14.220  0.6251E-01  0.7778E+00
     14.314  0.7754E-01  0.7851E+00
     14.408  0.9884E-01  0.7944E+00
     14.502  0.1264E+00  0.8063E+00
     14.596  0.1364E+00  0.8191E+00
     14.690  0.1180E+00  0.8302E+00
     14.784  0.8536E-01  0.8382E+00
     14.878  0.5813E-01  0.8437E+00
     14.972  0.5010E-01  0.8484E+00
     15.066  0.5604E-01  0.8537E+00
     15.160  0.5509E-01  0.8589E+00
     15.255  0.4128E-01  0.8627E+00
     15.349  0.3089E-01  0.8657E+00
     15.443  0.3571E-01  0.8690E+00
     15.537  0.5075E-01  0.8738E+00
     15.631  0.6453E-01  0.8799E+00
     15.725  0.6637E-01  0.8861E+00
     15.819  0.5584E-01  0.8914E+00
     15.913  0.5259E-01  0.8963E+00
     16.007  0.7482E-01  0.9033E+00
     16.101  0.1049E+00  0.9132E+00
     16.195  0.1048E+00  0.9231E+00
     16.289  0.6991E-01  0.9297E+00
     16.384  0.3310E-01  0.9328E+00
     16.478  0.1831E-01  0.9345E+00
     16.572  0.2615E-01  0.9370E+00
     16.666  0.5441E-01  0.9421E+00
     16.760  0.1011E+00  0.9516E+00
     16.854  0.1457E+00  0.9653E+00
     16.948  0.1583E+00  0.9802E+00
     17.042  0.1374E+00  0.9931E+00
     17.136  0.1062E+00  0.1003E+01
     17.230  0.7637E-01  0.1010E+01
     17.324  0.4609E-01  0.1015E+01
     17.418  0.2056E-01  0.1017E+01
     17.513  0.6314E-02  0.1017E+01
     17.607  0.1530E-02  0.1017E+01
     17.701  0.1907E-02  0.1017E+01
     17.795  0.7888E-02  0.1018E+01
     17.889  0.2352E-01  0.1020E+01
     17.983  0.4700E-01  0.1025E+01
     18.077  0.6479E-01  0.1031E+01
     18.171  0.6515E-01  0.1037E+01
     18.265  0.5098E-01  0.1042E+01
     18.359  0.3182E-01  0.1045E+01
     18.453  0.1519E-01  0.1046E+01
     18.547  0.5186E-02  0.1047E+01
     18.642  0.1207E-02  0.1047E+01
     18.736  0.1866E-03  0.1047E+01
     18.830  0.1892E-04  0.1047E+01
     18.924  0.1278E-05  0.1047E+01
     19.018  0.7915E-06  0.1047E+01
     19.112  0.1325E-04  0.1047E+01
     19.206  0.1547E-03  0.1047E+01
     19.300  0.1175E-02  0.1047E+01
     19.394  0.5810E-02  0.1048E+01
     19.488  0.1873E-01  0.1049E+01
     19.582  0.3938E-01  0.1053E+01
     19.676  0.5403E-01  0.1058E+01
     19.770  0.4840E-01  0.1063E+01
     19.865  0.2830E-01  0.1065E+01
     19.959  0.1080E-01  0.1066E+01
     20.053  0.2686E-02  0.1067E+01
     20.147  0.4353E-03  0.1067E+01
     20.241  0.4592E-04  0.1067E+01
     20.335  0.3149E-05  0.1067E+01
     20.429  0.1403E-06  0.1067E+01
     20.523  0.4054E-08  0.1067E+01
     20.617  0.7591E-10  0.1067E+01
     20.711  0.9204E-12  0.1067E+01
     20.805  0.7226E-14  0.1067E+01
     20.899  0.4662E-16  0.1067E+01
     20.994  0.0000E+00  0.1067E+01
     21.088  0.0000E+00  0.1067E+01
     21.182  0.0000E+00  0.1067E+01
     21.276  0.0000E+00  0.1067E+01
     21.370  0.0000E+00  0.1067E+01
     21.464  0.0000E+00  0.1067E+01
     21.558  0.0000E+00  0.1067E+01
     21.652  0.0000E+00  0.1067E+01
