 vasp.5.4.4.18Apr17-6-g9f103f2a35 (build Dec 09 2018 21:25:21) complex          
  
 executed on IFC18.0.1.163_CrayMP date 2019.03.20  09:27:48
 running on    8 total cores
 distrk:  each k-point on    8 cores,    1 groups
 distr:  one band on NCORES_PER_BAND=   1 cores,    8 groups


--------------------------------------------------------------------------------------------------------


 INCAR:
 POTCAR:   PAW_PBE Si 05Jan2001                   

 ----------------------------------------------------------------------------- 
|                                                                             |
|           W    W    AA    RRRRR   N    N  II  N    N   GGGG   !!!           |
|           W    W   A  A   R    R  NN   N  II  NN   N  G    G  !!!           |
|           W    W  A    A  R    R  N N  N  II  N N  N  G       !!!           |
|           W WW W  AAAAAA  RRRRR   N  N N  II  N  N N  G  GGG   !            |
|           WW  WW  A    A  R   R   N   NN  II  N   NN  G    G                |
|           W    W  A    A  R    R  N    N  II  N    N   GGGG   !!!           |
|                                                                             |
|      For optimal performance we recommend to set                            |
|        NCORE= 4 - approx SQRT( number of cores)                             |
|      NCORE specifies how many cores store one orbital (NPAR=cpu/NCORE).     |
|      This setting can  greatly improve the performance of VASP for DFT.     |
|      The default,   NCORE=1            might be grossly inefficient         |
|      on modern multi-core architectures or massively parallel machines.     |
|      Do your own testing !!!!                                               |
|      Unfortunately you need to use the default for GW and RPA calculations. |
|      (for HF NCORE is supported but not extensively tested yet)             |
|                                                                             |
 ----------------------------------------------------------------------------- 

 POTCAR:   PAW_PBE Si 05Jan2001                   
   VRHFIN =Si: s2p2                                                             
   LEXCH  = PE                                                                  
   EATOM  =   103.0669 eV,    7.5752 Ry                                         
                                                                                
   TITEL  = PAW_PBE Si 05Jan2001                                                
   LULTRA =        F    use ultrasoft PP ?                                      
   IUNSCR =        1    unscreen: 0-lin 1-nonlin 2-no                           
   RPACOR =    1.500    partial core radius                                     
   POMASS =   28.085; ZVAL   =    4.000    mass and valenz                      
   RCORE  =    1.900    outmost cutoff radius                                   
   RWIGS  =    2.480; RWIGS  =    1.312    wigner-seitz radius (au A)           
   ENMAX  =  245.345; ENMIN  =  184.009 eV                                      
   ICORE  =        2    local potential                                         
   LCOR   =        T    correct aug charges                                     
   LPAW   =        T    paw PP                                                  
   EAUG   =  322.069                                                            
   DEXC   =    -.007                                                            
   RMAX   =    2.944    core radius for proj-oper                               
   RAUG   =    1.300    factor for augmentation sphere                          
   RDEP   =    1.993    radius for radial grids                                 
   QCUT   =   -4.246; QGAM   =    8.493    optimization parameters              
                                                                                
   Description                                                                  
     l     E      TYP  RCUT    TYP  RCUT                                        
     0   .000     23  1.900                                                     
     0   .000     23  1.900                                                     
     1   .000     23  1.900                                                     
     1   .000     23  1.900                                                     
     2   .000      7  1.900                                                     
  local pseudopotential read in
  partial core-charges read in
  atomic valenz-charges read in
  non local Contribution for L=           0  read in
    real space projection operators read in
  non local Contribution for L=           0  read in
    real space projection operators read in
  non local Contribution for L=           1  read in
    real space projection operators read in
  non local Contribution for L=           1  read in
    real space projection operators read in
    PAW grid and wavefunctions read in
 
   number of l-projection  operators is LMAX  =           4
   number of lm-projection operators is LMMAX =           8
 
 PAW_PBE Si 05Jan2001                   :
 energy of atom  1       EATOM= -103.0669
 kinetic energy error for atom=    0.0021 (will be added to EATOM!!)
 
 
 POSCAR: Si2                                     
  positions in direct lattice
  No initial velocities read in
 exchange correlation table for  LEXCH =        8
   RHO(1)=    0.500       N(1)  =     2000
   RHO(2)=  100.500       N(2)  =     4000
 


--------------------------------------------------------------------------------------------------------


 ion  position               nearest neighbor table
   1  0.250  0.750  0.500-   2 2.53   2 2.53   2 2.53   2 2.53   2 3.11   2 3.11   2 3.11   2 3.11

   2  0.000  0.000  0.000-   1 2.53   1 2.53   1 2.53   1 2.53   1 3.11   1 3.11   1 3.11   1 3.11

 
  LATTYP: Found a body centered tetragonal cell.
 ALAT       =     4.9000000000
 C/A-ratio  =     0.5200000000
  
  Lattice vectors:
  
 A1 = (  -2.4500000000,   2.4500000000,   1.2740000000)
 A2 = (   2.4500000000,  -2.4500000000,   1.2740000000)
 A3 = (   2.4500000000,   2.4500000000,  -1.2740000000)


Analysis of symmetry for initial positions (statically):
=====================================================================
 Subroutine PRICEL returns:
 Original cell was already a primitive cell.
 

 Routine SETGRP: Setting up the symmetry group for a 
 body centered tetragonal supercell.


 Subroutine GETGRP returns: Found 16 space group operations
 (whereof  8 operations were pure point group operations)
 out of a pool of 16 trial point group operations.


The static configuration has the point symmetry D_2d.
 The point group associated with its full space group is D_4h.


Analysis of symmetry for dynamics (positions and initial velocities):
=====================================================================
 Subroutine PRICEL returns:
 Original cell was already a primitive cell.
 

 Routine SETGRP: Setting up the symmetry group for a 
 body centered tetragonal supercell.


 Subroutine GETGRP returns: Found 16 space group operations
 (whereof  8 operations were pure point group operations)
 out of a pool of 16 trial point group operations.


The dynamic configuration has the point symmetry D_2d.
 The point group associated with its full space group is D_4h.


 Subroutine INISYM returns: Found 16 space group operations
 (whereof  8 operations are pure point group operations),
 and found     1 'primitive' translations

 
 
 KPOINTS: Automatic kpoint scheme                 

Automatic generation of k-mesh.
Space group operators:
 irot       det(A)        alpha          n_x          n_y          n_z        tau_x        tau_y        tau_z
    1     1.000000     0.000000     1.000000     0.000000     0.000000     0.000000     0.000000     0.000000
    2    -1.000000    90.000000    -0.000000    -0.000000    -1.000000     0.000000     0.000000     0.000000
    3     1.000000   180.000000    -0.000000    -0.000000    -1.000000     0.000000     0.000000     0.000000
    4    -1.000000    90.000000    -0.000000     0.000000     1.000000     0.000000     0.000000     0.000000
    5    -1.000000   180.000000     0.000000    -1.000000     0.000000     0.000000     0.000000     0.000000
    6     1.000000   180.000000     0.707107     0.707107    -0.000000     0.000000     0.000000     0.000000
    7    -1.000000   180.000000     1.000000     0.000000     0.000000     0.000000     0.000000     0.000000
    8     1.000000   180.000000     0.707107    -0.707107     0.000000     0.000000     0.000000     0.000000
    9    -1.000000     0.000000     1.000000     0.000000     0.000000     0.250000     0.750000     0.500000
   10     1.000000    90.000000    -0.000000    -0.000000    -1.000000     0.250000     0.750000     0.500000
   11    -1.000000   180.000000    -0.000000    -0.000000    -1.000000     0.250000     0.750000     0.500000
   12     1.000000    90.000000    -0.000000     0.000000     1.000000     0.250000     0.750000     0.500000
   13     1.000000   180.000000     0.000000    -1.000000     0.000000     0.250000     0.750000     0.500000
   14    -1.000000   180.000000     0.707107     0.707107    -0.000000     0.250000     0.750000     0.500000
   15     1.000000   180.000000     1.000000     0.000000     0.000000     0.250000     0.750000     0.500000
   16    -1.000000   180.000000     0.707107    -0.707107     0.000000     0.250000     0.750000     0.500000
 
 Subroutine IBZKPT returns following result:
 ===========================================
 
 Found      6 irreducible k-points:
 
 Following reciprocal coordinates:
            Coordinates               Weight
  0.000000  0.000000  0.000000      1.000000
  0.333333 -0.000000  0.000000      8.000000
  0.333333  0.333333  0.000000      8.000000
 -0.333333  0.333333  0.000000      4.000000
 -0.333333  0.333333  0.333333      4.000000
 -0.333333 -0.333333  0.333333      2.000000
 
 Following cartesian coordinates:
            Coordinates               Weight
  0.000000  0.000000  0.000000      1.000000
  0.000000  0.068027  0.130822      8.000000
  0.068027  0.068027  0.261643      8.000000
  0.068027 -0.068027 -0.000000      4.000000
  0.136054 -0.000000 -0.000000      4.000000
 -0.000000  0.000000 -0.261643      2.000000
 


--------------------------------------------------------------------------------------------------------




 Dimension of arrays:
   k-points           NKPTS =      6   k-points in BZ     NKDIM =      6   number of bands    NBANDS=      8
   number of dos      NEDOS =    301   number of ions     NIONS =      2
   non local maximal  LDIM  =      4   non local SUM 2l+1 LMDIM =      8
   total plane-waves  NPLWV =   4096
   max r-space proj   IRMAX =      1   max aug-charges    IRDMAX=   4676
   dimension x,y,z NGX =    16 NGY =   16 NGZ =   16
   dimension x,y,z NGXF=    32 NGYF=   32 NGZF=   32
   support grid    NGXF=    32 NGYF=   32 NGZF=   32
   ions per type =               2
   NGX,Y,Z   is equivalent  to a cutoff of   7.21,  7.21,  7.21 a.u.
   NGXF,Y,Z  is equivalent  to a cutoff of  14.41, 14.41, 14.41 a.u.

 SYSTEM =  unknown system                          
 POSCAR =  Si2                                     

 Startparameter for this run:
   NWRITE =      2    write-flag & timer
   PREC   = normal    normal or accurate (medium, high low for compatibility)
   ISTART =      0    job   : 0-new  1-cont  2-samecut
   ICHARG =      2    charge: 1-file 2-atom 10-const
   ISPIN  =      1    spin polarized calculation?
   LNONCOLLINEAR =      F non collinear calculations
   LSORBIT =      F    spin-orbit coupling
   INIWAV =      1    electr: 0-lowe 1-rand  2-diag
   LASPH  =      F    aspherical Exc in radial PAW
   METAGGA=      F    non-selfconsistent MetaGGA calc.

 Electronic Relaxation 1
   ENCUT  =  300.0 eV  22.05 Ry    4.70 a.u.   5.21  5.21  5.21*2*pi/ulx,y,z
   ENINI  =  300.0     initial cutoff
   ENAUG  =  322.1 eV  augmentation charge cutoff
   NELM   =     60;   NELMIN=  2; NELMDL= -5     # of ELM steps 
   EDIFF  = 0.4E-03   stopping-criterion for ELM
   LREAL  =      F    real-space projection
   NLSPLINE    = F    spline interpolate recip. space projectors
   LCOMPAT=      F    compatible to vasp.4.4
   GGA_COMPAT  = T    GGA compatible to vasp.4.4-vasp.4.6
   LMAXPAW     = -100 max onsite density
   LMAXMIX     =    2 max onsite mixed and CHGCAR
   VOSKOWN=      0    Vosko Wilk Nusair interpolation
   ROPT   =    0.00000
 Ionic relaxation
   EDIFFG = -.1E-01   stopping-criterion for IOM
   NSW    =     15    number of steps for IOM
   NBLOCK =      1;   KBLOCK =     15    inner block; outer block 
   IBRION =      2    ionic relax: 0-MD 1-quasi-New 2-CG
   NFREE  =      1    steps in history (QN), initial steepest desc. (CG)
   ISIF   =      3    stress and relaxation
   IWAVPR =     11    prediction:  0-non 1-charg 2-wave 3-comb
   ISYM   =      2    0-nonsym 1-usesym 2-fastsym
   LCORR  =      T    Harris-Foulkes like correction to forces

   POTIM  = 0.5000    time-step for ionic-motion
   TEIN   =    0.0    initial temperature
   TEBEG  =    0.0;   TEEND  =   0.0 temperature during run
   SMASS  =  -3.00    Nose mass-parameter (am)
   estimated Nose-frequenzy (Omega)   =  0.10E-29 period in steps =****** mass=  -0.311E-27a.u.
   SCALEE = 1.0000    scale energy and forces
   NPACO  =    256;   APACO  = 16.0  distance and # of slots for P.C.
   PSTRESS=    0.0 pullay stress

  Mass of Ions in am
   POMASS =  28.09
  Ionic Valenz
   ZVAL   =   4.00
  Atomic Wigner-Seitz radii
   RWIGS  =  -1.00
  virtual crystal weights 
   VCA    =   1.00
   NELECT =       8.0000    total number of electrons
   NUPDOWN=      -1.0000    fix difference up-down

 DOS related values:
   EMIN   =  10.00;   EMAX   =-10.00  energy-range for DOS
   EFERMI =   0.00
   ISMEAR =     0;   SIGMA  =   0.20  broadening in eV -4-tet -1-fermi 0-gaus

 Electronic relaxation 2 (details)
   IALGO  =     38    algorithm
   LDIAG  =      T    sub-space diagonalisation (order eigenvalues)
   LSUBROT=      F    optimize rotation matrix (better conditioning)
   TURBO    =      0    0=normal 1=particle mesh
   IRESTART =      0    0=no restart 2=restart with 2 vectors
   NREBOOT  =      0    no. of reboots
   NMIN     =      0    reboot dimension
   EREF     =   0.00    reference energy to select bands
   IMIX   =      4    mixing-type and parameters
     AMIX     =   0.40;   BMIX     =  1.00
     AMIX_MAG =   1.60;   BMIX_MAG =  1.00
     AMIN     =   0.10
     WC   =   100.;   INIMIX=   1;  MIXPRE=   1;  MAXMIX= -45

 Intra band minimization:
   WEIMIN = 0.0010     energy-eigenvalue tresh-hold
   EBREAK =  0.13E-04  absolut break condition
   DEPER  =   0.30     relativ break condition  

   TIME   =   0.40     timestep for ELM

  volume/ion in A,a.u.               =      15.29       103.21
  Fermi-wavevector in a.u.,A,eV,Ry     =   1.046930  1.978411 14.912834  1.096062
  Thomas-Fermi vector in A             =   2.181789
 
 Write flags
   LWAVE        =      T    write WAVECAR
   LDOWNSAMPLE  =      F    k-point downsampling of WAVECAR
   LCHARG       =      T    write CHGCAR
   LVTOT        =      F    write LOCPOT, total local potential
   LVHAR        =      F    write LOCPOT, Hartree potential only
   LELF         =      F    write electronic localiz. function (ELF)
   LORBIT       =      0    0 simple, 1 ext, 2 COOP (PROOUT), +10 PAW based schemes


 Dipole corrections
   LMONO  =      F    monopole corrections only (constant potential shift)
   LDIPOL =      F    correct potential (dipole corrections)
   IDIPOL =      0    1-x, 2-y, 3-z, 4-all directions 
   EPSILON=  1.0000000 bulk dielectric constant

 Exchange correlation treatment:
   GGA     =    --    GGA type
   LEXCH   =     8    internal setting for exchange type
   VOSKOWN=      0    Vosko Wilk Nusair interpolation
   LHFCALC =     F    Hartree Fock is set to
   LHFONE  =     F    Hartree Fock one center treatment
   AEXX    =    0.0000 exact exchange contribution

 Linear response parameters
   LEPSILON=     F    determine dielectric tensor
   LRPA    =     F    only Hartree local field effects (RPA)
   LNABLA  =     F    use nabla operator in PAW spheres
   LVEL    =     F    velocity operator in full k-point grid
   LINTERFAST=   F  fast interpolation
   KINTER  =     0    interpolate to denser k-point grid
   CSHIFT  =0.1000    complex shift for real part using Kramers Kronig
   OMEGAMAX=  -1.0    maximum frequency
   DEG_THRESHOLD= 0.2000000E-02 threshold for treating states as degnerate
   RTIME   =   -0.100 relaxation time in fs
  (WPLASMAI=    0.000 imaginary part of plasma frequency in eV, 0.658/RTIME)
   DFIELD  = 0.0000000 0.0000000 0.0000000 field for delta impulse in time
 
 Orbital magnetization related:
   ORBITALMAG=     F  switch on orbital magnetization
   LCHIMAG   =     F  perturbation theory with respect to B field
   DQ        =  0.001000  dq finite difference perturbation B field
   LLRAUG    =     F  two centre corrections for induced B field



--------------------------------------------------------------------------------------------------------


 conjugate gradient relaxation of ions
 charge density and potential will be updated during run
 non-spin polarized calculation
 Variant of blocked Davidson
 Davidson routine will perform the subspace rotation
 perform sub-space diagonalisation
    after iterative eigenvector-optimisation
 modified Broyden-mixing scheme, WC =      100.0
 initial mixing is a Kerker type mixing with AMIX =  0.4000 and BMIX =      1.0000
 Hartree-type preconditioning will be used
 using additional bands            4
 reciprocal scheme for non local part
 use partial core corrections
 calculate Harris-corrections to forces 
   (improved forces if not selfconsistent)
 use gradient corrections 
 use of overlap-Matrix (Vanderbilt PP)
 Gauss-broadening in eV      SIGMA  =   0.20


--------------------------------------------------------------------------------------------------------


  energy-cutoff  :      300.00
  volume of cell :       30.59
      direct lattice vectors                 reciprocal lattice vectors
    -2.450000000  2.450000000  1.274000000     0.000000000  0.204081633  0.392464678
     2.450000000 -2.450000000  1.274000000     0.204081633  0.000000000  0.392464678
     2.450000000  2.450000000 -1.274000000     0.204081633  0.204081633 -0.000000000

  length of vectors
     3.691622408  3.691622408  3.691622408     0.442354876  0.442354876  0.288615013


 
 k-points in units of 2pi/SCALE and weight: Automatic kpoint scheme                 
   0.00000000  0.00000000  0.00000000       0.037
   0.00000000  0.06802721  0.13082156       0.296
   0.06802721  0.06802721  0.26164312       0.296
   0.06802721 -0.06802721 -0.00000000       0.148
   0.13605442 -0.00000000 -0.00000000       0.148
   0.00000000  0.00000000 -0.26164312       0.074
 
 k-points in reciprocal lattice and weights: Automatic kpoint scheme                 
   0.00000000  0.00000000  0.00000000       0.037
   0.33333333 -0.00000000  0.00000000       0.296
   0.33333333  0.33333333  0.00000000       0.296
  -0.33333333  0.33333333  0.00000000       0.148
  -0.33333333  0.33333333  0.33333333       0.148
  -0.33333333 -0.33333333  0.33333333       0.074
 
 position of ions in fractional coordinates (direct lattice) 
   0.25000000  0.75000000  0.50000000
   0.00000000  0.00000000  0.00000000
 
 position of ions in cartesian coordinates  (Angst):
   2.45000000  0.00000000  0.63700000
   0.00000000  0.00000000  0.00000000
 


--------------------------------------------------------------------------------------------------------


 k-point  1 :   0.0000 0.0000 0.0000  plane waves:     351
 k-point  2 :   0.3333-0.0000 0.0000  plane waves:     361
 k-point  3 :   0.3333 0.3333 0.0000  plane waves:     365
 k-point  4 :  -0.3333 0.3333 0.0000  plane waves:     372
 k-point  5 :  -0.3333 0.3333 0.3333  plane waves:     361
 k-point  6 :  -0.3333-0.3333 0.3333  plane waves:     364

 maximum and minimum number of plane-waves per node :       372      351

 maximum number of plane-waves:       372
 maximum index in each direction: 
   IXMAX=    5   IYMAX=    5   IZMAX=    5
   IXMIN=   -5   IYMIN=   -5   IZMIN=   -5


 serial   3D FFT for wavefunctions
 parallel 3D FFT for charge:
    minimum data exchange during FFTs selected (reduces bandwidth)


 total amount of memory used by VASP MPI-rank0    30731. kBytes
=======================================================================

   base      :      30000. kBytes
   nonl-proj :        156. kBytes
   fftplans  :        160. kBytes
   grid      :        372. kBytes
   one-center:          6. kBytes
   wavefun   :         37. kBytes
 
     INWAV:  cpu time    0.0040: real time    0.0003
 Broyden mixing: mesh for mixing (old mesh)
   NGX = 11   NGY = 11   NGZ = 11
  (NGX  = 32   NGY  = 32   NGZ  = 32)
  gives a total of   1331 points

 initial charge density was supplied:
 charge density of overlapping atoms calculated
 number of electron       8.0000000 magnetization 
 keeping initial charge density in first step


--------------------------------------------------------------------------------------------------------


 Maximum index for augmentation-charges          547 (set IRDMAX)


--------------------------------------------------------------------------------------------------------


 First call to EWALD:  gamma=   0.567
 Maximum number of real-space cells 4x 4x 3
 Maximum number of reciprocal cells 3x 3x 3

    FEWALD:  cpu time    0.0080: real time    0.0065


--------------------------------------- Iteration      1(   1)  ---------------------------------------


    POTLOK:  cpu time    0.0240: real time    0.0466
    SETDIJ:  cpu time    0.0120: real time    0.0090
     EDDAV:  cpu time    0.0480: real time    0.0511
       DOS:  cpu time    0.0000: real time    0.0015
    --------------------------------------------
      LOOP:  cpu time    0.0840: real time    0.1089

 eigenvalue-minimisations  :    96
 total energy-change (2. order) : 0.7756414E+00  (-0.2671307E+03)
 number of electron       8.0000000 magnetization 
 augmentation part        8.0000000 magnetization 

 Free energy of the ion-electron system (eV)
  ---------------------------------------------------
  alpha Z        PSCENC =         4.40202223
  Ewald energy   TEWEN  =      -265.18101312
  -Hartree energ DENC   =        -2.30415367
  -exchange      EXHF   =         0.00000000
  -V(xc)+E(xc)   XCENC  =       -17.81548033
  PAW double counting   =        65.95520812      -30.76852678
  entropy T*S    EENTRO =        -0.00000006
  eigenvalues    EBANDS =        40.35789916
  atomic energy  EATOM  =       206.12968587
  Solvation  Ediel_sol  =         0.00000000
  ---------------------------------------------------
  free energy    TOTEN  =         0.77564142 eV

  energy without entropy =        0.77564149  energy(sigma->0) =        0.77564145


--------------------------------------------------------------------------------------------------------




--------------------------------------- Iteration      1(   2)  ---------------------------------------


     EDDAV:  cpu time    0.0800: real time    0.0921
       DOS:  cpu time    0.0000: real time    0.0019
    --------------------------------------------
      LOOP:  cpu time    0.0800: real time    0.0945

 eigenvalue-minimisations  :   152
 total energy-change (2. order) :-0.1061565E+02  (-0.9903648E+01)
 number of electron       8.0000000 magnetization 
 augmentation part        8.0000000 magnetization 

 Free energy of the ion-electron system (eV)
  ---------------------------------------------------
  alpha Z        PSCENC =         4.40202223
  Ewald energy   TEWEN  =      -265.18101312
  -Hartree energ DENC   =        -2.30415367
  -exchange      EXHF   =         0.00000000
  -V(xc)+E(xc)   XCENC  =       -17.81548033
  PAW double counting   =        65.95520812      -30.76852678
  entropy T*S    EENTRO =        -0.02683615
  eigenvalues    EBANDS =        29.76908483
  atomic energy  EATOM  =       206.12968587
  Solvation  Ediel_sol  =         0.00000000
  ---------------------------------------------------
  free energy    TOTEN  =        -9.84000899 eV

  energy without entropy =       -9.81317284  energy(sigma->0) =       -9.82659092


--------------------------------------------------------------------------------------------------------




--------------------------------------- Iteration      1(   3)  ---------------------------------------


     EDDAV:  cpu time    0.0800: real time    0.0857
       DOS:  cpu time    0.0000: real time    0.0014
    --------------------------------------------
      LOOP:  cpu time    0.0800: real time    0.0866

 eigenvalue-minimisations  :   152
 total energy-change (2. order) :-0.1732388E+00  (-0.1732381E+00)
 number of electron       8.0000000 magnetization 
 augmentation part        8.0000000 magnetization 

 Free energy of the ion-electron system (eV)
  ---------------------------------------------------
  alpha Z        PSCENC =         4.40202223
  Ewald energy   TEWEN  =      -265.18101312
  -Hartree energ DENC   =        -2.30415367
  -exchange      EXHF   =         0.00000000
  -V(xc)+E(xc)   XCENC  =       -17.81548033
  PAW double counting   =        65.95520812      -30.76852678
  entropy T*S    EENTRO =        -0.02680518
  eigenvalues    EBANDS =        29.59581503
  atomic energy  EATOM  =       206.12968587
  Solvation  Ediel_sol  =         0.00000000
  ---------------------------------------------------
  free energy    TOTEN  =       -10.01324782 eV

  energy without entropy =       -9.98644265  energy(sigma->0) =       -9.99984523


--------------------------------------------------------------------------------------------------------




--------------------------------------- Iteration      1(   4)  ---------------------------------------


     EDDAV:  cpu time    0.0680: real time    0.0756
       DOS:  cpu time    0.0040: real time    0.0018
    --------------------------------------------
      LOOP:  cpu time    0.0720: real time    0.0784

 eigenvalue-minimisations  :   136
 total energy-change (2. order) :-0.8643073E-03  (-0.8643079E-03)
 number of electron       8.0000000 magnetization 
 augmentation part        8.0000000 magnetization 

 Free energy of the ion-electron system (eV)
  ---------------------------------------------------
  alpha Z        PSCENC =         4.40202223
  Ewald energy   TEWEN  =      -265.18101312
  -Hartree energ DENC   =        -2.30415367
  -exchange      EXHF   =         0.00000000
  -V(xc)+E(xc)   XCENC  =       -17.81548033
  PAW double counting   =        65.95520812      -30.76852678
  entropy T*S    EENTRO =        -0.02680447
  eigenvalues    EBANDS =        29.59495002
  atomic energy  EATOM  =       206.12968587
  Solvation  Ediel_sol  =         0.00000000
  ---------------------------------------------------
  free energy    TOTEN  =       -10.01411213 eV

  energy without entropy =       -9.98730766  energy(sigma->0) =      -10.00070989


--------------------------------------------------------------------------------------------------------




--------------------------------------- Iteration      1(   5)  ---------------------------------------


     EDDAV:  cpu time    0.0880: real time    0.0983
       DOS:  cpu time    0.0000: real time    0.0024
    CHARGE:  cpu time    0.0080: real time    0.0104
    MIXING:  cpu time    0.0040: real time    0.0019
    --------------------------------------------
      LOOP:  cpu time    0.1000: real time    0.1120

 eigenvalue-minimisations  :   168
 total energy-change (2. order) :-0.1388747E-06  (-0.1392196E-06)
 number of electron       7.9999991 magnetization 
 augmentation part       -0.4585546 magnetization 

 Broyden mixing:
  rms(total) = 0.16031E+00    rms(broyden)= 0.16031E+00
  rms(prec ) = 0.35810E+00
  weight for this iteration     100.00

 Free energy of the ion-electron system (eV)
  ---------------------------------------------------
  alpha Z        PSCENC =         4.40202223
  Ewald energy   TEWEN  =      -265.18101312
  -Hartree energ DENC   =        -2.30415367
  -exchange      EXHF   =         0.00000000
  -V(xc)+E(xc)   XCENC  =       -17.81548033
  PAW double counting   =        65.95520812      -30.76852678
  entropy T*S    EENTRO =        -0.02680447
  eigenvalues    EBANDS =        29.59494988
  atomic energy  EATOM  =       206.12968587
  Solvation  Ediel_sol  =         0.00000000
  ---------------------------------------------------
  free energy    TOTEN  =       -10.01411227 eV

  energy without entropy =       -9.98730780  energy(sigma->0) =      -10.00071003


--------------------------------------------------------------------------------------------------------




--------------------------------------- Iteration      1(   6)  ---------------------------------------


    POTLOK:  cpu time    0.0160: real time    0.0223
    SETDIJ:  cpu time    0.0080: real time    0.0098
     EDDAV:  cpu time    0.0600: real time    0.0571
       DOS:  cpu time    0.0000: real time    0.0025
    CHARGE:  cpu time    0.0080: real time    0.0093
    MIXING:  cpu time    0.0040: real time    0.0016
    --------------------------------------------
      LOOP:  cpu time    0.0960: real time    0.1029

 eigenvalue-minimisations  :   120
 total energy-change (2. order) : 0.4631038E-02  (-0.2127443E-03)
 number of electron       7.9999991 magnetization 
 augmentation part       -0.4602423 magnetization 

 Broyden mixing:
  rms(total) = 0.10028E+00    rms(broyden)= 0.10028E+00
  rms(prec ) = 0.22424E+00
  weight for this iteration     100.00

 eigenvalues of (default mixing * dielectric matrix)
  average eigenvalue GAMMA=   2.6658
  2.6658

 Free energy of the ion-electron system (eV)
  ---------------------------------------------------
  alpha Z        PSCENC =         4.40202223
  Ewald energy   TEWEN  =      -265.18101312
  -Hartree energ DENC   =        -2.33147308
  -exchange      EXHF   =         0.00000000
  -V(xc)+E(xc)   XCENC  =       -17.73143370
  PAW double counting   =        67.61536937      -32.46362022
  entropy T*S    EENTRO =        -0.02679309
  eigenvalues    EBANDS =        29.57777450
  atomic energy  EATOM  =       206.12968587
  Solvation  Ediel_sol  =         0.00000000
  ---------------------------------------------------
  free energy    TOTEN  =       -10.00948123 eV

  energy without entropy =       -9.98268814  energy(sigma->0) =       -9.99608469


--------------------------------------------------------------------------------------------------------




--------------------------------------- Iteration      1(   7)  ---------------------------------------


    POTLOK:  cpu time    0.0160: real time    0.0239
    SETDIJ:  cpu time    0.0080: real time    0.0086
     EDDAV:  cpu time    0.0480: real time    0.0446
       DOS:  cpu time    0.0000: real time    0.0014
    CHARGE:  cpu time    0.0080: real time    0.0087
    MIXING:  cpu time    0.0000: real time    0.0015
    --------------------------------------------
      LOOP:  cpu time    0.0800: real time    0.0884

 eigenvalue-minimisations  :    96
 total energy-change (2. order) : 0.4050891E-02  (-0.6349992E-03)
 number of electron       7.9999991 magnetization 
 augmentation part       -0.4634140 magnetization 

 Broyden mixing:
  rms(total) = 0.36659E-02    rms(broyden)= 0.36655E-02
  rms(prec ) = 0.96337E-02
  weight for this iteration     100.00

 eigenvalues of (default mixing * dielectric matrix)
  average eigenvalue GAMMA=   2.6161
  2.6161  2.6161

 Free energy of the ion-electron system (eV)
  ---------------------------------------------------
  alpha Z        PSCENC =         4.40202223
  Ewald energy   TEWEN  =      -265.18101312
  -Hartree energ DENC   =        -2.48587813
  -exchange      EXHF   =         0.00000000
  -V(xc)+E(xc)   XCENC  =       -17.57064198
  PAW double counting   =        70.24696678      -35.15497570
  entropy T*S    EENTRO =        -0.02677940
  eigenvalues    EBANDS =        29.63518310
  atomic energy  EATOM  =       206.12968587
  Solvation  Ediel_sol  =         0.00000000
  ---------------------------------------------------
  free energy    TOTEN  =       -10.00543034 eV

  energy without entropy =       -9.97865094  energy(sigma->0) =       -9.99204064


--------------------------------------------------------------------------------------------------------




--------------------------------------- Iteration      1(   8)  ---------------------------------------


    POTLOK:  cpu time    0.0200: real time    0.0226
    SETDIJ:  cpu time    0.0080: real time    0.0086
     EDDAV:  cpu time    0.0400: real time    0.0385
       DOS:  cpu time    0.0000: real time    0.0014
    --------------------------------------------
      LOOP:  cpu time    0.0680: real time    0.0710

 eigenvalue-minimisations  :    72
 total energy-change (2. order) : 0.1929676E-04  (-0.1154325E-04)
 number of electron       7.9999991 magnetization 
 augmentation part       -0.4634140 magnetization 

 Free energy of the ion-electron system (eV)
  ---------------------------------------------------
  alpha Z        PSCENC =         4.40202223
  Ewald energy   TEWEN  =      -265.18101312
  -Hartree energ DENC   =        -2.50728367
  -exchange      EXHF   =         0.00000000
  -V(xc)+E(xc)   XCENC  =       -17.57113547
  PAW double counting   =        70.06032437      -34.96926638
  entropy T*S    EENTRO =        -0.02678073
  eigenvalues    EBANDS =        29.65803586
  atomic energy  EATOM  =       206.12968587
  Solvation  Ediel_sol  =         0.00000000
  ---------------------------------------------------
  free energy    TOTEN  =       -10.00541104 eV

  energy without entropy =       -9.97863031  energy(sigma->0) =       -9.99202068


--------------------------------------------------------------------------------------------------------




 average (electrostatic) potential at core
  the test charge radii are     0.9892
  (the norm of the test charge is              1.0000)
       1 -80.5781       2 -80.5781
 
 
 
 E-fermi :   8.7053     XC(G=0): -10.8911     alpha+bet :-15.6819


 k-point     1 :       0.0000    0.0000    0.0000
  band No.  band energies     occupation 
      1      -4.6157      2.00000
      2       6.1753      2.00000
      3       6.2993      2.00000
      4       6.2993      2.00000
      5      10.5337      0.00000
      6      16.7737      0.00000
      7      17.3668      0.00000
      8      17.3668      0.00000

 k-point     2 :       0.3333   -0.0000    0.0000
  band No.  band energies     occupation 
      1      -1.5053      2.00000
      2       5.3542      2.00000
      3       6.7911      2.00000
      4       7.4620      2.00000
      5      10.2600      0.00000
      6      12.6548      0.00000
      7      13.0252      0.00000
      8      14.0084      0.00000

 k-point     3 :       0.3333    0.3333    0.0000
  band No.  band energies     occupation 
      1       1.0439      2.00000
      2       1.0624      2.00000
      3       6.2715      2.00000
      4       8.2327      1.99917
      5       8.8005      0.50083
      6      10.9391      0.00000
      7      15.4664      0.00000
      8      16.5058      0.00000

 k-point     4 :      -0.3333    0.3333    0.0000
  band No.  band energies     occupation 
      1      -3.2977      2.00000
      2       0.5678      2.00000
      3       7.5236      2.00000
      4       9.3543      0.00000
      5      11.1714      0.00000
      6      13.0672      0.00000
      7      16.4311      0.00000
      8      18.9247      0.00000

 k-point     5 :      -0.3333    0.3333    0.3333
  band No.  band energies     occupation 
      1      -2.0117      2.00000
      2       1.1080      2.00000
      3       2.8931      2.00000
      4       5.9417      2.00000
      5      15.1527      0.00000
      6      16.7305      0.00000
      7      18.0715      0.00000
      8      18.9314      0.00000

 k-point     6 :      -0.3333   -0.3333    0.3333
  band No.  band energies     occupation 
      1       2.7751      2.00000
      2       2.8704      2.00000
      3       4.5982      2.00000
      4       4.5982      2.00000
      5       5.1702      2.00000
      6      15.1422      0.00000
      7      15.9283      0.00000
      8      15.9283      0.00000


--------------------------------------------------------------------------------------------------------


 soft charge-density along one line, spin component           1
         0         1         2         3         4         5         6         7         8         9
 total charge-density along one line
 
 pseudopotential strength for first ion, spin component:           1
 18.067  -0.003   0.000  -0.000  -0.000  -0.000   0.000   0.000
 -0.003   0.005  -0.000   0.000   0.000   0.000  -0.000  -0.000
  0.000  -0.000   4.116   0.000   0.000  -0.006  -0.000  -0.000
 -0.000   0.000   0.000   4.117   0.000  -0.000  -0.006  -0.000
 -0.000   0.000   0.000   0.000   4.116  -0.000  -0.000  -0.006
 -0.000   0.000  -0.006  -0.000  -0.000   0.005   0.000   0.000
  0.000  -0.000  -0.000  -0.006  -0.000   0.000   0.005   0.000
  0.000  -0.000  -0.000  -0.000  -0.006   0.000   0.000   0.005
 total augmentation occupancy for first ion, spin component:           1
  1.563  -0.534   0.000   0.000   0.000  -0.000   0.000   0.000
 -0.534   0.842   0.000   0.000   0.000  -0.000   0.000  -0.000
  0.000   0.000   0.899   0.000  -0.000  -0.489  -0.000   0.000
  0.000   0.000  -0.000   0.918   0.000   0.000  -0.515   0.000
  0.000   0.000  -0.000   0.000   0.899   0.000   0.000  -0.489
  0.000   0.000  -0.489  -0.000   0.000   0.347  -0.000  -0.000
  0.000   0.000  -0.000  -0.515   0.000   0.000   0.381  -0.000
  0.000  -0.000   0.000   0.000  -0.489  -0.000  -0.000   0.347


------------------------ aborting loop because EDIFF is reached ----------------------------------------


    CHARGE:  cpu time    0.0120: real time    0.0134
    FORLOC:  cpu time    0.0000: real time    0.0006
    FORNL :  cpu time    0.0080: real time    0.0076
    STRESS:  cpu time    0.0360: real time    0.0360
    FORCOR:  cpu time    0.0160: real time    0.0132
    FORHAR:  cpu time    0.0000: real time    0.0034
    MIXING:  cpu time    0.0040: real time    0.0012
    OFIELD:  cpu time    0.0000: real time    0.0004

  FORCE on cell =-STRESS in cart. coord.  units (eV):
  Direction    XX          YY          ZZ          XY          YZ          ZX
  --------------------------------------------------------------------------------------
  Alpha Z     4.40202     4.40202     4.40202
  Ewald     -90.96023   -90.96023   -83.26083    -0.00000     0.00000     0.00000
  Hartree     0.56156     0.56156     1.38783    -0.00000    -0.00000    -0.00000
  E(xc)     -25.40953   -25.40953   -25.34131     0.00001     0.00000     0.00000
  Local     -11.19194   -11.19194   -17.03190    -0.00006    -0.00003    -0.00003
  n-local    76.93367    75.44675    75.05090     2.29808    -0.95956    -1.15119
  augment   -11.78429   -11.78429   -11.81609     0.00003     0.00003     0.00003
  Kinetic    58.62170    53.27231    60.33799     3.03336     1.25903    -0.67110
  Fock        0.00000     0.00000     0.00000     0.00000     0.00000     0.00000
  -------------------------------------------------------------------------------------
  Total      -2.24519    -2.24519     3.72861    -0.00000    -0.00000     0.00000
  in kB    -117.59853  -117.59853   195.29693    -0.00000    -0.00000     0.00000
  external pressure =      -13.30 kB  Pullay stress =        0.00 kB


 VOLUME and BASIS-vectors are now :
 -----------------------------------------------------------------------------
  energy-cutoff  :      300.00
  volume of cell :       30.59
      direct lattice vectors                 reciprocal lattice vectors
    -2.450000000  2.450000000  1.274000000     0.000000000  0.204081633  0.392464678
     2.450000000 -2.450000000  1.274000000     0.204081633  0.000000000  0.392464678
     2.450000000  2.450000000 -1.274000000     0.204081633  0.204081633 -0.000000000

  length of vectors
     3.691622408  3.691622408  3.691622408     0.442354876  0.442354876  0.288615013


 FORCES acting on ions
    electron-ion (+dipol)            ewald-force                    non-local-force                 convergence-correction
 -----------------------------------------------------------------------------------------------
   0.270E-06 -.270E-06 -.178E-13   0.198E-14 0.156E-15 0.342E-17   0.119E-16 -.722E-17 -.155E-16   -.804E-08 0.804E-08 0.346E-16
   -.270E-06 0.270E-06 -.554E-14   -.185E-14 0.943E-16 0.891E-15   -.599E-17 0.789E-17 0.186E-16   0.804E-08 -.804E-08 0.250E-15
 -----------------------------------------------------------------------------------------------
   0.761E-14 0.762E-14 -.233E-13   0.139E-15 0.250E-15 0.894E-15   0.587E-17 0.661E-18 0.316E-17   -.274E-15 -.112E-15 0.284E-15
 
 
 POSITION                                       TOTAL-FORCE (eV/Angst)
 -----------------------------------------------------------------------------------
      2.45000      0.00000      0.63700        -0.000000      0.000000     -0.000000
      0.00000      0.00000      0.00000         0.000000     -0.000000      0.000000
 -----------------------------------------------------------------------------------
    total drift:                                0.000000      0.000000     -0.000000


--------------------------------------------------------------------------------------------------------



  FREE ENERGIE OF THE ION-ELECTRON SYSTEM (eV)
  ---------------------------------------------------
  free  energy   TOTEN  =       -10.00541104 eV

  energy  without entropy=       -9.97863031  energy(sigma->0) =       -9.99202068
 


--------------------------------------------------------------------------------------------------------


    POTLOK:  cpu time    0.0280: real time    0.0390


--------------------------------------------------------------------------------------------------------




--------------------------------------------------------------------------------------------------------


    WAVPRE:  cpu time    0.5720: real time    1.0655
    FEWALD:  cpu time    0.0000: real time    0.0008
    GENKIN:  cpu time    0.0040: real time    0.0025
    ORTHCH:  cpu time    0.0040: real time    0.0042
     LOOP+:  cpu time    1.3760: real time    1.9987


--------------------------------------- Iteration      2(   1)  ---------------------------------------


    POTLOK:  cpu time    0.0200: real time    0.0260
    SETDIJ:  cpu time    0.0080: real time    0.0086
     EDDAV:  cpu time    0.0720: real time    0.0746
       DOS:  cpu time    0.0040: real time    0.0014
    CHARGE:  cpu time    0.0080: real time    0.0087
    MIXING:  cpu time    0.0000: real time    0.0014
    --------------------------------------------
      LOOP:  cpu time    0.1120: real time    0.1214

 eigenvalue-minimisations  :   152
 total energy-change (2. order) :-0.2704465E+00  (-0.1371848E+01)
 number of electron       8.0000006 magnetization 
 augmentation part       -0.4660493 magnetization 

 Broyden mixing:
  rms(total) = 0.21287E+00    rms(broyden)= 0.21287E+00
  rms(prec ) = 0.67629E+00
  weight for this iteration     100.00

 Free energy of the ion-electron system (eV)
  ---------------------------------------------------
  alpha Z        PSCENC =         4.51452343
  Ewald energy   TEWEN  =      -267.07955965
  -Hartree energ DENC   =        -2.45607651
  -exchange      EXHF   =         0.00000000
  -V(xc)+E(xc)   XCENC  =       -17.45325504
  PAW double counting   =        70.06290722      -34.97216361
  entropy T*S    EENTRO =        -0.02663294
  eigenvalues    EBANDS =        31.00469436
  atomic energy  EATOM  =       206.12968587
  Solvation  Ediel_sol  =         0.00000000
  ---------------------------------------------------
  free energy    TOTEN  =       -10.27587685 eV

  energy without entropy =      -10.24924391  energy(sigma->0) =      -10.26256038


--------------------------------------------------------------------------------------------------------




--------------------------------------- Iteration      2(   2)  ---------------------------------------


    POTLOK:  cpu time    0.0200: real time    0.0234
    SETDIJ:  cpu time    0.0080: real time    0.0085
     EDDAV:  cpu time    0.0440: real time    0.0429
       DOS:  cpu time    0.0000: real time    0.0014
    CHARGE:  cpu time    0.0080: real time    0.0082
    MIXING:  cpu time    0.0000: real time    0.0013
    --------------------------------------------
      LOOP:  cpu time    0.0800: real time    0.0856

 eigenvalue-minimisations  :   104
 total energy-change (2. order) : 0.1257425E+00  (-0.2795188E-01)
 number of electron       8.0000006 magnetization 
 augmentation part       -0.4661100 magnetization 

 Broyden mixing:
  rms(total) = 0.12163E+00    rms(broyden)= 0.12163E+00
  rms(prec ) = 0.38556E+00
  weight for this iteration     100.00

 eigenvalues of (default mixing * dielectric matrix)
  average eigenvalue GAMMA=   2.3254
  2.3254

 Free energy of the ion-electron system (eV)
  ---------------------------------------------------
  alpha Z        PSCENC =         4.51452343
  Ewald energy   TEWEN  =      -267.07955965
  -Hartree energ DENC   =        -2.47832822
  -exchange      EXHF   =         0.00000000
  -V(xc)+E(xc)   XCENC  =       -17.43361759
  PAW double counting   =        70.92209227      -35.85474770
  entropy T*S    EENTRO =        -0.02663488
  eigenvalues    EBANDS =        31.15645213
  atomic energy  EATOM  =       206.12968587
  Solvation  Ediel_sol  =         0.00000000
  ---------------------------------------------------
  free energy    TOTEN  =       -10.15013433 eV

  energy without entropy =      -10.12349945  energy(sigma->0) =      -10.13681689


--------------------------------------------------------------------------------------------------------




--------------------------------------- Iteration      2(   3)  ---------------------------------------


    POTLOK:  cpu time    0.0200: real time    0.0220
    SETDIJ:  cpu time    0.0080: real time    0.0084
     EDDAV:  cpu time    0.0640: real time    0.0642
       DOS:  cpu time    0.0000: real time    0.0014
    CHARGE:  cpu time    0.0080: real time    0.0081
    MIXING:  cpu time    0.0000: real time    0.0014
    --------------------------------------------
      LOOP:  cpu time    0.1000: real time    0.1056

 eigenvalue-minimisations  :   152
 total energy-change (2. order) : 0.6432279E-01  (-0.1721674E-01)
 number of electron       8.0000006 magnetization 
 augmentation part       -0.4649120 magnetization 

 Broyden mixing:
  rms(total) = 0.11557E-01    rms(broyden)= 0.11557E-01
  rms(prec ) = 0.29456E-01
  weight for this iteration     100.00

 eigenvalues of (default mixing * dielectric matrix)
  average eigenvalue GAMMA=   1.4033
  2.2875  0.5191

 Free energy of the ion-electron system (eV)
  ---------------------------------------------------
  alpha Z        PSCENC =         4.51452343
  Ewald energy   TEWEN  =      -267.07955965
  -Hartree energ DENC   =        -2.70392737
  -exchange      EXHF   =         0.00000000
  -V(xc)+E(xc)   XCENC  =       -17.38488017
  PAW double counting   =        71.94505673      -36.90717865
  entropy T*S    EENTRO =        -0.02664624
  eigenvalues    EBANDS =        31.42711450
  atomic energy  EATOM  =       206.12968587
  Solvation  Ediel_sol  =         0.00000000
  ---------------------------------------------------
  free energy    TOTEN  =       -10.08581154 eV

  energy without entropy =      -10.05916530  energy(sigma->0) =      -10.07248842


--------------------------------------------------------------------------------------------------------




--------------------------------------- Iteration      2(   4)  ---------------------------------------


    POTLOK:  cpu time    0.0200: real time    0.0224
    SETDIJ:  cpu time    0.0080: real time    0.0084
     EDDAV:  cpu time    0.0400: real time    0.0406
       DOS:  cpu time    0.0000: real time    0.0015
    CHARGE:  cpu time    0.0080: real time    0.0082
    MIXING:  cpu time    0.0000: real time    0.0014
    --------------------------------------------
      LOOP:  cpu time    0.0760: real time    0.0825

 eigenvalue-minimisations  :    96
 total energy-change (2. order) :-0.3273222E-03  (-0.5131501E-03)
 number of electron       8.0000006 magnetization 
 augmentation part       -0.4649751 magnetization 

 Broyden mixing:
  rms(total) = 0.97215E-02    rms(broyden)= 0.97215E-02
  rms(prec ) = 0.22341E-01
  weight for this iteration     100.00

 eigenvalues of (default mixing * dielectric matrix)
  average eigenvalue GAMMA=   1.7470
  2.3802  1.4304  1.4304

 Free energy of the ion-electron system (eV)
  ---------------------------------------------------
  alpha Z        PSCENC =         4.51452343
  Ewald energy   TEWEN  =      -267.07955965
  -Hartree energ DENC   =        -2.68797703
  -exchange      EXHF   =         0.00000000
  -V(xc)+E(xc)   XCENC  =       -17.38688948
  PAW double counting   =        71.89684023      -36.85748406
  entropy T*S    EENTRO =        -0.02664582
  eigenvalues    EBANDS =        31.41136764
  atomic energy  EATOM  =       206.12968587
  Solvation  Ediel_sol  =         0.00000000
  ---------------------------------------------------
  free energy    TOTEN  =       -10.08613886 eV

  energy without entropy =      -10.05949305  energy(sigma->0) =      -10.07281596


--------------------------------------------------------------------------------------------------------




--------------------------------------- Iteration      2(   5)  ---------------------------------------


    POTLOK:  cpu time    0.0200: real time    0.0226
    SETDIJ:  cpu time    0.0080: real time    0.0084
     EDDAV:  cpu time    0.0240: real time    0.0244
       DOS:  cpu time    0.0000: real time    0.0013
    --------------------------------------------
      LOOP:  cpu time    0.0520: real time    0.0567

 eigenvalue-minimisations  :    48
 total energy-change (2. order) : 0.1735721E-04  (-0.1223410E-04)
 number of electron       8.0000006 magnetization 
 augmentation part       -0.4649751 magnetization 

 Free energy of the ion-electron system (eV)
  ---------------------------------------------------
  alpha Z        PSCENC =         4.51452343
  Ewald energy   TEWEN  =      -267.07955965
  -Hartree energ DENC   =        -2.66594368
  -exchange      EXHF   =         0.00000000
  -V(xc)+E(xc)   XCENC  =       -17.38798554
  PAW double counting   =        71.86274182      -36.82176009
  entropy T*S    EENTRO =        -0.02664577
  eigenvalues    EBANDS =        31.38882210
  atomic energy  EATOM  =       206.12968587
  Solvation  Ediel_sol  =         0.00000000
  ---------------------------------------------------
  free energy    TOTEN  =       -10.08612151 eV

  energy without entropy =      -10.05947574  energy(sigma->0) =      -10.07279862


--------------------------------------------------------------------------------------------------------




 average (electrostatic) potential at core
  the test charge radii are     0.9892
  (the norm of the test charge is              1.0000)
       1 -80.1477       2 -80.1477
 
 
 
 E-fermi :   9.6221     XC(G=0): -10.9799     alpha+bet :-16.0827


 k-point     1 :       0.0000    0.0000    0.0000
  band No.  band energies     occupation 
      1      -4.4994      2.00000
      2       7.3468      2.00000
      3       7.3468      2.00000
      4       8.7090      2.00000
      5      11.2208      0.00000
      6      16.2579      0.00000
      7      18.6998      0.00000
      8      18.6998      0.00000

 k-point     2 :       0.3333   -0.0000    0.0000
  band No.  band energies     occupation 
      1      -1.7254      2.00000
      2       5.7504      2.00000
      3       6.9256      2.00000
      4       7.2415      2.00000
      5      10.1723      0.00010
      6      11.9065      0.00000
      7      14.2353      0.00000
      8      15.2374      0.00000

 k-point     3 :       0.3333    0.3333    0.0000
  band No.  band energies     occupation 
      1       1.0917      2.00000
      2       1.1869      2.00000
      3       5.1934      2.00000
      4       8.4178      2.00000
      5       9.7175      0.49990
      6      11.0283      0.00000
      7      16.8504      0.00000
      8      17.1722      0.00000

 k-point     4 :      -0.3333    0.3333    0.0000
  band No.  band energies     occupation 
      1      -3.0154      2.00000
      2       1.3462      2.00000
      3       8.6371      2.00000
      4      11.2534      0.00000
      5      12.3123      0.00000
      6      15.2537      0.00000
      7      16.3885      0.00000
      8      17.1306      0.00000

 k-point     5 :      -0.3333    0.3333    0.3333
  band No.  band energies     occupation 
      1      -1.5527      2.00000
      2       2.3031      2.00000
      3       3.3314      2.00000
      4       7.0480      2.00000
      5      13.9795      0.00000
      6      14.1775      0.00000
      7      19.1149      0.00000
      8      20.2612      0.00000

 k-point     6 :      -0.3333   -0.3333    0.3333
  band No.  band energies     occupation 
      1       2.6391      2.00000
      2       3.6439      2.00000
      3       4.5393      2.00000
      4       4.5393      2.00000
      5       4.8202      2.00000
      6      15.8283      0.00000
      7      15.8283      0.00000
      8      16.0758      0.00000


--------------------------------------------------------------------------------------------------------


 soft charge-density along one line, spin component           1
         0         1         2         3         4         5         6         7         8         9
 total charge-density along one line
 
 pseudopotential strength for first ion, spin component:           1
 18.028  -0.003  -0.000  -0.000   0.000   0.000   0.000  -0.000
 -0.003   0.005   0.000   0.000  -0.000  -0.000  -0.000   0.000
 -0.000   0.000   4.114   0.000   0.000  -0.006  -0.000  -0.000
 -0.000   0.000   0.000   4.115   0.000  -0.000  -0.006  -0.000
  0.000  -0.000   0.000   0.000   4.114  -0.000  -0.000  -0.006
  0.000  -0.000  -0.006  -0.000  -0.000   0.005   0.000   0.000
  0.000  -0.000  -0.000  -0.006  -0.000   0.000   0.005   0.000
 -0.000   0.000  -0.000  -0.000  -0.006   0.000   0.000   0.005
 total augmentation occupancy for first ion, spin component:           1
  1.555  -0.625   0.000   0.000   0.000   0.000   0.000   0.000
 -0.625   0.928   0.000   0.000   0.000   0.000   0.000   0.000
  0.000   0.000   1.012   0.000   0.000  -0.570  -0.000   0.000
  0.000   0.000  -0.000   0.803  -0.000   0.000  -0.485   0.000
  0.000   0.000   0.000  -0.000   1.012   0.000   0.000  -0.570
  0.000   0.000  -0.570  -0.000   0.000   0.424   0.000  -0.000
  0.000   0.000   0.000  -0.485   0.000  -0.000   0.361  -0.000
  0.000   0.000   0.000   0.000  -0.570  -0.000  -0.000   0.424


------------------------ aborting loop because EDIFF is reached ----------------------------------------


    CHARGE:  cpu time    0.0080: real time    0.0079
    FORLOC:  cpu time    0.0000: real time    0.0004
    FORNL :  cpu time    0.0080: real time    0.0068
    STRESS:  cpu time    0.0320: real time    0.0337
    FORCOR:  cpu time    0.0160: real time    0.0125
    FORHAR:  cpu time    0.0000: real time    0.0030
    MIXING:  cpu time    0.0040: real time    0.0011
    OFIELD:  cpu time    0.0000: real time    0.0004

  FORCE on cell =-STRESS in cart. coord.  units (eV):
  Direction    XX          YY          ZZ          XY          YZ          ZX
  --------------------------------------------------------------------------------------
  Alpha Z     4.51452     4.51452     4.51452
  Ewald     -84.39023   -84.39023   -98.29927    -0.00000     0.00000    -0.00000
  Hartree     1.15300     1.15300     0.34199    -0.00000    -0.00000    -0.00000
  E(xc)     -25.73703   -25.73703   -25.49972     0.00001     0.00000     0.00000
  Local     -18.85588   -18.85588    -2.14148    -0.00005    -0.00003    -0.00003
  n-local    79.09382    77.92103    73.75943     2.66152    -1.40332    -1.31747
  augment   -12.00692   -12.00692   -11.46427     0.00003     0.00002     0.00002
  Kinetic    61.89631    56.00444    57.17306     3.16960     0.58077    -1.25854
  Fock        0.00000     0.00000     0.00000     0.00000     0.00000     0.00000
  -------------------------------------------------------------------------------------
  Total       2.13527     2.13527    -1.61573     0.00000     0.00000     0.00000
  in kB     114.69927   114.69927   -86.79167     0.00000     0.00000     0.00000
  external pressure =       47.54 kB  Pullay stress =        0.00 kB


 VOLUME and BASIS-vectors are now :
 -----------------------------------------------------------------------------
  energy-cutoff  :      300.00
  volume of cell :       29.83
      direct lattice vectors                 reciprocal lattice vectors
    -2.317315500  2.317315500  1.388582169     0.000000000  0.215766908  0.360079519
     2.317315500 -2.317315500  1.388582169     0.215766908  0.000000000  0.360079519
     2.317315500  2.317315500 -1.388582169     0.215766908  0.215766908  0.000000000

  length of vectors
     3.559222203  3.559222203  3.559222203     0.419776868  0.419776868  0.305140487


 FORCES acting on ions
    electron-ion (+dipol)            ewald-force                    non-local-force                 convergence-correction
 -----------------------------------------------------------------------------------------------
   -.571E-07 0.571E-07 -.297E-13   -.204E-13 0.208E-14 -.907E-14   0.117E-15 -.560E-16 0.113E-16   0.276E-07 -.276E-07 0.307E-15
   0.571E-07 -.571E-07 0.436E-14   0.204E-13 -.206E-14 0.955E-14   -.106E-15 0.601E-16 -.674E-17   -.276E-07 0.276E-07 -.446E-15
 -----------------------------------------------------------------------------------------------
   0.144E-13 0.837E-14 -.254E-13   0.175E-16 0.175E-16 0.476E-15   0.110E-16 0.407E-17 0.458E-17   0.128E-15 -.125E-15 -.140E-15
 
 
 POSITION                                       TOTAL-FORCE (eV/Angst)
 -----------------------------------------------------------------------------------
      2.31732     -0.00000      0.69429         0.000000     -0.000000     -0.000000
      0.00000     -0.00000      0.00000        -0.000000      0.000000      0.000000
 -----------------------------------------------------------------------------------
    total drift:                                0.000000      0.000000     -0.000000


--------------------------------------------------------------------------------------------------------



  FREE ENERGIE OF THE ION-ELECTRON SYSTEM (eV)
  ---------------------------------------------------
  free  energy   TOTEN  =       -10.08612151 eV

  energy  without entropy=      -10.05947574  energy(sigma->0) =      -10.07279862
 
 d Force = 0.0000000E+00[ 0.000E+00, 0.000E+00]  d Energy = 0.8071046E-01-0.807E-01
 d Force = 0.0000000E+00[ 0.000E+00, 0.000E+00]  d Ewald  = 0.1898547E+01-0.190E+01


--------------------------------------------------------------------------------------------------------


    POTLOK:  cpu time    0.0280: real time    0.0374


--------------------------------------------------------------------------------------------------------


 Steepest descent step on ions:
 trial-energy change:   -0.080710  1 .order   -0.100968   -0.578532    0.376596
  (g-gl).g = 0.579E+00      g.g   = 0.579E+00  gl.gl    = 0.000E+00
 g(Force)  = 0.383E-47   g(Stress)= 0.579E+00 ortho     = 0.000E+00
 gamma     =   0.00000
 trial     =   1.00000
 opt step  =   0.57461  (harmonic =   0.60571) maximal distance =0.00000000
 next E    =   -10.167782   (d E  =  -0.16237)


--------------------------------------------------------------------------------------------------------


    WAVPRE:  cpu time    0.0080: real time    0.0208
    FEWALD:  cpu time    0.0000: real time    0.0006
    GENKIN:  cpu time    0.0040: real time    0.0017
    ORTHCH:  cpu time    0.0040: real time    0.0050
     LOOP+:  cpu time    0.5640: real time    0.6502


--------------------------------------- Iteration      3(   1)  ---------------------------------------


    POTLOK:  cpu time    0.0200: real time    0.0236
    SETDIJ:  cpu time    0.0080: real time    0.0084
     EDDAV:  cpu time    0.0600: real time    0.0610
       DOS:  cpu time    0.0000: real time    0.0014
    CHARGE:  cpu time    0.0080: real time    0.0082
    MIXING:  cpu time    0.0000: real time    0.0012
    --------------------------------------------
      LOOP:  cpu time    0.0960: real time    0.1045

 eigenvalue-minimisations  :   144
 total energy-change (2. order) :-0.1091302E+00  (-0.2317864E+00)
 number of electron       7.9999995 magnetization 
 augmentation part       -0.4623756 magnetization 

 Broyden mixing:
  rms(total) = 0.85678E-01    rms(broyden)= 0.85677E-01
  rms(prec ) = 0.26607E+00
  weight for this iteration     100.00

 Free energy of the ion-electron system (eV)
  ---------------------------------------------------
  alpha Z        PSCENC =         4.45890155
  Ewald energy   TEWEN  =      -266.36854651
  -Hartree energ DENC   =        -2.60757536
  -exchange      EXHF   =         0.00000000
  -V(xc)+E(xc)   XCENC  =       -17.45496866
  PAW double counting   =        71.83008725      -36.78803073
  entropy T*S    EENTRO =        -0.02663135
  eigenvalues    EBANDS =        30.63180888
  atomic energy  EATOM  =       206.12968587
  Solvation  Ediel_sol  =         0.00000000
  ---------------------------------------------------
  free energy    TOTEN  =       -10.19526906 eV

  energy without entropy =      -10.16863771  energy(sigma->0) =      -10.18195339


--------------------------------------------------------------------------------------------------------




--------------------------------------- Iteration      3(   2)  ---------------------------------------


    POTLOK:  cpu time    0.0200: real time    0.0234
    SETDIJ:  cpu time    0.0080: real time    0.0084
     EDDAV:  cpu time    0.0440: real time    0.0461
       DOS:  cpu time    0.0040: real time    0.0013
    CHARGE:  cpu time    0.0080: real time    0.0082
    MIXING:  cpu time    0.0000: real time    0.0013
    --------------------------------------------
      LOOP:  cpu time    0.0840: real time    0.0887

 eigenvalue-minimisations  :   112
 total energy-change (2. order) : 0.1855218E-01  (-0.4697955E-02)
 number of electron       7.9999995 magnetization 
 augmentation part       -0.4636172 magnetization 

 Broyden mixing:
  rms(total) = 0.49218E-01    rms(broyden)= 0.49217E-01
  rms(prec ) = 0.15246E+00
  weight for this iteration     100.00

 eigenvalues of (default mixing * dielectric matrix)
  average eigenvalue GAMMA=   2.3357
  2.3357

 Free energy of the ion-electron system (eV)
  ---------------------------------------------------
  alpha Z        PSCENC =         4.45890155
  Ewald energy   TEWEN  =      -266.36854651
  -Hartree energ DENC   =        -2.52586333
  -exchange      EXHF   =         0.00000000
  -V(xc)+E(xc)   XCENC  =       -17.47072368
  PAW double counting   =        71.37573828      -36.32080946
  entropy T*S    EENTRO =        -0.02663135
  eigenvalues    EBANDS =        30.57153175
  atomic energy  EATOM  =       206.12968587
  Solvation  Ediel_sol  =         0.00000000
  ---------------------------------------------------
  free energy    TOTEN  =       -10.17671688 eV

  energy without entropy =      -10.15008553  energy(sigma->0) =      -10.16340120


--------------------------------------------------------------------------------------------------------




--------------------------------------- Iteration      3(   3)  ---------------------------------------


    POTLOK:  cpu time    0.0160: real time    0.0229
    SETDIJ:  cpu time    0.0120: real time    0.0084
     EDDAV:  cpu time    0.0560: real time    0.0561
       DOS:  cpu time    0.0000: real time    0.0014
    CHARGE:  cpu time    0.0080: real time    0.0082
    MIXING:  cpu time    0.0000: real time    0.0014
    --------------------------------------------
      LOOP:  cpu time    0.0920: real time    0.0984

 eigenvalue-minimisations  :   136
 total energy-change (2. order) : 0.1023866E-01  (-0.2746754E-02)
 number of electron       7.9999995 magnetization 
 augmentation part       -0.4636571 magnetization 

 Broyden mixing:
  rms(total) = 0.47720E-02    rms(broyden)= 0.47719E-02
  rms(prec ) = 0.11874E-01
  weight for this iteration     100.00

 eigenvalues of (default mixing * dielectric matrix)
  average eigenvalue GAMMA=   1.4656
  0.6535  2.2778

 Free energy of the ion-electron system (eV)
  ---------------------------------------------------
  alpha Z        PSCENC =         4.45890155
  Ewald energy   TEWEN  =      -266.36854651
  -Hartree energ DENC   =        -2.46042074
  -exchange      EXHF   =         0.00000000
  -V(xc)+E(xc)   XCENC  =       -17.48833287
  PAW double counting   =        70.81497807      -35.74551501
  entropy T*S    EENTRO =        -0.02663135
  eigenvalues    EBANDS =        30.51940277
  atomic energy  EATOM  =       206.12968587
  Solvation  Ediel_sol  =         0.00000000
  ---------------------------------------------------
  free energy    TOTEN  =       -10.16647822 eV

  energy without entropy =      -10.13984687  energy(sigma->0) =      -10.15316254


--------------------------------------------------------------------------------------------------------




--------------------------------------- Iteration      3(   4)  ---------------------------------------


    POTLOK:  cpu time    0.0200: real time    0.0230
    SETDIJ:  cpu time    0.0080: real time    0.0085
     EDDAV:  cpu time    0.0360: real time    0.0372
       DOS:  cpu time    0.0000: real time    0.0013
    --------------------------------------------
      LOOP:  cpu time    0.0640: real time    0.0699

 eigenvalue-minimisations  :    88
 total energy-change (2. order) :-0.5399368E-04  (-0.9728898E-04)
 number of electron       7.9999995 magnetization 
 augmentation part       -0.4636571 magnetization 

 Free energy of the ion-electron system (eV)
  ---------------------------------------------------
  alpha Z        PSCENC =         4.45890155
  Ewald energy   TEWEN  =      -266.36854651
  -Hartree energ DENC   =        -2.46613249
  -exchange      EXHF   =         0.00000000
  -V(xc)+E(xc)   XCENC  =       -17.48760188
  PAW double counting   =        70.83155545      -35.76249687
  entropy T*S    EENTRO =        -0.02663135
  eigenvalues    EBANDS =        30.52473401
  atomic energy  EATOM  =       206.12968587
  Solvation  Ediel_sol  =         0.00000000
  ---------------------------------------------------
  free energy    TOTEN  =       -10.16653221 eV

  energy without entropy =      -10.13990086  energy(sigma->0) =      -10.15321654


--------------------------------------------------------------------------------------------------------




 average (electrostatic) potential at core
  the test charge radii are     0.9892
  (the norm of the test charge is              1.0000)
       1 -80.3696       2 -80.3696
 
 
 
 E-fermi :   9.1897     XC(G=0): -10.9408     alpha+bet :-15.8845


 k-point     1 :       0.0000    0.0000    0.0000
  band No.  band energies     occupation 
      1      -4.5455      2.00000
      2       6.8841      2.00000
      3       6.8841      2.00000
      4       7.6018      2.00000
      5      10.9038      0.00000
      6      16.7137      0.00000
      7      18.3760      0.00000
      8      18.3760      0.00000

 k-point     2 :       0.3333   -0.0000    0.0000
  band No.  band energies     occupation 
      1      -1.6401      2.00000
      2       5.7168      2.00000
      3       6.8472      2.00000
      4       7.1418      2.00000
      5      10.1705      0.00000
      6      12.1529      0.00000
      7      13.7584      0.00000
      8      14.6115      0.00000

 k-point     3 :       0.3333    0.3333    0.0000
  band No.  band energies     occupation 
      1       1.0698      2.00000
      2       1.1249      2.00000
      3       5.5968      2.00000
      4       8.3519      2.00000
      5       9.2851      0.50000
      6      10.8896      0.00000
      7      16.2217      0.00000
      8      16.9553      0.00000

 k-point     4 :      -0.3333    0.3333    0.0000
  band No.  band energies     occupation 
      1      -3.1336      2.00000
      2       1.0155      2.00000
      3       8.1549      2.00000
      4      10.4178      0.00000
      5      11.8856      0.00000
      6      14.2929      0.00000
      7      17.0607      0.00000
      8      17.3245      0.00000

 k-point     5 :      -0.3333    0.3333    0.3333
  band No.  band energies     occupation 
      1      -1.7462      2.00000
      2       1.7890      2.00000
      3       3.1303      2.00000
      4       6.5612      2.00000
      5      14.8299      0.00000
      6      15.2086      0.00000
      7      18.1758      0.00000
      8      19.7566      0.00000

 k-point     6 :      -0.3333   -0.3333    0.3333
  band No.  band energies     occupation 
      1       2.8229      2.00000
      2       3.2963      2.00000
      3       4.5369      2.00000
      4       4.5369      2.00000
      5       4.7727      2.00000
      6      15.6312      0.00000
      7      15.7909      0.00000
      8      15.7909      0.00000


--------------------------------------------------------------------------------------------------------


 soft charge-density along one line, spin component           1
         0         1         2         3         4         5         6         7         8         9
 total charge-density along one line
 
 pseudopotential strength for first ion, spin component:           1
 18.048  -0.003   0.000  -0.000  -0.000  -0.000   0.000   0.000
 -0.003   0.005  -0.000   0.000   0.000   0.000  -0.000  -0.000
  0.000  -0.000   4.115   0.000   0.000  -0.006  -0.000  -0.000
 -0.000   0.000   0.000   4.116   0.000  -0.000  -0.006  -0.000
 -0.000   0.000   0.000   0.000   4.115  -0.000  -0.000  -0.006
 -0.000   0.000  -0.006  -0.000  -0.000   0.005   0.000   0.000
  0.000  -0.000  -0.000  -0.006  -0.000   0.000   0.005   0.000
  0.000  -0.000  -0.000  -0.000  -0.006   0.000   0.000   0.005
 total augmentation occupancy for first ion, spin component:           1
  1.557  -0.576   0.000   0.000   0.000   0.000   0.000   0.000
 -0.576   0.857   0.000   0.000   0.000   0.000   0.000   0.000
  0.000   0.000   0.963   0.000   0.000  -0.536   0.000   0.000
  0.000   0.000   0.000   0.844   0.000  -0.000  -0.482   0.000
  0.000   0.000   0.000   0.000   0.963   0.000   0.000  -0.536
 -0.000  -0.000  -0.536  -0.000   0.000   0.392  -0.000   0.000
  0.000   0.000  -0.000  -0.482   0.000  -0.000   0.345   0.000
 -0.000   0.000   0.000   0.000  -0.536   0.000   0.000   0.392


------------------------ aborting loop because EDIFF is reached ----------------------------------------


    CHARGE:  cpu time    0.0080: real time    0.0078
    FORLOC:  cpu time    0.0000: real time    0.0004
    FORNL :  cpu time    0.0080: real time    0.0068
    STRESS:  cpu time    0.0320: real time    0.0339
    FORCOR:  cpu time    0.0120: real time    0.0126
    FORHAR:  cpu time    0.0040: real time    0.0031
    MIXING:  cpu time    0.0040: real time    0.0010
    OFIELD:  cpu time    0.0000: real time    0.0004

  FORCE on cell =-STRESS in cart. coord.  units (eV):
  Direction    XX          YY          ZZ          XY          YZ          ZX
  --------------------------------------------------------------------------------------
  Alpha Z     4.45890     4.45890     4.45890
  Ewald     -86.94353   -86.94353   -92.48171     0.00000     0.00000     0.00000
  Hartree     0.87385     0.87385     0.72804    -0.00000    -0.00000    -0.00000
  E(xc)     -25.56180   -25.56180   -25.37696     0.00001     0.00000     0.00000
  Local     -15.71066   -15.71066    -7.73014    -0.00005    -0.00003    -0.00003
  n-local    78.07627    76.74243    73.99271     2.56284    -1.29061    -1.30809
  augment   -11.90776   -11.90776   -11.58774     0.00003     0.00003     0.00003
  Kinetic    60.35717    54.67516    58.20950     3.13265     0.87103    -1.00649
  Fock        0.00000     0.00000     0.00000     0.00000     0.00000     0.00000
  -------------------------------------------------------------------------------------
  Total       0.13453     0.13453     0.21261     0.00000     0.00000    -0.00000
  in kB       7.13731     7.13731    11.28015     0.00000     0.00000    -0.00000
  external pressure =        8.52 kB  Pullay stress =        0.00 kB


 VOLUME and BASIS-vectors are now :
 -----------------------------------------------------------------------------
  energy-cutoff  :      300.00
  volume of cell :       30.20
      direct lattice vectors                 reciprocal lattice vectors
    -2.373758688  2.373758688  1.339839604    -0.000000000  0.210636407  0.373178997
     2.373758688 -2.373758688  1.339839604     0.210636407 -0.000000000  0.373178997
     2.373758688  2.373758688 -1.339839604     0.210636407  0.210636407  0.000000000

  length of vectors
     3.614502840  3.614502840  3.614502840     0.428521014  0.428521014  0.297884863


 FORCES acting on ions
    electron-ion (+dipol)            ewald-force                    non-local-force                 convergence-correction
 -----------------------------------------------------------------------------------------------
   0.197E-06 -.197E-06 -.911E-14   0.100E-14 -.209E-15 -.320E-15   0.321E-17 -.141E-16 0.111E-16   -.144E-07 0.144E-07 -.563E-16
   -.197E-06 0.197E-06 -.587E-14   -.103E-14 0.403E-15 0.693E-15   -.522E-16 -.117E-18 -.137E-16   0.144E-07 -.144E-07 -.210E-15
 -----------------------------------------------------------------------------------------------
   0.842E-14 0.707E-14 -.150E-13   -.294E-16 0.194E-15 0.374E-15   -.490E-16 -.143E-16 -.262E-17   0.715E-16 -.178E-16 -.267E-15
 
 
 POSITION                                       TOTAL-FORCE (eV/Angst)
 -----------------------------------------------------------------------------------
      2.37376      0.00000      0.66992        -0.000000      0.000000      0.000000
      0.00000     -0.00000      0.00000         0.000000     -0.000000     -0.000000
 -----------------------------------------------------------------------------------
    total drift:                                0.000000      0.000000     -0.000000


--------------------------------------------------------------------------------------------------------



  FREE ENERGIE OF THE ION-ELECTRON SYSTEM (eV)
  ---------------------------------------------------
  free  energy   TOTEN  =       -10.16653221 eV

  energy  without entropy=      -10.13990086  energy(sigma->0) =      -10.15321654
 
 d Force = 0.0000000E+00[ 0.000E+00, 0.000E+00]  d Energy = 0.8041070E-01-0.804E-01
 d Force = 0.0000000E+00[ 0.000E+00, 0.000E+00]  d Ewald  =-0.7110131E+00 0.711E+00


--------------------------------------------------------------------------------------------------------


    POTLOK:  cpu time    0.0280: real time    0.0375


--------------------------------------------------------------------------------------------------------




--------------------------------------------------------------------------------------------------------


    WAVPRE:  cpu time    0.0080: real time    0.0197
    FEWALD:  cpu time    0.0000: real time    0.0007
    GENKIN:  cpu time    0.0000: real time    0.0018
    ORTHCH:  cpu time    0.0040: real time    0.0049
     LOOP+:  cpu time    0.4800: real time    0.5601


--------------------------------------- Iteration      4(   1)  ---------------------------------------


    POTLOK:  cpu time    0.0160: real time    0.0233
    SETDIJ:  cpu time    0.0080: real time    0.0084
     EDDAV:  cpu time    0.0360: real time    0.0359
       DOS:  cpu time    0.0000: real time    0.0013
    CHARGE:  cpu time    0.0080: real time    0.0082
    MIXING:  cpu time    0.0040: real time    0.0013
    --------------------------------------------
      LOOP:  cpu time    0.0720: real time    0.0793

 eigenvalue-minimisations  :    80
 total energy-change (2. order) :-0.5275718E-04  (-0.2596668E-04)
 number of electron       7.9999995 magnetization 
 augmentation part       -0.4635621 magnetization 

 Broyden mixing:
  rms(total) = 0.16255E-02    rms(broyden)= 0.16255E-02
  rms(prec ) = 0.42187E-02
  weight for this iteration     100.00

 Free energy of the ion-electron system (eV)
  ---------------------------------------------------
  alpha Z        PSCENC =         4.45949742
  Ewald energy   TEWEN  =      -266.37773392
  -Hartree energ DENC   =        -2.47647118
  -exchange      EXHF   =         0.00000000
  -V(xc)+E(xc)   XCENC  =       -17.48681683
  PAW double counting   =        70.80220188      -35.73232386
  entropy T*S    EENTRO =        -0.02663135
  eigenvalues    EBANDS =        30.54206100
  atomic energy  EATOM  =       206.12968587
  Solvation  Ediel_sol  =         0.00000000
  ---------------------------------------------------
  free energy    TOTEN  =       -10.16653097 eV

  energy without entropy =      -10.13989963  energy(sigma->0) =      -10.15321530


--------------------------------------------------------------------------------------------------------




--------------------------------------- Iteration      4(   2)  ---------------------------------------


    POTLOK:  cpu time    0.0080: real time    0.0170
    SETDIJ:  cpu time    0.0040: real time    0.0042
     EDDAV:  cpu time    0.0120: real time    0.0124
       DOS:  cpu time    0.0040: real time    0.0010
    --------------------------------------------
      LOOP:  cpu time    0.0280: real time    0.0345

 eigenvalue-minimisations  :    48
 total energy-change (2. order) : 0.1057743E-05  (-0.1020350E-05)
 number of electron       7.9999995 magnetization 
 augmentation part       -0.4635621 magnetization 

 Free energy of the ion-electron system (eV)
  ---------------------------------------------------
  alpha Z        PSCENC =         4.45949742
  Ewald energy   TEWEN  =      -266.37773392
  -Hartree energ DENC   =        -2.47620020
  -exchange      EXHF   =         0.00000000
  -V(xc)+E(xc)   XCENC  =       -17.48668028
  PAW double counting   =        70.80973224      -35.74002788
  entropy T*S    EENTRO =        -0.02663135
  eigenvalues    EBANDS =        30.54182818
  atomic energy  EATOM  =       206.12968587
  Solvation  Ediel_sol  =         0.00000000
  ---------------------------------------------------
  free energy    TOTEN  =       -10.16652991 eV

  energy without entropy =      -10.13989857  energy(sigma->0) =      -10.15321424


--------------------------------------------------------------------------------------------------------




 average (electrostatic) potential at core
  the test charge radii are     0.9892
  (the norm of the test charge is              1.0000)
       1 -80.3610       2 -80.3610
 
 
 
 E-fermi :   9.1954     XC(G=0): -10.9405     alpha+bet :-15.8867


 k-point     1 :       0.0000    0.0000    0.0000
  band No.  band energies     occupation 
      1      -4.5441      2.00000
      2       6.8904      2.00000
      3       6.8904      2.00000
      4       7.6163      2.00000
      5      10.9080      0.00000
      6      16.7120      0.00000
      7      18.3838      0.00000
      8      18.3838      0.00000

 k-point     2 :       0.3333   -0.0000    0.0000
  band No.  band energies     occupation 
[...]
      3       8.0813      2.00000
      4      10.3311      0.00000
      5      11.7955      0.00000
      6      14.1924      0.00000
      7      16.9622      0.00000
      8      17.1653      0.00000

 k-point     5 :      -0.3333    0.3333    0.3333
  band No.  band energies     occupation 
      1      -1.7854      2.00000
      2       1.7254      2.00000
      3       3.0866      2.00000
      4       6.4939      2.00000
      5      14.7061      0.00000
      6      15.0769      0.00000
      7      18.0329      0.00000
      8      19.6526      0.00000

 k-point     6 :      -0.3333   -0.3333    0.3333
  band No.  band energies     occupation 
      1       2.7336      2.00000
      2       3.2244      2.00000
      3       4.4826      2.00000
      4       4.4826      2.00000
      5       4.7158      2.00000
      6      15.4773      0.00000
      7      15.6817      0.00000
      8      15.6818      0.00000


--------------------------------------------------------------------------------------------------------


 soft charge-density along one line, spin component           1
         0         1         2         3         4         5         6         7         8         9
 total charge-density along one line
 
 pseudopotential strength for first ion, spin component:           1
 18.057  -0.003   0.000  -0.000  -0.000  -0.000   0.000   0.000
 -0.003   0.005  -0.000   0.000   0.000   0.000  -0.000  -0.000
  0.000  -0.000   4.116   0.000   0.000  -0.006  -0.000  -0.000
 -0.000   0.000   0.000   4.117   0.000  -0.000  -0.006  -0.000
 -0.000   0.000   0.000   0.000   4.116  -0.000  -0.000  -0.006
 -0.000   0.000  -0.006  -0.000  -0.000   0.005   0.000   0.000
  0.000  -0.000  -0.000  -0.006  -0.000   0.000   0.005   0.000
  0.000  -0.000  -0.000  -0.000  -0.006   0.000   0.000   0.005
 total augmentation occupancy for first ion, spin component:           1
  1.559  -0.569  -0.000   0.000   0.000   0.000  -0.000   0.000
 -0.569   0.845   0.000   0.000  -0.000   0.000  -0.000   0.000
  0.000   0.000   0.959   0.000   0.000  -0.528  -0.000  -0.000
  0.000   0.000   0.000   0.838   0.000  -0.000  -0.485  -0.000
  0.000  -0.000   0.000   0.000   0.959  -0.000  -0.000  -0.528
 -0.000   0.000  -0.528  -0.000  -0.000   0.382   0.000   0.000
 -0.000  -0.000  -0.000  -0.485  -0.000   0.000   0.354   0.000
  0.000   0.000  -0.000  -0.000  -0.528   0.000   0.000   0.382


------------------------ aborting loop because EDIFF is reached ----------------------------------------


    CHARGE:  cpu time    0.0120: real time    0.0092
    FORLOC:  cpu time    0.0000: real time    0.0006
    FORNL :  cpu time    0.0080: real time    0.0071
    STRESS:  cpu time    0.0320: real time    0.0348
    FORCOR:  cpu time    0.0120: real time    0.0129
    FORHAR:  cpu time    0.0040: real time    0.0033
    MIXING:  cpu time    0.0040: real time    0.0009
    OFIELD:  cpu time    0.0000: real time    0.0004

  FORCE on cell =-STRESS in cart. coord.  units (eV):
  Direction    XX          YY          ZZ          XY          YZ          ZX
  --------------------------------------------------------------------------------------
  Alpha Z     4.42784     4.42784     4.42784
  Ewald     -86.69189   -86.69189   -92.36133    -0.00000     0.00000    -0.00000
  Hartree     0.89060     0.89060     0.72852    -0.00000    -0.00000    -0.00000
  E(xc)     -25.51655   -25.51655   -25.33756     0.00001     0.00000     0.00000
  Local     -15.86017   -15.86017    -7.74155    -0.00005    -0.00003    -0.00003
  n-local    77.98915    76.63303    73.90587     2.55483    -1.27022    -1.29858
  augment   -11.90846   -11.90846   -11.58700     0.00003     0.00003     0.00003
  Kinetic    60.16158    54.50253    57.99108     3.12948     0.85177    -1.01477
  Fock        0.00000     0.00000     0.00000     0.00000     0.00000     0.00000
  -------------------------------------------------------------------------------------
  Total      -0.01549    -0.01549     0.02586     0.00000     0.00000    -0.00000
  in kB      -0.81597    -0.81597     1.36254     0.00000     0.00000    -0.00000
  external pressure =       -0.09 kB  Pullay stress =        0.00 kB


 VOLUME and BASIS-vectors are now :
 -----------------------------------------------------------------------------
  energy-cutoff  :      300.00
  volume of cell :       30.41
      direct lattice vectors                 reciprocal lattice vectors
    -2.378525944  2.378525944  1.343836382    -0.000000000  0.210214230  0.372069105
     2.378525944 -2.378525944  1.343836382     0.210214230  0.000000000  0.372069105
     2.378525944  2.378525944 -1.343836382     0.210214230  0.210214230  0.000000000

  length of vectors
     3.622246202  3.622246202  3.622246202     0.427346980  0.427346980  0.297287815


 FORCES acting on ions
    electron-ion (+dipol)            ewald-force                    non-local-force                 convergence-correction
 -----------------------------------------------------------------------------------------------
   0.212E-06 -.212E-06 -.179E-13   -.151E-13 -.562E-15 -.778E-14   -.119E-16 -.154E-16 -.367E-16   -.275E-09 0.275E-09 0.107E-15
   -.212E-06 0.212E-06 -.114E-14   0.151E-13 0.223E-15 0.736E-14   0.758E-17 -.202E-16 0.364E-16   0.275E-09 -.275E-09 -.122E-15
 -----------------------------------------------------------------------------------------------
   0.999E-14 0.651E-14 -.190E-13   -.618E-17 -.339E-15 -.420E-15   -.436E-17 -.356E-16 -.232E-18   -.782E-16 -.428E-16 -.142E-16
 
 
 POSITION                                       TOTAL-FORCE (eV/Angst)
 -----------------------------------------------------------------------------------
      2.37853     -0.00000      0.67192        -0.000000      0.000000      0.000000
     -0.00000      0.00000      0.00000         0.000000     -0.000000     -0.000000
 -----------------------------------------------------------------------------------
    total drift:                                0.000000      0.000000     -0.000000


--------------------------------------------------------------------------------------------------------



  FREE ENERGIE OF THE ION-ELECTRON SYSTEM (eV)
  ---------------------------------------------------
  free  energy   TOTEN  =       -10.16707546 eV

  energy  without entropy=      -10.14044411  energy(sigma->0) =      -10.15375978
 
 d Force = 0.0000000E+00[ 0.000E+00, 0.000E+00]  d Energy =-0.4394053E-07 0.439E-07
 d Force = 0.0000000E+00[ 0.000E+00, 0.000E+00]  d Ewald  =-0.5972063E-02 0.597E-02


--------------------------------------------------------------------------------------------------------


    POTLOK:  cpu time    0.0280: real time    0.0368


--------------------------------------------------------------------------------------------------------




--------------------------------------------------------------------------------------------------------


    WAVPRE:  cpu time    0.0120: real time    0.0244
    FEWALD:  cpu time    0.0000: real time    0.0006
    GENKIN:  cpu time    0.0000: real time    0.0025
    ORTHCH:  cpu time    0.0080: real time    0.0042
     LOOP+:  cpu time    0.2680: real time    0.3428


--------------------------------------- Iteration     15(   1)  ---------------------------------------


    POTLOK:  cpu time    0.0160: real time    0.0307
    SETDIJ:  cpu time    0.0080: real time    0.0084
     EDDAV:  cpu time    0.0280: real time    0.0264
       DOS:  cpu time    0.0000: real time    0.0015
    CHARGE:  cpu time    0.0080: real time    0.0086
    MIXING:  cpu time    0.0000: real time    0.0013
    --------------------------------------------
      LOOP:  cpu time    0.0600: real time    0.0774

 eigenvalue-minimisations  :    48
 total energy-change (2. order) : 0.7489623E-07  (-0.1790684E-07)
 number of electron       7.9999994 magnetization 
 augmentation part       -0.4635818 magnetization 

 Broyden mixing:
  rms(total) = 0.34763E-04    rms(broyden)= 0.34725E-04
  rms(prec ) = 0.10417E-03
  weight for this iteration     100.00

 Free energy of the ion-electron system (eV)
  ---------------------------------------------------
  alpha Z        PSCENC =         4.42768863
  Ewald energy   TEWEN  =      -265.74191080
  -Hartree energ DENC   =        -2.50963662
  -exchange      EXHF   =         0.00000000
  -V(xc)+E(xc)   XCENC  =       -17.52630170
  PAW double counting   =        70.64961354      -35.57530082
  entropy T*S    EENTRO =        -0.02663135
  eigenvalues    EBANDS =        30.00571783
  atomic energy  EATOM  =       206.12968587
  Solvation  Ediel_sol  =         0.00000000
  ---------------------------------------------------
  free energy    TOTEN  =       -10.16707542 eV

  energy without entropy =      -10.14044407  energy(sigma->0) =      -10.15375975


--------------------------------------------------------------------------------------------------------




--------------------------------------- Iteration     15(   2)  ---------------------------------------


    POTLOK:  cpu time    0.0200: real time    0.0239
    SETDIJ:  cpu time    0.0080: real time    0.0082
     EDDAV:  cpu time    0.0280: real time    0.0268
       DOS:  cpu time    0.0000: real time    0.0014
    --------------------------------------------
      LOOP:  cpu time    0.0560: real time    0.0603

 eigenvalue-minimisations  :    48
 total energy-change (2. order) : 0.1636073E-07  (-0.7002537E-09)
 number of electron       7.9999994 magnetization 
 augmentation part       -0.4635818 magnetization 

 Free energy of the ion-electron system (eV)
  ---------------------------------------------------
  alpha Z        PSCENC =         4.42768863
  Ewald energy   TEWEN  =      -265.74191080
  -Hartree energ DENC   =        -2.50972931
  -exchange      EXHF   =         0.00000000
  -V(xc)+E(xc)   XCENC  =       -17.52630659
  PAW double counting   =        70.64929414      -35.57497120
  entropy T*S    EENTRO =        -0.02663135
  eigenvalues    EBANDS =        30.00580520
  atomic energy  EATOM  =       206.12968587
  Solvation  Ediel_sol  =         0.00000000
  ---------------------------------------------------
  free energy    TOTEN  =       -10.16707540 eV

  energy without entropy =      -10.14044406  energy(sigma->0) =      -10.15375973


--------------------------------------------------------------------------------------------------------




 average (electrostatic) potential at core
  the test charge radii are     0.9892
  (the norm of the test charge is              1.0000)
       1 -80.4603       2 -80.4603
 
 
 
 E-fermi :   9.1111     XC(G=0): -10.9118     alpha+bet :-15.7734


 k-point     1 :       0.0000    0.0000    0.0000
  band No.  band energies     occupation 
      1      -4.5724      2.00000
      2       6.8152      2.00000
      3       6.8152      2.00000
      4       7.5001      2.00000
      5      10.8488      0.00000
      6      16.5889      0.00000
      7      18.2334      0.00000
      8      18.2334      0.00000

 k-point     2 :       0.3333   -0.0000    0.0000
  band No.  band energies     occupation 
      1      -1.6845      2.00000
      2       5.6259      2.00000
      3       6.7779      2.00000
      4       7.0673      2.00000
      5      10.0647      0.00000
      6      12.0671      0.00000
      7      13.6227      0.00000
      8      14.5008      0.00000

 k-point     3 :       0.3333    0.3333    0.0000
  band No.  band energies     occupation 
      1       1.0111      2.00000
      2       1.0691      2.00000
      3       5.5178      2.00000
      4       8.2702      2.00000
      5       9.2065      0.50000
      6      10.7902      0.00000
      7      16.1043      0.00000
      8      16.8293      0.00000

 k-point     4 :      -0.3333    0.3333    0.0000
  band No.  band energies     occupation 
      1      -3.1666      2.00000
      2       0.9644      2.00000
      3       8.0810      2.00000
      4      10.3307      0.00000
      5      11.7951      0.00000
      6      14.1919      0.00000
      7      16.9618      0.00000
      8      17.1645      0.00000

 k-point     5 :      -0.3333    0.3333    0.3333
  band No.  band energies     occupation 
      1      -1.7856      2.00000
      2       1.7251      2.00000
      3       3.0864      2.00000
      4       6.4935      2.00000
      5      14.7055      0.00000
      6      15.0763      0.00000
      7      18.0322      0.00000
      8      19.6521      0.00000

 k-point     6 :      -0.3333   -0.3333    0.3333
  band No.  band energies     occupation 
      1       2.7332      2.00000
      2       3.2241      2.00000
      3       4.4824      2.00000
      4       4.4824      2.00000
      5       4.7155      2.00000
      6      15.4766      0.00000
      7      15.6812      0.00000
      8      15.6812      0.00000


--------------------------------------------------------------------------------------------------------


 soft charge-density along one line, spin component           1
         0         1         2         3         4         5         6         7         8         9
 total charge-density along one line
 
 pseudopotential strength for first ion, spin component:           1
 18.057  -0.003   0.000  -0.000  -0.000  -0.000   0.000   0.000
 -0.003   0.005  -0.000   0.000   0.000   0.000  -0.000  -0.000
  0.000  -0.000   4.116   0.000   0.000  -0.006  -0.000  -0.000
 -0.000   0.000   0.000   4.117   0.000  -0.000  -0.006  -0.000
 -0.000   0.000   0.000   0.000   4.116  -0.000  -0.000  -0.006
 -0.000   0.000  -0.006  -0.000  -0.000   0.005   0.000   0.000
  0.000  -0.000  -0.000  -0.006  -0.000   0.000   0.005   0.000
  0.000  -0.000  -0.000  -0.000  -0.006   0.000   0.000   0.005
 total augmentation occupancy for first ion, spin component:           1
  1.559  -0.569   0.000  -0.000   0.000   0.000   0.000   0.000
 -0.569   0.845   0.000   0.000   0.000   0.000  -0.000   0.000
  0.000   0.000   0.959   0.000   0.000  -0.528  -0.000  -0.000
 -0.000   0.000   0.000   0.838   0.000  -0.000  -0.485  -0.000
  0.000   0.000   0.000   0.000   0.959  -0.000  -0.000  -0.528
  0.000  -0.000  -0.528  -0.000  -0.000   0.381   0.000   0.000
  0.000  -0.000  -0.000  -0.485  -0.000   0.000   0.354   0.000
 -0.000   0.000  -0.000  -0.000  -0.528   0.000   0.000   0.381


------------------------ aborting loop because EDIFF is reached ----------------------------------------


    CHARGE:  cpu time    0.0080: real time    0.0094
    FORLOC:  cpu time    0.0000: real time    0.0006
    FORNL :  cpu time    0.0080: real time    0.0070
    STRESS:  cpu time    0.0360: real time    0.0346
    FORCOR:  cpu time    0.0120: real time    0.0129
    FORHAR:  cpu time    0.0040: real time    0.0033
    MIXING:  cpu time    0.0000: real time    0.0009
    OFIELD:  cpu time    0.0000: real time    0.0004

  FORCE on cell =-STRESS in cart. coord.  units (eV):
  Direction    XX          YY          ZZ          XY          YZ          ZX
  --------------------------------------------------------------------------------------
  Alpha Z     4.42769     4.42769     4.42769
  Ewald     -86.69075   -86.69075   -92.36063     0.00000    -0.00000     0.00000
  Hartree     0.89067     0.89067     0.72852    -0.00000    -0.00000    -0.00000
  E(xc)     -25.51638   -25.51638   -25.33740     0.00001     0.00000     0.00000
  Local     -15.86077   -15.86077    -7.74171    -0.00005    -0.00003    -0.00003
  n-local    77.98856    76.63233    73.90536     2.55478    -1.27011    -1.29853
  augment   -11.90841   -11.90841   -11.58695     0.00003     0.00003     0.00003
  Kinetic    60.16058    54.50165    57.99003     3.12946     0.85169    -1.01481
  Fock        0.00000     0.00000     0.00000     0.00000     0.00000     0.00000
  -------------------------------------------------------------------------------------
  Total      -0.01639    -0.01639     0.02491    -0.00000    -0.00000     0.00000
  in kB      -0.86349    -0.86349     1.31254    -0.00000    -0.00000     0.00000
  external pressure =       -0.14 kB  Pullay stress =        0.00 kB


 VOLUME and BASIS-vectors are now :
 -----------------------------------------------------------------------------
  energy-cutoff  :      300.00
  volume of cell :       30.41
      direct lattice vectors                 reciprocal lattice vectors
    -2.378549835  2.378549835  1.343854488    -0.000000000  0.210212119  0.372064092
     2.378549835 -2.378549835  1.343854488     0.210212119  0.000000000  0.372064092
     2.378549835  2.378549835 -1.343854488     0.210212119  0.210212119 -0.000000000

  length of vectors
     3.622284296  3.622284296  3.622284296     0.427341577  0.427341577  0.297284829


 FORCES acting on ions
    electron-ion (+dipol)            ewald-force                    non-local-force                 convergence-correction
 -----------------------------------------------------------------------------------------------
   0.212E-06 -.212E-06 -.134E-13   0.929E-14 -.307E-14 0.983E-14   0.392E-16 -.371E-16 0.138E-16   -.141E-09 0.141E-09 0.236E-16
   -.212E-06 0.212E-06 -.867E-15   -.940E-14 0.308E-14 -.894E-14   -.137E-16 0.349E-16 -.740E-17   0.141E-09 -.141E-09 0.837E-16
 -----------------------------------------------------------------------------------------------
   0.129E-13 0.707E-14 -.143E-13   -.108E-15 0.258E-17 0.891E-15   0.255E-16 -.221E-17 0.636E-17   0.493E-16 -.145E-16 0.107E-15
 
 
 POSITION                                       TOTAL-FORCE (eV/Angst)
 -----------------------------------------------------------------------------------
      2.37855      0.00000      0.67193         0.000000      0.000000      0.000000
     -0.00000      0.00000      0.00000        -0.000000     -0.000000     -0.000000
 -----------------------------------------------------------------------------------
    total drift:                                0.000000      0.000000     -0.000000


--------------------------------------------------------------------------------------------------------



  FREE ENERGIE OF THE ION-ELECTRON SYSTEM (eV)
  ---------------------------------------------------
  free  energy   TOTEN  =       -10.16707540 eV

  energy  without entropy=      -10.14044406  energy(sigma->0) =      -10.15375973
 
 d Force = 0.0000000E+00[ 0.000E+00, 0.000E+00]  d Energy =-0.5344631E-07 0.534E-07
 d Force = 0.0000000E+00[ 0.000E+00, 0.000E+00]  d Ewald  =-0.2985932E-02 0.299E-02


--------------------------------------------------------------------------------------------------------


    POTLOK:  cpu time    0.0320: real time    0.0370


--------------------------------------------------------------------------------------------------------




--------------------------------------------------------------------------------------------------------


 writing wavefunctions
     LOOP+:  cpu time    0.2720: real time    0.3851
    4ORBIT:  cpu time    0.0000: real time    0.0000

 total amount of memory used by VASP MPI-rank0    30731. kBytes
=======================================================================

   base      :      30000. kBytes
   nonl-proj :        156. kBytes
   fftplans  :        160. kBytes
   grid      :        372. kBytes
   one-center:          6. kBytes
   wavefun   :         37. kBytes
 
  
  
 General timing and accounting informations for this job:
 ========================================================
  
                  Total CPU time used (sec):        9.492
                            User time (sec):        7.124
                          System time (sec):        2.368
                         Elapsed time (sec):       12.607
  
                   Maximum memory used (kb):        9932.
                   Average memory used (kb):           0.
  
                          Minor page faults:        38211
                          Major page faults:           18
                 Voluntary context switches:        45024
