unknown system                          
   1.00000000000000     
     0.000000    2.746970    2.746970
     2.746970    0.000000    2.746970
     2.746970    2.746970   -0.000000
   Si
     2
Direct
  0.500000  0.500000  0.500000
  0.750000  0.750000  0.750000
 
   36   36   36
 0.88215     0.89849     0.94858      1.0355      1.1638      1.3393      1.5686      1.8578      2.2127      2.6362    
  3.1270      3.6770      4.2687      4.8744      5.4570      5.9737      6.3813      6.6427      6.7327      6.6426    
  6.3813      5.9737      5.4570      4.8745      4.2688      3.6771      3.1271      2.6362      2.2126      1.8578    
  1.5685      1.3393      1.1638      1.0355     0.94859     0.89850     0.89849     0.92699     0.98575      1.0780    
  1.2083      1.3817      1.6034      1.8780      2.2085      2.5950      3.0331      3.5117      4.0121      4.5075    
  4.9651      5.3495      5.6276      5.7736      5.7736      5.6276      5.3495      4.9652      4.5076      4.0122    
  3.5118      3.0331      2.5950      2.2084      1.8779      1.6034      1.3817      1.2083      1.0780     0.98575    
 0.92699     0.89849     0.94858     0.98575      1.0501      1.1449      1.2743      1.4424      1.6533      1.9098    
  2.2127      2.5596      2.9437      3.3524      3.7669      4.1625      4.5116      4.7859      4.9614      5.0218    
  4.9614      4.7859      4.5116      4.1626      3.7669      3.3524      2.9437      2.5596      2.2126      1.9098    
  1.6533      1.4424      1.2743      1.1449      1.0501     0.98574     0.94857     0.93644      1.0355      1.0780    
  1.1449      1.2392      1.3645      1.5242      1.7209      1.9559      2.2283      2.5338      2.8641      3.2060    
  3.5418      3.8499      4.1076      4.2934      4.3908      4.3908      4.2934      4.1076      3.8499      3.5418    
  3.2060      2.8641      2.5338      2.2283      1.9559      1.7209      1.5242      1.3645      1.2393      1.1449    
  1.0780      1.0354      1.0148      1.0148      1.1638      1.2083      1.2743      1.3645      1.4821      1.6294    
  1.8082      2.0183      2.2574      2.5202      2.7977      3.0770      3.3423      3.5752      3.7578      3.8745    
  3.9146      3.8745      3.7578      3.5752      3.3422      3.0770      2.7976      2.5202      2.2574      2.0183    
  1.8082      1.6294      1.4821      1.3645      1.2743      1.2083      1.1637      1.1381      1.1297      1.1381    
  1.3393      1.3817      1.4424      1.5242      1.6294      1.7600      1.9165      2.0979      2.3011      2.5202    
  2.7463      2.9677      3.1706      3.3401      3.4623      3.5263      3.5263      3.4623      3.3401      3.1706    
  2.9677      2.7463      2.5202      2.3012      2.0980      1.9165      1.7600      1.6294      1.5242      1.4424    
  1.3817      1.3393      1.3127      1.2999      1.2999      1.3127      1.5686      1.6034      1.6533      1.7209    
  1.8082      1.9165      2.0458      2.1945      2.3591      2.5338      2.7104      2.8785      3.0268      3.1433    
  3.2179      3.2436      3.2179      3.1433      3.0268      2.8785      2.7104      2.5338      2.3592      2.1946    
  2.0458      1.9165      1.8082      1.7209      1.6533      1.6034      1.5685      1.5461      1.5337      1.5297    
  1.5337      1.5461      1.8578      1.8780      1.9098      1.9559      2.0183      2.0979      2.1945      2.3063    
  2.4298      2.5596      2.6887      2.8083      2.9092      2.9824      3.0210      3.0210      2.9824      2.9092    
  2.8083      2.6887      2.5596      2.4298      2.3063      2.1945      2.0979      2.0183      1.9559      1.9098    
  1.8780      1.8578      1.8464      1.8407      1.8385      1.8385      1.8407      1.8464      2.2127      2.2085    
  2.2127      2.2283      2.2574      2.3011      2.3591      2.4298      2.5100      2.5950      2.6790      2.7550    
  2.8158      2.8553      2.8690      2.8553      2.8159      2.7550      2.6790      2.5950      2.5100      2.4298    
  2.3591      2.3011      2.2574      2.2283      2.2126      2.2085      2.2127      2.2216      2.2315      2.2390    
  2.2418      2.2390      2.2315      2.2216      2.6362      2.5950      2.5596      2.5338      2.5202      2.5202    
  2.5338      2.5596      2.5950      2.6362      2.6783      2.7162      2.7448      2.7603      2.7603      2.7449    
  2.7162      2.6783      2.6362      2.5950      2.5596      2.5338      2.5202      2.5202      2.5338      2.5596    
  2.5950      2.6362      2.6783      2.7162      2.7449      2.7603      2.7603      2.7448      2.7162      2.6783    
  3.1270      3.0331      2.9437      2.8641      2.7977      2.7463      2.7104      2.6887      2.6790      2.6783    
  2.6830      2.6895      2.6948      2.6969      2.6948      2.6895      2.6830      2.6783      2.6790      2.6886    
  2.7103      2.7463      2.7976      2.8641      2.9437      3.0331      3.1271      3.2191      3.3018      3.3677    
  3.4102      3.4249      3.4102      3.3676      3.3018      3.2191      3.6770      3.5117      3.3524      3.2060    
  3.0770      2.9677      2.8785      2.8083      2.7550      2.7162      2.6895      2.6729      2.6650      2.6650    
  2.6730      2.6895      2.7162      2.7549      2.8082      2.8785      2.9677      3.0770      3.2060      3.3525    
  3.5118      3.6771      3.8395      3.9885      4.1131      4.2030      4.2501      4.2501      4.2030      4.1131    
  3.9885      3.8395      4.2687      4.0121      3.7669      3.5418      3.3423      3.1706      3.0268      2.9092    
  2.8158      2.7448      2.6948      2.6650      2.6551      2.6651      2.6948      2.7448      2.8158      2.9091    
  3.0267      3.1705      3.3422      3.5418      3.7669      4.0122      4.2688      4.5249      4.7658      4.9758    
  5.1394      5.2436      5.2793      5.2436      5.1395      4.9758      4.7658      4.5248      4.8744      4.5075    
  4.1625      3.8499      3.5752      3.3401      3.1433      2.9824      2.8553      2.7603      2.6969      2.6650    
  2.6651      2.6969      2.7603      2.8552      2.9823      3.1432      3.3400      3.5752      3.8500      4.1626    
  4.5076      4.8744      5.2479      5.6086      5.9347      6.2040      6.3964      6.4968      6.4968      6.3964    
  6.2040      5.9347      5.6086      5.2479      5.4570      4.9651      4.5116      4.1076      3.7578      3.4623    
  3.2179      3.0210      2.8690      2.7603      2.6948      2.6730      2.6948      2.7603      2.8689      3.0209    
  3.2178      3.4622      3.7578      4.1076      4.5116      4.9652      5.4570      5.9689      6.4762      6.9502    
  7.3605      7.6781      7.8794      7.9483      7.8794      7.6782      7.3605      6.9503      6.4762      5.9689    
  5.9737      5.3495      4.7859      4.2934      3.8745      3.5263      3.2436      3.0210      2.8553      2.7449    
  2.6895      2.6895      2.7448      2.8552      3.0209      3.2434      3.5263      3.8745      4.2934      4.7859    
  5.3495      5.9737      6.6383      7.3142      7.9654      8.5521      9.0350      9.3793      9.5586      9.5586    
  9.3793      9.0350      8.5521      7.9654      7.3142      6.6383      6.3813      5.6276      4.9614      4.3908    
  3.9146      3.5263      3.2179      2.9824      2.8159      2.7162      2.6830      2.7162      2.8158      2.9823    
  3.2178      3.5263      3.9146      4.3909      4.9614      5.6275      6.3812      7.2026      8.0596      8.9098    
  9.7043      10.392      10.925      11.263      11.379      11.263      10.925      10.392      9.7043      8.9098    
  8.0597      7.2027      6.6427      5.7736      5.0218      4.3908      3.8745      3.4623      3.1433      2.9092    
  2.7550      2.6783      2.6783      2.7549      2.9091      3.1432      3.4622      3.8745      4.3909      5.0218    
  5.7736      6.6426      7.6119      8.6490      9.7076      10.731      11.658      12.425      12.974      13.262    
  13.262      12.974      12.425      11.658      10.731      9.7076      8.6490      7.6119      6.7327      5.7736    
  4.9614      4.2934      3.7578      3.3401      3.0268      2.8083      2.6790      2.6362      2.6790      2.8082    
  3.0267      3.3400      3.7578      4.2934      4.9614      5.7736      6.7327      7.8271      9.0275      10.287    
  11.545      12.732      13.770      14.583      15.103      15.281      15.103      14.583      13.769      12.731    
  11.545      10.287      9.0276      7.8272      6.6426      5.6276      4.7859      4.1076      3.5752      3.1706    
  2.8785      2.6887      2.5950      2.5950      2.6886      2.8785      3.1705      3.5752      4.1076      4.7859    
  5.6275      6.6426      7.8271      9.1581      10.593      12.070      13.516      14.844      15.959      16.761    
  17.180      17.180      16.761      15.958      14.844      13.515      12.070      10.593      9.1581      7.8272    
  6.3813      5.3495      4.5116      3.8499      3.3422      2.9677      2.7104      2.5596      2.5100      2.5596    
  2.7103      2.9677      3.3422      3.8500      4.5116      5.3495      6.3812      7.6119      9.0275      10.593    
  12.251      13.930      15.541      16.965      18.081      18.792      19.036      18.791      18.081      16.965    
  15.540      13.930      12.251      10.593      9.0275      7.6119      5.9737      4.9652      4.1626      3.5418    
  3.0770      2.7463      2.5338      2.4298      2.4298      2.5338      2.7463      3.0770      3.5418      4.1626    
  4.9652      5.9737      7.2026      8.6490      10.287      12.070      13.930      15.782      17.497      18.932    
  19.966      20.508      20.508      19.966      18.932      17.497      15.782      13.930      12.070      10.287    
  8.6490      7.2027      5.4570      4.5076      3.7669      3.2060      2.7976      2.5202      2.3592      2.3063    
  2.3591      2.5202      2.7976      3.2060      3.7669      4.5076      5.4570      6.6383      8.0596      9.7076    
  11.545      13.516      15.541      17.497      19.227      20.587      21.459      21.759      21.459      20.587    
  19.227      17.497      15.541      13.515      11.545      9.7075      8.0596      6.6383      4.8745      4.0122    
  3.3524      2.8641      2.5202      2.3012      2.1946      2.1945      2.3011      2.5202      2.8641      3.3525    
  4.0122      4.8744      5.9689      7.3142      8.9098      10.731      12.732      14.844      16.965      18.932    
  20.587      21.788      22.421      22.421      21.788      20.587      18.932      16.965      14.844      12.731    
  10.731      8.9097      7.3142      5.9689      4.2688      3.5118      2.9437      2.5338      2.2574      2.0980    
  2.0458      2.0979      2.2574      2.5338      2.9437      3.5118      4.2688      5.2479      6.4762      7.9654    
  9.7043      11.658      13.770      15.959      18.081      19.966      21.459      22.421      22.754      22.421    
  21.459      19.966      18.081      15.958      13.769      11.658      9.7042      7.9653      6.4763      5.2479    
  3.6771      3.0331      2.5596      2.2283      2.0183      1.9165      1.9165      2.0183      2.2283      2.5596    
  3.0331      3.6771      4.5249      5.6086      6.9502      8.5521      10.392      12.425      14.583      16.761    
  18.792      20.508      21.759      22.421      22.421      21.759      20.508      18.792      16.761      14.583    
  12.425      10.392      8.5520      6.9503      5.6087      4.5249      3.1271      2.5950      2.2126      1.9559    
  1.8082      1.7600      1.8082      1.9559      2.2126      2.5950      3.1271      3.8395      4.7658      5.9347    
  7.3605      9.0350      10.925      12.974      15.103      17.180      19.036      20.508      21.459      21.788    
  21.459      20.508      19.036      17.180      15.103      12.974      10.925      9.0350      7.3605      5.9348    
  4.7659      3.8396      2.6362      2.2084      1.9098      1.7209      1.6294      1.6294      1.7209      1.9098    
  2.2085      2.6362      3.2191      3.9885      4.9758      6.2040      7.6781      9.3793      11.263      13.262    
  15.281      17.180      18.791      19.966      20.587      20.587      19.966      18.792      17.180      15.281    
  13.262      11.263      9.3793      7.6781      6.2040      4.9759      3.9886      3.2191      2.2126      1.8779    
  1.6533      1.5242      1.4821      1.5242      1.6533      1.8780      2.2127      2.6783      3.3018      4.1131    
  5.1394      6.3964      7.8794      9.5586      11.379      13.262      15.103      16.761      18.081      18.932    
  19.227      18.932      18.081      16.761      15.103      13.262      11.379      9.5586      7.8794      6.3965    
  5.1396      4.1132      3.3018      2.6783      1.8578      1.6034      1.4424      1.3645      1.3645      1.4424    
  1.6034      1.8578      2.2216      2.7162      3.3677      4.2030      5.2436      6.4968      7.9483      9.5586    
  11.263      12.974      14.583      15.958      16.965      17.497      17.497      16.965      15.958      14.583    
  12.974      11.263      9.5586      7.9483      6.4968      5.2437      4.2031      3.3677      2.7162      2.2216    
  1.5685      1.3817      1.2743      1.2393      1.2743      1.3817      1.5685      1.8464      2.2315      2.7449    
  3.4102      4.2501      5.2793      6.4968      7.8794      9.3793      10.925      12.425      13.769      14.844    
  15.540      15.782      15.541      14.844      13.769      12.425      10.925      9.3793      7.8794      6.4968    
  5.2794      4.2502      3.4102      2.7449      2.2315      1.8463      1.3393      1.2083      1.1449      1.1449    
  1.2083      1.3393      1.5461      1.8407      2.2390      2.7603      3.4249      4.2501      5.2436      6.3964    
  7.6782      9.0350      10.392      11.658      12.731      13.515      13.930      13.930      13.515      12.731    
  11.658      10.392      9.0350      7.6781      6.3965      5.2437      4.2502      3.4249      2.7603      2.2390    
  1.8406      1.5461      1.1638      1.0780      1.0501      1.0780      1.1637      1.3127      1.5337      1.8385    
  2.2418      2.7603      3.4102      4.2030      5.1395      6.2040      7.3605      8.5521      9.7043      10.731    
  11.545      12.070      12.251      12.070      11.545      10.731      9.7042      8.5520      7.3605      6.2040    
  5.1396      4.2031      3.4102      2.7603      2.2418      1.8384      1.5336      1.3127      1.0355     0.98575    
 0.98574      1.0354      1.1381      1.2999      1.5297      1.8385      2.2390      2.7448      3.3676      4.1131    
  4.9758      5.9347      6.9503      7.9654      8.9098      9.7076      10.287      10.593      10.593      10.287    
  9.7075      8.9097      7.9653      6.9503      5.9348      4.9759      4.1132      3.3677      2.7449      2.2390    
  1.8384      1.5297      1.2999      1.1381     0.94859     0.92699     0.94857      1.0148      1.1297      1.2999    
  1.5337      1.8407      2.2315      2.7162      3.3018      3.9885      4.7658      5.6086      6.4762      7.3142    
  8.0597      8.6490      9.0276      9.1581      9.0275      8.6490      8.0596      7.3142      6.4763      5.6087    
  4.7659      3.9886      3.3018      2.7162      2.2315      1.8406      1.5336      1.2999      1.1297      1.0148    
 0.89850     0.89849     0.93644      1.0148      1.1381      1.3127      1.5461      1.8464      2.2216      2.6783    
  3.2191      3.8395      4.5248      5.2479      5.9689      6.6383      7.2027      7.6119      7.8272      7.8272    
  7.6119      7.2027      6.6383      5.9689      5.2479      4.5249      3.8396      3.2191      2.6783      2.2216    
  1.8463      1.5461      1.3127      1.1381      1.0148     0.93645     0.89849     0.92699     0.98575      1.0780    
  1.2083      1.3817      1.6034      1.8780      2.2085      2.5950      3.0331      3.5117      4.0121      4.5075    
  4.9651      5.3495      5.6275      5.7736      5.7736      5.6276      5.3495      4.9652      4.5076      4.0122    
  3.5118      3.0331      2.5950      2.2084      1.8779      1.6034      1.3817      1.2083      1.0780     0.98575    
 0.92699     0.89849     0.92699     0.96354      1.0268      1.1199      1.2468      1.4118      1.6188      1.8707    
  2.1686      2.5100      2.8881      3.2904      3.6983      4.0875      4.4306      4.7001      4.8724      4.9317    
  4.8724      4.7001      4.4306      4.0875      3.6983      3.2904      2.8881      2.5099      2.1685      1.8707    
  1.6188      1.4118      1.2468      1.1199      1.0268     0.96354     0.92699     0.91505     0.98575      1.0268    
  1.0910      1.1816      1.3018      1.4551      1.6444      1.8710      2.1342      2.4298      2.7496      3.0805    
  3.4053      3.7029      3.9514      4.1304      4.2242      4.2242      4.1304      3.9514      3.7029      3.4053    
  3.0805      2.7495      2.4298      2.1341      1.8710      1.6444      1.4551      1.3018      1.1816      1.0911    
  1.0268     0.98574     0.96580     0.96581      1.0780      1.1199      1.1816      1.2660      1.3760      1.5144    
  1.6830      1.8819      2.1091      2.3591      2.6233      2.8890      3.1409      3.3616      3.5343      3.6444    
  3.6822      3.6444      3.5343      3.3616      3.1409      2.8890      2.6233      2.3591      2.1091      1.8819    
  1.6830      1.5145      1.3761      1.2660      1.1816      1.1199      1.0780      1.0539      1.0460      1.0539    
  1.2083      1.2468      1.3018      1.3760      1.4721      1.5921      1.7369      1.9058      2.0959      2.3011    
  2.5130      2.7201      2.9094      3.0670      3.1803      3.2396      3.2396      3.1803      3.0670      2.9094    
  2.7201      2.5130      2.3011      2.0959      1.9058      1.7369      1.5921      1.4721      1.3761      1.3018    
  1.2468      1.2083      1.1842      1.1725      1.1725      1.1842      1.3817      1.4118      1.4551      1.5144    
  1.5921      1.6896      1.8073      1.9439      2.0959      2.2574      2.4207      2.5758      2.7120      2.8187    
  2.8869      2.9103      2.8869      2.8187      2.7120      2.5758      2.4207      2.2574      2.0959      1.9439    
  1.8073      1.6896      1.5921      1.5145      1.4551      1.4118      1.3817      1.3625      1.3519      1.3485    
  1.3519      1.3625      1.6034      1.6188      1.6444      1.6830      1.7369      1.8073      1.8942      1.9960    
  2.1091      2.2283      2.3467      2.4562      2.5482      2.6148      2.6498      2.6498      2.6148      2.5482    
  2.4562      2.3467      2.2283      2.1091      1.9960      1.8942      1.8073      1.7369      1.6830      1.6444    
  1.6188      1.6034      1.5953      1.5917      1.5905      1.5905      1.5917      1.5953      1.8780      1.8707    
  1.8710      1.8819      1.9058      1.9439      1.9960      2.0604      2.1342      2.2127      2.2902      2.3602    
  2.4162      2.4524      2.4649      2.4524      2.4162      2.3602      2.2902      2.2127      2.1342      2.0604    
  1.9960      1.9439      1.9058      1.8819      1.8710      1.8707      1.8780      1.8891      1.9004      1.9087    
  1.9117      1.9087      1.9004      1.8891      2.2085      2.1686      2.1342      2.1091      2.0959      2.0959    
  2.1091      2.1342      2.1686      2.2085      2.2493      2.2860      2.3138      2.3287      2.3287      2.3138    
  2.2860      2.2493      2.2085      2.1685      2.1342      2.1091      2.0958      2.0958      2.1091      2.1342    
  2.1685      2.2085      2.2493      2.2860      2.3138      2.3287      2.3287      2.3138      2.2860      2.2493    
  2.5950      2.5100      2.4298      2.3591      2.3011      2.2574      2.2283      2.2127      2.2085      2.2127    
  2.2216      2.2315      2.2390      2.2418      2.2390      2.2315      2.2216      2.2127      2.2085      2.2126    
  2.2283      2.2574      2.3011      2.3591      2.4298      2.5100      2.5950      2.6790      2.7550      2.8159    
  2.8553      2.8690      2.8553      2.8158      2.7550      2.6790      3.0331      2.8881      2.7496      2.6233    
  2.5130      2.4207      2.3467      2.2902      2.2493      2.2216      2.2042      2.1944      2.1902      2.1902    
  2.1945      2.2042      2.2216      2.2493      2.2901      2.3466      2.4206      2.5130      2.6233      2.7496    
  2.8881      3.0331      3.1769      3.3099      3.4221      3.5035      3.5464      3.5464      3.5035      3.4221    
  3.3099      3.1769      3.5117      3.2904      3.0805      2.8890      2.7201      2.5758      2.4562      2.3602    
  2.2860      2.2315      2.1944      2.1730      2.1661      2.1730      2.1944      2.2315      2.2860      2.3601    
  2.4561      2.5758      2.7201      2.8891      3.0806      3.2905      3.5118      3.7346      3.9465      4.1330    
  4.2796      4.3735      4.4059      4.3735      4.2796      4.1330      3.9464      3.7346      4.0121      3.6983    
  3.4053      3.1409      2.9094      2.7120      2.5482      2.4162      2.3138      2.2390      2.1902      2.1661    
  2.1661      2.1902      2.2390      2.3137      2.4161      2.5481      2.7120      2.9094      3.1409      3.4053    
  3.6983      4.0121      4.3347      4.6499      4.9383      5.1791      5.3528      5.4439      5.4439      5.3528    
  5.1791      4.9383      4.6498      4.3347      4.5075      4.0875      3.7029      3.3616      3.0670      2.8187    
  2.6148      2.4524      2.3287      2.2418      2.1902      2.1730      2.1902      2.2418      2.3287      2.4523    
  2.6148      2.8187      3.0670      3.3617      3.7029      4.0875      4.5076      4.9492      5.3926      5.8128    
  6.1814      6.4702      6.6547      6.7181      6.6547      6.4702      6.1814      5.8128      5.3926      4.9492    
  4.9651      4.4306      3.9514      3.5343      3.1803      2.8869      2.6498      2.4649      2.3287      2.2390    
  2.1945      2.1944      2.2390      2.3287      2.4648      2.6498      2.8869      3.1804      3.5343      3.9514    
  4.4306      4.9652      5.5406      6.1342      6.7150      7.2465      7.6901      8.0098      8.1773      8.1773    
  8.0098      7.6901      7.2466      6.7150      6.1342      5.5406      5.3495      4.7001      4.1304      3.6444    
  3.2396      2.9103      2.6498      2.4524      2.3138      2.2315      2.2042      2.2315      2.3137      2.4523    
  2.6498      2.9103      3.2397      3.6445      4.1304      4.7001      5.3495      6.0655      6.8236      7.5885    
  8.3153      8.9541      9.4550      9.7752      9.8854      9.7752      9.4550      8.9540      8.3153      7.5885    
  6.8236      6.0655      5.6275      4.8724      4.2242      3.6822      3.2396      2.8869      2.6148      2.4162    
  2.2860      2.2216      2.2216      2.2860      2.4161      2.6148      2.8869      3.2397      3.6823      4.2242    
  4.8724      5.6276      6.4798      7.4057      8.3672      9.3132      10.183      10.911      11.437      11.713    
  11.713      11.437      10.911      10.183      9.3131      8.3672      7.4056      6.4798      5.7736      4.9317    
  4.2242      3.6444      3.1803      2.8187      2.5482      2.3602      2.2493      2.2127      2.2493      2.3601    
  2.5481      2.8187      3.1804      3.6445      4.2242      4.9317      5.7736      6.7455      7.8281      8.9841    
  10.159      11.282      12.277      13.061      13.565      13.739      13.565      13.061      12.277      11.282    
  10.159      8.9841      7.8281      6.7455      5.7736      4.8724      4.1304      3.5343      3.0670      2.7120    
  2.4562      2.2902      2.2085      2.2085      2.2901      2.4561      2.7120      3.0670      3.5343      4.1304    
  4.8724      5.7736      6.8372      8.0505      9.3808      10.774      12.157      13.441      14.526      15.317    
  15.734      15.734      15.317      14.526      13.441      12.157      10.774      9.3808      8.0504      6.8371    
  5.6276      4.7001      3.9514      3.3616      2.9094      2.5758      2.3467      2.2127      2.1685      2.2126    
  2.3466      2.5758      2.9094      3.3617      3.9514      4.7001      5.6276      6.7455      8.0505      9.5178    
  11.099      12.722      14.293      15.700      16.823      17.551      17.804      17.551      16.823      15.700    
  14.293      12.722      11.099      9.5177      8.0504      6.7455      5.3495      4.4306      3.7029      3.1409    
  2.7201      2.4207      2.2283      2.1342      2.1342      2.2283      2.4206      2.7201      3.1409      3.7029    
  4.4306      5.3495      6.4798      7.8281      9.3808      11.099      12.917      14.744      16.463      17.936    
  19.019      19.594      19.594      19.019      17.936      16.462      14.744      12.917      11.099      9.3807    
  7.8281      6.4797      4.9652      4.0875      3.4053      2.8890      2.5130      2.2574      2.1091      2.0604    
  2.1091      2.2574      2.5130      2.8891      3.4053      4.0875      4.9652      6.0655      7.4057      8.9841    
  10.774      12.722      14.744      16.727      18.528      19.975      20.915      21.242      20.916      19.975    
  18.528      16.727      14.744      12.722      10.774      8.9840      7.4056      6.0655      4.5076      3.6983    
  3.0805      2.6233      2.3011      2.0959      1.9960      1.9960      2.0958      2.3011      2.6233      3.0806    
  3.6983      4.5076      5.5406      6.8236      8.3672      10.159      12.157      14.293      16.463      18.528    
  20.308      21.619      22.316      22.316      21.619      20.308      18.528      16.462      14.293      12.157    
  10.159      8.3672      6.8236      5.5407      4.0122      3.2904      2.7495      2.3591      2.0959      1.9439    
  1.8942      1.9439      2.0958      2.3591      2.7496      3.2905      4.0121      4.9492      6.1342      7.5885    
  9.3132      11.282      13.441      15.700      17.936      19.975      21.619      22.689      23.061      22.689    
  21.619      19.976      17.936      15.700      13.441      11.282      9.3131      7.5885      6.1342      4.9492    
  3.5118      2.8881      2.4298      2.1091      1.9058      1.8073      1.8073      1.9058      2.1091      2.4298    
  2.8881      3.5118      4.3347      5.3926      6.7150      8.3153      10.183      12.277      14.526      16.823    
  19.019      20.915      22.316      23.061      23.061      22.316      20.916      19.019      16.823      14.526    
  12.277      10.183      8.3153      6.7150      5.3927      4.3347      3.0331      2.5099      2.1341      1.8819    
  1.7369      1.6896      1.7369      1.8819      2.1342      2.5100      3.0331      3.7346      4.6499      5.8128    
  7.2465      8.9541      10.911      13.061      15.317      17.551      19.594      21.242      22.316      22.689    
  22.316      21.242      19.594      17.552      15.317      13.061      10.911      8.9540      7.2466      5.8129    
  4.6499      3.7346      2.5950      2.1685      1.8710      1.6830      1.5921      1.5921      1.6830      1.8710    
  2.1685      2.5950      3.1769      3.9465      4.9383      6.1814      7.6901      9.4550      11.437      13.565    
  15.734      17.804      19.594      20.916      21.619      21.619      20.916      19.594      17.804      15.735    
  13.565      11.437      9.4550      7.6902      6.1815      4.9384      3.9465      3.1769      2.2084      1.8707    
  1.6444      1.5145      1.4721      1.5145      1.6444      1.8707      2.2085      2.6790      3.3099      4.1330    
  5.1791      6.4702      8.0098      9.7752      11.713      13.739      15.734      17.551      19.019      19.975    
  20.308      19.976      19.019      17.552      15.735      13.739      11.713      9.7752      8.0098      6.4703    
  5.1792      4.1331      3.3099      2.6790      1.8779      1.6188      1.4551      1.3761      1.3761      1.4551    
  1.6188      1.8780      2.2493      2.7550      3.4221      4.2796      5.3528      6.6547      8.1773      9.8854    
  11.713      13.565      15.317      16.823      17.936      18.528      18.528      17.936      16.823      15.317    
  13.565      11.713      9.8854      8.1773      6.6548      5.3529      4.2797      3.4221      2.7550      2.2493    
  1.6034      1.4118      1.3018      1.2660      1.3018      1.4118      1.6034      1.8891      2.2860      2.8159    
  3.5035      4.3735      5.4439      6.7181      8.1773      9.7752      11.437      13.061      14.526      15.700    
  16.462      16.727      16.462      15.700      14.526      13.061      11.437      9.7752      8.1773      6.7183    
  5.4441      4.3736      3.5035      2.8158      2.2860      1.8891      1.3817      1.2468      1.1816      1.1816    
  1.2468      1.3817      1.5953      1.9004      2.3138      2.8553      3.5464      4.4059      5.4439      6.6547    
  8.0098      9.4550      10.911      12.277      13.441      14.293      14.744      14.744      14.293      13.441    
  12.277      10.911      9.4550      8.0098      6.6548      5.4441      4.4059      3.5464      2.8552      2.3137    
  1.9004      1.5953      1.2083      1.1199      1.0911      1.1199      1.2083      1.3625      1.5917      1.9087    
  2.3287      2.8690      3.5464      4.3735      5.3528      6.4702      7.6901      8.9540      10.183      11.282    
  12.157      12.722      12.917      12.722      12.157      11.282      10.183      8.9540      7.6902      6.4703    
  5.3529      4.3736      3.5464      2.8689      2.3287      1.9087      1.5917      1.3625      1.0780      1.0268    