unknown system                          
   1.00000000000000     
     0.000000    2.715000    2.715000
     2.715000    0.000000    2.715000
     2.715000    2.715000    0.000000
   Si
     2
Direct
  0.500000  0.500000  0.500000
  0.750000  0.750000  0.750000
 
   32   32   32
 0.87709745851E+00 0.89751773919E+00 0.96063089076E+00 0.10715993321E+01 0.12379916183E+01
 0.14687235528E+01 0.17730546284E+01 0.21593345569E+01 0.26327788456E+01 0.31917846361E+01
 0.38233255739E+01 0.44991616055E+01 0.51750070677E+01 0.57940391040E+01 0.62946877499E+01
 0.66212371788E+01 0.67347277890E+01 0.66211803178E+01 0.62946350208E+01 0.57940470167E+01
 0.51750744789E+01 0.44992424538E+01 0.38233777143E+01 0.31917973839E+01 0.26327649654E+01
 0.21593109695E+01 0.17730319636E+01 0.14687059523E+01 0.12379808476E+01 0.10715969617E+01
 0.96063581197E+00 0.89752366357E+00 0.89751773919E+00 0.93247396649E+00 0.10055092485E+01
 0.11221739525E+01 0.12893675754E+01 0.15142326527E+01 0.18031373156E+01 0.21604569178E+01
 0.25866329040E+01 0.30752720723E+01 0.36098722057E+01 0.41616335826E+01 0.46900383108E+01
 0.51471260296E+01 0.54850074206E+01 0.56648446294E+01 0.56648509628E+01 0.54850104501E+01
 0.51471050593E+01 0.46900071950E+01 0.41616293002E+01 0.36099044881E+01 0.30753055590E+01
 0.25866286046E+01 0.21604178044E+01 0.18031003914E+01 0.15142244448E+01 0.12893820422E+01
 0.11221910677E+01 0.10055192485E+01 0.93247843805E+00 0.89751913289E+00 0.96063089076E+00
 0.10055092485E+01 0.10845497603E+01 0.12030684808E+01 0.13667939814E+01 0.15808585337E+01
 0.18489088675E+01 0.21720281518E+01 0.25471069945E+01 0.29646426735E+01 0.34065807738E+01
 0.38453987864E+01 0.42456833306E+01 0.45686951365E+01 0.47791345645E+01 0.48522472768E+01
 0.47791369689E+01 0.45687116858E+01 0.42457152533E+01 0.38454251881E+01 0.34065782563E+01
 0.29646126428E+01 0.25470722758E+01 0.21720036228E+01 0.18488899195E+01 0.15808417741E+01
 0.13667908998E+01 0.12030858213E+01 0.10845710523E+01 0.10055141362E+01 0.96062389170E+00
 0.94612452188E+00 0.10715993321E+01 0.11221739525E+01 0.12030684808E+01 0.13189084727E+01
 0.14740615330E+01 0.16718257520E+01 0.19136871267E+01 0.21983657321E+01 0.25204445789E+01
 0.28687341601E+01 0.32250265976E+01 0.35642215105E+01 0.38566135832E+01 0.40723499587E+01
 0.41870664616E+01 0.41870549531E+01 0.40723310505E+01 0.38566171302E+01 0.35642553542E+01
 0.32250589859E+01 0.28687226633E+01 0.25203845854E+01 0.21982986158E+01 0.19136557194E+01
 0.16718342037E+01 0.14740849209E+01 0.13189262929E+01 0.12030761352E+01 0.11221732234E+01
 0.10715939977E+01 0.10474311689E+01 0.10474343000E+01 0.12379916183E+01 0.12893675754E+01
 0.13667939814E+01 0.14740615330E+01 0.16143584953E+01 0.17896620792E+01 0.20000492116E+01
 0.22427595312E+01 0.25110279045E+01 0.27929963131E+01 0.30713089459E+01 0.33240666739E+01
 0.35274718021E+01 0.36598133324E+01 0.37057847529E+01 0.36598379288E+01 0.35274782376E+01
 0.33240292780E+01 0.30712519584E+01 0.27929575537E+01 0.25110124483E+01 0.22427472357E+01
 0.20000336675E+01 0.17896599075E+01 0.16143818568E+01 0.14740982490E+01 0.13668199774E+01
 0.12893706454E+01 0.12379789545E+01 0.12089783892E+01 0.11996529969E+01 0.12089905841E+01
 0.14687235528E+01 0.15142326527E+01 0.15808585337E+01 0.16718257520E+01 0.17896620792E+01
 0.19356750486E+01 0.21091959338E+01 0.23066080873E+01 0.25204436477E+01 0.27389463330E+01
 0.29464642845E+01 0.31249209090E+01 0.32563688437E+01 0.33262097471E+01 0.33262209771E+01
 0.32563941255E+01 0.31249354056E+01 0.29464408203E+01 0.27388868289E+01 0.25203900437E+01
 0.23066047554E+01 0.21092419586E+01 0.19357278753E+01 0.17896875187E+01 0.16718284247E+01
 0.15808599591E+01 0.15142372498E+01 0.14687199962E+01 0.14409010105E+01 0.14278562435E+01
 0.14278639523E+01 0.14409141594E+01 0.17730546284E+01 0.18031373156E+01 0.18489088675E+01
 0.19136871267E+01 0.20000492116E+01 0.21091959338E+01 0.22400908050E+01 0.23886086003E+01
 0.25471062652E+01 0.27046906096E+01 0.28481947648E+01 0.29637683928E+01 0.30389735362E+01
 0.30650865981E+01 0.30389671893E+01 0.29637725414E+01 0.28482176616E+01 0.27047208618E+01
 0.25471291278E+01 0.23886212408E+01 0.22400994100E+01 0.21092073269E+01 0.20000645918E+01
 0.19136960594E+01 0.18488951579E+01 0.18031017569E+01 0.17730236908E+01 0.17550813203E+01
 0.17459348632E+01 0.17431721117E+01 0.17459230896E+01 0.17550850646E+01 0.21593345569E+01
 0.21604569178E+01 0.21720281518E+01 0.21983657321E+01 0.22427595312E+01 0.23066080873E+01
 0.23886086003E+01 0.24843628823E+01 0.25866321899E+01 0.26861690903E+01 0.27728847395E+01
 0.28371943144E+01 0.28714811632E+01 0.28714864748E+01 0.28372038261E+01 0.27728904179E+01
 0.26861787035E+01 0.25866629232E+01 0.24844106771E+01 0.23886364668E+01 0.23065830429E+01
 0.22426950915E+01 0.21983067553E+01 0.21719964557E+01 0.21604370612E+01 0.21593137929E+01
 0.21640128218E+01 0.21701567342E+01 0.21742188427E+01 0.21742114208E+01 0.21701488999E+01
 0.21640227613E+01 0.26327788456E+01 0.25866329040E+01 0.25471069945E+01 0.25204445789E+01
 0.25110279045E+01 0.25204436477E+01 0.25471062652E+01 0.25866321899E+01 0.26327767548E+01
 0.26785339559E+01 0.27171234035E+01 0.27428478245E+01 0.27518771641E+01 0.27428602341E+01
 0.27171512097E+01 0.26785630164E+01 0.26327781540E+01 0.25865947970E+01 0.25470521174E+01
 0.25203990148E+01 0.25109905623E+01 0.25203952506E+01 0.25470464495E+01 0.25865883318E+01
 0.26327710210E+01 0.26785565528E+01 0.27171476160E+01 0.27428598251E+01 0.27518783404E+01
 0.27428497796E+01 0.27171264569E+01 0.26785373564E+01 0.31917846361E+01 0.30752720723E+01
 0.29646426735E+01 0.28687341601E+01 0.27929963131E+01 0.27389463330E+01 0.27046906096E+01
 0.26861690903E+01 0.26785339559E+01 0.26772092987E+01 0.26784899854E+01 0.26797999610E+01
 0.26798104806E+01 0.26785153370E+01 0.26772372507E+01 0.26785487717E+01 0.26861449529E+01
 0.27046084909E+01 0.27388318324E+01 0.27929140578E+01 0.28687223182E+01 0.29646715726E+01
 0.30752885530E+01 0.31917780209E+01 0.33033751936E+01 0.33990199519E+01 0.34689211897E+01
 0.35058021406E+01 0.35057877821E+01 0.34688893381E+01 0.33989965802E+01 0.33033757099E+01
 0.38233255739E+01 0.36098722057E+01 0.34065807738E+01 0.32250265976E+01 0.30713089459E+01
 0.29464642845E+01 0.28481947648E+01 0.27728847395E+01 0.27171234035E+01 0.26784899854E+01
 0.26556697732E+01 0.26481268009E+01 0.26557065407E+01 0.26785100513E+01 0.27170992024E+01
 0.27728394742E+01 0.28481477974E+01 0.29464091325E+01 0.30712531597E+01 0.32250007315E+01
 0.34065957344E+01 0.36099096508E+01 0.38233733963E+01 0.40312815938E+01 0.42162583804E+01
 0.43619289097E+01 0.44550776764E+01 0.44871333561E+01 0.44550999122E+01 0.43619298164E+01
 0.42162186434E+01 0.40312263484E+01 0.44991616055E+01 0.41616335826E+01 0.38453987864E+01
 0.35642215105E+01 0.33240666739E+01 0.31249209090E+01 0.29637683928E+01 0.28371943144E+01
 0.27428478245E+01 0.26797999610E+01 0.26481268009E+01 0.26481418257E+01 0.26798211067E+01
 0.27428342067E+01 0.28371344473E+01 0.29636851815E+01 0.31248520764E+01 0.33240466646E+01
 0.35642536540E+01 0.38454396122E+01 0.41616409507E+01 0.44991579858E+01 0.48370240008E+01
 0.51498018393E+01 0.54116110611E+01 0.55999512227E+01 0.56984498048E+01 0.56984875980E+01
 0.56000055090E+01 0.54115976246E+01 0.51497372754E+01 0.48369859318E+01 0.51750070677E+01
 0.46900383108E+01 0.42456833306E+01 0.38566135832E+01 0.35274718021E+01 0.32563688437E+01
 0.30389735362E+01 0.28714811632E+01 0.27518771641E+01 0.26798104806E+01 0.26557065407E+01
 0.26798211067E+01 0.27518642298E+01 0.28714264192E+01 0.30388990050E+01 0.32563048668E+01
 0.35274272451E+01 0.38565911537E+01 0.42456987690E+01 0.46900973621E+01 0.51750742894E+01
 0.56749816762E+01 0.61557432797E+01 0.65798040799E+01 0.69117496450E+01 0.71231100210E+01
 0.71956500921E+01 0.71231268990E+01 0.69117981269E+01 0.65798740387E+01 0.61557874741E+01
 0.56749615927E+01 0.57940391040E+01 0.51471260296E+01 0.45686951365E+01 0.40723499587E+01
 0.36598133324E+01 0.33262097471E+01 0.30650865981E+01 0.28714864748E+01 0.27428602341E+01
 0.26785153370E+01 0.26785100513E+01 0.27428342067E+01 0.28714264192E+01 0.30650063027E+01
 0.33261470818E+01 0.36597868941E+01 0.40723378601E+01 0.45686799564E+01 0.51471379410E+01
 0.57941081309E+01 0.64810863180E+01 0.71660316897E+01 0.77987267037E+01 0.83280347201E+01
 0.87089315863E+01 0.89081715005E+01 0.89081781956E+01 0.87089783387E+01 0.83281370319E+01
 0.77988178763E+01 0.71660299797E+01 0.64810064106E+01 0.62946877499E+01 0.54850074206E+01
 0.47791345645E+01 0.41870664616E+01 0.37057847529E+01 0.33262209771E+01 0.30389671893E+01
 0.28372038261E+01 0.27171512097E+01 0.26772372507E+01 0.27170992024E+01 0.28371344473E+01
 0.30388990050E+01 0.33261470818E+01 0.37057177656E+01 0.41870479242E+01 0.47791799730E+01
 0.54850755902E+01 0.62947252123E+01 0.71799753238E+01 0.80937941042E+01 0.89746677796E+01
 0.97545229269E+01 0.10367786338E+02 0.10759961646E+02 0.10894906601E+02 0.10759951312E+02
 0.10367775786E+02 0.97545227396E+01 0.89746822574E+01 0.80938157940E+01 0.71799800818E+01
 0.66212371788E+01 0.56648446294E+01 0.48522472768E+01 0.41870549531E+01 0.36598379288E+01
 0.32563941255E+01 0.29637725414E+01 0.27728904179E+01 0.26785630164E+01 0.26785487717E+01
 0.27728394742E+01 0.29636851815E+01 0.32563048668E+01 0.36597868941E+01 0.41870479242E+01
 0.48522686600E+01 0.56648917368E+01 0.66213043729E+01 0.76974405628E+01 0.88457423235E+01
 0.99977602241E+01 0.11071055788E+02 0.11978336255E+02 0.12637949556E+02 0.12985572890E+02
 0.12985484435E+02 0.12637768634E+02 0.11978223019E+02 0.11071077637E+02 0.99978420488E+01
 0.88457748549E+01 0.76973978262E+01 0.67347277890E+01 0.56648509628E+01 0.47791369689E+01
 0.40723310505E+01 0.35274782376E+01 0.31249354056E+01 0.28482176616E+01 0.26861787035E+01
 0.26327781540E+01 0.26861449529E+01 0.28481477974E+01 0.31248520764E+01 0.35274272451E+01
 0.40723378601E+01 0.47791799730E+01 0.56648917368E+01 0.67347524449E+01 0.79730098621E+01
 0.93371466916E+01 0.10758073167E+02 0.12145110649E+02 0.13393205812E+02 0.14392220356E+02
 0.15040370680E+02 0.15264761280E+02 0.15040253526E+02 0.14392073532E+02 0.13393113134E+02
 0.12145082462E+02 0.10758068999E+02 0.93371376854E+01 0.79729940598E+01 0.66211803178E+01
 0.54850104501E+01 0.45687116858E+01 0.38566171302E+01 0.33240292780E+01 0.29464408203E+01
 0.27047208618E+01 0.25866629232E+01 0.25865947970E+01 0.27046084909E+01 0.29464091325E+01
 0.33240466646E+01 0.38565911537E+01 0.45686799564E+01 0.54850755902E+01 0.66213043729E+01
 0.79730098621E+01 0.95080575273E+01 0.11164176094E+02 0.12851336840E+02 0.14455640822E+02
 0.15841629293E+02 0.16860370161E+02 0.17398864239E+02 0.17398892517E+02 0.16860376330E+02
 0.15841496798E+02 0.14455408545E+02 0.12851185610E+02 0.11164199796E+02 0.95081346480E+01
 0.79729759495E+01 0.62946350208E+01 0.51471050593E+01 0.42457152533E+01 0.35642553542E+01
 0.30712519584E+01 0.27388868289E+01 0.25471291278E+01 0.24844106771E+01 0.25470521174E+01
 0.27388318324E+01 0.30712531597E+01 0.35642536540E+01 0.42456987690E+01 0.51471379410E+01
 0.62947252123E+01 0.76974405628E+01 0.93371466916E+01 0.11164176094E+02 0.13097902981E+02
 0.15027616005E+02 0.16799831396E+02 0.18224697134E+02 0.19146845463E+02 0.19465888092E+02
 0.19146780925E+02 0.18224606706E+02 0.16799729451E+02 0.15027502111E+02 0.13097815949E+02
 0.11164149763E+02 0.93371323608E+01 0.76973723371E+01 0.57940470167E+01 0.46900071950E+01
 0.38454251881E+01 0.32250589859E+01 0.27929575537E+01 0.25203900437E+01 0.23886212408E+01
 0.23886364668E+01 0.25203990148E+01 0.27929140578E+01 0.32250007315E+01 0.38454396122E+01
 0.46900973621E+01 0.57941081309E+01 0.71799753238E+01 0.88457423235E+01 0.10758073167E+02
 0.12851336840E+02 0.15027616005E+02 0.17134819239E+02 0.18956389175E+02 0.20296801992E+02
 0.21008020779E+02 0.21007936735E+02 0.20296675764E+02 0.18956393188E+02 0.17134897511E+02
 0.15027583818E+02 0.12851178734E+02 0.10757954996E+02 0.88457458232E+01 0.71799967666E+01
 0.51750744789E+01 0.41616293002E+01 0.34065782563E+01 0.28687226633E+01 0.25110124483E+01
 0.23066047554E+01 0.22400994100E+01 0.23065830429E+01 0.25109905623E+01 0.28687223182E+01
 0.34065957344E+01 0.41616409507E+01 0.51750742894E+01 0.64810863180E+01 0.80937941042E+01
 0.99977602241E+01 0.12145110649E+02 0.14455640822E+02 0.16799831396E+02 0.18956389175E+02
 0.20698351500E+02 0.21834396134E+02 0.22229682871E+02 0.21834467340E+02 0.20698392828E+02
 0.18956342003E+02 0.16799746559E+02 0.14455584504E+02 0.12145081380E+02 0.99977285431E+01
 0.80937638104E+01 0.64810765968E+01 0.44992424538E+01 0.36099044881E+01 0.29646126428E+01
 0.25203845854E+01 0.22427472357E+01 0.21092419586E+01 0.21092073269E+01 0.22426950915E+01
 0.25203952506E+01 0.29646715726E+01 0.36099096508E+01 0.44991579858E+01 0.56749816762E+01
 0.71660316897E+01 0.89746677796E+01 0.11071055788E+02 0.13393205812E+02 0.15841629293E+02
 0.18224697134E+02 0.20296801992E+02 0.21834396134E+02 0.22656189105E+02 0.22656261423E+02
 0.21834477173E+02 0.20296710484E+02 0.18224505764E+02 0.15841545558E+02 0.13393251392E+02
 0.11071075102E+02 0.89746040454E+01 0.71659999661E+01 0.56750537043E+01 0.38233777143E+01
 0.30753055590E+01 0.25470722758E+01 0.21982986158E+01 0.20000336675E+01 0.19357278753E+01
 0.20000645918E+01 0.21983067553E+01 0.25470464495E+01 0.30752885530E+01 0.38233733963E+01
 0.48370240008E+01 0.61557432797E+01 0.77987267037E+01 0.97545229269E+01 0.11978336255E+02
 0.14392220356E+02 0.16860370161E+02 0.19146845463E+02 0.21008020779E+02 0.22229682871E+02
 0.22656261423E+02 0.22229649448E+02 0.21007972952E+02 0.19146804116E+02 0.16860330696E+02
 0.14392158043E+02 0.11978262754E+02 0.97545018116E+01 0.77987895975E+01 0.61558331982E+01
 0.48370671427E+01 0.31917973839E+01 0.25866286046E+01 0.21720036228E+01 0.19136557194E+01
 0.17896599075E+01 0.17896875187E+01 0.19136960594E+01 0.21719964557E+01 0.25865883318E+01
 0.31917780209E+01 0.40312815938E+01 0.51498018393E+01 0.65798040799E+01 0.83280347201E+01
 0.10367786338E+02 0.12637949556E+02 0.15040370680E+02 0.17398864239E+02 0.19465888092E+02
 0.21007936735E+02 0.21834467340E+02 0.21834477173E+02 0.21007972952E+02 0.19465940398E+02
 0.17398880365E+02 0.15040310320E+02 0.12637857425E+02 0.10367763476E+02 0.83281156955E+01
 0.65799134717E+01 0.51498547408E+01 0.40312863612E+01 0.26327649654E+01 0.21604178044E+01
 0.18488899195E+01 0.16718342037E+01 0.16143818568E+01 0.16718284247E+01 0.18488951579E+01
 0.21604370612E+01 0.26327710210E+01 0.33033751936E+01 0.42162583804E+01 0.54116110611E+01
 0.69117496450E+01 0.87089315863E+01 0.10759961646E+02 0.12985572890E+02 0.15264761280E+02
 0.17398892517E+02 0.19146780925E+02 0.20296675764E+02 0.20698392828E+02 0.20296710484E+02
 0.19146804116E+02 0.17398880365E+02 0.15264743100E+02 0.12985583531E+02 0.10760001971E+02
 0.87089859235E+01 0.69118178906E+01 0.54116961864E+01 0.42163367589E+01 0.33034132024E+01
 0.21593109695E+01 0.18031003914E+01 0.15808417741E+01 0.14740849209E+01 0.14740982490E+01
 0.15808599591E+01 0.18031017569E+01 0.21593137929E+01 0.26785565528E+01 0.33990199519E+01
 0.43619289097E+01 0.55999512227E+01 0.71231100210E+01 0.89081715005E+01 0.10894906601E+02
 0.12985484435E+02 0.15040253526E+02 0.16860376330E+02 0.18224606706E+02 0.18956393188E+02
 0.18956342003E+02 0.18224505764E+02 0.16860330696E+02 0.15040310320E+02 0.12985583531E+02
 0.10894965875E+02 0.89081964554E+01 0.71231731381E+01 0.56000699239E+01 0.43620308551E+01
 0.33990503405E+01 0.26785463707E+01 0.17730319636E+01 0.15142244448E+01 0.13667908998E+01
 0.13189262929E+01 0.13668199774E+01 0.15142372498E+01 0.17730236908E+01 0.21640128218E+01
 0.27171476160E+01 0.34689211897E+01 0.44550776764E+01 0.56984498048E+01 0.71956500921E+01
 0.89081781956E+01 0.10759951312E+02 0.12637768634E+02 0.14392073532E+02 0.15841496798E+02
 0.16799729451E+02 0.17134897511E+02 0.16799746559E+02 0.15841545558E+02 0.14392158043E+02
 0.12637857425E+02 0.10760001971E+02 0.89081964554E+01 0.71956938026E+01 0.56985447307E+01
 0.44551657044E+01 0.34689395917E+01 0.27171192367E+01 0.21640010221E+01 0.14687059523E+01
 0.12893820422E+01 0.12030858213E+01 0.12030761352E+01 0.12893706454E+01 0.14687199962E+01
 0.17550813203E+01 0.21701567342E+01 0.27428598251E+01 0.35058021406E+01 0.44871333561E+01
 0.56984875980E+01 0.71231268990E+01 0.87089783387E+01 0.10367775786E+02 0.11978223019E+02
 0.13393113134E+02 0.14455408545E+02 0.15027502111E+02 0.15027583818E+02 0.14455584504E+02
 0.13393251392E+02 0.11978262754E+02 0.10367763476E+02 0.87089859235E+01 0.71231731381E+01
 0.56985447307E+01 0.44871752310E+01 0.35058211989E+01 0.27428525132E+01 0.21701241857E+01
 0.17550440297E+01 0.12379808476E+01 0.11221910677E+01 0.10845710523E+01 0.11221732234E+01
 0.12379789545E+01 0.14409010105E+01 0.17459348632E+01 0.21742188427E+01 0.27518783404E+01
 0.35057877821E+01 0.44550999122E+01 0.56000055090E+01 0.69117981269E+01 0.83281370319E+01
 0.97545227396E+01 0.11071077637E+02 0.12145082462E+02 0.12851185610E+02 0.13097815949E+02
 0.12851178734E+02 0.12145081380E+02 0.11071075102E+02 0.97545018116E+01 0.83281156955E+01
 0.69118178906E+01 0.56000699239E+01 0.44551657044E+01 0.35058211989E+01 0.27518810649E+01
 0.21742000390E+01 0.17459008828E+01 0.14408735753E+01 0.10715969617E+01 0.10055192485E+01
 0.10055141362E+01 0.10715939977E+01 0.12089783892E+01 0.14278562435E+01 0.17431721117E+01
 0.21742114208E+01 0.27428497796E+01 0.34688893381E+01 0.43619298164E+01 0.54115976246E+01
 0.65798740387E+01 0.77988178763E+01 0.89746822574E+01 0.99978420488E+01 0.10758068999E+02
 0.11164199796E+02 0.11164149763E+02 0.10757954996E+02 0.99977285431E+01 0.89746040454E+01
 0.77987895975E+01 0.65799134717E+01 0.54116961864E+01 0.43620308551E+01 0.34689395917E+01
 0.27428525132E+01 0.21742000390E+01 0.17431587617E+01 0.14278380841E+01 0.12089660564E+01
 0.96063581197E+00 0.93247843805E+00 0.96062389170E+00 0.10474311689E+01 0.11996529969E+01
 0.14278639523E+01 0.17459230896E+01 0.21701488999E+01 0.27171264569E+01 0.33989965802E+01
 0.42162186434E+01 0.51497372754E+01 0.61557874741E+01 0.71660299797E+01 0.80938157940E+01
 0.88457748549E+01 0.93371376854E+01 0.95081346480E+01 0.93371323608E+01 0.88457458232E+01
 0.80937638104E+01 0.71659999661E+01 0.61558331982E+01 0.51498547408E+01 0.42163367589E+01
 0.33990503405E+01 0.27171192367E+01 0.21701241857E+01 0.17459008828E+01 0.14278380841E+01
 0.11996305080E+01 0.10474296621E+01 0.89752366357E+00 0.89751913289E+00 0.94612452188E+00
 0.10474343000E+01 0.12089905841E+01 0.14409141594E+01 0.17550850646E+01 0.21640227613E+01
 0.26785373564E+01 0.33033757099E+01 0.40312263484E+01 0.48369859318E+01 0.56749615927E+01
 0.64810064106E+01 0.71799800818E+01 0.76973978262E+01 0.79729940598E+01 0.79729759495E+01
 0.76973723371E+01 0.71799967666E+01 0.64810765968E+01 0.56750537043E+01 0.48370671427E+01
 0.40312863612E+01 0.33034132024E+01 0.26785463707E+01 0.21640010221E+01 0.17550440297E+01
 0.14408735753E+01 0.12089660564E+01 0.10474296621E+01 0.94613134131E+00 0.89752041839E+00
 0.93247663995E+00 0.10055107149E+01 0.11221749236E+01 0.12893692985E+01 0.15142345513E+01
 0.18031382377E+01 0.21604574265E+01 0.25866340554E+01 0.30752732573E+01 0.36098725111E+01
 0.41616339331E+01 0.46900398958E+01 0.51471279309E+01 0.54850081975E+01 0.56648449943E+01
 0.56648525445E+01 0.54850131577E+01 0.51471079378E+01 0.46900104846E+01 0.41616331828E+01
 0.36099070457E+01 0.30753044599E+01 0.25866238560E+01 0.21604108492E+01 0.18030919309E+01
 0.15142153737E+01 0.12893749351E+01 0.11221880528E+01 0.10055194306E+01 0.93247962624E+00
 0.89752085859E+00 0.93247663995E+00 0.97585355502E+00 0.10524787063E+01 0.11677480266E+01
 0.13274819160E+01 0.15368718078E+01 0.17995343296E+01 0.21164399040E+01 0.24843630300E+01
 0.28937767007E+01 0.33267789306E+01 0.37562707859E+01 0.41476058468E+01 0.44630931231E+01
 0.46685081387E+01 0.47398659062E+01 0.46685181092E+01 0.44630806309E+01 0.41475702311E+01
 0.37562571582E+01 0.33268082445E+01 0.28938018870E+01 0.24843280839E+01 0.21163593869E+01
 0.17994770353E+01 0.15368746747E+01 0.13275153297E+01 0.11677681134E+01 0.10524802053E+01
 0.97585589514E+00 0.93248377939E+00 0.91849100061E+00 0.10055107149E+01 0.10524787063E+01
 0.11282176637E+01 0.12375859317E+01 0.13851272763E+01 0.15741734446E+01 0.18060870912E+01
 0.20794004782E+01 0.23886088723E+01 0.27227004796E+01 0.30640287267E+01 0.33884890648E+01
 0.36677572151E+01 0.38735458329E+01 0.39828848294E+01 0.39828862152E+01 0.38735505384E+01
 0.36677678837E+01 0.33885068941E+01 0.30640442267E+01 0.27226954736E+01 0.23885758843E+01
 0.20793556103E+01 0.18060561164E+01 0.15741682908E+01 0.13851407626E+01 0.12376038980E+01
 0.11282292516E+01 0.10524795333E+01 0.10055045872E+01 0.98320015600E+00 0.98320391834E+00
 0.11221749236E+01 0.11677480266E+01 0.12375859317E+01 0.13358434560E+01 0.14658870915E+01
 0.16296152422E+01 0.18268771582E+01 0.20547547503E+01 0.23066092116E+01 0.25711334597E+01
 0.28319863145E+01 0.30686656665E+01 0.32589572440E+01 0.33826517114E+01 0.34255673838E+01
 0.33826213597E+01 0.32589429370E+01 0.30686939799E+01 0.28320232459E+01 0.25711261429E+01
 0.23065544172E+01 0.20547033430E+01 0.18268717641E+01 0.16296450904E+01 0.14659119767E+01
 0.13358442340E+01 0.12375758011E+01 0.11677445378E+01 0.11221797050E+01 0.10968254083E+01
 0.10887315940E+01 0.10968202915E+01 0.12893692985E+01 0.13274819160E+01 0.13851272763E+01
 0.14658870915E+01 0.15723503145E+01 0.17056086278E+01 0.18647330164E+01 0.20461148019E+01
 0.22427600215E+01 0.24438483653E+01 0.26349812955E+01 0.27994663886E+01 0.29206813068E+01
 0.29850927739E+01 0.29850868485E+01 0.29206724315E+01 0.27994653924E+01 0.26349801339E+01
 0.24438301282E+01 0.22427258700E+01 0.20460870131E+01 0.18647297939E+01 0.17056257883E+01
 0.15723699595E+01 0.14658965737E+01 0.13851262025E+01 0.13274764978E+01 0.12893650121E+01
 0.12668743001E+01 0.12566172917E+01 0.12566174870E+01 0.12668758986E+01 0.15142345513E+01
 0.15368718078E+01 0.15741734446E+01 0.16296152422E+01 0.17056086278E+01 0.18030351514E+01
 0.19206967057E+01 0.20547540527E+01 0.21983650624E+01 0.23417495130E+01 0.24728683525E+01
 0.25788316869E+01 0.26479482579E+01 0.26719896168E+01 0.26479779969E+01 0.25788671032E+01
 0.24728750109E+01 0.23417158249E+01 0.21983239146E+01 0.20547519382E+01 0.19207374624E+01
 0.18030743230E+01 0.17056102148E+01 0.16295933138E+01 0.15741641241E+01 0.15368816558E+01
 0.15142377690E+01 0.15022030597E+01 0.14969141727E+01 0.14955166989E+01 0.14969376310E+01
 0.15022223102E+01 0.18031382377E+01 0.17995343296E+01 0.18060870912E+01 0.18268771582E+01
 0.18647330164E+01 0.19206967057E+01 0.19935239687E+01 0.20794004940E+01 0.21720278795E+01
 0.22631092697E+01 0.23432218033E+01 0.24030877763E+01 0.24351595728E+01 0.24351703865E+01
 0.24031130700E+01 0.23432433745E+01 0.22631120408E+01 0.21720184070E+01 0.20794028648E+01
 0.19935496102E+01 0.19207277963E+01 0.18647449929E+01 0.18268682712E+01 0.18060740419E+01
 0.17995267161E+01 0.18031310354E+01 0.18120875787E+01 0.18215442863E+01 0.18274456094E+01
 0.18274510640E+01 0.18215570359E+01 0.18120996209E+01 0.21604574265E+01 0.21164399040E+01
 0.20794004782E+01 0.20547547503E+01 0.20461148019E+01 0.20547540527E+01 0.20794004940E+01
 0.21164406616E+01 0.21604576222E+01 0.22049471789E+01 0.22431375716E+01 0.22689504639E+01
 0.22780835162E+01 0.22689601827E+01 0.22431374095E+01 0.22049338642E+01 0.21604540574E+01
 0.21164582434E+01 0.20794132373E+01 0.20547319684E+01 0.20460709420E+01 0.20547323698E+01
 0.20794146585E+01 0.21164594190E+01 0.21604523938E+01 0.22049288970E+01 0.22431312062E+01
 0.22689542982E+01 0.22780781335E+01 0.22689463478E+01 0.22431358999E+01 0.22049472471E+01
 0.25866340554E+01 0.24843630300E+01 0.23886088723E+01 0.23066092116E+01 0.22427600215E+01
 0.21983650624E+01 0.21720278795E+01 0.21604576222E+01 0.21593348947E+01 0.21640227204E+01
 0.21701507888E+01 0.21742163264E+01 0.21742250463E+01 0.21701626906E+01 0.21640186488E+01
 0.21593188252E+01 0.21604392200E+01 0.21719953494E+01 0.21983044176E+01 0.22426925161E+01
 0.23065789479E+01 0.23886304379E+01 0.24844043618E+01 0.25866570822E+01 0.26861723253E+01
 0.27728839032E+01 0.28371998052E+01 0.28714861441E+01 0.28714827668E+01 0.28371963300E+01
 0.27728875113E+01 0.26861723115E+01 0.30752732573E+01 0.28937767007E+01 0.27227004796E+01
 0.25711334597E+01 0.24438483653E+01 0.23417495130E+01 0.22631092697E+01 0.22049471789E+01
 0.21640227204E+01 0.21373479529E+01 0.21224591871E+01 0.21176890919E+01 0.21224490839E+01
 0.21373469517E+01 0.21640376297E+01 0.22049427641E+01 0.22630344998E+01 0.23416131629E+01
 0.24437427779E+01 0.25711452375E+01 0.27228099657E+01 0.28938844502E+01 0.30753163435E+01
 0.32544121754E+01 0.34162256001E+01 0.35455467654E+01 0.36291797025E+01 0.36581184729E+01
 0.36291631702E+01 0.35455273943E+01 0.34162208615E+01 0.32544116424E+01 0.36098725111E+01
 0.33267789306E+01 0.30640287267E+01 0.28319863145E+01 0.26349812955E+01 0.24728683525E+01
 0.23432218033E+01 0.22431375716E+01 0.21701507888E+01 0.21224591871E+01 0.20988906957E+01
 0.20988749666E+01 0.21224344020E+01 0.21701476422E+01 0.22431329083E+01 0.23431464748E+01
 0.24727052875E+01 0.26348329033E+01 0.28319894806E+01 0.30641978255E+01 0.33269841274E+01
 0.36099880067E+01 0.38968493065E+01 0.41665456331E+01 0.43959865404E+01 0.45633849825E+01
 0.46517415808E+01 0.46517306965E+01 0.45633578606E+01 0.43959637880E+01 0.41665419323E+01
 0.38968259720E+01 0.41616339331E+01 0.37562707859E+01 0.33884890648E+01 0.30686656665E+01
 0.27994663886E+01 0.25788316869E+01 0.24030877763E+01 0.22689504639E+01 0.21742163264E+01
 0.21176890919E+01 0.20988749666E+01 0.21176757556E+01 0.21742128742E+01 0.22689287780E+01
 0.24029715397E+01 0.25786172324E+01 0.27992900892E+01 0.30686831559E+01 0.33886977226E+01
 0.37565103281E+01 0.41617658784E+01 0.45851393908E+01 0.49990720143E+01 0.53707152044E+01
 0.56664789000E+01 0.58572414579E+01 0.59231831976E+01 0.58572539598E+01 0.56664764988E+01
 0.53706987665E+01 0.49990639376E+01 0.45851093838E+01 0.46900398958E+01 0.41476058468E+01
 0.36677572151E+01 0.32589572440E+01 0.29206813068E+01 0.26479482579E+01 0.24351595728E+01
 0.22780835162E+01 0.21742250463E+01 0.21224490839E+01 0.21224344020E+01 0.21742128742E+01
 0.22780777399E+01 0.24350569813E+01 0.26476881402E+01 0.29204196323E+01 0.32589422953E+01
 0.36680278682E+01 0.41479332604E+01 0.46901951149E+01 0.52743758911E+01 0.58673497323E+01
 0.64258470262E+01 0.69018466505E+01 0.72496886673E+01 0.74335129731E+01 0.74335362872E+01
 0.72497261198E+01 0.69018600043E+01 0.64258644212E+01 0.58674062236E+01 0.52743966577E+01
 0.51471279309E+01 0.44630931231E+01 0.38735458329E+01 0.33826517114E+01 0.29850927739E+01
 0.26719896168E+01 0.24351703865E+01 0.22689601827E+01 0.21701626906E+01 0.21373469517E+01
 0.21701476422E+01 0.22689287780E+01 0.24350569813E+01 0.26717382312E+01 0.29848210010E+01
 0.33826041876E+01 0.38738133706E+01 0.44634743903E+01 0.51473458788E+01 0.59066334739E+01
 0.67051767776E+01 0.74906240731E+01 0.81997214815E+01 0.87667732288E+01 0.91338617985E+01
 0.92610061361E+01 0.91338852391E+01 0.87667885167E+01 0.81997321737E+01 0.74906814017E+01
 0.67052781967E+01 0.59066461525E+01 0.54850081975E+01 0.46685081387E+01 0.39828848294E+01
 0.34255673838E+01 0.29850868485E+01 0.26479779969E+01 0.24031130700E+01 0.22431374095E+01
 0.21640186488E+01 0.21640376297E+01 0.22431329083E+01 0.24029715397E+01 0.26476881402E+01
 0.29848210010E+01 0.34255575704E+01 0.39831823499E+01 0.46689022238E+01 0.54852263794E+01
 0.64185762082E+01 0.74338406626E+01 0.84732266834E+01 0.94602075379E+01 0.10308031259E+02
 0.10931848181E+02 0.11263069892E+02 0.11263067596E+02 0.10931823598E+02 0.10307973715E+02
 0.94601711434E+01 0.84732880935E+01 0.74339718672E+01 0.64186074721E+01 0.56648449943E+01
 0.47398659062E+01 0.39828862152E+01 0.33826213597E+01 0.29206724315E+01 0.25788671032E+01
 0.23432433745E+01 0.22049338642E+01 0.21593188252E+01 0.22049427641E+01 0.23431464748E+01
 0.25786172324E+01 0.29204196323E+01 0.33826041876E+01 0.39831823499E+01 0.47402838662E+01
 0.56650925720E+01 0.67528040134E+01 0.79744696788E+01 0.92727793515E+01 0.10563313692E+02
 0.11741220935E+02 0.12693182681E+02 0.13314754027E+02 0.13531062257E+02 0.13314722453E+02
 0.12693092040E+02 0.11741101620E+02 0.10563278783E+02 0.92729072009E+01 0.79746677590E+01
 0.67528478761E+01 0.56648525445E+01 0.46685181092E+01 0.38735505384E+01 0.32589429370E+01
 0.27994653924E+01 0.24728750109E+01 0.22631120408E+01 0.21604540574E+01 0.21604392200E+01
 0.22630344998E+01 0.24727052875E+01 0.27992900892E+01 0.32589422953E+01 0.38738133706E+01
 0.46689022238E+01 0.56650925720E+01 0.68690829518E+01 0.82629398745E+01 0.97967524309E+01
 0.11386441901E+02 0.12916845056E+02 0.14250515220E+02 0.15244647869E+02 0.15777321313E+02
 0.15777307810E+02 0.15244603301E+02 0.14250437422E+02 0.12916766343E+02 0.11386443441E+02
 0.97968894732E+01 0.82631265286E+01 0.68691149809E+01 0.54850131577E+01 0.44630806309E+01
 0.36677678837E+01 0.30686939799E+01 0.26349801339E+01 0.23417158249E+01 0.21720184070E+01
 0.21164582434E+01 0.21719953494E+01 0.23416131629E+01 0.26348329033E+01 0.30686831559E+01
 0.36680278682E+01 0.44634743903E+01 0.54852263794E+01 0.67528040134E+01 0.82629398745E+01
 0.99794056488E+01 0.11827406556E+02 0.13692540904E+02 0.15424209733E+02 0.16847429338E+02
 0.17789340304E+02 0.18119462022E+02 0.17789310379E+02 0.16847437528E+02 0.15424233855E+02
 0.13692491749E+02 0.11827329215E+02 0.99794668309E+01 0.82631452770E+01 0.67529016073E+01
 0.51471079378E+01 0.41475702311E+01 0.33885068941E+01 0.28320232459E+01 0.24438301282E+01
 0.21983239146E+01 0.20794028648E+01 0.20794132373E+01 0.21983044176E+01 0.24437427779E+01
 0.28319894806E+01 0.33886977226E+01 0.41479332604E+01 0.51473458788E+01 0.64185762082E+01
 0.79744696788E+01 0.97967524309E+01 0.11827406556E+02 0.13963974228E+02 0.16057452764E+02
 0.17915931141E+02 0.19321720400E+02 0.20080106263E+02 0.20080089161E+02 0.19321744570E+02
 0.17916055537E+02 0.16057543805E+02 0.13963898808E+02 0.11827292107E+02 0.97968317282E+01