   2   2   0   0
  0.1529437E+02  0.3691622E-09  0.3691622E-09  0.3691622E-09  0.5000000E-15
  1.000000000000000E-004
  CAR 
 unknown system                          
     22.02040579     -6.66533423  301      9.01449800      1.00000000
     -6.665  0.0000E+00  0.0000E+00
     -6.570  0.0000E+00  0.0000E+00
     -6.474  0.0000E+00  0.0000E+00
     -6.378  0.0000E+00  0.0000E+00
     -6.283  0.0000E+00  0.0000E+00
     -6.187  0.0000E+00  0.0000E+00
     -6.092  0.0000E+00  0.0000E+00
     -5.996  0.0000E+00  0.0000E+00
     -5.900  0.0000E+00  0.0000E+00
     -5.805  0.4335E-17  0.4145E-18
     -5.709  0.8731E-15  0.8390E-16
     -5.614  0.1117E-12  0.1076E-13
     -5.518  0.9113E-11  0.8822E-12
     -5.422  0.4747E-09  0.4628E-10
     -5.327  0.1581E-07  0.1558E-08
     -5.231  0.3367E-06  0.3375E-07
     -5.135  0.4595E-05  0.4731E-06
     -5.040  0.4022E-04  0.4319E-05
     -4.944  0.2261E-03  0.2594E-04
     -4.849  0.8170E-03  0.1041E-03
     -4.753  0.1901E-02  0.2859E-03
     -4.657  0.2871E-02  0.5604E-03
     -4.562  0.2971E-02  0.8445E-03
     -4.466  0.2897E-02  0.1121E-02
     -4.370  0.4653E-02  0.1566E-02
     -4.275  0.8668E-02  0.2395E-02
     -4.179  0.1176E-01  0.3519E-02
     -4.084  0.1070E-01  0.4543E-02
     -3.988  0.7567E-02  0.5266E-02
     -3.892  0.7322E-02  0.5967E-02
     -3.797  0.1145E-01  0.7061E-02
     -3.701  0.1745E-01  0.8730E-02
     -3.606  0.2327E-01  0.1095E-01
     -3.510  0.2691E-01  0.1353E-01
     -3.414  0.2427E-01  0.1585E-01
     -3.319  0.1536E-01  0.1732E-01
     -3.223  0.6566E-02  0.1795E-01
     -3.127  0.2512E-02  0.1819E-01
     -3.032  0.3302E-02  0.1850E-01
     -2.936  0.8205E-02  0.1929E-01
     -2.841  0.1689E-01  0.2090E-01
     -2.745  0.2984E-01  0.2375E-01
     -2.649  0.4635E-01  0.2819E-01
     -2.554  0.5867E-01  0.3380E-01
     -2.458  0.5774E-01  0.3932E-01
     -2.362  0.4482E-01  0.4360E-01
     -2.267  0.2766E-01  0.4625E-01
     -2.171  0.1297E-01  0.4749E-01
     -2.076  0.4595E-02  0.4793E-01
     -1.980  0.2712E-02  0.4819E-01
     -1.884  0.6541E-02  0.4881E-01
     -1.789  0.1502E-01  0.5025E-01
     -1.693  0.2266E-01  0.5241E-01
     -1.598  0.2204E-01  0.5452E-01
     -1.502  0.1391E-01  0.5585E-01
     -1.406  0.6302E-02  0.5645E-01
     -1.311  0.4402E-02  0.5688E-01
     -1.215  0.8109E-02  0.5765E-01
     -1.119  0.1496E-01  0.5908E-01
     -1.024  0.2334E-01  0.6131E-01
     -0.928  0.3523E-01  0.6468E-01
     -0.833  0.5025E-01  0.6949E-01
     -0.737  0.5971E-01  0.7519E-01
     -0.641  0.5829E-01  0.8077E-01
     -0.546  0.5103E-01  0.8565E-01
     -0.450  0.4204E-01  0.8967E-01
     -0.354  0.3493E-01  0.9301E-01
     -0.259  0.3776E-01  0.9662E-01
     -0.163  0.5282E-01  0.1017E+00
     -0.068  0.7093E-01  0.1084E+00
      0.028  0.7745E-01  0.1159E+00
      0.124  0.6409E-01  0.1220E+00
      0.219  0.4038E-01  0.1258E+00
      0.315  0.2308E-01  0.1281E+00
      0.410  0.1548E-01  0.1295E+00
      0.506  0.1121E-01  0.1306E+00
      0.602  0.9296E-02  0.1315E+00
      0.697  0.1338E-01  0.1328E+00
      0.793  0.2207E-01  0.1349E+00
      0.889  0.2832E-01  0.1376E+00
      0.984  0.3011E-01  0.1405E+00
      1.080  0.3437E-01  0.1438E+00
      1.175  0.4493E-01  0.1481E+00
      1.271  0.5249E-01  0.1531E+00
      1.367  0.4506E-01  0.1574E+00
      1.462  0.2703E-01  0.1600E+00
      1.558  0.1521E-01  0.1614E+00
      1.654  0.2033E-01  0.1634E+00
      1.749  0.4003E-01  0.1672E+00
      1.845  0.5959E-01  0.1729E+00
      1.940  0.6309E-01  0.1789E+00
      2.036  0.5061E-01  0.1838E+00
      2.132  0.3596E-01  0.1872E+00
      2.227  0.3045E-01  0.1901E+00
      2.323  0.3593E-01  0.1935E+00
      2.418  0.4552E-01  0.1979E+00
      2.514  0.4681E-01  0.2024E+00
      2.610  0.3461E-01  0.2057E+00
      2.705  0.1871E-01  0.2075E+00
      2.801  0.1201E-01  0.2086E+00
      2.897  0.1829E-01  0.2104E+00
      2.992  0.3075E-01  0.2133E+00
      3.088  0.3796E-01  0.2169E+00
      3.183  0.3842E-01  0.2206E+00
      3.279  0.4240E-01  0.2247E+00
      3.375  0.5070E-01  0.2295E+00
      3.470  0.5158E-01  0.2344E+00
      3.566  0.4452E-01  0.2387E+00
      3.662  0.4094E-01  0.2426E+00
      3.757  0.4481E-01  0.2469E+00
      3.853  0.5184E-01  0.2519E+00
      3.948  0.5655E-01  0.2573E+00
      4.044  0.5495E-01  0.2625E+00
      4.140  0.4595E-01  0.2669E+00
      4.235  0.3137E-01  0.2699E+00
      4.331  0.1845E-01  0.2717E+00
      4.426  0.1891E-01  0.2735E+00
      4.522  0.4122E-01  0.2774E+00
      4.618  0.7782E-01  0.2849E+00
      4.713  0.1022E+00  0.2946E+00
      4.809  0.9863E-01  0.3041E+00
      4.905  0.8045E-01  0.3118E+00
      5.000  0.6019E-01  0.3175E+00
      5.096  0.3817E-01  0.3212E+00
      5.191  0.2107E-01  0.3232E+00
      5.287  0.1745E-01  0.3249E+00
      5.383  0.2362E-01  0.3271E+00
      5.478  0.2864E-01  0.3298E+00
      5.574  0.3039E-01  0.3328E+00
      5.670  0.3856E-01  0.3364E+00
      5.765  0.5691E-01  0.3419E+00
      5.861  0.7280E-01  0.3488E+00
      5.956  0.7391E-01  0.3559E+00
      6.052  0.6554E-01  0.3622E+00
      6.148  0.6175E-01  0.3681E+00
      6.243  0.6865E-01  0.3746E+00
      6.339  0.8100E-01  0.3824E+00
      6.434  0.8801E-01  0.3908E+00
      6.530  0.8123E-01  0.3986E+00
      6.626  0.6217E-01  0.4045E+00
      6.721  0.4508E-01  0.4088E+00
      6.817  0.4226E-01  0.4129E+00
      6.913  0.5151E-01  0.4178E+00
      7.008  0.6335E-01  0.4239E+00
      7.104  0.7016E-01  0.4306E+00
      7.199  0.7147E-01  0.4374E+00
      7.295  0.7036E-01  0.4441E+00
      7.391  0.6707E-01  0.4505E+00
      7.486  0.6467E-01  0.4567E+00
      7.582  0.6899E-01  0.4633E+00
      7.678  0.7598E-01  0.4706E+00
      7.773  0.7212E-01  0.4775E+00
      7.869  0.5524E-01  0.4828E+00
      7.964  0.4103E-01  0.4867E+00
      8.060  0.4209E-01  0.4907E+00
      8.156  0.5106E-01  0.4956E+00
      8.251  0.5040E-01  0.5004E+00
      8.347  0.3656E-01  0.5039E+00
      8.442  0.2248E-01  0.5061E+00
      8.538  0.1694E-01  0.5077E+00
      8.634  0.1855E-01  0.5095E+00
      8.729  0.2903E-01  0.5122E+00
      8.825  0.5319E-01  0.5173E+00
      8.921  0.8103E-01  0.5251E+00
      9.016  0.8796E-01  0.5335E+00
      9.112  0.6543E-01  0.5397E+00
      9.207  0.3427E-01  0.5430E+00
      9.303  0.1689E-01  0.5446E+00
      9.399  0.1581E-01  0.5461E+00
      9.494  0.2328E-01  0.5484E+00
      9.590  0.3420E-01  0.5516E+00
      9.686  0.4491E-01  0.5559E+00
      9.781  0.5042E-01  0.5607E+00
      9.877  0.4916E-01  0.5654E+00
      9.972  0.4490E-01  0.5697E+00
     10.068  0.4278E-01  0.5738E+00
     10.164  0.4717E-01  0.5783E+00
     10.259  0.6051E-01  0.5841E+00
     10.355  0.7447E-01  0.5912E+00
     10.450  0.7350E-01  0.5983E+00
     10.546  0.6152E-01  0.6042E+00
     10.642  0.6238E-01  0.6101E+00
     10.737  0.8513E-01  0.6183E+00
     10.833  0.1102E+00  0.6288E+00
     10.929  0.1122E+00  0.6395E+00
     11.024  0.8778E-01  0.6479E+00
     11.120  0.5775E-01  0.6534E+00
     11.215  0.3822E-01  0.6571E+00
     11.311  0.3014E-01  0.6600E+00
     11.407  0.3526E-01  0.6634E+00
     11.502  0.5280E-01  0.6684E+00
     11.598  0.6668E-01  0.6748E+00
     11.694  0.6061E-01  0.6806E+00
     11.789  0.4098E-01  0.6845E+00
     11.885  0.2739E-01  0.6871E+00
     11.980  0.2667E-01  0.6897E+00
     12.076  0.3176E-01  0.6927E+00
     12.172  0.4179E-01  0.6967E+00
     12.267  0.6270E-01  0.7027E+00
     12.363  0.8688E-01  0.7110E+00
     12.458  0.9714E-01  0.7203E+00
     12.554  0.9350E-01  0.7292E+00
     12.650  0.9086E-01  0.7379E+00
     12.745  0.9171E-01  0.7467E+00
     12.841  0.8625E-01  0.7549E+00
     12.937  0.7444E-01  0.7620E+00
     13.032  0.6535E-01  0.7683E+00
     13.128  0.5990E-01  0.7740E+00
     13.223  0.5535E-01  0.7793E+00
     13.319  0.5674E-01  0.7847E+00
     13.415  0.6540E-01  0.7910E+00
     13.510  0.7397E-01  0.7981E+00
     13.606  0.8180E-01  0.8059E+00
     13.702  0.9494E-01  0.8150E+00
     13.797  0.1094E+00  0.8254E+00
     13.893  0.1134E+00  0.8363E+00
     13.988  0.1072E+00  0.8465E+00
     14.084  0.1039E+00  0.8565E+00
     14.180  0.1072E+00  0.8667E+00
     14.275  0.1022E+00  0.8765E+00
     14.371  0.7770E-01  0.8839E+00
     14.466  0.4433E-01  0.8881E+00
     14.562  0.1900E-01  0.8900E+00
     14.658  0.7130E-02  0.8906E+00
     14.753  0.6230E-02  0.8912E+00
     14.849  0.1360E-01  0.8925E+00
     14.945  0.2538E-01  0.8950E+00
     15.040  0.3578E-01  0.8984E+00
     15.136  0.4311E-01  0.9025E+00
     15.231  0.5179E-01  0.9075E+00
     15.327  0.6472E-01  0.9136E+00
     15.423  0.7416E-01  0.9207E+00
     15.518  0.6649E-01  0.9271E+00
     15.614  0.4386E-01  0.9313E+00
     15.710  0.2757E-01  0.9339E+00
     15.805  0.3435E-01  0.9372E+00
     15.901  0.5782E-01  0.9427E+00
     15.996  0.7242E-01  0.9497E+00
     16.092  0.6450E-01  0.9558E+00
     16.188  0.5261E-01  0.9609E+00
     16.283  0.5562E-01  0.9662E+00
     16.379  0.6175E-01  0.9721E+00
     16.474  0.5215E-01  0.9771E+00
     16.570  0.3166E-01  0.9801E+00
     16.666  0.1610E-01  0.9816E+00
     16.761  0.9799E-02  0.9826E+00
     16.857  0.9329E-02  0.9835E+00
     16.953  0.1507E-01  0.9849E+00
     17.048  0.2837E-01  0.9876E+00
     17.144  0.4274E-01  0.9917E+00
     17.239  0.4891E-01  0.9964E+00
     17.335  0.4590E-01  0.1001E+01
     17.431  0.3832E-01  0.1004E+01
     17.526  0.3092E-01  0.1007E+01
     17.622  0.2930E-01  0.1010E+01
     17.718  0.3635E-01  0.1014E+01
     17.813  0.4549E-01  0.1018E+01
     17.909  0.4646E-01  0.1022E+01
     18.004  0.4032E-01  0.1026E+01
     18.100  0.3580E-01  0.1030E+01
     18.196  0.3239E-01  0.1033E+01
     18.291  0.2468E-01  0.1035E+01
     18.387  0.1661E-01  0.1037E+01
     18.482  0.1642E-01  0.1038E+01
     18.578  0.2366E-01  0.1041E+01
     18.674  0.2940E-01  0.1043E+01
     18.769  0.2752E-01  0.1046E+01
     18.865  0.1986E-01  0.1048E+01
     18.961  0.1107E-01  0.1049E+01
     19.056  0.4560E-02  0.1049E+01
     19.152  0.1508E-02  0.1050E+01
     19.247  0.1562E-02  0.1050E+01
     19.343  0.5379E-02  0.1050E+01
     19.439  0.1462E-01  0.1052E+01
     19.534  0.2701E-01  0.1054E+01
     19.630  0.3380E-01  0.1057E+01
     19.726  0.2897E-01  0.1060E+01
     19.821  0.1855E-01  0.1062E+01
     19.917  0.1267E-01  0.1063E+01
     20.012  0.1239E-01  0.1064E+01
     20.108  0.1160E-01  0.1066E+01
     20.204  0.7619E-02  0.1066E+01
     20.299  0.3269E-02  0.1067E+01
     20.395  0.9044E-03  0.1067E+01
     20.490  0.1609E-03  0.1067E+01
     20.586  0.1838E-04  0.1067E+01
     20.682  0.1347E-05  0.1067E+01
     20.777  0.6323E-07  0.1067E+01
     20.873  0.1899E-08  0.1067E+01
     20.969  0.3645E-10  0.1067E+01
     21.064  0.4467E-12  0.1067E+01
     21.160  0.3488E-14  0.1067E+01
     21.255  0.1982E-16  0.1067E+01
     21.351  0.0000E+00  0.1067E+01
     21.447  0.0000E+00  0.1067E+01
     21.542  0.0000E+00  0.1067E+01
     21.638  0.0000E+00  0.1067E+01
     21.734  0.0000E+00  0.1067E+01
     21.829  0.0000E+00  0.1067E+01
     21.925  0.0000E+00  0.1067E+01
     22.020  0.0000E+00  0.1067E+01
