<?xml version="1.0" encoding="ISO-8859-1"?>
<modeling>
 <generator>
  <i name="program" type="string">vasp </i>
  <i name="version" type="string">5.4.4.18Apr17-6-g9f103f2a35  </i>
  <i name="subversion" type="string">(build Dec 09 2018 21:25:21) complex            parallel </i>
  <i name="platform" type="string">IFC18.0.1.163_CrayMPICH7.7.0_MKL18.0.1.163 </i>
  <i name="date" type="string">2019 03 20 </i>
  <i name="time" type="string">09:29:01 </i>
 </generator>
 <incar>
  <i type="string" name="PREC">normal</i>
  <i type="int" name="IBRION">     2</i>
  <i name="EDIFF">      0.00040000</i>
  <i name="EDIFFG">     -0.01000000</i>
  <i type="int" name="NSW">    15</i>
  <i type="int" name="ISIF">     3</i>
  <i name="ENCUT">    300.00000000</i>
  <i type="int" name="NBANDS">     8</i>
  <i type="logical" name="LREAL"> F  </i>
  <i type="int" name="ISMEAR">     0</i>
  <i name="SIGMA">      0.20000000</i>
  <v type="int" name="KPOINT_BSE">    -1     0     0     0</v>
 </incar>
 <structure name="primitive_cell" >
  <crystal>
   <varray name="basis" >
    <v>      -2.45000000       2.45000000       1.27400000 </v>
    <v>       2.45000000      -2.45000000       1.27400000 </v>
    <v>       2.45000000       2.45000000      -1.27400000 </v>
   </varray>
   <i name="volume">     30.58874000 </i>
   <varray name="rec_basis" >
    <v>       0.00000000       0.20408163       0.39246468 </v>
    <v>       0.20408163       0.00000000       0.39246468 </v>
    <v>       0.20408163       0.20408163      -0.00000000 </v>
   </varray>
  </crystal>
  <varray name="positions" >
   <v>       0.25000000      -0.25000000      -0.50000000 </v>
   <v>       0.00000000       0.00000000       0.00000000 </v>
  </varray>
 </structure>
 <varray name="primitive_index" >
  <v type="int" >        1 </v>
  <v type="int" >        2 </v>
 </varray>
 <kpoints>
  <generation param="Monkhorst-Pack">
   <v type="int" name="divisions">       5        5        5 </v>
   <v name="usershift">      0.00000000       0.00000000       0.00000000 </v>
   <v name="genvec1">      0.20000000       0.00000000      -0.00000000 </v>
   <v name="genvec2">      0.00000000       0.20000000      -0.00000000 </v>
   <v name="genvec3">      0.00000000      -0.00000000       0.20000000 </v>
   <v name="shift">      0.00000000       0.00000000       0.00000000 </v>
  </generation>
  <varray name="kpointlist" >
   <v>       0.00000000       0.00000000       0.00000000 </v>
   <v>       0.20000000       0.00000000      -0.00000000 </v>
   <v>       0.40000000       0.00000000      -0.00000000 </v>
   <v>       0.20000000       0.20000000      -0.00000000 </v>
   <v>       0.40000000       0.20000000      -0.00000000 </v>
   <v>      -0.40000000       0.20000000       0.00000000 </v>
   <v>      -0.20000000       0.20000000       0.00000000 </v>
   <v>       0.40000000       0.40000000      -0.00000000 </v>
   <v>      -0.40000000       0.40000000       0.00000000 </v>
   <v>       0.20000000       0.20000000       0.20000000 </v>
   <v>      -0.20000000       0.20000000       0.20000000 </v>
   <v>      -0.40000000       0.40000000       0.20000000 </v>
   <v>      -0.20000000       0.40000000       0.20000000 </v>
   <v>      -0.40000000      -0.40000000       0.20000000 </v>
   <v>      -0.20000000      -0.40000000       0.20000000 </v>
   <v>      -0.20000000      -0.20000000       0.20000000 </v>
   <v>      -0.40000000       0.40000000       0.40000000 </v>
   <v>      -0.40000000      -0.40000000       0.40000000 </v>
  </varray>
  <varray name="weights" >
   <v>       0.00800000 </v>
   <v>       0.06400000 </v>
   <v>       0.06400000 </v>
   <v>       0.06400000 </v>
   <v>       0.12800000 </v>
   <v>       0.12800000 </v>
   <v>       0.03200000 </v>
   <v>       0.06400000 </v>
   <v>       0.03200000 </v>
   <v>       0.06400000 </v>
   <v>       0.03200000 </v>
   <v>       0.06400000 </v>
   <v>       0.06400000 </v>
   <v>       0.06400000 </v>
   <v>       0.06400000 </v>
   <v>       0.01600000 </v>
   <v>       0.03200000 </v>
   <v>       0.01600000 </v>
  </varray>
 </kpoints>
 <parameters>
  <separator name="general" >
   <i type="string" name="SYSTEM">unknown system</i>
   <i type="logical" name="LCOMPAT"> F  </i>
  </separator>
  <separator name="electronic" >
   <i type="string" name="PREC">normal</i>
   <i name="ENMAX">    300.00000000</i>
   <i name="ENAUG">    322.06900000</i>
   <i name="EDIFF">      0.00040000</i>
   <i type="int" name="IALGO">    38</i>
   <i type="int" name="IWAVPR">    11</i>
   <i type="int" name="NBANDS">     8</i>
   <i name="NELECT">      8.00000000</i>
   <i type="int" name="TURBO">     0</i>
   <i type="int" name="IRESTART">     0</i>
   <i type="int" name="NREBOOT">     0</i>
   <i type="int" name="NMIN">     0</i>
   <i name="EREF">      0.00000000</i>
   <separator name="electronic smearing" >
    <i type="int" name="ISMEAR">     0</i>
    <i name="SIGMA">      0.20000000</i>
    <i name="KSPACING">      0.50000000</i>
    <i type="logical" name="KGAMMA"> T  </i>
   </separator>
   <separator name="electronic projectors" >
    <i type="logical" name="LREAL"> F  </i>
    <v name="ROPT">      0.00000000</v>
    <i type="int" name="LMAXPAW">  -100</i>
    <i type="int" name="LMAXMIX">     2</i>
    <i type="logical" name="NLSPLINE"> F  </i>
   </separator>
   <separator name="electronic startup" >
    <i type="int" name="ISTART">     0</i>
    <i type="int" name="ICHARG">     2</i>
    <i type="int" name="INIWAV">     1</i>
   </separator>
   <separator name="electronic spin" >
    <i type="int" name="ISPIN">     1</i>
    <i type="logical" name="LNONCOLLINEAR"> F  </i>
    <v name="MAGMOM">      1.00000000      1.00000000</v>
    <i name="NUPDOWN">     -1.00000000</i>
    <i type="logical" name="LSORBIT"> F  </i>
    <v name="SAXIS">      0.00000000      0.00000000      1.00000000</v>
    <i type="logical" name="LSPIRAL"> F  </i>
    <v name="QSPIRAL">      0.00000000      0.00000000      0.00000000</v>
    <i type="logical" name="LZEROZ"> F  </i>
   </separator>
   <separator name="electronic exchange-correlation" >
    <i type="logical" name="LASPH"> F  </i>
    <i type="logical" name="LMETAGGA"> F  </i>
   </separator>
   <separator name="electronic convergence" >
    <i type="int" name="NELM">    60</i>
    <i type="int" name="NELMDL">    -5</i>
    <i type="int" name="NELMIN">     2</i>
    <i name="ENINI">    300.00000000</i>
    <separator name="electronic convergence detail" >
     <i type="logical" name="LDIAG"> T  </i>
     <i type="logical" name="LSUBROT"> F  </i>
     <i name="WEIMIN">      0.00100000</i>
     <i name="EBREAK">      0.00001250</i>
     <i name="DEPER">      0.30000000</i>
     <i type="int" name="NRMM">     4</i>
     <i name="TIME">      0.40000000</i>
    </separator>
   </separator>
   <separator name="electronic mixer" >
    <i name="AMIX">      0.40000000</i>
    <i name="BMIX">      1.00000000</i>
    <i name="AMIN">      0.10000000</i>
    <i name="AMIX_MAG">      1.60000000</i>
    <i name="BMIX_MAG">      1.00000000</i>
    <separator name="electronic mixer details" >
     <i type="int" name="IMIX">     4</i>
     <i type="logical" name="MIXFIRST"> F  </i>
     <i type="int" name="MAXMIX">   -45</i>
     <i name="WC">    100.00000000</i>
     <i type="int" name="INIMIX">     1</i>
     <i type="int" name="MIXPRE">     1</i>
     <i type="int" name="MREMOVE">     5</i>
    </separator>
   </separator>
   <separator name="electronic dipolcorrection" >
    <i type="logical" name="LDIPOL"> F  </i>
    <i type="logical" name="LMONO"> F  </i>
    <i type="int" name="IDIPOL">     0</i>
    <i name="EPSILON">      1.00000000</i>
    <v name="DIPOL">   -100.00000000   -100.00000000   -100.00000000</v>
    <i name="EFIELD">      0.00000000</i>
   </separator>
  </separator>
  <separator name="grids" >
   <i type="int" name="NGX">    16</i>
   <i type="int" name="NGY">    16</i>
   <i type="int" name="NGZ">    16</i>
   <i type="int" name="NGXF">    32</i>
   <i type="int" name="NGYF">    32</i>
   <i type="int" name="NGZF">    32</i>
   <i type="logical" name="ADDGRID"> F  </i>
  </separator>
  <separator name="ionic" >
   <i type="int" name="NSW">    15</i>
   <i type="int" name="IBRION">     2</i>
   <i type="int" name="MDALGO">     0</i>
   <i type="int" name="ISIF">     3</i>
   <i name="PSTRESS">      0.00000000</i>
   <i name="EDIFFG">     -0.01000000</i>
   <i type="int" name="NFREE">     1</i>
   <i name="POTIM">      0.50000000</i>
   <i name="SMASS">     -3.00000000</i>
   <i name="SCALEE">      1.00000000</i>
  </separator>
  <separator name="ionic md" >
   <i name="TEBEG">      0.00010000</i>
   <i name="TEEND">      0.00010000</i>
   <i type="int" name="NBLOCK">     1</i>
   <i type="int" name="KBLOCK">    15</i>
   <i type="int" name="NPACO">   256</i>
   <i name="APACO">     16.00000000</i>
  </separator>
  <separator name="symmetry" >
   <i type="int" name="ISYM">     2</i>
   <i name="SYMPREC">      0.00001000</i>
  </separator>
  <separator name="dos" >
   <i type="int" name="LORBIT">     0</i>
   <v name="RWIGS">     -1.00000000</v>
   <i type="int" name="NEDOS">   301</i>
   <i name="EMIN">     10.00000000</i>
   <i name="EMAX">    -10.00000000</i>
   <i name="EFERMI">      0.00000000</i>
  </separator>
  <separator name="writing" >
   <i type="int" name="NWRITE">     2</i>
   <i type="logical" name="LWAVE"> T  </i>
   <i type="logical" name="LDOWNSAMPLE"> F  </i>
   <i type="logical" name="LCHARG"> T  </i>
   <i type="logical" name="LPARD"> F  </i>
   <i type="logical" name="LVTOT"> F  </i>
   <i type="logical" name="LVHAR"> F  </i>
   <i type="logical" name="LELF"> F  </i>
   <i type="logical" name="LOPTICS"> F  </i>
   <v name="STM">      0.00000000      0.00000000      0.00000000      0.00000000      0.00000000      0.00000000      0.00000000</v>
  </separator>
  <separator name="performance" >
   <i type="int" name="NPAR">     8</i>
   <i type="int" name="NSIM">     4</i>
   <i type="int" name="NBLK">    -1</i>
   <i type="logical" name="LPLANE"> T  </i>
   <i type="logical" name="LSCALAPACK"> T  </i>
   <i type="logical" name="LSCAAWARE"> F  </i>
   <i type="logical" name="LSCALU"> F  </i>
   <i type="logical" name="LASYNC"> F  </i>
   <i type="logical" name="LORBITALREAL"> F  </i>
  </separator>
  <separator name="miscellaneous" >
   <i type="int" name="IDIOT">     3</i>
   <i type="int" name="ISPECIAL">     0</i>
   <i type="logical" name="LMUSIC"> F  </i>
   <v name="POMASS">     28.08500000</v>
   <v name="DARWINR">      0.00000000</v>
   <v name="DARWINV">      1.00000000</v>
   <i type="logical" name="LCORR"> T  </i>
  </separator>
  <i type="logical" name="GGA_COMPAT"> T  </i>
  <i type="logical" name="LBERRY"> F  </i>
  <i type="int" name="ICORELEVEL">     0</i>
  <i type="logical" name="LDAU"> F  </i>
  <i type="int" name="I_CONSTRAINED_M">     0</i>
  <separator name="electronic exchange-correlation" >
   <i type="string" name="GGA">--</i>
   <i type="int" name="VOSKOWN">     0</i>
   <i type="logical" name="LHFCALC"> F  </i>
   <i type="string" name="PRECFOCK"></i>
   <i type="logical" name="LSYMGRAD"> F  </i>
   <i type="logical" name="LHFONE"> F  </i>
   <i type="logical" name="LRHFCALC"> F  </i>
   <i type="logical" name="LTHOMAS"> F  </i>
   <i type="logical" name="LMODELHF"> F  </i>
   <i name="ENCUT4O">     -1.00000000</i>
   <i type="int" name="EXXOEP">     0</i>
   <i type="int" name="FOURORBIT">     0</i>
   <i name="AEXX">      0.00000000</i>
   <i name="HFALPHA">      0.00000000</i>
   <i name="MCALPHA">      0.00000000</i>
   <i name="ALDAX">      1.00000000</i>
   <i name="AGGAX">      1.00000000</i>
   <i name="ALDAC">      1.00000000</i>
   <i name="AGGAC">      1.00000000</i>
   <i type="int" name="NKREDX">     1</i>
   <i type="int" name="NKREDY">     1</i>
   <i type="int" name="NKREDZ">     1</i>
   <i type="logical" name="SHIFTRED"> F  </i>
   <i type="logical" name="ODDONLY"> F  </i>
   <i type="logical" name="EVENONLY"> F  </i>
   <i type="int" name="LMAXFOCK">     0</i>
   <i type="int" name="NMAXFOCKAE">     0</i>
   <i type="logical" name="LFOCKAEDFT"> F  </i>
   <i name="HFSCREEN">      0.00000000</i>
   <i name="HFSCREENC">      0.00000000</i>
   <i type="int" name="NBANDSGWLOW">     0</i>
  </separator>
  <separator name="vdW DFT" >
   <i type="logical" name="LUSE_VDW"> F  </i>
   <i name="Zab_VDW">     -0.84910000</i>
   <i name="PARAM1">      0.12340000</i>
   <i name="PARAM2">      1.00000000</i>
   <i name="PARAM3">      0.00000000</i>
  </separator>
  <separator name="model GW" >
   <i type="int" name="MODEL_GW">     0</i>
   <i name="MODEL_EPS0">      9.17662200</i>
   <i name="MODEL_ALPHA">      1.00000000</i>
  </separator>
  <separator name="linear response parameters" >
   <i type="logical" name="LEPSILON"> F  </i>
   <i type="logical" name="LRPA"> F  </i>
   <i type="logical" name="LNABLA"> F  </i>
   <i type="logical" name="LVEL"> F  </i>
   <i type="int" name="KINTER">     0</i>
   <i name="CSHIFT">      0.10000000</i>
   <i name="OMEGAMAX">     -1.00000000</i>
   <i name="DEG_THRESHOLD">      0.00200000</i>
   <i name="RTIME">     -0.10000000</i>
   <i name="WPLASMAI">      0.00000000</i>
   <v name="DFIELD">      0.00000000      0.00000000      0.00000000</v>
   <v name="WPLASMA">      0.00000000      0.00000000      0.00000000      0.00000000      0.00000000      0.00000000      0.00000000      0.00000000      0.00000000</v>
  </separator>
  <separator name="orbital magnetization" >
   <i type="logical" name="NUCIND"> F  </i>
   <v name="MAGPOS">      0.00000000      0.00000000      0.00000000</v>
   <i type="logical" name="LNICSALL"> T  </i>
   <i type="logical" name="ORBITALMAG"> F  </i>
   <i type="logical" name="LMAGBLOCH"> F  </i>
   <i type="logical" name="LCHIMAG"> F  </i>
   <i type="logical" name="LGAUGE"> T  </i>
   <i type="int" name="MAGATOM">     0</i>
   <v name="MAGDIPOL">      0.00000000      0.00000000      0.00000000</v>
   <v name="AVECCONST">      0.00000000      0.00000000      0.00000000</v>
  </separator>
  <separator name="response functions" >
   <i type="logical" name="LADDER"> F  </i>
   <i type="logical" name="LRPAFORCE"> F  </i>
   <i type="logical" name="LFXC"> F  </i>
   <i type="logical" name="LHARTREE"> T  </i>
   <i type="int" name="IBSE">     0</i>
   <v type="int" name="KPOINT">    -1     0     0     0</v>
   <i type="logical" name="LTCTE"> F  </i>
   <i type="logical" name="LTETE"> F  </i>
   <i type="logical" name="LTRIPLET"> F  </i>
   <i type="logical" name="LFXCEPS"> F  </i>
   <i type="logical" name="LFXHEG"> F  </i>
   <i type="int" name="NATURALO">     2</i>
   <i type="logical" name="L2ORDER"> F  </i>
   <i type="logical" name="LMP2LT"> F  </i>
   <i type="logical" name="LUSEW"> F  </i>
   <i name="ENCUTGW">     -2.00000000</i>
   <i name="ENCUTGWSOFT">     -2.00000000</i>
   <i name="ENCUTLF">     -1.00000000</i>
   <i type="int" name="LMAXMP2">    -1</i>
   <i name="SCISSOR">      0.00000000</i>
   <i type="int" name="NOMEGA">     0</i>
   <i type="int" name="NOMEGAR">     0</i>
   <i type="int" name="NBANDSGW">    -1</i>
   <i type="int" name="NBANDSO">    -1</i>
   <i type="int" name="NBANDSV">    -1</i>
   <i type="int" name="NELM">     1</i>
   <i type="int" name="NELMHF">     1</i>
   <i type="int" name="DIM">     3</i>
   <i type="int" name="ANTIRES">     0</i>
   <i name="OMEGAMAX">    -30.00000000</i>
   <i name="OMEGAMIN">    -30.00000000</i>
   <i name="OMEGATL">   -200.00000000</i>
   <i type="int" name="OMEGAGRID">   140</i>
   <i name="CSHIFT">     -0.10000000</i>
   <i type="logical" name="SELFENERGY"> F  </i>
   <i type="logical" name="LSPECTRAL"> F  </i>
   <i type="logical" name="LSPECTRALGW"> F  </i>
   <i type="logical" name="LSINGLES"> F  </i>
   <i type="logical" name="LFERMIGW"> F  </i>
   <i type="logical" name="ODDONLYGW"> F  </i>
   <i type="logical" name="EVENONLYGW"> F  </i>
   <i type="int" name="NKREDLFX">     1</i>
   <i type="int" name="NKREDLFY">     1</i>
   <i type="int" name="NKREDLFZ">     1</i>
   <i type="int" name="MAXMEM">  2800</i>
   <i type="int" name="TELESCOPE">     0</i>
   <i type="int" name="TAUPAR">     1</i>
   <i type="int" name="OMEGAPAR">    -1</i>
   <i name="LAMBDA">      1.00000000</i>
  </separator>
  <separator name="External order field" >
   <i name="OFIELD_KAPPA">      0.00000000</i>
   <v name="OFIELD_K">      0.00000000      0.00000000      0.00000000</v>
   <i name="OFIELD_Q6_NEAR">      0.00000000</i>
   <i name="OFIELD_Q6_FAR">      0.00000000</i>
   <i name="OFIELD_A">      0.00000000</i>
  </separator>
 </parameters>
 <atominfo>
  <atoms>       2 </atoms>
  <types>       1 </types>
  <array name="atoms" >
   <dimension dim="1">ion</dimension>
   <field type="string">element</field>
   <field type="int">atomtype</field>
   <set>
    <rc><c>Si</c><c>   1</c></rc>
    <rc><c>Si</c><c>   1</c></rc>
   </set>
  </array>
  <array name="atomtypes" >
   <dimension dim="1">type</dimension>
   <field type="int">atomspertype</field>
   <field type="string">element</field>
   <field>mass</field>
   <field>valence</field>
   <field type="string">pseudopotential</field>
   <set>
    <rc><c>   2</c><c>Si</c><c>     28.08500000</c><c>      4.00000000</c><c> PAW_PBE Si 05Jan2001                   </c></rc>
   </set>
  </array>
 </atominfo>
 <structure name="initialpos" >
  <crystal>
   <varray name="basis" >
    <v>      -2.45000000       2.45000000       1.27400000 </v>
    <v>       2.45000000      -2.45000000       1.27400000 </v>
    <v>       2.45000000       2.45000000      -1.27400000 </v>
   </varray>
   <i name="volume">     30.58874000 </i>
   <varray name="rec_basis" >
    <v>       0.00000000       0.20408163       0.39246468 </v>
    <v>       0.20408163       0.00000000       0.39246468 </v>
    <v>       0.20408163       0.20408163      -0.00000000 </v>
   </varray>
  </crystal>
  <varray name="positions" >
   <v>       0.25000000       0.75000000       0.50000000 </v>
   <v>       0.00000000       0.00000000       0.00000000 </v>
  </varray>
 </structure>
 <calculation>
  <scstep>
   <time name="dav">    0.14    0.14</time>
   <time name="total">    0.18    0.21</time>
   <energy>
    <i name="alphaZ">      4.40202223 </i>
    <i name="ewald">   -265.18101312 </i>
    <i name="hartreedc">     -2.30415367 </i>
    <i name="XCdc">    -17.81548033 </i>
    <i name="pawpsdc">     65.95520812 </i>
    <i name="pawaedc">    -30.76852678 </i>
    <i name="eentropy">     -0.03007266 </i>
    <i name="bandstr">     39.14802886 </i>
    <i name="atom">    206.12968587 </i>
    <i name="e_fr_energy">     -0.46430148 </i>
    <i name="e_wo_entrp">     -0.43422882 </i>
    <i name="e_0_energy">     -0.44926515 </i>
   </energy>
  </scstep>
  <scstep>
   <time name="dav">    0.22    0.23</time>
   <time name="total">    0.22    0.23</time>
   <energy>
    <i name="e_fr_energy">    -10.17051676 </i>
    <i name="e_wo_entrp">    -10.15086236 </i>
    <i name="e_0_energy">    -10.16068956 </i>
   </energy>
  </scstep>
  <scstep>
   <time name="dav">    0.20    0.21</time>
   <time name="total">    0.21    0.21</time>
   <energy>
    <i name="e_fr_energy">    -10.25451898 </i>
    <i name="e_wo_entrp">    -10.23563343 </i>
    <i name="e_0_energy">    -10.24507621 </i>
   </energy>
  </scstep>
  <scstep>
   <time name="dav">    0.21    0.21</time>
   <time name="total">    0.21    0.22</time>
   <energy>
    <i name="e_fr_energy">    -10.25470706 </i>
    <i name="e_wo_entrp">    -10.23582607 </i>
    <i name="e_0_energy">    -10.24526656 </i>
   </energy>
  </scstep>
  <scstep>
   <time name="dav">    0.20    0.20</time>
   <time name="total">    0.21    0.22</time>
   <energy>
    <i name="e_fr_energy">    -10.25470724 </i>
    <i name="e_wo_entrp">    -10.23582625 </i>
    <i name="e_0_energy">    -10.24526674 </i>
   </energy>
  </scstep>
  <scstep>
   <time name="dav">    0.19    0.19</time>
   <time name="total">    0.23    0.24</time>
   <energy>
    <i name="e_fr_energy">    -10.24978810 </i>
    <i name="e_wo_entrp">    -10.23078644 </i>
    <i name="e_0_energy">    -10.24028727 </i>
   </energy>
  </scstep>
  <scstep>
   <time name="dav">    0.16    0.16</time>
   <time name="total">    0.20    0.21</time>
   <energy>
    <i name="e_fr_energy">    -10.24581244 </i>
    <i name="e_wo_entrp">    -10.22662771 </i>
    <i name="e_0_energy">    -10.23622007 </i>
   </energy>
  </scstep>
  <scstep>
   <time name="dav">    0.12    0.12</time>
   <time name="total">    0.15    0.16</time>
   <energy>
    <i name="alphaZ">      4.40202223 </i>
    <i name="ewald">   -265.18101312 </i>
    <i name="hartreedc">     -2.47641401 </i>
    <i name="XCdc">    -17.58659528 </i>
    <i name="pawpsdc">     70.37488817 </i>
    <i name="pawaedc">    -35.28820686 </i>
    <i name="eentropy">     -0.01915421 </i>
    <i name="bandstr">     29.39899246 </i>
    <i name="atom">    206.12968587 </i>
    <i name="e_fr_energy">    -10.24579473 </i>
    <i name="e_wo_entrp">    -10.22664052 </i>
    <i name="e_0_energy">    -10.23621763 </i>
   </energy>
  </scstep>
  <structure>
   <crystal>
    <varray name="basis" >
     <v>      -2.45000000       2.45000000       1.27400000 </v>
     <v>       2.45000000      -2.45000000       1.27400000 </v>
     <v>       2.45000000       2.45000000      -1.27400000 </v>
    </varray>
    <i name="volume">     30.58874000 </i>
    <varray name="rec_basis" >
     <v>       0.00000000       0.20408163       0.39246468 </v>
     <v>       0.20408163       0.00000000       0.39246468 </v>
     <v>       0.20408163       0.20408163      -0.00000000 </v>
    </varray>
   </crystal>
   <varray name="positions" >
    <v>       0.25000000       0.75000000       0.50000000 </v>
    <v>       0.00000000       0.00000000       0.00000000 </v>
   </varray>
  </structure>
  <varray name="forces" >
   <v>      -0.00000000       0.00000000       0.00000000 </v>
   <v>       0.00000000      -0.00000000      -0.00000000 </v>
  </varray>
  <varray name="stress" >
   <v>      27.11558793       0.00000000       0.00000000 </v>
   <v>      -0.00000000      27.11558793       0.00000000 </v>
   <v>       0.00000000       0.00000000     -39.23162346 </v>
  </varray>
  <energy>
   <i name="e_fr_energy">    -10.24579473 </i>
   <i name="e_wo_entrp">    -10.23621763 </i>
   <i name="e_0_energy">     -0.01915421 </i>
  </energy>
  <time name="totalsc">    2.36    3.34</time>
 </calculation>
 <calculation>
  <scstep>
   <time name="dav">    0.20    0.20</time>
   <time name="total">    0.24    0.25</time>
   <energy>
    <i name="alphaZ">      4.37311790 </i>
    <i name="ewald">   -264.38704521 </i>
    <i name="hartreedc">     -2.49133645 </i>
    <i name="XCdc">    -17.61867354 </i>
    <i name="pawpsdc">     70.37647503 </i>
    <i name="pawaedc">    -35.29010139 </i>
    <i name="eentropy">     -0.02468641 </i>
    <i name="bandstr">     28.65379862 </i>
    <i name="atom">    206.12968587 </i>
    <i name="e_fr_energy">    -10.27876558 </i>
    <i name="e_wo_entrp">    -10.25407917 </i>
    <i name="e_0_energy">    -10.26642238 </i>
   </energy>
  </scstep>
  <scstep>
   <time name="dav">    0.15    0.15</time>
   <time name="total">    0.19    0.20</time>
   <energy>
    <i name="e_fr_energy">    -10.26939172 </i>
    <i name="e_wo_entrp">    -10.24443088 </i>
    <i name="e_0_energy">    -10.25691130 </i>
   </energy>
  </scstep>
  <scstep>
   <time name="dav">    0.18    0.18</time>
   <time name="total">    0.22    0.23</time>
   <energy>
    <i name="e_fr_energy">    -10.26498765 </i>
    <i name="e_wo_entrp">    -10.23973469 </i>
    <i name="e_0_energy">    -10.25236117 </i>
   </energy>
  </scstep>
  <scstep>
   <time name="dav">    0.11    0.11</time>
   <time name="total">    0.14    0.15</time>
   <energy>
    <i name="alphaZ">      4.37311790 </i>
    <i name="ewald">   -264.38704521 </i>
    <i name="hartreedc">     -2.63118100 </i>
    <i name="XCdc">    -17.61071068 </i>
    <i name="pawpsdc">     70.36590558 </i>
    <i name="pawaedc">    -35.27985160 </i>
    <i name="eentropy">     -0.02524528 </i>
    <i name="bandstr">     28.80030533 </i>
    <i name="atom">    206.12968587 </i>
    <i name="e_fr_energy">    -10.26501910 </i>
    <i name="e_wo_entrp">    -10.23977382 </i>
    <i name="e_0_energy">    -10.25239646 </i>
   </energy>
  </scstep>
  <structure>
   <crystal>
    <varray name="basis" >
     <v>      -2.48059407       2.48059407       1.25098251 </v>
     <v>       2.48059407      -2.48059407       1.25098251 </v>
     <v>       2.48059407       2.48059407      -1.25098251 </v>
    </varray>
    <i name="volume">     30.79091777 </i>
    <varray name="rec_basis" >
     <v>      -0.00000000       0.20156462       0.39968584 </v>
     <v>       0.20156462      -0.00000000       0.39968584 </v>
     <v>       0.20156462       0.20156462      -0.00000000 </v>
    </varray>
   </crystal>
   <varray name="positions" >
    <v>       0.25000000       0.75000000       0.50000000 </v>
    <v>      -0.00000000      -0.00000000       0.00000000 </v>
   </varray>
  </structure>
  <varray name="forces" >
   <v>       0.00000000       0.00000000      -0.00000000 </v>
   <v>      -0.00000000      -0.00000000       0.00000000 </v>
  </varray>
  <varray name="stress" >
   <v>       7.01387002       0.00000000       0.00000000 </v>
   <v>       0.00000000       7.01387002      -0.00000000 </v>
   <v>       0.00000000      -0.00000000     -12.02840510 </v>
  </varray>
  <energy>
   <i name="e_fr_energy">    -10.26501910 </i>
   <i name="e_wo_entrp">    -10.25239646 </i>
   <i name="e_0_energy">     -0.02524528 </i>
  </energy>
  <time name="totalsc">    1.02    1.15</time>
 </calculation>
 <calculation>
  <scstep>
   <time name="dav">    0.20    0.20</time>
   <time name="total">    0.24    0.25</time>
   <energy>
    <i name="alphaZ">      4.36729947 </i>
    <i name="ewald">   -264.20918448 </i>
    <i name="hartreedc">     -2.63853127 </i>
    <i name="XCdc">    -17.61719539 </i>
    <i name="pawpsdc">     70.32872191 </i>
    <i name="pawaedc">    -35.24084248 </i>
    <i name="eentropy">     -0.02430048 </i>
    <i name="bandstr">     28.63768778 </i>
    <i name="atom">    206.12968587 </i>
    <i name="e_fr_energy">    -10.26665907 </i>
    <i name="e_wo_entrp">    -10.24235859 </i>
    <i name="e_0_energy">    -10.25450883 </i>
   </energy>
  </scstep>
  <scstep>
   <time name="dav">    0.13    0.13</time>
   <time name="total">    0.16    0.16</time>
   <energy>
    <i name="alphaZ">      4.36729947 </i>
    <i name="ewald">   -264.20918448 </i>
    <i name="hartreedc">     -2.65307087 </i>
    <i name="XCdc">    -17.61623428 </i>
    <i name="pawpsdc">     70.33477679 </i>
    <i name="pawaedc">    -35.24718297 </i>
    <i name="eentropy">     -0.02435905 </i>
    <i name="bandstr">     28.65199058 </i>
    <i name="atom">    206.12968587 </i>
    <i name="e_fr_energy">    -10.26627893 </i>
    <i name="e_wo_entrp">    -10.24191988 </i>
    <i name="e_0_energy">    -10.25409940 </i>
   </energy>
  </scstep>
  <structure>
   <crystal>
    <varray name="basis" >
     <v>      -2.48716581       2.48716581       1.24603826 </v>
     <v>       2.48716581      -2.48716581       1.24603826 </v>
     <v>       2.48716581       2.48716581      -1.24603826 </v>
    </varray>
    <i name="volume">     30.83193961 </i>
    <varray name="rec_basis" >
     <v>      -0.00000000       0.20103203       0.40127179 </v>
     <v>       0.20103203      -0.00000000       0.40127179 </v>
     <v>       0.20103203       0.20103203      -0.00000000 </v>
    </varray>
   </crystal>
   <varray name="positions" >
    <v>       0.25000000       0.75000000       0.50000000 </v>
    <v>      -0.00000000      -0.00000000       0.00000000 </v>
   </varray>
  </structure>
  <varray name="forces" >
   <v>       0.00000000      -0.00000000      -0.00000000 </v>
   <v>      -0.00000000       0.00000000       0.00000000 </v>
  </varray>
  <varray name="stress" >
   <v>       4.99556746       0.00000000       0.00000000 </v>
   <v>       0.00000000       4.99556746       0.00000000 </v>
   <v>       0.00000000       0.00000000      -7.30246681 </v>
  </varray>
  <energy>
   <i name="e_fr_energy">    -10.26627893 </i>
   <i name="e_wo_entrp">    -10.25409940 </i>
   <i name="e_0_energy">     -0.02435905 </i>
  </energy>
  <time name="totalsc">    0.61    0.72</time>
 </calculation>
 <calculation>
  <scstep>
   <time name="dav">    0.20    0.20</time>
   <time name="total">    0.24    0.24</time>
   <energy>
    <i name="alphaZ">      4.35607428 </i>
    <i name="ewald">   -263.84512801 </i>
    <i name="hartreedc">     -2.68143338 </i>
    <i name="XCdc">    -17.62813207 </i>
    <i name="pawpsdc">     70.33633782 </i>
    <i name="pawaedc">    -35.24895381 </i>
    <i name="eentropy">     -0.02263453 </i>
    <i name="bandstr">     28.33871190 </i>
    <i name="atom">    206.12968587 </i>
    <i name="e_fr_energy">    -10.26547193 </i>
    <i name="e_wo_entrp">    -10.24283740 </i>
    <i name="e_0_energy">    -10.25415467 </i>
   </energy>
  </scstep>
  <scstep>
   <time name="dav">    0.17    0.17</time>
   <time name="total">    0.21    0.26</time>
   <energy>
    <i name="e_fr_energy">    -10.26391278 </i>
    <i name="e_wo_entrp">    -10.24123029 </i>
    <i name="e_0_energy">    -10.25257153 </i>
   </energy>
  </scstep>
  <scstep>
   <time name="dav">    0.16    0.16</time>
   <time name="total">    0.20    0.21</time>
   <energy>
    <i name="e_fr_energy">    -10.26318241 </i>
    <i name="e_wo_entrp">    -10.24044021 </i>
    <i name="e_0_energy">    -10.25181131 </i>
   </energy>
  </scstep>
  <scstep>
   <time name="dav">    0.09    0.09</time>
   <time name="total">    0.12    0.14</time>
   <energy>
    <i name="alphaZ">      4.35607428 </i>
    <i name="ewald">   -263.84512801 </i>
    <i name="hartreedc">     -2.75394667 </i>
    <i name="XCdc">    -17.62328946 </i>
    <i name="pawpsdc">     70.35063295 </i>
    <i name="pawaedc">    -35.26366842 </i>
    <i name="eentropy">     -0.02274082 </i>
    <i name="bandstr">     28.40919104 </i>
    <i name="atom">    206.12968587 </i>
    <i name="e_fr_energy">    -10.26318925 </i>
    <i name="e_wo_entrp">    -10.24044842 </i>
    <i name="e_0_energy">    -10.25181883 </i>
   </energy>
  </scstep>
  <structure>
   <crystal>
    <varray name="basis" >
     <v>      -2.50030927       2.50030927       1.23614976 </v>
     <v>       2.50030927      -2.50030927       1.23614976 </v>
     <v>       2.50030927       2.50030927      -1.23614976 </v>
    </varray>
    <i name="volume">     30.91139063 </i>
    <varray name="rec_basis" >
     <v>       0.00000000       0.19997526       0.40448174 </v>
     <v>       0.19997526       0.00000000       0.40448174 </v>
     <v>       0.19997526       0.19997526       0.00000000 </v>
    </varray>
   </crystal>
   <varray name="positions" >
    <v>       0.25000000       0.75000000       0.50000000 </v>
    <v>      -0.00000000      -0.00000000       0.00000000 </v>
   </varray>
  </structure>
  <varray name="forces" >
   <v>      -0.00000000      -0.00000000      -0.00000000 </v>
   <v>       0.00000000       0.00000000       0.00000000 </v>
  </varray>
  <varray name="stress" >
   <v>     -14.68501463      -0.00000000      -0.00000000 </v>
   <v>      -0.00000000     -14.68501463       0.00000000 </v>
   <v>      -0.00000000       0.00000000      26.12061666 </v>
  </varray>
  <energy>
   <i name="e_fr_energy">    -10.26318925 </i>
   <i name="e_wo_entrp">    -10.25181883 </i>
   <i name="e_0_energy">     -0.02274082 </i>
  </energy>
  <time name="totalsc">    0.98    1.15</time>
 </calculation>
 <calculation>
  <scstep>
   <time name="dav">    0.20    0.20</time>
   <time name="total">    0.24    0.25</time>
   <energy>
    <i name="alphaZ">      4.36462494 </i>
    <i name="ewald">   -264.12504619 </i>
    <i name="hartreedc">     -2.74575375 </i>
    <i name="XCdc">    -17.61358387 </i>
    <i name="pawpsdc">     70.34144525 </i>
    <i name="pawaedc">    -35.25403380 </i>
    <i name="eentropy">     -0.02408794 </i>
    <i name="bandstr">     28.65922748 </i>
    <i name="atom">    206.12968587 </i>
    <i name="e_fr_energy">    -10.26752201 </i>
    <i name="e_wo_entrp">    -10.24343406 </i>
    <i name="e_0_energy">    -10.25547804 </i>
   </energy>
  </scstep>
  <scstep>
   <time name="dav">    0.16    0.16</time>
   <time name="total">    0.20    0.21</time>
   <energy>
    <i name="e_fr_energy">    -10.26654093 </i>
    <i name="e_wo_entrp">    -10.24253767 </i>
    <i name="e_0_energy">    -10.25453930 </i>
   </energy>
  </scstep>
  <scstep>
   <time name="dav">    0.12    0.12</time>
   <time name="total">    0.16    0.17</time>
   <energy>
    <i name="e_fr_energy">    -10.26607216 </i>
    <i name="e_wo_entrp">    -10.24217914 </i>
    <i name="e_0_energy">    -10.25412565 </i>
   </energy>
  </scstep>
  <scstep>
   <time name="dav">    0.09    0.09</time>
   <time name="total">    0.12    0.13</time>
   <energy>
    <i name="alphaZ">      4.36462494 </i>
    <i name="ewald">   -264.12504619 </i>
    <i name="hartreedc">     -2.69031696 </i>
    <i name="XCdc">    -17.61743399 </i>
    <i name="pawpsdc">     70.31766132 </i>
    <i name="pawaedc">    -35.22941407 </i>
    <i name="eentropy">     -0.02389668 </i>
    <i name="bandstr">     28.60805687 </i>
    <i name="atom">    206.12968587 </i>
    <i name="e_fr_energy">    -10.26607888 </i>
    <i name="e_wo_entrp">    -10.24218220 </i>
    <i name="e_0_energy">    -10.25413054 </i>
   </energy>
  </scstep>
  <structure>
   <crystal>
    <varray name="basis" >
     <v>      -2.49023987       2.49023987       1.24372549 </v>
     <v>       2.49023987      -2.49023987       1.24372549 </v>
     <v>       2.49023987       2.49023987      -1.24372549 </v>
    </varray>
    <i name="volume">     30.85083262 </i>
    <varray name="rec_basis" >
     <v>       0.00000000       0.20078387       0.40201797 </v>
     <v>       0.20078387       0.00000000       0.40201797 </v>
     <v>       0.20078387       0.20078387      -0.00000000 </v>
    </varray>
   </crystal>
   <varray name="positions" >
    <v>       0.25000000       0.75000000       0.50000000 </v>
    <v>      -0.00000000      -0.00000000       0.00000000 </v>
   </varray>
  </structure>
  <varray name="forces" >
   <v>      -0.00000000       0.00000000       0.00000000 </v>
   <v>       0.00000000      -0.00000000      -0.00000000 </v>
  </varray>
  <varray name="stress" >
   <v>      -1.99270137       0.00000000       0.00000000 </v>
   <v>       0.00000000      -1.99270137      -0.00000000 </v>
   <v>       0.00000000       0.00000000       2.67953428 </v>
  </varray>
  <energy>
   <i name="e_fr_energy">    -10.26607888 </i>
   <i name="e_wo_entrp">    -10.25413054 </i>
   <i name="e_0_energy">     -0.02389668 </i>
  </energy>
  <time name="totalsc">    0.96    1.08</time>
 </calculation>
 <calculation>
  <scstep>
   <time name="dav">    0.14    0.14</time>
   <time name="total">    0.18    0.19</time>
   <energy>
    <i name="alphaZ">      4.36536219 </i>
    <i name="ewald">   -264.14839461 </i>
    <i name="hartreedc">     -2.68972353 </i>
    <i name="XCdc">    -17.61659191 </i>
    <i name="pawpsdc">     70.31752476 </i>
    <i name="pawaedc">    -35.22926821 </i>
    <i name="eentropy">     -0.02406074 </i>
    <i name="bandstr">     28.62934064 </i>
    <i name="atom">    206.12968587 </i>
    <i name="e_fr_energy">    -10.26612553 </i>
    <i name="e_wo_entrp">    -10.24206479 </i>
    <i name="e_0_energy">    -10.25409516 </i>
   </energy>
  </scstep>
  <scstep>
   <time name="dav">    0.09    0.09</time>
   <time name="total">    0.12    0.13</time>
   <energy>
    <i name="alphaZ">      4.36536219 </i>
    <i name="ewald">   -264.14839461 </i>
    <i name="hartreedc">     -2.68768437 </i>
    <i name="XCdc">    -17.61670958 </i>
    <i name="pawpsdc">     70.32072056 </i>
    <i name="pawaedc">    -35.23262874 </i>
    <i name="eentropy">     -0.02405491 </i>
    <i name="bandstr">     28.62758057 </i>
    <i name="atom">    206.12968587 </i>
    <i name="e_fr_energy">    -10.26612303 </i>
    <i name="e_wo_entrp">    -10.24206812 </i>
    <i name="e_0_energy">    -10.25409557 </i>
   </energy>
  </scstep>
  <structure>
   <crystal>
    <varray name="basis" >
     <v>      -2.48938903       2.48938903       1.24436562 </v>
     <v>       2.48938903      -2.48938903       1.24436562 </v>
     <v>       2.48938903       2.48938903      -1.24436562 </v>
    </varray>
    <i name="volume">     30.84562235 </i>
    <varray name="rec_basis" >
     <v>      -0.00000000       0.20085250       0.40181117 </v>
     <v>       0.20085250      -0.00000000       0.40181117 </v>
     <v>       0.20085250       0.20085250       0.00000000 </v>
    </varray>
   </crystal>
   <varray name="positions" >
    <v>       0.25000000       0.75000000       0.50000000 </v>
    <v>      -0.00000000      -0.00000000       0.00000000 </v>
   </varray>
  </structure>
  <varray name="forces" >
   <v>      -0.00000000       0.00000000      -0.00000000 </v>
   <v>       0.00000000      -0.00000000       0.00000000 </v>
  </varray>
  <varray name="stress" >
   <v>      -1.46030355       0.00000000       0.00000000 </v>
   <v>       0.00000000      -1.46030355      -0.00000000 </v>
   <v>      -0.00000000      -0.00000000       1.64512553 </v>
  </varray>
  <energy>
   <i name="e_fr_energy">    -10.26612303 </i>
   <i name="e_wo_entrp">    -10.25409557 </i>
   <i name="e_0_energy">     -0.02405491 </i>
  </energy>
  <time name="totalsc">    0.52    0.61</time>
 </calculation>
 <calculation>
  <scstep>
   <time name="dav">    0.19    0.19</time>
   <time name="total">    0.23    0.23</time>
   <energy>
    <i name="alphaZ">      4.36657940 </i>
    <i name="ewald">   -264.18668389 </i>
    <i name="hartreedc">     -2.68415548 </i>
    <i name="XCdc">    -17.61540287 </i>
    <i name="pawpsdc">     70.32623800 </i>
    <i name="pawaedc">    -35.23838893 </i>
    <i name="eentropy">     -0.02431563 </i>
    <i name="bandstr">     28.66028827 </i>
    <i name="atom">    206.12968587 </i>
    <i name="e_fr_energy">    -10.26615526 </i>
    <i name="e_wo_entrp">    -10.24183964 </i>
    <i name="e_0_energy">    -10.25399745 </i>
   </energy>
  </scstep>
  <scstep>
   <time name="dav">    0.08    0.08</time>
   <time name="total">    0.10    0.12</time>
   <energy>
    <i name="alphaZ">      4.36657940 </i>
    <i name="ewald">   -264.18668389 </i>
    <i name="hartreedc">     -2.68077544 </i>
    <i name="XCdc">    -17.61564277 </i>
    <i name="pawpsdc">     70.32533710 </i>
    <i name="pawaedc">    -35.23746351 </i>
    <i name="eentropy">     -0.02430341 </i>
    <i name="bandstr">     28.65712957 </i>
    <i name="atom">    206.12968587 </i>
    <i name="e_fr_energy">    -10.26613708 </i>
    <i name="e_wo_entrp">    -10.24183367 </i>
    <i name="e_0_energy">    -10.25398537 </i>
   </energy>
  </scstep>
  <structure>
   <crystal>
    <varray name="basis" >
     <v>      -2.48799006       2.48799006       1.24541814 </v>
     <v>       2.48799006      -2.48799006       1.24541814 </v>
     <v>       2.48799006       2.48799006      -1.24541814 </v>
    </varray>
    <i name="volume">     30.83702393 </i>
    <varray name="rec_basis" >
     <v>      -0.00000000       0.20096543       0.40147159 </v>
     <v>       0.20096543      -0.00000000       0.40147159 </v>
     <v>       0.20096543       0.20096543       0.00000000 </v>
    </varray>
   </crystal>
   <varray name="positions" >
    <v>       0.25000000       0.75000000       0.50000000 </v>
    <v>      -0.00000000      -0.00000000       0.00000000 </v>
   </varray>
  </structure>
  <varray name="forces" >
   <v>      -0.00000000       0.00000000      -0.00000000 </v>
   <v>       0.00000000      -0.00000000       0.00000000 </v>
  </varray>
  <varray name="stress" >
   <v>      -0.39265771       0.00000000       0.00000000 </v>
   <v>       0.00000000      -0.39265771       0.00000000 </v>
   <v>       0.00000000      -0.00000000      -0.36299812 </v>
  </varray>
  <energy>
   <i name="e_fr_energy">    -10.26613708 </i>
   <i name="e_wo_entrp">    -10.25398537 </i>
   <i name="e_0_energy">     -0.02430341 </i>
  </energy>
  <time name="totalsc">    0.58    0.79</time>
  <eigenvalues>
   <array>
    <dimension dim="1">band</dimension>
    <dimension dim="2">kpoint</dimension>
    <dimension dim="3">spin</dimension>
    <field>eigene</field>
    <field>occ</field>
    <set>
     <set comment="spin 1">
      <set comment="kpoint 1">
       <r>   -4.6653    1.0000 </r>
       <r>    5.5147    1.0000 </r>
       <r>    6.0065    1.0000 </r>
       <r>    6.0065    1.0000 </r>
       <r>   10.3371    0.0000 </r>
       <r>   16.5072    0.0000 </r>
       <r>   16.7327    0.0000 </r>
       <r>   16.7327    0.0000 </r>
      </set>
      <set comment="kpoint 2">
       <r>   -3.5039    1.0000 </r>
       <r>    4.6326    1.0000 </r>
       <r>    6.0900    1.0000 </r>
       <r>    8.8575    0.8666 </r>
       <r>   12.4276    0.0000 </r>
       <r>   13.1124    0.0000 </r>
       <r>   13.3526    0.0000 </r>
       <r>   15.3536    0.0000 </r>
      </set>
      <set comment="kpoint 3">
       <r>   -0.0693    1.0000 </r>
       <r>    5.4070    1.0000 </r>
       <r>    5.7452    1.0000 </r>
       <r>    7.2930    1.0000 </r>
       <r>    8.9391    0.7030 </r>
       <r>   11.5222    0.0000 </r>
       <r>   13.4307    0.0000 </r>
       <r>   14.0637    0.0000 </r>
      </set>
      <set comment="kpoint 4">
       <r>   -0.5159    1.0000 </r>
       <r>    5.8702    1.0000 </r>
       <r>    7.0167    1.0000 </r>
       <r>    7.0283    1.0000 </r>
       <r>    9.6469    0.0000 </r>
       <r>   11.6302    0.0000 </r>
       <r>   12.4348    0.0000 </r>
       <r>   12.6301    0.0000 </r>
      </set>
      <set comment="kpoint 5">
       <r>    1.2543    1.0000 </r>
       <r>    3.3726    1.0000 </r>
       <r>    4.6705    1.0000 </r>
       <r>    7.6743    1.0000 </r>
       <r>    8.9823    0.5899 </r>
       <r>   10.8947    0.0000 </r>
       <r>   13.8354    0.0000 </r>
       <r>   15.9563    0.0000 </r>
      </set>
      <set comment="kpoint 6">
       <r>   -2.5927    1.0000 </r>
       <r>    1.8131    1.0000 </r>
       <r>    6.5009    1.0000 </r>
       <r>   10.3292    0.0000 </r>
       <r>   10.7257    0.0000 </r>
       <r>   12.3124    0.0000 </r>
       <r>   14.2337    0.0000 </r>
       <r>   15.4454    0.0000 </r>
      </set>
      <set comment="kpoint 7">
       <r>   -4.2055    1.0000 </r>
       <r>    2.4190    1.0000 </r>
       <r>    6.4373    1.0000 </r>
       <r>    7.8505    1.0000 </r>
       <r>   12.8134    0.0000 </r>
       <r>   12.8548    0.0000 </r>
       <r>   14.3902    0.0000 </r>
       <r>   20.0204    0.0000 </r>
      </set>
      <set comment="kpoint 8">
       <r>   -0.7954    1.0000 </r>
       <r>   -0.7934    1.0000 </r>
       <r>    8.1320    1.0000 </r>
       <r>    8.2088    1.0000 </r>
       <r>   10.8823    0.0000 </r>
       <r>   12.6856    0.0000 </r>
       <r>   13.7434    0.0000 </r>
       <r>   13.9381    0.0000 </r>
      </set>
      <set comment="kpoint 9">
       <r>   -2.8362    1.0000 </r>
       <r>   -0.5931    1.0000 </r>
       <r>    7.7285    1.0000 </r>
       <r>    9.4288    0.0017 </r>
       <r>    9.8730    0.0000 </r>
       <r>   11.6097    0.0000 </r>
       <r>   17.7156    0.0000 </r>
       <r>   19.6242    0.0000 </r>
      </set>
      <set comment="kpoint 10">
       <r>    0.8236    1.0000 </r>
       <r>    3.0062    1.0000 </r>
       <r>    6.2944    1.0000 </r>
       <r>    6.3006    1.0000 </r>
       <r>   11.1653    0.0000 </r>
       <r>   12.7785    0.0000 </r>
       <r>   13.6958    0.0000 </r>
       <r>   14.2257    0.0000 </r>
      </set>
      <set comment="kpoint 11">
       <r>   -3.7493    1.0000 </r>
       <r>    2.1912    1.0000 </r>
       <r>    4.0200    1.0000 </r>
       <r>    9.7943    0.0000 </r>
       <r>   10.8494    0.0000 </r>
       <r>   14.1063    0.0000 </r>
       <r>   17.4847    0.0000 </r>
       <r>   17.8043    0.0000 </r>
      </set>
      <set comment="kpoint 12">
       <r>   -2.3940    1.0000 </r>
       <r>   -0.2062    1.0000 </r>
       <r>    4.6859    1.0000 </r>
       <r>    6.8127    1.0000 </r>
       <r>   13.0362    0.0000 </r>
       <r>   15.1681    0.0000 </r>
       <r>   18.1287    0.0000 </r>
       <r>   18.6070    0.0000 </r>
      </set>
      <set comment="kpoint 13">
       <r>   -1.6993    1.0000 </r>
       <r>    1.9614    1.0000 </r>
       <r>    3.8928    1.0000 </r>
       <r>    7.4462    1.0000 </r>
       <r>   10.4145    0.0000 </r>
       <r>   14.9645    0.0000 </r>
       <r>   16.3694    0.0000 </r>
       <r>   17.3178    0.0000 </r>
      </set>
      <set comment="kpoint 14">
       <r>    0.0263    1.0000 </r>
       <r>    0.0324    1.0000 </r>
       <r>    4.9288    1.0000 </r>
       <r>    4.9354    1.0000 </r>
       <r>   10.0696    0.0000 </r>
       <r>   16.3152    0.0000 </r>
       <r>   17.1220    0.0000 </r>
       <r>   17.8487    0.0000 </r>
      </set>
      <set comment="kpoint 15">
       <r>    2.4898    1.0000 </r>
       <r>    3.6620    1.0000 </r>
       <r>    4.1203    1.0000 </r>
       <r>    5.8527    1.0000 </r>
       <r>    7.2260    1.0000 </r>
       <r>   12.0039    0.0000 </r>
       <r>   13.5450    0.0000 </r>
       <r>   15.9344    0.0000 </r>
      </set>
      <set comment="kpoint 16">
       <r>   -0.9666    1.0000 </r>
       <r>    7.5646    1.0000 </r>
       <r>    8.0973    1.0000 </r>
       <r>    8.5454    0.9995 </r>
       <r>    8.5455    0.9995 </r>
       <r>    9.8606    0.0000 </r>
       <r>   11.5215    0.0000 </r>
       <r>   11.5216    0.0000 </r>
      </set>
      <set comment="kpoint 17">
       <r>   -1.1137    1.0000 </r>
       <r>    0.3671    1.0000 </r>
       <r>    2.3917    1.0000 </r>
       <r>    3.8511    1.0000 </r>
       <r>   16.3285    0.0000 </r>
       <r>   17.1146    0.0000 </r>
       <r>   18.7975    0.0000 </r>
       <r>   19.5219    0.0000 </r>
      </set>
      <set comment="kpoint 18">
       <r>    1.0468    1.0000 </r>
       <r>    1.0567    1.0000 </r>
       <r>    3.0624    1.0000 </r>
       <r>    3.0624    1.0000 </r>
       <r>    9.6929    0.0000 </r>
       <r>   18.2165    0.0000 </r>
       <r>   19.6127    0.0000 </r>
       <r>   19.6127    0.0000 </r>
      </set>
     </set>
    </set>
   </array>
  </eigenvalues>
  <separator name="orbital magnetization" >
   <v name="MAGDIPOLOUT">      0.00000000      0.00000000      0.00000000</v>
  </separator>
  <dos>
   <i name="efermi">      9.01449800 </i>
   <total>
    <array>
     <dimension dim="1">gridpoints</dimension>
     <dimension dim="2">spin</dimension>
     <field>energy</field>
     <field>total</field>
     <field>integrated</field>
     <set>
      <set comment="spin 1">
       <r>    -6.6653     0.0000     0.0000 </r>
       <r>    -6.5697     0.0000     0.0000 </r>
       <r>    -6.4741     0.0000     0.0000 </r>
       <r>    -6.3785     0.0000     0.0000 </r>
       <r>    -6.2829     0.0000     0.0000 </r>
       <r>    -6.1872     0.0000     0.0000 </r>
       <r>    -6.0916     0.0000     0.0000 </r>
       <r>    -5.9960     0.0000     0.0000 </r>
       <r>    -5.9004     0.0000     0.0000 </r>
       <r>    -5.8048     0.0000     0.0000 </r>
       <r>    -5.7091     0.0000     0.0000 </r>
       <r>    -5.6135     0.0000     0.0000 </r>
       <r>    -5.5179     0.0000     0.0000 </r>
       <r>    -5.4223     0.0000     0.0000 </r>
       <r>    -5.3267     0.0000     0.0000 </r>
       <r>    -5.2310     0.0000     0.0000 </r>
       <r>    -5.1354     0.0001     0.0000 </r>
       <r>    -5.0398     0.0006     0.0001 </r>
       <r>    -4.9442     0.0034     0.0004 </r>
       <r>    -4.8486     0.0123     0.0016 </r>
       <r>    -4.7530     0.0285     0.0043 </r>
       <r>    -4.6573     0.0431     0.0084 </r>
       <r>    -4.5617     0.0446     0.0127 </r>
       <r>    -4.4661     0.0435     0.0168 </r>
       <r>    -4.3705     0.0698     0.0235 </r>
       <r>    -4.2749     0.1300     0.0359 </r>
       <r>    -4.1792     0.1764     0.0528 </r>
       <r>    -4.0836     0.1606     0.0681 </r>
       <r>    -3.9880     0.1135     0.0790 </r>
       <r>    -3.8924     0.1098     0.0895 </r>
       <r>    -3.7968     0.1717     0.1059 </r>
       <r>    -3.7011     0.2618     0.1309 </r>
       <r>    -3.6055     0.3490     0.1643 </r>
       <r>    -3.5099     0.4037     0.2029 </r>
       <r>    -3.4143     0.3641     0.2377 </r>
       <r>    -3.3187     0.2304     0.2598 </r>
       <r>    -3.2230     0.0985     0.2692 </r>
       <r>    -3.1274     0.0377     0.2728 </r>
       <r>    -3.0318     0.0495     0.2775 </r>
       <r>    -2.9362     0.1231     0.2893 </r>
       <r>    -2.8406     0.2534     0.3135 </r>
       <r>    -2.7449     0.4476     0.3563 </r>
       <r>    -2.6493     0.6952     0.4228 </r>
       <r>    -2.5537     0.8801     0.5069 </r>
       <r>    -2.4581     0.8660     0.5898 </r>
       <r>    -2.3625     0.6723     0.6540 </r>
       <r>    -2.2669     0.4149     0.6937 </r>
       <r>    -2.1712     0.1946     0.7123 </r>
       <r>    -2.0756     0.0689     0.7189 </r>
       <r>    -1.9800     0.0407     0.7228 </r>
       <r>    -1.8844     0.0981     0.7322 </r>
       <r>    -1.7888     0.2253     0.7537 </r>
       <r>    -1.6931     0.3399     0.7862 </r>
       <r>    -1.5975     0.3305     0.8178 </r>
       <r>    -1.5019     0.2086     0.8378 </r>
       <r>    -1.4063     0.0945     0.8468 </r>
       <r>    -1.3107     0.0660     0.8531 </r>
       <r>    -1.2150     0.1216     0.8648 </r>
       <r>    -1.1194     0.2244     0.8862 </r>
       <r>    -1.0238     0.3500     0.9197 </r>
       <r>    -0.9282     0.5284     0.9702 </r>
       <r>    -0.8326     0.7537     1.0423 </r>
       <r>    -0.7369     0.8956     1.1279 </r>
       <r>    -0.6413     0.8743     1.2115 </r>
       <r>    -0.5457     0.7654     1.2847 </r>
       <r>    -0.4501     0.6306     1.3450 </r>
       <r>    -0.3545     0.5239     1.3951 </r>
       <r>    -0.2589     0.5664     1.4493 </r>
       <r>    -0.1632     0.7923     1.5250 </r>
       <r>    -0.0676     1.0639     1.6267 </r>
       <r>     0.0280     1.1618     1.7378 </r>
       <r>     0.1236     0.9613     1.8298 </r>
       <r>     0.2192     0.6057     1.8877 </r>
       <r>     0.3149     0.3462     1.9208 </r>
       <r>     0.4105     0.2322     1.9430 </r>
       <r>     0.5061     0.1682     1.9591 </r>
       <r>     0.6017     0.1394     1.9724 </r>
       <r>     0.6973     0.2006     1.9916 </r>
       <r>     0.7930     0.3311     2.0232 </r>
       <r>     0.8886     0.4248     2.0639 </r>
       <r>     0.9842     0.4517     2.1071 </r>
       <r>     1.0798     0.5156     2.1564 </r>
       <r>     1.1754     0.6740     2.2208 </r>
       <r>     1.2711     0.7874     2.2961 </r>
       <r>     1.3667     0.6759     2.3607 </r>
       <r>     1.4623     0.4055     2.3995 </r>
       <r>     1.5579     0.2282     2.4213 </r>
       <r>     1.6535     0.3049     2.4505 </r>
       <r>     1.7491     0.6005     2.5079 </r>
       <r>     1.8448     0.8938     2.5933 </r>
       <r>     1.9404     0.9463     2.6838 </r>
       <r>     2.0360     0.7592     2.7564 </r>
       <r>     2.1316     0.5393     2.8080 </r>
       <r>     2.2272     0.4567     2.8517 </r>
       <r>     2.3229     0.5390     2.9032 </r>
       <r>     2.4185     0.6829     2.9685 </r>
       <r>     2.5141     0.7022     3.0356 </r>
       <r>     2.6097     0.5192     3.0853 </r>
       <r>     2.7053     0.2807     3.1121 </r>
       <r>     2.8010     0.1801     3.1293 </r>
       <r>     2.8966     0.2743     3.1556 </r>
       <r>     2.9922     0.4612     3.1997 </r>
       <r>     3.0878     0.5694     3.2541 </r>
       <r>     3.1834     0.5762     3.3092 </r>
       <r>     3.2791     0.6360     3.3700 </r>
       <r>     3.3747     0.7606     3.4427 </r>
       <r>     3.4703     0.7737     3.5167 </r>
       <r>     3.5659     0.6678     3.5806 </r>
       <r>     3.6615     0.6141     3.6393 </r>
       <r>     3.7572     0.6722     3.7036 </r>
       <r>     3.8528     0.7776     3.7779 </r>
       <r>     3.9484     0.8482     3.8590 </r>
       <r>     4.0440     0.8242     3.9378 </r>
       <r>     4.1396     0.6892     4.0037 </r>
       <r>     4.2352     0.4705     4.0487 </r>
       <r>     4.3309     0.2767     4.0752 </r>
       <r>     4.4265     0.2836     4.1023 </r>
       <r>     4.5221     0.6183     4.1614 </r>
       <r>     4.6177     1.1673     4.2730 </r>
       <r>     4.7133     1.5327     4.4196 </r>
       <r>     4.8090     1.4794     4.5611 </r>
       <r>     4.9046     1.2068     4.6765 </r>
       <r>     5.0002     0.9028     4.7628 </r>
       <r>     5.0958     0.5725     4.8175 </r>
       <r>     5.1914     0.3161     4.8477 </r>
       <r>     5.2871     0.2618     4.8728 </r>
       <r>     5.3827     0.3544     4.9067 </r>
       <r>     5.4783     0.4296     4.9477 </r>
       <r>     5.5739     0.4558     4.9913 </r>
       <r>     5.6695     0.5785     5.0466 </r>
       <r>     5.7652     0.8536     5.1282 </r>
       <r>     5.8608     1.0921     5.2327 </r>
       <r>     5.9564     1.1086     5.3387 </r>
       <r>     6.0520     0.9830     5.4327 </r>
       <r>     6.1476     0.9263     5.5212 </r>
       <r>     6.2432     1.0298     5.6197 </r>
       <r>     6.3389     1.2150     5.7359 </r>
       <r>     6.4345     1.3202     5.8621 </r>
       <r>     6.5301     1.2185     5.9786 </r>
       <r>     6.6257     0.9326     6.0678 </r>
       <r>     6.7213     0.6763     6.1325 </r>
       <r>     6.8170     0.6339     6.1931 </r>
       <r>     6.9126     0.7727     6.2670 </r>
       <r>     7.0082     0.9503     6.3578 </r>
       <r>     7.1038     1.0525     6.4585 </r>
       <r>     7.1994     1.0721     6.5610 </r>
       <r>     7.2951     1.0554     6.6619 </r>
       <r>     7.3907     1.0061     6.7581 </r>
       <r>     7.4863     0.9701     6.8508 </r>
       <r>     7.5819     1.0348     6.9498 </r>
       <r>     7.6775     1.1397     7.0588 </r>
       <r>     7.7732     1.0818     7.1622 </r>
       <r>     7.8688     0.8286     7.2414 </r>
       <r>     7.9644     0.6154     7.3003 </r>
       <r>     8.0600     0.6313     7.3606 </r>
       <r>     8.1556     0.7659     7.4339 </r>
       <r>     8.2513     0.7560     7.5062 </r>
       <r>     8.3469     0.5483     7.5586 </r>
       <r>     8.4425     0.3373     7.5909 </r>
       <r>     8.5381     0.2541     7.6152 </r>
       <r>     8.6337     0.2783     7.6418 </r>
       <r>     8.7293     0.4355     7.6834 </r>
       <r>     8.8250     0.7979     7.7597 </r>
       <r>     8.9206     1.2154     7.8759 </r>
       <r>     9.0162     1.3194     8.0021 </r>
       <r>     9.1118     0.9815     8.0959 </r>
       <r>     9.2074     0.5141     8.1451 </r>
       <r>     9.3031     0.2534     8.1693 </r>
       <r>     9.3987     0.2372     8.1920 </r>
       <r>     9.4943     0.3492     8.2254 </r>
       <r>     9.5899     0.5130     8.2744 </r>
       <r>     9.6855     0.6736     8.3388 </r>
       <r>     9.7812     0.7563     8.4111 </r>
       <r>     9.8768     0.7374     8.4817 </r>
       <r>     9.9724     0.6735     8.5461 </r>
       <r>    10.0680     0.6417     8.6074 </r>
       <r>    10.1636     0.7075     8.6751 </r>
       <r>    10.2593     0.9076     8.7618 </r>
       <r>    10.3549     1.1171     8.8687 </r>
       <r>    10.4505     1.1026     8.9741 </r>
       <r>    10.5461     0.9228     9.0623 </r>
       <r>    10.6417     0.9357     9.1518 </r>
       <r>    10.7373     1.2770     9.2739 </r>
       <r>    10.8330     1.6536     9.4320 </r>
       <r>    10.9286     1.6827     9.5929 </r>
       <r>    11.0242     1.3166     9.7188 </r>
       <r>    11.1198     0.8663     9.8016 </r>
       <r>    11.2154     0.5733     9.8565 </r>
       <r>    11.3111     0.4522     9.8997 </r>
       <r>    11.4067     0.5289     9.9503 </r>
       <r>    11.5023     0.7921    10.0260 </r>
       <r>    11.5979     1.0003    10.1217 </r>
       <r>    11.6935     0.9092    10.2086 </r>
       <r>    11.7892     0.6147    10.2674 </r>
       <r>    11.8848     0.4109    10.3067 </r>
       <r>    11.9804     0.4000    10.3449 </r>
       <r>    12.0760     0.4764    10.3905 </r>
       <r>    12.1716     0.6269    10.4504 </r>
       <r>    12.2673     0.9405    10.5403 </r>
       <r>    12.3629     1.3032    10.6649 </r>
       <r>    12.4585     1.4571    10.8043 </r>
       <r>    12.5541     1.4025    10.9384 </r>
       <r>    12.6497     1.3629    11.0687 </r>
       <r>    12.7453     1.3757    11.2002 </r>
       <r>    12.8410     1.2937    11.3239 </r>
       <r>    12.9366     1.1166    11.4307 </r>
       <r>    13.0322     0.9802    11.5244 </r>
       <r>    13.1278     0.8984    11.6103 </r>
       <r>    13.2234     0.8302    11.6897 </r>
       <r>    13.3191     0.8511    11.7711 </r>
       <r>    13.4147     0.9810    11.8649 </r>
       <r>    13.5103     1.1096    11.9710 </r>
       <r>    13.6059     1.2270    12.0883 </r>
       <r>    13.7015     1.4240    12.2245 </r>
       <r>    13.7972     1.6416    12.3814 </r>
       <r>    13.8928     1.7016    12.5441 </r>
       <r>    13.9884     1.6074    12.6979 </r>
       <r>    14.0840     1.5579    12.8468 </r>
       <r>    14.1796     1.6076    13.0005 </r>
       <r>    14.2753     1.5325    13.1471 </r>
       <r>    14.3709     1.1654    13.2585 </r>
       <r>    14.4665     0.6650    13.3221 </r>
       <r>    14.5621     0.2851    13.3493 </r>
       <r>    14.6577     0.1069    13.3596 </r>
       <r>    14.7534     0.0934    13.3685 </r>
       <r>    14.8490     0.2040    13.3880 </r>
       <r>    14.9446     0.3807    13.4244 </r>
       <r>    15.0402     0.5367    13.4757 </r>
       <r>    15.1358     0.6467    13.5376 </r>
       <r>    15.2314     0.7768    13.6118 </r>
       <r>    15.3271     0.9707    13.7047 </r>
       <r>    15.4227     1.1123    13.8110 </r>
       <r>    15.5183     0.9973    13.9064 </r>
       <r>    15.6139     0.6579    13.9693 </r>
       <r>    15.7095     0.4136    14.0088 </r>
       <r>    15.8052     0.5153    14.0581 </r>
       <r>    15.9008     0.8673    14.1410 </r>
       <r>    15.9964     1.0863    14.2449 </r>
       <r>    16.0920     0.9675    14.3374 </r>
       <r>    16.1876     0.7891    14.4129 </r>
       <r>    16.2833     0.8342    14.4927 </r>
       <r>    16.3789     0.9262    14.5812 </r>
       <r>    16.4745     0.7822    14.6560 </r>
       <r>    16.5701     0.4748    14.7014 </r>
       <r>    16.6657     0.2415    14.7245 </r>
       <r>    16.7614     0.1470    14.7386 </r>
       <r>    16.8570     0.1399    14.7519 </r>
       <r>    16.9526     0.2260    14.7735 </r>
       <r>    17.0482     0.4256    14.8142 </r>
       <r>    17.1438     0.6411    14.8756 </r>
       <r>    17.2394     0.7336    14.9457 </r>
       <r>    17.3351     0.6885    15.0115 </r>
       <r>    17.4307     0.5749    15.0665 </r>
       <r>    17.5263     0.4638    15.1108 </r>
       <r>    17.6219     0.4396    15.1529 </r>
       <r>    17.7175     0.5453    15.2050 </r>
       <r>    17.8132     0.6824    15.2703 </r>
       <r>    17.9088     0.6970    15.3369 </r>
       <r>    18.0044     0.6048    15.3947 </r>
       <r>    18.1000     0.5370    15.4461 </r>
       <r>    18.1956     0.4859    15.4926 </r>
       <r>    18.2913     0.3701    15.5279 </r>
       <r>    18.3869     0.2491    15.5518 </r>
       <r>    18.4825     0.2462    15.5753 </r>
       <r>    18.5781     0.3548    15.6092 </r>
       <r>    18.6737     0.4410    15.6514 </r>
       <r>    18.7694     0.4129    15.6909 </r>
       <r>    18.8650     0.2979    15.7194 </r>
       <r>    18.9606     0.1660    15.7352 </r>
       <r>    19.0562     0.0684    15.7418 </r>
       <r>    19.1518     0.0226    15.7439 </r>
       <r>    19.2475     0.0234    15.7462 </r>
       <r>    19.3431     0.0807    15.7539 </r>
       <r>    19.4387     0.2193    15.7749 </r>
       <r>    19.5343     0.4051    15.8136 </r>
       <r>    19.6299     0.5071    15.8621 </r>
       <r>    19.7255     0.4345    15.9036 </r>
       <r>    19.8212     0.2783    15.9303 </r>
       <r>    19.9168     0.1901    15.9484 </r>
       <r>    20.0124     0.1858    15.9662 </r>
       <r>    20.1080     0.1739    15.9828 </r>
       <r>    20.2036     0.1143    15.9938 </r>
       <r>    20.2993     0.0490    15.9984 </r>
       <r>    20.3949     0.0136    15.9997 </r>
       <r>    20.4905     0.0024    16.0000 </r>
       <r>    20.5861     0.0003    16.0000 </r>
       <r>    20.6817     0.0000    16.0000 </r>
       <r>    20.7774     0.0000    16.0000 </r>
       <r>    20.8730     0.0000    16.0000 </r>
       <r>    20.9686     0.0000    16.0000 </r>
       <r>    21.0642     0.0000    16.0000 </r>
       <r>    21.1598     0.0000    16.0000 </r>
       <r>    21.2555     0.0000    16.0000 </r>
       <r>    21.3511     0.0000    16.0000 </r>
       <r>    21.4467     0.0000    16.0000 </r>
       <r>    21.5423     0.0000    16.0000 </r>
       <r>    21.6379     0.0000    16.0000 </r>
       <r>    21.7335     0.0000    16.0000 </r>
       <r>    21.8292     0.0000    16.0000 </r>
       <r>    21.9248     0.0000    16.0000 </r>
       <r>    22.0204     0.0000    16.0000 </r>
      </set>
     </set>
    </array>
   </total>
  </dos>
 </calculation>
 <structure name="finalpos" >
  <crystal>
   <varray name="basis" >
    <v>      -2.48799006       2.48799006       1.24541814 </v>
    <v>       2.48799006      -2.48799006       1.24541814 </v>
    <v>       2.48799006       2.48799006      -1.24541814 </v>
   </varray>
   <i name="volume">     30.83702393 </i>
   <varray name="rec_basis" >
    <v>      -0.00000000       0.20096543       0.40147159 </v>
    <v>       0.20096543      -0.00000000       0.40147159 </v>
    <v>       0.20096543       0.20096543       0.00000000 </v>
   </varray>
  </crystal>
  <varray name="positions" >
   <v>       0.25000000       0.75000000       0.50000000 </v>
   <v>      -0.00000000      -0.00000000       0.00000000 </v>
  </varray>
 </structure>
</modeling>
