unknown system                          
   1.00000000000000     
    -2.450000    2.450000    1.274000
     2.450000   -2.450000    1.274000
     2.450000    2.450000   -1.274000
   Si
     2
Direct
  0.250000  0.750000  0.500000
  0.000000  0.000000  0.000000
 
   32   32   32
 -.53452395240E+01 -.41691665925E+01 -.10109974455E+01 0.31746743698E+01 0.72298224289E+01
 0.10206248473E+02 0.11635120465E+02 0.11580544177E+02 0.10507003407E+02 0.90384402294E+01
 0.75909435834E+01 0.63093168878E+01 0.52664715708E+01 0.44837439856E+01 0.39501715448E+01
 0.36430574108E+01 0.35431344329E+01 0.36430618700E+01 0.39501503419E+01 0.44837020162E+01
 0.52664475421E+01 0.63093163227E+01 0.75909367992E+01 0.90384246334E+01 0.10507003442E+02
 0.11580554303E+02 0.11635114388E+02 0.10206238110E+02 0.72298390367E+01 0.31746997438E+01
 -.10110077236E+01 -.41691991018E+01 -.41691991018E+01 -.47790153855E+01 -.31118189781E+01
 0.30514616786E+00 0.44485382584E+01 0.82000816664E+01 0.10730265852E+02 0.11712768190E+02
 0.11326727227E+02 0.10093374564E+02 0.86144553667E+01 0.72070407779E+01 0.59892746662E+01
 0.50189530369E+01 0.43070806958E+01 0.38381340981E+01 0.35892275893E+01 0.35433729646E+01
 0.36965939551E+01 0.40594963733E+01 0.46532184748E+01 0.54992605057E+01 0.66028851977E+01
 0.79324114046E+01 0.94018966593E+01 0.10834599833E+02 0.11742701060E+02 0.11519637603E+02
 0.97787960164E+01 0.65723338060E+01 0.24846445579E+01 -.14721481346E+01 -.10110077236E+01
 -.31118453875E+01 -.31601645981E+01 -.11471590916E+01 0.22853342126E+01 0.61124502488E+01
 0.93199872709E+01 0.11237936296E+02 0.11693538247E+02 0.10967405466E+02 0.96093613421E+01
 0.81471901283E+01 0.67971460699E+01 0.56563691987E+01 0.47670362235E+01 0.41306665572E+01
 0.37281719355E+01 0.35372489170E+01 0.35438007254E+01 0.37474515015E+01 0.41616358766E+01
 0.48083252473E+01 0.57068666324E+01 0.68565992231E+01 0.82164117273E+01 0.96898781581E+01
 0.11069217492E+02 0.11833731564E+02 0.11423052234E+02 0.95396738821E+01 0.63399600131E+01
 0.24846445579E+01 0.31746997438E+01 0.30514043980E+00 -.11471751805E+01 -.71527211974E+00
 0.14505920160E+01 0.46497959672E+01 0.79216317719E+01 0.10406955253E+02 0.11618266188E+02
 0.11531430822E+02 0.10504011169E+02 0.90790091424E+01 0.76550253531E+01 0.63778662171E+01
 0.53242104798E+01 0.45209397490E+01 0.39613434003E+01 0.36241992607E+01 0.34888157380E+01
 0.35442834001E+01 0.37934548172E+01 0.42519289195E+01 0.49418195834E+01 0.58796795302E+01
 0.70587560291E+01 0.84298167384E+01 0.98895214414E+01 0.11209350227E+02 0.11873457389E+02
 0.11386062299E+02 0.95396738821E+01 0.65723338060E+01 0.72298390367E+01 0.44485550070E+01
 0.22853326857E+01 0.14505864627E+01 0.22230603921E+01 0.43327775928E+01 0.70802690227E+01
 0.96247214143E+01 0.11294270304E+02 0.11786937661E+02 0.11207173068E+02 0.99575474638E+01
 0.85237164970E+01 0.71573903352E+01 0.59659853561E+01 0.50056450702E+01 0.42896204556E+01
 0.38050388586E+01 0.35298880167E+01 0.34455823579E+01 0.35444571050E+01 0.38323631373E+01
 0.43263853779E+01 0.50477524212E+01 0.60095184226E+01 0.71993631204E+01 0.85622206544E+01
 0.99917349690E+01 0.11255950644E+02 0.11873457389E+02 0.11423052234E+02 0.97787960164E+01
 0.10206238110E+02 0.82000842052E+01 0.61124553460E+01 0.46497985452E+01 0.43327813439E+01
 0.52752710918E+01 0.71376768019E+01 0.92769818191E+01 0.11010382053E+02 0.11863321335E+02
 0.11704051908E+02 0.10735061050E+02 0.93682675308E+01 0.79654731431E+01 0.66740203276E+01
 0.55770829261E+01 0.47120900085E+01 0.40811233560E+01 0.36670413320E+01 0.34481888016E+01
 0.34087138205E+01 0.35441988644E+01 0.38627526097E+01 0.43818656129E+01 0.51211143156E+01
 0.60899928953E+01 0.72715282452E+01 0.86071770751E+01 0.99917349690E+01 0.11209350227E+02
 0.11833731564E+02 0.11519637603E+02 0.11635114388E+02 0.10730252477E+02 0.93199786773E+01
 0.79216297423E+01 0.70802739850E+01 0.71376848169E+01 0.80816734783E+01 0.95542315925E+01
 0.11010506888E+02 0.11942679519E+02 0.12063525017E+02 0.11382456504E+02 0.10163127386E+02
 0.87746214849E+01 0.74271977544E+01 0.62237543354E+01 0.52253946946E+01 0.44535722969E+01
 0.39020188012E+01 0.35514354394E+01 0.33816309942E+01 0.33796236059E+01 0.35437011897E+01
 0.38834424277E+01 0.44159905960E+01 0.51586639808E+01 0.61173153309E+01 0.72715282452E+01
 0.85622206544E+01 0.98895214414E+01 0.11069217492E+02 0.11742701060E+02 0.11580554303E+02
 0.11712767777E+02 0.11237926574E+02 0.10406941519E+02 0.96247123140E+01 0.92769849853E+01
 0.95542407480E+01 0.10363110076E+02 0.11370816048E+02 0.12154888145E+02 0.12379340062E+02
 0.11918148469E+02 0.10884037671E+02 0.95617539201E+01 0.82042994085E+01 0.69316500597E+01
 0.58238305389E+01 0.49228611636E+01 0.42379610323E+01 0.37575332465E+01 0.34617471090E+01
 0.33324152557E+01 0.33593800459E+01 0.35431559788E+01 0.38939259137E+01 0.44275551711E+01
 0.51586639808E+01 0.60899928953E+01 0.71993631204E+01 0.84298167384E+01 0.96898781581E+01
 0.10834599833E+02 0.10507003442E+02 0.11326737239E+02 0.11693543194E+02 0.11618257793E+02
 0.11294253467E+02 0.11010370887E+02 0.11010510064E+02 0.11370824907E+02 0.11959794782E+02
 0.12500472773E+02 0.12698388941E+02 0.12369621971E+02 0.11513303285E+02 0.10304969182E+02
 0.89838189944E+01 0.76846447468E+01 0.64993403465E+01 0.54883969102E+01 0.46788722513E+01
 0.40714593476E+01 0.36516719091E+01 0.34004586280E+01 0.33021155882E+01 0.33490007236E+01
 0.35429720296E+01 0.38939259137E+01 0.44159905960E+01 0.51211143156E+01 0.60095184226E+01
 0.70587560291E+01 0.82164117273E+01 0.94018966593E+01 0.90384246334E+01 0.10093369003E+02
 0.10967407399E+02 0.11531433198E+02 0.11786934541E+02 0.11863311396E+02 0.11942670371E+02
 0.12154889194E+02 0.12500480091E+02 0.12843908855E+02 0.12979114079E+02 0.12729843216E+02
 0.12034075353E+02 0.10975939056E+02 0.97400097146E+01 0.84625342894E+01 0.72400772969E+01
 0.61471346880E+01 0.52284550684E+01 0.45002988472E+01 0.39582446999E+01 0.35870630453E+01
 0.33693807751E+01 0.32919236865E+01 0.33490007236E+01 0.35431559788E+01 0.38834424277E+01
 0.43818656129E+01 0.50477524212E+01 0.58796795302E+01 0.68565992231E+01 0.79324114046E+01
 0.75909367992E+01 0.86144394257E+01 0.96093458845E+01 0.10504006438E+02 0.11207179455E+02
 0.11704057099E+02 0.12063518745E+02 0.12379330114E+02 0.12698389913E+02 0.12979122747E+02
 0.13104404282E+02 0.12940513364E+02 0.12408848373E+02 0.11533858734E+02 0.10437440227E+02
 0.92369134474E+01 0.80269921815E+01 0.68905330557E+01 0.58875990338E+01 0.50514272848E+01
 0.43915008347E+01 0.39010222968E+01 0.35653862732E+01 0.33693807751E+01 0.33021155882E+01
 0.33593800459E+01 0.35437011897E+01 0.38627526097E+01 0.43263853779E+01 0.49418195834E+01
 0.57068666324E+01 0.66028851977E+01 0.63093163227E+01 0.72070374202E+01 0.81471800564E+01
 0.90789965210E+01 0.99575413391E+01 0.10735065610E+02 0.11382462673E+02 0.11918145634E+02
 0.12369615874E+02 0.12729846879E+02 0.12940523079E+02 0.12913561882E+02 0.12578262926E+02
 0.11927152900E+02 0.11028666587E+02 0.99674662977E+01 0.88296768972E+01 0.77002236259E+01
 0.66501938255E+01 0.57288682075E+01 0.49618885855E+01 0.43550096727E+01 0.39010222968E+01
 0.35870630453E+01 0.34004586280E+01 0.33324152557E+01 0.33796236059E+01 0.35441988644E+01
 0.38323631373E+01 0.42519289195E+01 0.48083252473E+01 0.54992605057E+01 0.52664475421E+01
 0.59892743113E+01 0.67971576189E+01 0.76550279115E+01 0.85237031612E+01 0.93682555377E+01
 0.10163132569E+02 0.10884049716E+02 0.11513303937E+02 0.12034069133E+02 0.12408851880E+02
 0.12578273137E+02 0.12484057966E+02 0.12102744123E+02 0.11458772462E+02 0.10602333336E+02
 0.96041759018E+01 0.85440972561E+01 0.74980843632E+01 0.65279679569E+01 0.56755198174E+01
 0.49618885855E+01 0.43915008347E+01 0.39582446999E+01 0.36516719091E+01 0.34617471090E+01
 0.33816309942E+01 0.34087138205E+01 0.35444571050E+01 0.37934548172E+01 0.41616358766E+01
 0.46532184748E+01 0.44837020162E+01 0.50189339966E+01 0.56563772186E+01 0.63778844601E+01
 0.71573953937E+01 0.79654628283E+01 0.87746159898E+01 0.95617637451E+01 0.10304979310E+02
 0.10975935657E+02 0.11533852237E+02 0.11927157882E+02 0.12102753637E+02 0.12022798140E+02
 0.11676491367E+02 0.11084554930E+02 0.10295299194E+02 0.93751741456E+01 0.83971902735E+01
 0.74297598648E+01 0.65279679569E+01 0.57288682075E+01 0.50514272848E+01 0.45002988472E+01
 0.40714593476E+01 0.37575332465E+01 0.35514354394E+01 0.34481888016E+01 0.34455823579E+01
 0.35442834001E+01 0.37474515015E+01 0.40594963733E+01 0.39501503419E+01 0.43070599442E+01
 0.47670235462E+01 0.53242184191E+01 0.59660075097E+01 0.66740342369E+01 0.74271950374E+01
 0.82042951624E+01 0.89838250201E+01 0.97400171115E+01 0.10437438473E+02 0.11028662127E+02
 0.11458775066E+02 0.11676496704E+02 0.11647341652E+02 0.11363037221E+02 0.10843952002E+02
 0.10134953173E+02 0.92970534854E+01 0.83971902735E+01 0.74980843632E+01 0.66501938255E+01
 0.58875990338E+01 0.52284550684E+01 0.46788722513E+01 0.42379610323E+01 0.39020188012E+01
 0.36670413320E+01 0.35298880167E+01 0.34888157380E+01 0.35438007254E+01 0.36965939551E+01
 0.36430618700E+01 0.38381424262E+01 0.41306639298E+01 0.45209389298E+01 0.50056617536E+01
 0.55771075575E+01 0.62237650033E+01 0.69316449738E+01 0.76846422210E+01 0.84625428351E+01
 0.92369214978E+01 0.99674641434E+01 0.10602327368E+02 0.11084553829E+02 0.11363038830E+02
 0.11403803806E+02 0.11197462463E+02 0.10761097698E+02 0.10134953173E+02 0.93751741456E+01
 0.85440972561E+01 0.77002236259E+01 0.68905330557E+01 0.61471346880E+01 0.54883969102E+01
 0.49228611636E+01 0.44535722969E+01 0.40811233560E+01 0.38050388586E+01 0.36241992607E+01
 0.35372489170E+01 0.35433729646E+01 0.35431344329E+01 0.35892561604E+01 0.37282075911E+01
 0.39613679867E+01 0.42896347365E+01 0.47121028413E+01 0.52254070842E+01 0.58238372996E+01
 0.64993412792E+01 0.72400781832E+01 0.80269960247E+01 0.88296804545E+01 0.96041754793E+01
 0.10295295622E+02 0.10843948584E+02 0.11197460872E+02 0.11319594078E+02 0.11197462463E+02
 0.10843952002E+02 0.10295299194E+02 0.96041759018E+01 0.88296768972E+01 0.80269921815E+01
 0.72400772969E+01 0.64993403465E+01 0.58238305389E+01 0.52253946946E+01 0.47120900085E+01
 0.42896204556E+01 0.39613434003E+01 0.37281719355E+01 0.35892275893E+01 0.36430574108E+01
 0.35433970465E+01 0.35373020198E+01 0.36242550144E+01 0.38050732201E+01 0.40811361416E+01
 0.44535787692E+01 0.49228703961E+01 0.54884041570E+01 0.61471332581E+01 0.68905269636E+01
 0.77002229793E+01 0.85441034818E+01 0.93751780407E+01 0.10134949276E+02 0.10761091851E+02
 0.11197460872E+02 0.11403803806E+02 0.11363037221E+02 0.11084554930E+02 0.10602333336E+02
 0.99674662977E+01 0.92369134474E+01 0.84625342894E+01 0.76846447468E+01 0.69316500597E+01
 0.62237543354E+01 0.55770829261E+01 0.50056450702E+01 0.45209397490E+01 0.41306665572E+01
 0.38381340981E+01 0.39501715448E+01 0.36966226951E+01 0.35438440377E+01 0.34888684914E+01
 0.35299371971E+01 0.36670751914E+01 0.39020330808E+01 0.42379619754E+01 0.46788709586E+01
 0.52284554350E+01 0.58875965611E+01 0.66501881839E+01 0.74980829970E+01 0.83971951945E+01
 0.92970562215E+01 0.10134949276E+02 0.10843948584E+02 0.11363038830E+02 0.11647341652E+02
 0.11676491367E+02 0.11458772462E+02 0.11028666587E+02 0.10437440227E+02 0.97400097146E+01
 0.89838189944E+01 0.82042994085E+01 0.74271977544E+01 0.66740203276E+01 0.59659853561E+01
 0.53242104798E+01 0.47670362235E+01 0.43070806958E+01 0.44837439856E+01 0.40595452672E+01
 0.37474945040E+01 0.35443197808E+01 0.34456200797E+01 0.34482283067E+01 0.35514611329E+01
 0.37575323303E+01 0.40714440566E+01 0.45002928792E+01 0.50514331220E+01 0.57288683542E+01
 0.65279575035E+01 0.74297537614E+01 0.83971951945E+01 0.93751780407E+01 0.10295295622E+02
 0.11084553829E+02 0.11676496704E+02 0.12022798140E+02 0.12102744123E+02 0.11927152900E+02
 0.11533858734E+02 0.10975939056E+02 0.10304969182E+02 0.95617539201E+01 0.87746214849E+01
 0.79654731431E+01 0.71573903352E+01 0.63778662171E+01 0.56563691987E+01 0.50189530369E+01
 0.52664715708E+01 0.46532626412E+01 0.41616868347E+01 0.37934966491E+01 0.35444825567E+01
 0.34087291973E+01 0.33816422770E+01 0.34617477601E+01 0.36516569181E+01 0.39582272805E+01
 0.43914968399E+01 0.49618921543E+01 0.56755150690E+01 0.65279575035E+01 0.74980829970E+01
 0.85441034818E+01 0.96041754793E+01 0.10602327368E+02 0.11458775066E+02 0.12102753637E+02
 0.12484057966E+02 0.12578262926E+02 0.12408848373E+02 0.12034075353E+02 0.11513303285E+02
 0.10884037671E+02 0.10163127386E+02 0.93682675308E+01 0.85237164970E+01 0.76550253531E+01
 0.67971460699E+01 0.59892746662E+01 0.63093168878E+01 0.54992714438E+01 0.48083587767E+01
 0.42519753799E+01 0.38323922207E+01 0.35441943740E+01 0.33796033710E+01 0.33324019895E+01
 0.34004480109E+01 0.35870408863E+01 0.39009966513E+01 0.43549995971E+01 0.49618921543E+01
 0.57288683542E+01 0.66501881839E+01 0.77002229793E+01 0.88296804545E+01 0.99674641434E+01
 0.11028662127E+02 0.11927157882E+02 0.12578273137E+02 0.12913561882E+02 0.12940513364E+02
 0.12729843216E+02 0.12369621971E+02 0.11918148469E+02 0.11382456504E+02 0.10735061050E+02
 0.99575474638E+01 0.90790091424E+01 0.81471901283E+01 0.72070407779E+01 0.75909435834E+01
 0.66028833870E+01 0.57068693439E+01 0.49418372989E+01 0.43264058635E+01 0.38627499520E+01
 0.35436699143E+01 0.33593426649E+01 0.33020886837E+01 0.33693551510E+01 0.35653533435E+01
 0.39009966513E+01 0.43914968399E+01 0.50514331220E+01 0.58875965611E+01 0.68905269636E+01
 0.80269960247E+01 0.92369214978E+01 0.10437438473E+02 0.11533852237E+02 0.12408851880E+02
 0.12940523079E+02 0.13104404282E+02 0.12979114079E+02 0.12698388941E+02 0.12379340062E+02
 0.12063525017E+02 0.11704051908E+02 0.11207173068E+02 0.10504011169E+02 0.96093613421E+01
 0.86144553667E+01 0.90384402294E+01 0.79324270392E+01 0.68565999279E+01 0.58796662159E+01
 0.50477410976E+01 0.43818592065E+01 0.38834215831E+01 0.35431092805E+01 0.33489458046E+01
 0.32918834267E+01 0.33693551510E+01 0.35870408863E+01 0.39582272805E+01 0.45002928792E+01
 0.52284554350E+01 0.61471332581E+01 0.72400781832E+01 0.84625428351E+01 0.97400171115E+01
 0.10975935657E+02 0.12034069133E+02 0.12729846879E+02 0.12979122747E+02 0.12843908855E+02
 0.12500472773E+02 0.12154888145E+02 0.11942679519E+02 0.11863321335E+02 0.11786937661E+02
 0.11531430822E+02 0.10967405466E+02 0.10093374564E+02 0.10507003407E+02 0.94019123381E+01
 0.82164278563E+01 0.70587513789E+01 0.60094936837E+01 0.51210884855E+01 0.44159671638E+01
 0.38938862082E+01 0.35429114264E+01 0.33489458046E+01 0.33020886837E+01 0.34004480109E+01
 0.36516569181E+01 0.40714440566E+01 0.46788709586E+01 0.54884041570E+01 0.64993412792E+01
 0.76846422210E+01 0.89838250201E+01 0.10304979310E+02 0.11513303937E+02 0.12369615874E+02
 0.12698389913E+02 0.12500480091E+02 0.11959794782E+02 0.11370816048E+02 0.11010506888E+02
 0.11010382053E+02 0.11294270304E+02 0.11618266188E+02 0.11693538247E+02 0.11326727227E+02
 0.11580544177E+02 0.10834589379E+02 0.96898826485E+01 0.84298320440E+01 0.71993636564E+01
 0.60899651224E+01 0.51586232857E+01 0.44275176569E+01 0.38938862082E+01 0.35431092805E+01
 0.33593426649E+01 0.33324019895E+01 0.34617477601E+01 0.37575323303E+01 0.42379619754E+01
 0.49228703961E+01 0.58238372996E+01 0.69316449738E+01 0.82042951624E+01 0.95617637451E+01
 0.10884049716E+02 0.11918145634E+02 0.12379330114E+02 0.12154889194E+02 0.11370824907E+02
 0.10363110076E+02 0.95542315925E+01 0.92769818191E+01 0.96247214143E+01 0.10406955253E+02
 0.11237936296E+02 0.11712768190E+02 0.11635120465E+02 0.11742687237E+02 0.11069196845E+02
 0.98895217191E+01 0.85622385459E+01 0.72715270801E+01 0.61172801830E+01 0.51586232857E+01
 0.44159671638E+01 0.38834215831E+01 0.35436699143E+01 0.33796033710E+01 0.33816422770E+01
 0.35514611329E+01 0.39020330808E+01 0.44535787692E+01 0.52254070842E+01 0.62237650033E+01
 0.74271950374E+01 0.87746159898E+01 0.10163132569E+02 0.11382462673E+02 0.12063518745E+02
 0.11942670371E+02 0.11010510064E+02 0.95542407480E+01 0.80816734783E+01 0.71376768019E+01
 0.70802690227E+01 0.79216317719E+01 0.93199872709E+01 0.10730265852E+02 0.10206248473E+02
 0.11519649157E+02 0.11833721113E+02 0.11209325815E+02 0.99917288876E+01 0.86071906816E+01
 0.72715270801E+01 0.60899651224E+01 0.51210884855E+01 0.43818592065E+01 0.38627499520E+01
 0.35441943740E+01 0.34087291973E+01 0.34482283067E+01 0.36670751914E+01 0.40811361416E+01
 0.47121028413E+01 0.55771075575E+01 0.66740342369E+01 0.79654628283E+01 0.93682555377E+01
 0.10735065610E+02 0.11704057099E+02 0.11863311396E+02 0.11010370887E+02 0.92769849853E+01
 0.71376848169E+01 0.52752710918E+01 0.43327775928E+01 0.46497959672E+01 0.61124502488E+01
 0.82000816664E+01 0.72298224289E+01 0.97788060951E+01 0.11423071175E+02 0.11873447316E+02
 0.11255921157E+02 0.99917288876E+01 0.85622385459E+01 0.71993636564E+01 0.60094936837E+01
 0.50477410976E+01 0.43264058635E+01 0.38323922207E+01 0.35444825567E+01 0.34456200797E+01
 0.35299371971E+01 0.38050732201E+01 0.42896347365E+01 0.50056617536E+01 0.59660075097E+01
 0.71573953937E+01 0.85237031612E+01 0.99575413391E+01 0.11207179455E+02 0.11786934541E+02
 0.11294253467E+02 0.96247123140E+01 0.70802739850E+01 0.43327813439E+01 0.22230603921E+01
 0.14505920160E+01 0.22853342126E+01 0.44485382584E+01 0.31746743698E+01 0.65723081785E+01
 0.95396825127E+01 0.11386081580E+02 0.11873447316E+02 0.11209325815E+02 0.98895217191E+01
 0.84298320440E+01 0.70587513789E+01 0.58796662159E+01 0.49418372989E+01 0.42519753799E+01
 0.37934966491E+01 0.35443197808E+01 0.34888684914E+01 0.36242550144E+01 0.39613679867E+01
 0.45209389298E+01 0.53242184191E+01 0.63778844601E+01 0.76550279115E+01 0.90789965210E+01
 0.10504006438E+02 0.11531433198E+02 0.11618257793E+02 0.10406941519E+02 0.79216297423E+01
 0.46497985452E+01 0.14505864627E+01 -.71527211974E+00 -.11471590916E+01 0.30514616786E+00
 -.10109974455E+01 0.24846136754E+01 0.63399295098E+01 0.95396825127E+01 0.11423071175E+02
 0.11833721113E+02 0.11069196845E+02 0.96898826485E+01 0.82164278563E+01 0.68565999279E+01
 0.57068693439E+01 0.48083587767E+01 0.41616868347E+01 0.37474945040E+01 0.35438440377E+01
 0.35373020198E+01 0.37282075911E+01 0.41306639298E+01 0.47670235462E+01 0.56563772186E+01
 0.67971576189E+01 0.81471800564E+01 0.96093458845E+01 0.10967407399E+02 0.11693543194E+02
 0.11237926574E+02 0.93199786773E+01 0.61124553460E+01 0.22853326857E+01 -.11471751805E+01
 -.31601645981E+01 -.31118189781E+01 -.41691665925E+01 -.14721367654E+01 0.24846136754E+01
 0.65723081785E+01 0.97788060951E+01 0.11519649157E+02 0.11742687237E+02 0.10834589379E+02
 0.94019123381E+01 0.79324270392E+01 0.66028833870E+01 0.54992714438E+01 0.46532626412E+01
 0.40595452672E+01 0.36966226951E+01 0.35433970465E+01 0.35892561604E+01 0.38381424262E+01
 0.43070599442E+01 0.50189339966E+01 0.59892743113E+01 0.72070374202E+01 0.86144394257E+01
 0.10093369003E+02 0.11326737239E+02 0.11712767777E+02 0.10730252477E+02 0.82000842052E+01
 0.44485550070E+01 0.30514043980E+00 -.31118453875E+01 -.47790153855E+01 -.41690625536E+01
 -.33052994476E+01 -.52355000979E+00 0.33268829357E+01 0.71577399401E+01 0.10036517910E+02
 0.11464140379E+02 0.11452907486E+02 0.10419795775E+02 0.89640890311E+01 0.75136108639E+01
 0.62200241046E+01 0.51602399504E+01 0.43584223444E+01 0.38044652710E+01 0.34749683139E+01
 0.33490976922E+01 0.34175995085E+01 0.36860201087E+01 0.41728162791E+01 0.49018591630E+01
 0.58882058842E+01 0.71178767698E+01 0.85277675913E+01 0.99922547183E+01 0.11168140476E+02
 0.11459863496E+02 0.10386756443E+02 0.78283859332E+01 0.41648983600E+01 0.24586198058E+00
 -.28447398779E+01 -.33053277706E+01 -.41691691089E+01 -.28448020951E+01 0.24588244925E+00
 0.41649196724E+01 0.78283487363E+01 0.10386714550E+02 0.11459890590E+02 0.11168207806E+02
 0.99922705523E+01 0.85277158239E+01 0.71178405796E+01 0.58882395534E+01 0.49019063493E+01
 0.41728025867E+01 0.36859730871E+01 0.34176017152E+01 0.33491468805E+01 0.34749767562E+01
 0.38044063946E+01 0.43583826015E+01 0.51602820149E+01 0.62200836791E+01 0.75136010504E+01
 0.89640403053E+01 0.10419797145E+02 0.11452949665E+02 0.11464130280E+02 0.10036444495E+02
 0.71577097238E+01 0.33269539305E+01 -.52347131424E+00 -.42973877273E+00 -.27430287307E+01
 -.31117426744E+01 -.14287298580E+01 0.17620846824E+01 0.54920267736E+01 0.87438624587E+01
 0.10797119913E+02 0.11410291090E+02 0.10806287217E+02 0.95063352224E+01 0.80568120031E+01
 0.67033994406E+01 0.55507067929E+01 0.46466234668E+01 0.39953298000E+01 0.35779445481E+01
 0.33711502426E+01 0.33594511145E+01 0.35411277355E+01 0.39288233551E+01 0.45449922607E+01
 0.54115060779E+01 0.65327140586E+01 0.78746676492E+01 0.93490558499E+01 0.10775858322E+02
 0.11674360085E+02 0.11475089167E+02 0.98395695080E+01 0.68572931494E+01 0.31139108943E+01
 0.35640960680E+01 0.51598742430E+00 -.12375124706E+01 -.11472104252E+01 0.73971937527E+00
 0.38015261449E+01 0.70999417258E+01 0.97392763518E+01 0.11160262834E+02 0.11265022093E+02
 0.10361811432E+02 0.89823783843E+01 0.75682327065E+01 0.62858826665E+01 0.52203585775E+01
 0.44040382070E+01 0.38323296549E+01 0.34839096828E+01 0.33370601263E+01 0.33796542195E+01
 0.36135847407E+01 0.40542515810E+01 0.47248885086E+01 0.56449838748E+01 0.68127422784E+01
 0.81854117221E+01 0.96663877507E+01 0.11052213285E+02 0.11846540982E+02 0.11532301701E+02
 0.98546545368E+01 0.69879711132E+01 0.75354083109E+01 0.46119170307E+01 0.21770263114E+01
 0.99847049083E+00 0.14505917202E+01 0.33581212325E+01 0.60737760915E+01 0.87465840076E+01
 0.10643077272E+02 0.11379406091E+02 0.10990811833E+02 0.98444541607E+01 0.84403449691E+01
 0.70792475011E+01 0.58806503409E+01 0.49090102516E+01 0.41823075148E+01 0.36890902535E+01
 0.34069614537E+01 0.33163690636E+01 0.34087082773E+01 0.36893286383E+01 0.41756855952E+01
 0.48906251475E+01 0.58503240820E+01 0.70470588305E+01 0.84311592125E+01 0.99012535330E+01
 0.11242677145E+02 0.11976540062E+02 0.11651788392E+02 0.10093399354E+02 0.10518100754E+02
 0.84122935353E+01 0.61000213390E+01 0.43166226630E+01 0.36576206393E+01 0.43327350945E+01
 0.60784862134E+01 0.82750016677E+01 0.10202927220E+02 0.11312221310E+02 0.11390274060E+02
 0.10582437112E+02 0.92827076808E+01 0.78984907134E+01 0.66072021563E+01 0.55017888644E+01
 0.46270458885E+01 0.39886108899E+01 0.35700630759E+01 0.33492065117E+01 0.33093619155E+01
 0.34454773376E+01 0.37656318524E+01 0.42882206027E+01 0.50347853706E+01 0.60178465424E+01
 0.72242957843E+01 0.85995217008E+01 0.10041113618E+02 0.11340409593E+02 0.12060788973E+02
 0.11822359246E+02 0.12006932781E+02 0.11049065436E+02 0.94758262739E+01 0.78088346347E+01
 0.66400629841E+01 0.63921169004E+01 0.71376023827E+01 0.85705574482E+01 0.10143285229E+02
 0.11294628687E+02 0.11659393922E+02 0.11176108124E+02 0.10067977349E+02 0.87142158804E+01
 0.73762674115E+01 0.61689785592E+01 0.51623085796E+01 0.43835014326E+01 0.38285913293E+01
 0.34784362848E+01 0.33122288928E+01 0.33163291774E+01 0.34887511719E+01 0.38395354317E+01
 0.43871458882E+01 0.51509708502E+01 0.61395036845E+01 0.73351554352E+01 0.86810023620E+01
 0.10077492499E+02 0.11338067496E+02 0.12084710248E+02 0.12025869331E+02 0.12151432352E+02
 0.11581326484E+02 0.10554409600E+02 0.94959160817E+01 0.88475121311E+01 0.88758831344E+01
 0.95541955309E+01 0.10577601947E+02 0.11501752202E+02 0.11930901676E+02 0.11668056503E+02
 0.10770954579E+02 0.95042931868E+01 0.81647069492E+01 0.68940605275E+01 0.57805226199E+01
 0.48732522792E+01 0.41854460549E+01 0.37066660785E+01 0.34168271182E+01 0.32971404857E+01
 0.33370226861E+01 0.35370978043E+01 0.39084256323E+01 0.44684343155E+01 0.52336927535E+01
 0.62089316483E+01 0.73734867667E+01 0.86706153110E+01 0.10006819118E+02 0.11228219721E+02
 0.11006588816E+02 0.11860744340E+02 0.12196842956E+02 0.12005372397E+02 0.11480345494E+02
 0.10940737493E+02 0.10686710376E+02 0.10858566221E+02 0.11370736552E+02 0.11954217907E+02
 0.12282155875E+02 0.12113554672E+02 0.11390107066E+02 0.10250926052E+02 0.89512909791E+01
 0.76589617271E+01 0.64712781428E+01 0.54554500219E+01 0.46435431793E+01 0.40384952058E+01
 0.36260988394E+01 0.33868143924E+01 0.33044117158E+01 0.33710728119E+01 0.35891269794E+01
 0.39696530935E+01 0.45283877503E+01 0.52788758482E+01 0.62224730397E+01 0.73368229283E+01
 0.85678477585E+01 0.98309176015E+01 0.95572558439E+01 0.10675006709E+02 0.11571767058E+02
 0.12093666080E+02 0.12230743169E+02 0.12121821590E+02 0.11982520927E+02 0.11992691441E+02
 0.12201451143E+02 0.12500458784E+02 0.12678062317E+02 0.12523214303E+02 0.11926062953E+02
 0.10930108153E+02 0.97130791276E+01 0.84432306181E+01 0.72208378948E+01 0.61248711825E+01
 0.52048215655E+01 0.44798551988E+01 0.39463977319E+01 0.35888975110E+01 0.33893698901E+01
 0.33341242659E+01 0.34175480770E+01 0.36429430369E+01 0.40206889000E+01 0.45642691707E+01
 0.52841123010E+01 0.61789763607E+01 0.72265029307E+01 0.83773209770E+01 0.81080006512E+01
 0.91976979284E+01 0.10244828035E+02 0.11155601564E+02 0.11815382987E+02 0.12204649424E+02
 0.12406092442E+02 0.12545045716E+02 0.12708389979E+02 0.12887821178E+02 0.12979086023E+02
 0.12836088214E+02 0.12349285604E+02 0.11508261494E+02 0.10418439950E+02 0.92200501332E+01
 0.80095703000E+01 0.68712119382E+01 0.58681953642E+01 0.50364318621E+01 0.43865375081E+01
 0.39115559054E+01 0.35961850553E+01 0.34245485759E+01 0.33854472889E+01 0.34749530071E+01
 0.36965355368E+01 0.40592102071E+01 0.45740457661E+01 0.52487709248E+01 0.60804457348E+01
 0.70479646541E+01 0.68098225326E+01 0.77726398757E+01 0.87683402660E+01 0.97386144816E+01
 0.10627891867E+02 0.11366746104E+02 0.11923457076E+02 0.12330824280E+02 0.12642675229E+02
 0.12881159179E+02 0.13008534492E+02 0.12940534751E+02 0.12593043032E+02 0.11935533139E+02
 0.11022077218E+02 0.99512969711E+01 0.88078496479E+01 0.76753945148E+01 0.66259876870E+01
 0.57104615477E+01 0.49553205816E+01 0.43661562033E+01 0.39349421880E+01 0.36478629739E+01
 0.34915303868E+01 0.34569340522E+01 0.35412043525E+01 0.37474735760E+01 0.40831877574E+01
 0.45570461381E+01 0.51744433336E+01 0.59315985435E+01 0.57397604474E+01 0.65238052938E+01
 0.73869702429E+01 0.82880186948E+01 0.91811055760E+01 0.10024995315E+02 0.10786392715E+02
 0.11433193691E+02 0.11959361080E+02 0.12367869312E+02 0.12640824401E+02 0.12730491072E+02
 0.12578272815E+02 0.12150409299E+02 0.11467661316E+02 0.10586082480E+02 0.95729629388E+01
 0.85056777884E+01 0.74593789685E+01 0.64959613542E+01 0.56572645242E+01 0.49639606499E+01
 0.44194385613E+01 0.40163035231E+01 0.37429420908E+01 0.35885585296E+01 0.35461607602E+01
 0.36136532701E+01 0.37935014693E+01 0.40913771895E+01 0.45138018345E+01 0.50645161816E+01
 0.49245030893E+01 0.55143333434E+01 0.62033159779E+01 0.69683714163E+01 0.77778153154E+01
 0.85965897982E+01 0.93926051646E+01 0.10140457684E+02 0.10819164387E+02 0.11403954834E+02
 0.11865677346E+02 0.12165173020E+02 0.12255929204E+02 0.12102771453E+02 0.11699213248E+02
 0.11066156387E+02 0.10250231401E+02 0.93159146760E+01 0.83346071565E+01 0.73735804562E+01
 0.64869929616E+01 0.57108476155E+01 0.50627488861E+01 0.45457280744E+01 0.41541064477E+01
 0.38791171810E+01 0.37128340031E+01 0.36501710897E+01 0.36895033827E+01 0.38324820871E+01
 0.40831825224E+01 0.44463444611E+01 0.43580298169E+01 0.47610436126E+01 0.52658098966E+01
 0.58629926064E+01 0.65354429888E+01 0.72598965372E+01 0.80107051094E+01 0.87634550535E+01
 0.94958220575E+01 0.10184387407E+02 0.10799149172E+02 0.11300156741E+02 0.11640450605E+02
 0.11775712433E+02 0.11676506520E+02 0.11337441609E+02 0.10779859458E+02 0.10048198261E+02
 0.92021705208E+01 0.83069998284E+01 0.74236178138E+01 0.66007661251E+01 0.58708138506E+01
 0.52500483593E+01 0.47425157571E+01 0.43452748133E+01 0.40529726325E+01 0.38607114341E+01
 0.37653271712E+01 0.37657319493E+01 0.38628477244E+01 0.40592243259E+01 0.40207030480E+01
 0.42530287805E+01 0.45818468462E+01 0.50055217229E+01 0.55176080391E+01 0.61063959250E+01
 0.67561753705E+01 0.74493561417E+01 0.81677398848E+01 0.88913442678E+01 0.95946604274E+01
 0.10242609081E+02 0.10789928570E+02 0.11186456948E+02 0.11387199536E+02 0.11363043801E+02
 0.11107898505E+02 0.10640378601E+02 0.10000497078E+02 0.92427446510E+01 0.84270591549E+01
 0.76095202500E+01 0.68350088223E+01 0.61336927392E+01 0.55217937482E+01 0.50053944399E+01
 0.45850908803E+01 0.42595809682E+01 0.40274575021E+01 0.38876773680E+01 0.38396582265E+01
 0.38835799542E+01 0.38940076472E+01 0.39696879237E+01 0.41363586265E+01 0.43948260388E+01
 0.47443300563E+01 0.51812044993E+01 0.56986058622E+01 0.62873121983E+01 0.69365152380E+01
 0.76331518350E+01 0.83590903831E+01 0.90871419771E+01 0.97784399175E+01 0.10383918318E+02
 0.10850819013E+02 0.11132412597E+02 0.11197475268E+02 0.11036559933E+02 0.10663808237E+02
 0.10114389518E+02 0.94382118994E+01 0.86910797616E+01 0.79253876876E+01 0.71830460300E+01
 0.64926617379E+01 0.58710713339E+01 0.53273416807E+01 0.48666795812E+01 0.44926423169E+01
 0.42076619687E+01 0.40129105519E+01 0.39084626096E+01 0.39696548518E+01 0.38940427606E+01
 0.39085065516E+01 0.40128928068E+01 0.42076120180E+01 0.44926401556E+01 0.48667279921E+01
 0.53273695064E+01 0.58710521621E+01 0.64926460982E+01 0.71830665817E+01 0.79254086957E+01
 0.86910671090E+01 0.94381910207E+01 0.10114396854E+02 0.10663830012E+02 0.11036559062E+02
 0.11197451089E+02 0.11132396902E+02 0.10850826175E+02 0.10383929482E+02 0.97784355232E+01
 0.90871297755E+01 0.83590920086E+01 0.76331673453E+01 0.69365163187E+01 0.62872831414E+01
 0.56985771824E+01 0.51812145558E+01 0.47443584618E+01 0.43948125130E+01 0.41362990841E+01
 0.42530542814E+01 0.40206772337E+01 0.38835205979E+01 0.38396195444E+01 0.38876781642E+01
 0.40274706179E+01 0.42595791888E+01 0.45850796866E+01 0.50053968309E+01 0.55218132200E+01
 0.61337047681E+01 0.68349967714E+01 0.76095051651E+01 0.84270699495E+01 0.92427683129E+01
 0.10000494967E+02 0.10640350481E+02 0.11107884279E+02 0.11363053204E+02 0.11387193514E+02
 0.11186420747E+02 0.10789907269E+02 0.10242633537E+02 0.95946901511E+01 0.88913334966E+01
 0.81677151571E+01 0.74493672818E+01 0.67562037465E+01 0.61063820802E+01 0.55175539095E+01