    2    2   15    1
  0.1529437E+02  0.3691622E-09  0.3691622E-09  0.3691622E-09  0.5000000E-15
  1.000000000000000E-004
  CAR 
 unknown system                          
      8    126      8
 
  0.0000000E+00  0.0000000E+00  0.0000000E+00  0.7513148E-03
    1       -4.615719   1.000000
    2        6.182631   1.000000
    3        6.298616   1.000000
    4        6.298622   1.000000
    5       10.525855   0.000000
    6       16.772519   0.000000
    7       17.366710   0.000000
    8       17.366718   0.000000
 
  0.9090909E-01 -0.1249769E-17  0.1249769E-17  0.6010518E-02
    1       -4.382304   1.000000
    2        5.428060   1.000000
    3        6.253589   1.000000
    4        7.461956   1.000000
    5       11.008117   0.000000
    6       15.535377   0.000000
    7       16.607923   0.000000
    8       17.378023   0.000000
 
  0.1818182E+00 -0.2499539E-17  0.2499539E-17  0.6010518E-02
    1       -3.683946   1.000000
    2        5.048019   1.000000
    3        6.252566   1.000000
    4        8.995256   0.787521
    5       12.294451   0.000000
    6       13.417853   0.000000
    7       13.815529   0.000000
    8       15.826836   0.000000
 
  0.2727273E+00 -0.2456599E-16  0.2456599E-16  0.6010518E-02
    1       -2.526514   1.000000
    2        5.098531   1.000000
    3        6.477105   1.000000
    4        9.304789   0.082130
    5       11.377739   0.000000
    6       12.088347   0.000000
    7       13.597808   0.000000
    8       14.530362   0.000000
 
  0.3636364E+00 -0.4999077E-17  0.4999077E-17  0.6010518E-02
    1       -0.921459   1.000000
    2        5.519938   1.000000
    3        6.516497   1.000000
    4        6.988150   1.000000
    5        9.647998   0.000067
    6       12.044689   0.000000
    7       13.682746   0.000000
    8       13.825270   0.000000
 
  0.4545455E+00 -0.5101859E-16 -0.4492561E-17  0.6010518E-02
    1        1.101632   1.000000
    2        3.609606   1.000000
    3        6.476026   1.000000
    4        7.625229   1.000000
    5        8.037647   1.000000
    6       10.618511   0.000000
    7       13.524596   0.000000
    8       14.506162   0.000000
 
  0.9090909E-01  0.9090909E-01  0.6302053E-17  0.6010518E-02
    1       -3.781945   1.000000
    2        5.360079   1.000000
    3        7.012127   1.000000
    4        8.067486   1.000000
    5       11.839193   0.000000
    6       13.853854   0.000000
    7       13.985709   0.000000
    8       16.353047   0.000000
 
  0.1818182E+00  0.9090909E-01 -0.1326486E-16  0.1202104E-01
    1       -2.721188   1.000000
    2        5.387905   1.000000
    3        7.489010   1.000000
    4        9.216353   0.221974
    5       11.017815   0.000000
    6       11.546669   0.000000
    7       13.421515   0.000000
    8       14.638361   0.000000
 
  0.2727273E+00  0.9090909E-01  0.1260411E-16  0.1202104E-01
    1       -1.209908   1.000000
    2        5.775151   1.000000
    3        7.112793   1.000000
    4        7.846460   1.000000
    5        9.288637   0.100860
    6       12.042658   0.000000
    7       12.499497   0.000000
    8       13.946695   0.000000
 
  0.3636364E+00  0.9090909E-01  0.3112467E-17  0.1202104E-01
    1        0.729950   1.000000
    2        4.242133   1.000000
    3        6.588461   1.000000
    4        6.985348   1.000000
    5        8.785488   0.988730
    6       10.871194   0.000000
    7       12.816852   0.000000
    8       14.946134   0.000000
 
  0.4545455E+00  0.9090909E-01 -0.2652972E-16  0.1202104E-01
    1        1.647383   1.000000
    2        3.161953   1.000000
    3        5.608924   1.000000
    4        7.432085   1.000000
    5        8.556000   0.999953
    6       11.202342   0.000000
    7       12.561343   0.000000
    8       15.549237   0.000000
 
 -0.4545455E+00  0.9090909E-01 -0.1715602E-16  0.1202104E-01
    1       -0.442568   1.000000
    2        4.509415   1.000000
    3        5.947578   1.000000
    4        7.009847   1.000000
    5        9.641456   0.000081
    6       12.336330   0.000000
    7       13.017789   0.000000
    8       14.803217   0.000000
 
 -0.3636364E+00  0.9090909E-01  0.3189586E-17  0.1202104E-01
    1       -2.138274   1.000000
    2        3.940149   1.000000
    3        6.432795   1.000000
    4        8.919319   0.909030
    5       11.264516   0.000000
    6       12.509775   0.000000
    7       13.364640   0.000000
    8       14.768879   0.000000
 
 -0.2727273E+00  0.9090909E-01  0.1302975E-17  0.1202104E-01
    1       -3.390378   1.000000
    2        3.771848   1.000000
    3        6.203208   1.000000
    4        9.877909   0.000000
    5       12.571362   0.000000
    6       13.067093   0.000000
    7       13.687670   0.000000
    8       15.290715   0.000000
 
 -0.1818182E+00  0.9090909E-01  0.7590381E-17  0.1202104E-01
    1       -4.185702   1.000000
    2        4.029170   1.000000
    3        6.273118   1.000000
    4        8.428950   0.999999
    5       12.102178   0.000000
    6       14.044584   0.000000
    7       15.972502   0.000000
    8       17.044110   0.000000
 
 -0.9090909E-01  0.9090909E-01  0.1699965E-18  0.3005259E-02
    1       -4.517272   1.000000
    2        4.681271   1.000000
    3        6.389770   1.000000
    4        7.444124   1.000000
    5       11.140684   0.000000
    6       15.249747   0.000000
    7       16.599509   0.000000
    8       18.892827   0.000000
 
  0.1818182E+00  0.1818182E+00  0.1260411E-16  0.6010518E-02
    1       -1.306131   1.000000
    2        5.769928   1.000000
    3        7.742703   1.000000
    4        7.853778   1.000000
    5        9.493145   0.003237
    6       11.336508   0.000000
    7       12.924892   0.000000
    8       13.076331   0.000000
 
  0.2727273E+00  0.1818182E+00  0.3086804E-16  0.1202104E-01
    1        0.542547   1.000000
    2        5.041288   1.000000
    3        5.980840   1.000000
    4        6.523083   1.000000
    5        9.777325   0.000001
    6       11.523727   0.000000
    7       12.212338   0.000000
    8       13.598472   0.000000
 
  0.3636364E+00  0.1818182E+00 -0.2652972E-16  0.1202104E-01
    1        2.303591   1.000000
    2        2.957145   1.000000
    3        4.477426   1.000000
    4        7.421621   1.000000
    5        9.089472   0.552365
    6       11.147646   0.000000
    7       12.814509   0.000000
    8       15.934369   0.000000
 
  0.4545455E+00  0.1818182E+00 -0.6607546E-18  0.1202104E-01
    1        0.223590   1.000000
    2        3.260401   1.000000
    3        5.572961   1.000000
    4        7.473635   1.000000
    5        9.368729   0.032664
    6       11.375163   0.000000
    7       14.112630   0.000000
    8       15.675821   0.000000
 
 -0.4545455E+00  0.1818182E+00 -0.2664766E-16  0.1202104E-01
    1       -1.558241   1.000000
    2        2.565838   1.000000
    3        6.878272   1.000000
    4        8.556997   0.999951
    5       10.469608   0.000000
    6       12.450292   0.000000
    7       13.281431   0.000000
    8       15.916358   0.000000
 
 -0.3636364E+00  0.1818182E+00  0.1518076E-16  0.1202104E-01
    1       -2.902592   1.000000
    2        2.296434   1.000000
    3        6.602988   1.000000
    4       10.448950   0.000000
    5       11.416310   0.000000
    6       12.611588   0.000000
    7       14.434729   0.000000
    8       15.957800   0.000000
 
 -0.2727273E+00  0.1818182E+00 -0.1322630E-16  0.1202104E-01
    1       -3.793291   1.000000
    2        2.464488   1.000000
    3        6.621186   1.000000
    4        9.131534   0.434164
    5       12.519618   0.000000
    6       13.946090   0.000000
    7       14.920812   0.000000
    8       16.539930   0.000000
 
 -0.1818182E+00  0.1818182E+00  0.3399929E-18  0.3005259E-02
    1       -4.222220   1.000000
    2        3.058875   1.000000
    3        6.663122   1.000000
    4        8.220843   1.000000
    5       12.756670   0.000000
    6       13.594553   0.000000
    7       15.284887   0.000000
    8       19.324212   0.000000
 
  0.2727273E+00  0.2727273E+00 -0.6379172E-17  0.6010518E-02
    1        2.581130   1.000000
    2        3.360318   1.000000
    3        3.553663   1.000000
    4        7.413257   1.000000
    5        9.506449   0.002425
    6       10.577012   0.000000
    7       14.000162   0.000000
    8       14.835896   0.000000
 
  0.3636364E+00  0.2727273E+00 -0.3602136E-16  0.1202104E-01
    1        1.071442   1.000000
    2        2.091594   1.000000
    3        5.388966   1.000000
    4        8.010705   1.000000
    5        9.020974   0.731051
    6       10.710251   0.000000
    7       15.387698   0.000000
    8       16.210630   0.000000
 
  0.4545455E+00  0.2727273E+00  0.2520821E-16  0.1202104E-01
    1       -0.789806   1.000000
    2        1.286863   1.000000
    3        7.520971   1.000000
    4        8.328422   1.000000
    5        9.499443   0.002826
    6       12.065719   0.000000
    7       13.977077   0.000000
    8       15.858062   0.000000
 
 -0.4545455E+00  0.2727273E+00  0.1937185E-16  0.1202104E-01
    1       -2.222744   1.000000
    2        0.919598   1.000000
    3        7.220807   1.000000
    4       10.086362   0.000000
    5       10.974747   0.000000
    6       12.513015   0.000000
    7       14.191511   0.000000
    8       14.944219   0.000000
 
 -0.3636364E+00  0.2727273E+00 -0.1702881E-16  0.1202104E-01
    1       -3.206784   1.000000
    2        0.998506   1.000000
    3        7.164978   1.000000
    4        9.813086   0.000000
    5       11.126631   0.000000
    6       13.710288   0.000000
    7       15.710859   0.000000
    8       16.337426   0.000000
 
 -0.2727273E+00  0.2727273E+00 -0.1434744E-16  0.3005259E-02
    1       -3.731883   1.000000
    2        1.519410   1.000000
    3        7.118471   1.000000
    4        8.879893   0.946691
    5       12.085427   0.000000
    6       13.931381   0.000000
    7       14.890307   0.000000
    8       19.066928   0.000000
 
  0.3636364E+00  0.3636364E+00  0.2520821E-16  0.6010518E-02
    1        0.157293   1.000000
    2        0.166134   1.000000
    3        8.022838   1.000000
    4        8.311856   1.000000
    5        8.810207   0.982413
    6       11.941792   0.000000
    7       14.525539   0.000000
    8       15.315719   0.000000
 
  0.4545455E+00  0.3636364E+00 -0.3979458E-16  0.1202104E-01
    1       -1.354524   1.000000
    2       -0.303870   1.000000
    3        8.022057   1.000000
    4        8.992071   0.793997
    5       11.135405   0.000000
    6       12.794597   0.000000
    7       14.027193   0.000000
    8       14.074881   0.000000
 
 -0.4545455E+00  0.3636364E+00 -0.1340671E-16  0.1202104E-01
    1       -2.428899   1.000000
    2       -0.317654   1.000000
    3        7.892210   1.000000
    4        9.876203   0.000000
    5       10.600722   0.000000
    6       12.565467   0.000000
    7       15.749042   0.000000
    8       16.493341   0.000000
 
 -0.3636364E+00  0.3636364E+00  0.6799859E-18  0.3005259E-02
    1       -3.048359   1.000000
    2        0.119366   1.000000
    3        7.755149   1.000000
    4        9.613609   0.000175
    5       10.740054   0.000000
    6       12.653881   0.000000
    7       17.192854   0.000000
    8       18.874032   0.000000
 
  0.4545455E+00  0.4545455E+00 -0.4928622E-16  0.6010518E-02
    1       -1.463927   1.000000
    2       -1.463254   1.000000
    3        8.786724   0.988468
    4        8.810420   0.982347
    5       11.455775   0.000000
    6       11.578299   0.000000
    7       15.680632   0.000000
    8       16.460299   0.000000
 
 -0.4545455E+00  0.4545455E+00 -0.2152036E-17  0.3005259E-02
    1       -2.174951   1.000000
    2       -1.116249   1.000000
    3        8.572346   0.999924
    4        9.568051   0.000572
    5       10.481828   0.000000
    6       11.497341   0.000000
    7       18.787053   0.000000
    8       18.823669   0.000000
 
  0.9090909E-01  0.9090909E-01  0.9090909E-01  0.6010518E-02
    1       -3.487998   1.000000
    2        3.754985   1.000000
    3        7.277728   1.000000
    4        8.829235   0.975683
    5       12.818547   0.000000
    6       13.427125   0.000000
    7       13.724485   0.000000
    8       15.466995   0.000000
 
  0.1818182E+00  0.9090909E-01  0.9090909E-01  0.1202104E-01
    1       -2.331805   1.000000
    2        3.857514   1.000000
    3        7.787517   1.000000
    4        9.349332   0.044018
    5       10.837207   0.000000
    6       11.297375   0.000000
    7       14.268812   0.000000
    8       15.148138   0.000000
 
  0.2727273E+00  0.9090909E-01  0.9090909E-01  0.1202104E-01
    1       -0.728459   1.000000
    2        4.366905   1.000000
    3        6.610098   1.000000
    4        7.902994   1.000000
    5        9.352180   0.042175
    6       12.756796   0.000000
    7       13.356373   0.000000
    8       14.147268   0.000000
 
  0.3636364E+00  0.9090909E-01  0.9090909E-01  0.1202104E-01
    1        1.291661   1.000000
    2        3.780965   1.000000
    3        5.357913   1.000000
    4        6.642260   1.000000
    5        9.596664   0.000275
    6       11.755060   0.000000
    7       13.734635   0.000000
    8       14.439297   0.000000
 
 -0.9090909E-01  0.9090909E-01  0.9090909E-01  0.3005259E-02
    1       -4.418939   1.000000
    2        4.362913   1.000000
    3        5.602054   1.000000
    4        8.439927   0.999999
    5       11.600037   0.000000
    6       14.046746   0.000000
    7       17.528479   0.000000
    8       18.092986   0.000000
 
  0.1818182E+00  0.1818182E+00  0.9090909E-01  0.6010518E-02
    1       -0.824071   1.000000
    2        4.302940   1.000000
    3        7.351503   1.000000
    4        7.434863   1.000000
    5        9.979565   0.000000
    6       11.869216   0.000000
    7       13.995583   0.000000
    8       14.234180   0.000000
 
  0.2727273E+00  0.1818182E+00  0.9090909E-01  0.1202104E-01
    1        1.109317   1.000000
    2        4.557878   1.000000
    3        5.192642   1.000000
    4        5.638756   1.000000
    5       10.743414   0.000000
    6       12.690539   0.000000
    7       13.228307   0.000000
    8       14.146979   0.000000
 
  0.3636364E+00  0.1818182E+00  0.9090909E-01  0.1202104E-01
    1        2.026364   1.000000
    2        3.464976   1.000000
    3        4.190921   1.000000
    4        6.435036   1.000000
    5       10.375566   0.000000
    6       12.399570   0.000000
    7       13.517680   0.000000
    8       15.250536   0.000000
 
  0.4545455E+00  0.1818182E+00  0.9090909E-01  0.1202104E-01
    1       -0.058194   1.000000
    2        3.028067   1.000000
    3        6.267350   1.000000
    4        7.864985   1.000000
    5        9.718876   0.000008
    6       12.565101   0.000000
    7       13.537653   0.000000
    8       14.976850   0.000000
 
 -0.4545455E+00  0.1818182E+00  0.9090909E-01  0.1202104E-01
    1       -1.749891   1.000000
    2        2.413670   1.000000
    3        8.213790   1.000000
    4        9.210675   0.234104
    5       10.581942   0.000000
    6       11.563637   0.000000
    7       13.115545   0.000000
    8       15.011174   0.000000
 
 -0.3636364E+00  0.1818182E+00  0.9090909E-01  0.6010518E-02
    1       -2.999476   1.000000
    2        2.227078   1.000000
    3        7.717859   1.000000
    4        9.460063   0.006408
    5       12.089275   0.000000
    6       12.956991   0.000000
    7       14.128333   0.000000
    8       14.830371   0.000000
 
 -0.1818182E+00  0.1818182E+00  0.9090909E-01  0.6010518E-02
    1       -4.124271   1.000000
    2        3.074924   1.000000
    3        5.547947   1.000000
    4        9.417819   0.014258
    5       12.446445   0.000000
    6       13.007259   0.000000
    7       16.458095   0.000000
    8       18.806533   0.000000
 
 -0.9090909E-01  0.1818182E+00  0.9090909E-01  0.6010518E-02
    1       -3.989602   1.000000
    2        3.728813   1.000000
    3        5.177215   1.000000
    4        9.776266   0.000001
    5       12.549333   0.000000
    6       12.829691   0.000000
    7       15.789157   0.000000
    8       18.016338   0.000000
 
  0.2727273E+00  0.2727273E+00  0.9090909E-01  0.6010518E-02
    1        2.800385   1.000000
    2        2.993838   1.000000
    3        3.632640   1.000000
    4        6.362566   1.000000
    5       10.937360   0.000000
    6       11.869710   0.000000
    7       14.687511   0.000000
    8       14.879023   0.000000
 
  0.3636364E+00  0.2727273E+00  0.9090909E-01  0.1202104E-01
    1        0.796811   1.000000
    2        1.829751   1.000000
    3        6.093739   1.000000
    4        7.803698   1.000000
    5       10.327248   0.000000
    6       11.571344   0.000000
    7       14.222966   0.000000
    8       15.402219   0.000000
 
  0.4545455E+00  0.2727273E+00  0.9090909E-01  0.1202104E-01
    1       -0.978409   1.000000
    2        1.112874   1.000000
    3        8.634075   0.999599
    4        9.098907   0.525882
    5       10.409151   0.000000
    6       11.813497   0.000000
    7       12.451328   0.000000
    8       14.140772   0.000000
 
 -0.4545455E+00  0.2727273E+00  0.9090909E-01  0.6010518E-02
    1       -2.318480   1.000000
    2        0.835115   1.000000
    3        8.327333   1.000000
    4       10.114752   0.000000
    5       11.102482   0.000000
    6       12.445733   0.000000
    7       13.601476   0.000000
    8       13.931368   0.000000
 
 -0.2727273E+00  0.2727273E+00  0.9090909E-01  0.6010518E-02
    1       -3.634630   1.000000
    2        1.588805   1.000000
    3        5.953648   1.000000
    4       10.156563   0.000000
    5       10.945299   0.000000
    6       15.053208   0.000000
    7       15.140995   0.000000
    8       18.859839   0.000000
 
 -0.1818182E+00  0.2727273E+00  0.9090909E-01  0.1202104E-01
    1       -3.598297   1.000000
    2        2.546869   1.000000
    3        5.127883   1.000000
    4       10.760453   0.000000
    5       11.023742   0.000000
    6       14.347002   0.000000
    7       15.315450   0.000000
    8       17.226869   0.000000
 
 -0.9090909E-01  0.2727273E+00  0.9090909E-01  0.6010518E-02
    1       -3.098059   1.000000
    2        3.537305   1.000000
    3        5.093338   1.000000
    4       10.781761   0.000000
    5       11.454191   0.000000
    6       12.890095   0.000000
    7       14.483517   0.000000
    8       15.587561   0.000000
 
  0.3636364E+00  0.3636364E+00  0.9090909E-01  0.6010518E-02
    1       -0.023194   1.000000
    2       -0.020288   1.000000
    3        8.775946   0.990578
    4        9.130609   0.436738
    5       10.387073   0.000000
    6       11.481852   0.000000
    7       12.893271   0.000000
    8       13.451628   0.000000
 
  0.4545455E+00  0.3636364E+00  0.9090909E-01  0.6010518E-02
    1       -1.448562   1.000000
    2       -0.394580   1.000000
    3        9.094861   0.537260
    4        9.979293   0.000000
    5       10.995746   0.000000
    6       11.769353   0.000000
    7       13.346724   0.000000
    8       13.422882   0.000000
 
 -0.3636364E+00  0.3636364E+00  0.9090909E-01  0.6010518E-02
    1       -2.952261   1.000000
    2        0.204109   1.000000
    3        6.583969   1.000000
    4        9.595825   0.000282
    5       10.907114   0.000000
    6       13.896035   0.000000
    7       17.281296   0.000000
    8       18.579085   0.000000
 
 -0.2727273E+00  0.3636364E+00  0.9090909E-01  0.1202104E-01
    1       -3.013662   1.000000
    2        1.151871   1.000000
    3        5.600430   1.000000
    4        9.584661   0.000376
    5       11.544032   0.000000
    6       14.606232   0.000000
    7       16.209709   0.000000
    8       16.649202   0.000000
 
 -0.1818182E+00  0.3636364E+00  0.9090909E-01  0.1202104E-01
    1       -2.612369   1.000000
    2        2.460198   1.000000
    3        5.090617   1.000000
    4        9.878152   0.000000
    5       11.055804   0.000000
    6       13.321280   0.000000
    7       15.336236   0.000000
    8       16.406687   0.000000
 
 -0.9090909E-01  0.3636364E+00  0.9090909E-01  0.6010518E-02
    1       -1.752367   1.000000
    2        3.785710   1.000000
    3        5.392262   1.000000
    4        8.390684   1.000000
    5       10.493623   0.000000
    6       13.169601   0.000000
    7       14.351339   0.000000
    8       14.614419   0.000000
 
 -0.4545455E+00  0.4545455E+00  0.9090909E-01  0.6010518E-02
    1       -2.080590   1.000000
    2       -1.025240   1.000000
    3        7.407219   1.000000
    4        8.413685   1.000000
    5       11.768506   0.000000
    6       12.766208   0.000000
    7       18.328212   0.000000
    8       18.424053   0.000000
 
 -0.3636364E+00  0.4545455E+00  0.9090909E-01  0.1202104E-01
    1       -2.238649   1.000000
    2       -0.142186   1.000000
    3        6.314874   1.000000
    4        8.320342   1.000000
    5       12.288768   0.000000
    6       13.993515   0.000000
    7       15.624541   0.000000
    8       17.441036   0.000000
 
 -0.2727273E+00  0.4545455E+00  0.9090909E-01  0.1202104E-01
    1       -1.936313   1.000000
    2        1.162645   1.000000
    3        5.637192   1.000000
    4        8.582285   0.999900
    5       10.872905   0.000000
    6       13.971079   0.000000
    7       15.219460   0.000000
    8       16.772122   0.000000
 
 -0.1818182E+00  0.4545455E+00  0.9090909E-01  0.1202104E-01
    1       -1.176527   1.000000
    2        2.815651   1.000000
    3        5.453698   1.000000
    4        7.967729   1.000000
    5        9.264272   0.134713
    6       13.231291   0.000000
    7       15.020476   0.000000
    8       15.853898   0.000000
 
 -0.9090909E-01  0.4545455E+00  0.9090909E-01  0.6010518E-02
    1        0.031601   1.000000
    2        4.404378   1.000000
    3        5.478758   1.000000
    4        6.074492   1.000000
    5        9.667048   0.000039
    6       11.886459   0.000000
    7       12.808568   0.000000
    8       16.210810   0.000000
 
 -0.4545455E+00 -0.4545455E+00  0.9090909E-01  0.6010518E-02
    1       -1.279547   1.000000
    2       -1.277635   1.000000
    3        7.220753   1.000000
    4        7.231513   1.000000
    5       12.864615   0.000000
    6       13.441616   0.000000
    7       15.406463   0.000000
    8       17.446692   0.000000
 
 -0.3636364E+00 -0.4545455E+00  0.9090909E-01  0.1202104E-01
    1       -1.074365   1.000000
    2       -0.035168   1.000000
    3        6.432169   1.000000
    4        7.421977   1.000000
    5       10.753097   0.000000
    6       14.695228   0.000000
    7       15.109523   0.000000
    8       15.897286   0.000000
 
 -0.2727273E+00 -0.4545455E+00  0.9090909E-01  0.1202104E-01
    1       -0.415059   1.000000
    2        1.620885   1.000000
    3        6.066962   1.000000
    4        7.631123   1.000000
    5        8.157651   1.000000
    6       13.085633   0.000000
    7       15.837136   0.000000
    8       17.024555   0.000000
 
 -0.1818182E+00 -0.4545455E+00  0.9090909E-01  0.1202104E-01
    1        0.689440   1.000000
    2        3.576227   1.000000
    3        5.062586   1.000000
    4        6.236157   1.000000
    5        8.832334   0.974405
    6       11.566692   0.000000
    7       13.796728   0.000000
    8       17.090096   0.000000
 
 -0.9090909E-01 -0.4545455E+00  0.9090909E-01  0.6010518E-02
    1        2.113685   1.000000
    2        2.788605   1.000000
    3        5.651850   1.000000
    4        7.066264   1.000000
    5        8.715997   0.997219
    6       11.322505   0.000000
    7       11.398328   0.000000
    8       16.506127   0.000000
 
 -0.3636364E+00 -0.3636364E+00  0.9090909E-01  0.6010518E-02
    1        0.516080   1.000000
    2        0.531248   1.000000
    3        6.882835   1.000000
    4        6.921894   1.000000
    5        7.781068   1.000000
    6       13.021045   0.000000
    7       16.343219   0.000000
    8       17.323236   0.000000
 
 -0.2727273E+00 -0.3636364E+00  0.9090909E-01  0.1202104E-01
    1        1.521556   1.000000
    2        2.508649   1.000000
    3        4.857805   1.000000
    4        6.916514   1.000000
    5        7.838648   1.000000
    6       11.385909   0.000000
    7       15.214760   0.000000
    8       16.720536   0.000000
 
 -0.1818182E+00 -0.3636364E+00  0.9090909E-01  0.1202104E-01
    1        2.251594   1.000000
    2        3.097412   1.000000
    3        4.902521   1.000000
    4        7.261651   1.000000
    5        8.580659   0.999904
    6       10.604760   0.000000
    7       12.357435   0.000000
    8       15.630230   0.000000
 
 -0.9090909E-01 -0.3636364E+00  0.9090909E-01  0.6010518E-02
    1        0.352175   1.000000
    2        4.868590   1.000000
    3        7.005355   1.000000
    4        7.956922   1.000000
    5        7.964921   1.000000
    6       10.718721   0.000000
    7       11.650659   0.000000
    8       14.304315   0.000000
 
 -0.2727273E+00 -0.2727273E+00  0.9090909E-01  0.6010518E-02
    1        2.200026   1.000000
    2        3.881535   1.000000
    3        3.980801   1.000000
    4        7.693389   1.000000
    5        8.185438   1.000000
    6       10.345445   0.000000
    7       13.492471   0.000000
    8       14.439945   0.000000
 
 -0.1818182E+00 -0.2727273E+00  0.9090909E-01  0.1202104E-01
    1        0.162438   1.000000
    2        5.643559   1.000000
    3        6.497624   1.000000
    4        7.660208   1.000000
    5        8.831238   0.974863
    6       10.670261   0.000000
    7       11.559380   0.000000
    8       13.004774   0.000000
 
 -0.9090909E-01 -0.2727273E+00  0.9090909E-01  0.6010518E-02
    1       -1.499732   1.000000
    2        6.938726   1.000000
    3        7.743490   1.000000
    4        7.933972   1.000000
    5        9.215559   0.223649
    6       11.382778   0.000000
    7       11.781748   0.000000
    8       13.086810   0.000000
 
 -0.1818182E+00 -0.1818182E+00  0.9090909E-01  0.6010518E-02
    1       -1.596549   1.000000
    2        7.237990   1.000000
    3        8.157718   1.000000
    4        8.260478   1.000000
    5        9.158941   0.359581
    6       10.650047   0.000000
    7       12.135037   0.000000
    8       12.296297   0.000000
 
 -0.9090909E-01 -0.1818182E+00  0.9090909E-01  0.6010518E-02
    1       -2.916268   1.000000
    2        6.735221   1.000000
    3        7.470193   1.000000
    4        8.558107   0.999950
    5       11.303311   0.000000
    6       11.793781   0.000000
    7       12.417192   0.000000
    8       14.151132   0.000000
 
 -0.9090909E-01 -0.9090909E-01  0.9090909E-01  0.1502630E-02
    1       -3.880052   1.000000
    2        6.858363   1.000000
    3        6.923341   1.000000
    4        6.923346   1.000000
    5       11.264105   0.000000
    6       14.051409   0.000000
    7       14.363213   0.000000
    8       16.419662   0.000000
 
  0.1818182E+00  0.1818182E+00  0.1818182E+00  0.6010518E-02
    1       -0.152514   1.000000
    2        2.946632   1.000000
    3        7.068861   1.000000
    4        7.118435   1.000000
    5       10.633180   0.000000
    6       12.431851   0.000000
    7       13.839651   0.000000
    8       14.470237   0.000000
 
  0.2727273E+00  0.1818182E+00  0.1818182E+00  0.1202104E-01
    1        1.857438   1.000000
    2        3.817768   1.000000
    3        4.454906   1.000000
    4        5.363599   1.000000
    5       11.677239   0.000000
    6       13.785674   0.000000
    7       13.912370   0.000000
    8       14.508819   0.000000
 
 -0.1818182E+00  0.1818182E+00  0.1818182E+00  0.3005259E-02
    1       -3.830883   1.000000
    2        2.835366   1.000000
    3        4.419881   1.000000
    4       10.840345   0.000000
    5       10.915212   0.000000
    6       13.910985   0.000000
    7       17.713388   0.000000
    8       18.010173   0.000000
 
  0.2727273E+00  0.2727273E+00  0.1818182E+00  0.6010518E-02
    1        2.756080   1.000000
    2        2.795141   1.000000
    3        4.325891   1.000000
    4        5.275340   1.000000
    5       12.367293   0.000000
    6       13.167397   0.000000
    7       14.380583   0.000000
    8       15.237197   0.000000
 
  0.3636364E+00  0.2727273E+00  0.1818182E+00  0.6010518E-02
    1        0.704716   1.000000
    2        1.741111   1.000000
    3        6.929106   1.000000
    4        6.945408   1.000000
    5       11.453312   0.000000
    6       12.371444   0.000000
    7       13.431493   0.000000
    8       14.077203   0.000000
 
 -0.2727273E+00  0.2727273E+00  0.1818182E+00  0.6010518E-02
    1       -3.343472   1.000000
    2        1.751901   1.000000
    3        4.414288   1.000000
    4        9.328535   0.059523
    5       11.990425   0.000000
    6       15.610103   0.000000
    7       16.755866   0.000000
    8       18.468288   0.000000
 
 -0.1818182E+00  0.2727273E+00  0.1818182E+00  0.6010518E-02
    1       -3.209362   1.000000
    2        2.385873   1.000000
    3        4.047100   1.000000
    4        9.442811   0.008970
    5       12.204395   0.000000
    6       14.986518   0.000000
    7       15.442246   0.000000
    8       18.563442   0.000000
 
 -0.3636364E+00  0.3636364E+00  0.1818182E+00  0.6010518E-02
    1       -2.664802   1.000000
    2        0.447702   1.000000
    3        4.965915   1.000000
    4        7.967633   1.000000
    5       12.848576   0.000000
    6       15.691176   0.000000
    7       17.528344   0.000000
    8       18.169151   0.000000
 
 -0.2727273E+00  0.3636364E+00  0.1818182E+00  0.1202104E-01
    1       -2.628745   1.000000
    2        1.402779   1.000000
    3        4.107615   1.000000
    4        8.006424   1.000000
    5       13.008068   0.000000
    6       14.882207   0.000000
    7       17.234778   0.000000
    8       17.948367   0.000000
 