 vasp.5.4.4.18Apr17-6-g9f103f2a35 (build Dec 09 2018 21:25:21) complex          
  
 executed on IFC18.0.1.163_CrayMP date 2019.03.19  13:15:43
 running on    8 total cores
 distrk:  each k-point on    8 cores,    1 groups
 distr:  one band on NCORES_PER_BAND=   1 cores,    8 groups


--------------------------------------------------------------------------------------------------------


 INCAR:
 POTCAR:   PAW_PBE Si 05Jan2001                   

 ----------------------------------------------------------------------------- 
|                                                                             |
|           W    W    AA    RRRRR   N    N  II  N    N   GGGG   !!!           |
|           W    W   A  A   R    R  NN   N  II  NN   N  G    G  !!!           |
|           W    W  A    A  R    R  N N  N  II  N N  N  G       !!!           |
|           W WW W  AAAAAA  RRRRR   N  N N  II  N  N N  G  GGG   !            |
|           WW  WW  A    A  R   R   N   NN  II  N   NN  G    G                |
|           W    W  A    A  R    R  N    N  II  N    N   GGGG   !!!           |
|                                                                             |
|      For optimal performance we recommend to set                            |
|        NCORE= 4 - approx SQRT( number of cores)                             |
|      NCORE specifies how many cores store one orbital (NPAR=cpu/NCORE).     |
|      This setting can  greatly improve the performance of VASP for DFT.     |
|      The default,   NCORE=1            might be grossly inefficient         |
|      on modern multi-core architectures or massively parallel machines.     |
|      Do your own testing !!!!                                               |
|      Unfortunately you need to use the default for GW and RPA calculations. |
|      (for HF NCORE is supported but not extensively tested yet)             |
|                                                                             |
 ----------------------------------------------------------------------------- 

 POTCAR:   PAW_PBE Si 05Jan2001                   
   VRHFIN =Si: s2p2                                                             
   LEXCH  = PE                                                                  
   EATOM  =   103.0669 eV,    7.5752 Ry                                         
                                                                                
   TITEL  = PAW_PBE Si 05Jan2001                                                
   LULTRA =        F    use ultrasoft PP ?                                      
   IUNSCR =        1    unscreen: 0-lin 1-nonlin 2-no                           
   RPACOR =    1.500    partial core radius                                     
   POMASS =   28.085; ZVAL   =    4.000    mass and valenz                      
   RCORE  =    1.900    outmost cutoff radius                                   
   RWIGS  =    2.480; RWIGS  =    1.312    wigner-seitz radius (au A)           
   ENMAX  =  245.345; ENMIN  =  184.009 eV                                      
   ICORE  =        2    local potential                                         
   LCOR   =        T    correct aug charges                                     
   LPAW   =        T    paw PP                                                  
   EAUG   =  322.069                                                            
   DEXC   =    -.007                                                            
   RMAX   =    2.944    core radius for proj-oper                               
   RAUG   =    1.300    factor for augmentation sphere                          
   RDEP   =    1.993    radius for radial grids                                 
   QCUT   =   -4.246; QGAM   =    8.493    optimization parameters              
                                                                                
   Description                                                                  
     l     E      TYP  RCUT    TYP  RCUT                                        
     0   .000     23  1.900                                                     
     0   .000     23  1.900                                                     
     1   .000     23  1.900                                                     
     1   .000     23  1.900                                                     
     2   .000      7  1.900                                                     
  local pseudopotential read in
  partial core-charges read in
  atomic valenz-charges read in
  non local Contribution for L=           0  read in
    real space projection operators read in
  non local Contribution for L=           0  read in
    real space projection operators read in
  non local Contribution for L=           1  read in
    real space projection operators read in
  non local Contribution for L=           1  read in
    real space projection operators read in
    PAW grid and wavefunctions read in
 
   number of l-projection  operators is LMAX  =           4
   number of lm-projection operators is LMMAX =           8
 
 PAW_PBE Si 05Jan2001                   :
 energy of atom  1       EATOM= -103.0669
 kinetic energy error for atom=    0.0021 (will be added to EATOM!!)
 
 
 POSCAR: Si2                                     
  positions in direct lattice
  No initial velocities read in
 exchange correlation table for  LEXCH =        8
   RHO(1)=    0.500       N(1)  =     2000
   RHO(2)=  100.500       N(2)  =     4000
 


--------------------------------------------------------------------------------------------------------


 ion  position               nearest neighbor table
   1  0.250  0.750  0.500-   2 2.53   2 2.53   2 2.53   2 2.53   2 3.11   2 3.11   2 3.11   2 3.11

   2  0.000  0.000  0.000-   1 2.53   1 2.53   1 2.53   1 2.53   1 3.11   1 3.11   1 3.11   1 3.11

 
  LATTYP: Found a body centered tetragonal cell.
 ALAT       =     4.9000000000
 C/A-ratio  =     0.5200000000
  
  Lattice vectors:
  
 A1 = (  -2.4500000000,   2.4500000000,   1.2740000000)
 A2 = (   2.4500000000,  -2.4500000000,   1.2740000000)
 A3 = (   2.4500000000,   2.4500000000,  -1.2740000000)


Analysis of symmetry for initial positions (statically):
=====================================================================
 Subroutine PRICEL returns:
 Original cell was already a primitive cell.
 

 Routine SETGRP: Setting up the symmetry group for a 
 body centered tetragonal supercell.


 Subroutine GETGRP returns: Found 16 space group operations
 (whereof  8 operations were pure point group operations)
 out of a pool of 16 trial point group operations.


The static configuration has the point symmetry D_2d.
 The point group associated with its full space group is D_4h.


Analysis of symmetry for dynamics (positions and initial velocities):
=====================================================================
 Subroutine PRICEL returns:
 Original cell was already a primitive cell.
 

 Routine SETGRP: Setting up the symmetry group for a 
 body centered tetragonal supercell.


 Subroutine GETGRP returns: Found 16 space group operations
 (whereof  8 operations were pure point group operations)
 out of a pool of 16 trial point group operations.


The dynamic configuration has the point symmetry D_2d.
 The point group associated with its full space group is D_4h.


 Subroutine INISYM returns: Found 16 space group operations
 (whereof  8 operations are pure point group operations),
 and found     1 'primitive' translations

 
 
 KPOINTS: Automatic kpoint scheme                 

Automatic generation of k-mesh.
Space group operators:
 irot       det(A)        alpha          n_x          n_y          n_z        tau_x        tau_y        tau_z
    1     1.000000     0.000000     1.000000     0.000000     0.000000     0.000000     0.000000     0.000000
    2    -1.000000    90.000000    -0.000000    -0.000000    -1.000000     0.000000     0.000000     0.000000
    3     1.000000   180.000000    -0.000000    -0.000000    -1.000000     0.000000     0.000000     0.000000
    4    -1.000000    90.000000    -0.000000     0.000000     1.000000     0.000000     0.000000     0.000000
    5    -1.000000   180.000000     0.000000    -1.000000     0.000000     0.000000     0.000000     0.000000
    6     1.000000   180.000000     0.707107     0.707107    -0.000000     0.000000     0.000000     0.000000
    7    -1.000000   180.000000     1.000000     0.000000     0.000000     0.000000     0.000000     0.000000
    8     1.000000   180.000000     0.707107    -0.707107     0.000000     0.000000     0.000000     0.000000
    9    -1.000000     0.000000     1.000000     0.000000     0.000000     0.250000     0.750000     0.500000
   10     1.000000    90.000000    -0.000000    -0.000000    -1.000000     0.250000     0.750000     0.500000
   11    -1.000000   180.000000    -0.000000    -0.000000    -1.000000     0.250000     0.750000     0.500000
   12     1.000000    90.000000    -0.000000     0.000000     1.000000     0.250000     0.750000     0.500000
   13     1.000000   180.000000     0.000000    -1.000000     0.000000     0.250000     0.750000     0.500000
   14    -1.000000   180.000000     0.707107     0.707107    -0.000000     0.250000     0.750000     0.500000
   15     1.000000   180.000000     1.000000     0.000000     0.000000     0.250000     0.750000     0.500000
   16    -1.000000   180.000000     0.707107    -0.707107     0.000000     0.250000     0.750000     0.500000
 
 Subroutine IBZKPT returns following result:
 ===========================================
 
 Found    126 irreducible k-points:
 
 Following reciprocal coordinates:
            Coordinates               Weight
  0.000000  0.000000  0.000000      1.000000
  0.090909 -0.000000  0.000000      8.000000
  0.181818 -0.000000  0.000000      8.000000
  0.272727 -0.000000  0.000000      8.000000
  0.363636 -0.000000  0.000000      8.000000
  0.454545 -0.000000 -0.000000      8.000000
  0.090909  0.090909  0.000000      8.000000
  0.181818  0.090909 -0.000000     16.000000
  0.272727  0.090909  0.000000     16.000000
  0.363636  0.090909  0.000000     16.000000
  0.454545  0.090909 -0.000000     16.000000
 -0.454545  0.090909 -0.000000     16.000000
 -0.363636  0.090909  0.000000     16.000000
 -0.272727  0.090909  0.000000     16.000000
 -0.181818  0.090909  0.000000     16.000000
 -0.090909  0.090909  0.000000      4.000000
  0.181818  0.181818  0.000000      8.000000
  0.272727  0.181818  0.000000     16.000000
  0.363636  0.181818 -0.000000     16.000000
  0.454545  0.181818 -0.000000     16.000000
 -0.454545  0.181818 -0.000000     16.000000
 -0.363636  0.181818  0.000000     16.000000
 -0.272727  0.181818 -0.000000     16.000000
 -0.181818  0.181818  0.000000      4.000000
  0.272727  0.272727 -0.000000      8.000000
  0.363636  0.272727 -0.000000     16.000000
  0.454545  0.272727  0.000000     16.000000
 -0.454545  0.272727  0.000000     16.000000
 -0.363636  0.272727 -0.000000     16.000000
 -0.272727  0.272727 -0.000000      4.000000
  0.363636  0.363636  0.000000      8.000000
  0.454545  0.363636 -0.000000     16.000000
 -0.454545  0.363636 -0.000000     16.000000
 -0.363636  0.363636  0.000000      4.000000
  0.454545  0.454545 -0.000000      8.000000
 -0.454545  0.454545 -0.000000      4.000000
  0.090909  0.090909  0.090909      8.000000
  0.181818  0.090909  0.090909     16.000000
  0.272727  0.090909  0.090909     16.000000
  0.363636  0.090909  0.090909     16.000000
 -0.090909  0.090909  0.090909      4.000000
  0.181818  0.181818  0.090909      8.000000
  0.272727  0.181818  0.090909     16.000000
  0.363636  0.181818  0.090909     16.000000
  0.454545  0.181818  0.090909     16.000000
 -0.454545  0.181818  0.090909     16.000000
 -0.363636  0.181818  0.090909      8.000000
 -0.181818  0.181818  0.090909      8.000000
 -0.090909  0.181818  0.090909      8.000000
  0.272727  0.272727  0.090909      8.000000
  0.363636  0.272727  0.090909     16.000000
  0.454545  0.272727  0.090909     16.000000
 -0.454545  0.272727  0.090909      8.000000
 -0.272727  0.272727  0.090909      8.000000
 -0.181818  0.272727  0.090909     16.000000
 -0.090909  0.272727  0.090909      8.000000
  0.363636  0.363636  0.090909      8.000000
  0.454545  0.363636  0.090909      8.000000
 -0.363636  0.363636  0.090909      8.000000
 -0.272727  0.363636  0.090909     16.000000
 -0.181818  0.363636  0.090909     16.000000
 -0.090909  0.363636  0.090909      8.000000
 -0.454545  0.454545  0.090909      8.000000
 -0.363636  0.454545  0.090909     16.000000
 -0.272727  0.454545  0.090909     16.000000
 -0.181818  0.454545  0.090909     16.000000
 -0.090909  0.454545  0.090909      8.000000
 -0.454545 -0.454545  0.090909      8.000000
 -0.363636 -0.454545  0.090909     16.000000
 -0.272727 -0.454545  0.090909     16.000000
 -0.181818 -0.454545  0.090909     16.000000
 -0.090909 -0.454545  0.090909      8.000000
 -0.363636 -0.363636  0.090909      8.000000
 -0.272727 -0.363636  0.090909     16.000000
 -0.181818 -0.363636  0.090909     16.000000
 -0.090909 -0.363636  0.090909      8.000000
 -0.272727 -0.272727  0.090909      8.000000
 -0.181818 -0.272727  0.090909     16.000000
 -0.090909 -0.272727  0.090909      8.000000
 -0.181818 -0.181818  0.090909      8.000000
 -0.090909 -0.181818  0.090909      8.000000
 -0.090909 -0.090909  0.090909      2.000000
  0.181818  0.181818  0.181818      8.000000
  0.272727  0.181818  0.181818     16.000000
 -0.181818  0.181818  0.181818      4.000000
  0.272727  0.272727  0.181818      8.000000
  0.363636  0.272727  0.181818      8.000000
 -0.272727  0.272727  0.181818      8.000000
 -0.181818  0.272727  0.181818      8.000000
 -0.363636  0.363636  0.181818      8.000000
 -0.272727  0.363636  0.181818     16.000000
 -0.181818  0.363636  0.181818      8.000000
 -0.454545  0.454545  0.181818      8.000000
 -0.363636  0.454545  0.181818     16.000000
 -0.272727  0.454545  0.181818     16.000000
 -0.181818  0.454545  0.181818      8.000000
 -0.454545 -0.454545  0.181818      8.000000
 -0.363636 -0.454545  0.181818     16.000000
 -0.272727 -0.454545  0.181818     16.000000
 -0.181818 -0.454545  0.181818      8.000000
 -0.363636 -0.363636  0.181818      8.000000
 -0.272727 -0.363636  0.181818     16.000000
 -0.181818 -0.363636  0.181818      8.000000
 -0.272727 -0.272727  0.181818      8.000000
 -0.181818 -0.272727  0.181818      8.000000
 -0.181818 -0.181818  0.181818      2.000000
 -0.272727  0.272727  0.272727      4.000000
 -0.363636  0.363636  0.272727      8.000000
 -0.272727  0.363636  0.272727      8.000000
 -0.454545  0.454545  0.272727      8.000000
 -0.363636  0.454545  0.272727     16.000000
 -0.272727  0.454545  0.272727      8.000000
 -0.454545 -0.454545  0.272727      8.000000
 -0.363636 -0.454545  0.272727     16.000000
 -0.272727 -0.454545  0.272727      8.000000
 -0.363636 -0.363636  0.272727      8.000000
 -0.272727 -0.363636  0.272727      8.000000
 -0.272727 -0.272727  0.272727      2.000000
 -0.363636  0.363636  0.363636      4.000000
 -0.454545  0.454545  0.363636      8.000000
 -0.363636  0.454545  0.363636      8.000000
 -0.454545 -0.454545  0.363636      8.000000
 -0.363636 -0.454545  0.363636      8.000000
 -0.363636 -0.363636  0.363636      2.000000
 -0.454545  0.454545  0.454545      4.000000
 -0.454545 -0.454545  0.454545      2.000000
 
 Following cartesian coordinates:
            Coordinates               Weight
  0.000000  0.000000  0.000000      1.000000
  0.000000  0.018553  0.035679      8.000000
  0.000000  0.037106  0.071357      8.000000
  0.000000  0.055659  0.107036      8.000000
  0.000000  0.074212  0.142714      8.000000
 -0.000000  0.092764  0.178393      8.000000
  0.018553  0.018553  0.071357      8.000000
  0.018553  0.037106  0.107036     16.000000
  0.018553  0.055659  0.142714     16.000000
  0.018553  0.074212  0.178393     16.000000
  0.018553  0.092764  0.214072     16.000000
  0.018553 -0.092764 -0.142714     16.000000
  0.018553 -0.074212 -0.107036     16.000000
  0.018553 -0.055659 -0.071357     16.000000
  0.018553 -0.037106 -0.035679     16.000000
  0.018553 -0.018553  0.000000      4.000000
  0.037106  0.037106  0.142714      8.000000
  0.037106  0.055659  0.178393     16.000000
  0.037106  0.074212  0.214072     16.000000
  0.037106  0.092764  0.249750     16.000000
  0.037106 -0.092764 -0.107036     16.000000
  0.037106 -0.074212 -0.071357     16.000000
  0.037106 -0.055659 -0.035679     16.000000
  0.037106 -0.037106  0.000000      4.000000
  0.055659  0.055659  0.214072      8.000000
  0.055659  0.074212  0.249750     16.000000
  0.055659  0.092764  0.285429     16.000000
  0.055659 -0.092764 -0.071357     16.000000
  0.055659 -0.074212 -0.035679     16.000000
  0.055659 -0.055659  0.000000      4.000000
  0.074212  0.074212  0.285429      8.000000
  0.074212  0.092764  0.321107     16.000000
  0.074212 -0.092764 -0.035679     16.000000
  0.074212 -0.074212  0.000000      4.000000
  0.092764  0.092764  0.356786      8.000000
  0.092764 -0.092764 -0.000000      4.000000
  0.037106  0.037106  0.071357      8.000000
  0.037106  0.055659  0.107036     16.000000
  0.037106  0.074212  0.142714     16.000000
  0.037106  0.092764  0.178393     16.000000
  0.037106  0.000000  0.000000      4.000000
  0.055659  0.055659  0.142714      8.000000
  0.055659  0.074212  0.178393     16.000000
  0.055659  0.092764  0.214072     16.000000
  0.055659  0.111317  0.249750     16.000000
  0.055659 -0.074212 -0.107036     16.000000
  0.055659 -0.055659 -0.071357      8.000000
  0.055659 -0.018553 -0.000000      8.000000
  0.055659 -0.000000  0.035679      8.000000
  0.074212  0.074212  0.214072      8.000000
  0.074212  0.092764  0.249750     16.000000
  0.074212  0.111317  0.285429     16.000000
  0.074212 -0.074212 -0.071357      8.000000
  0.074212 -0.037106  0.000000      8.000000
  0.074212 -0.018553  0.035679     16.000000
  0.074212  0.000000  0.071357      8.000000
  0.092764  0.092764  0.285429      8.000000
  0.092764  0.111317  0.321107      8.000000
  0.092764 -0.055659  0.000000      8.000000
  0.092764 -0.037106  0.035679     16.000000
  0.092764 -0.018553  0.071357     16.000000
  0.092764  0.000000  0.107036      8.000000
  0.111317 -0.074212 -0.000000      8.000000
  0.111317 -0.055659  0.035679     16.000000
  0.111317 -0.037106  0.071357     16.000000
  0.111317 -0.018553  0.107036     16.000000
  0.111317 -0.000000  0.142714      8.000000
 -0.074212 -0.074212 -0.356786      8.000000
 -0.074212 -0.055659 -0.321107     16.000000
 -0.074212 -0.037106 -0.285429     16.000000
 -0.074212 -0.018553 -0.249750     16.000000
 -0.074212  0.000000 -0.214072      8.000000
 -0.055659 -0.055659 -0.285429      8.000000
 -0.055659 -0.037106 -0.249750     16.000000
 -0.055659 -0.018553 -0.214072     16.000000
 -0.055659  0.000000 -0.178393      8.000000
 -0.037106 -0.037106 -0.214072      8.000000
 -0.037106 -0.018553 -0.178393     16.000000
 -0.037106  0.000000 -0.142714      8.000000
 -0.018553 -0.018553 -0.142714      8.000000
 -0.018553  0.000000 -0.107036      8.000000
  0.000000 -0.000000 -0.071357      2.000000
  0.074212  0.074212  0.142714      8.000000
  0.074212  0.092764  0.178393     16.000000
  0.074212  0.000000  0.000000      4.000000
  0.092764  0.092764  0.214072      8.000000
  0.092764  0.111317  0.249750      8.000000
  0.092764 -0.018553 -0.000000      8.000000
  0.092764  0.000000  0.035679      8.000000
  0.111317 -0.037106 -0.000000      8.000000
  0.111317 -0.018553  0.035679     16.000000
  0.111317 -0.000000  0.071357      8.000000
  0.129870 -0.055659 -0.000000      8.000000
  0.129870 -0.037106  0.035679     16.000000
  0.129870 -0.018553  0.071357     16.000000
  0.129870  0.000000  0.107036      8.000000
 -0.055659 -0.055659 -0.356786      8.000000
 -0.055659 -0.037106 -0.321107     16.000000
 -0.055659 -0.018553 -0.285429     16.000000
 -0.055659  0.000000 -0.249750      8.000000
 -0.037106 -0.037106 -0.285429      8.000000
 -0.037106 -0.018553 -0.249750     16.000000
 -0.037106  0.000000 -0.214072      8.000000
 -0.018553 -0.018553 -0.214072      8.000000
 -0.018553  0.000000 -0.178393      8.000000
  0.000000 -0.000000 -0.142714      2.000000
  0.111317  0.000000  0.000000      4.000000
  0.129870 -0.018553 -0.000000      8.000000
  0.129870 -0.000000  0.035679      8.000000
  0.148423 -0.037106 -0.000000      8.000000
  0.148423 -0.018553  0.035679     16.000000
  0.148423 -0.000000  0.071357      8.000000
 -0.037106 -0.037106 -0.356786      8.000000
 -0.037106 -0.018553 -0.321107     16.000000
 -0.037106  0.000000 -0.285429      8.000000
 -0.018553 -0.018553 -0.285429      8.000000
 -0.018553 -0.000000 -0.249750      8.000000
 -0.000000  0.000000 -0.214072      2.000000
  0.148423  0.000000  0.000000      4.000000
  0.166976 -0.018553 -0.000000      8.000000
  0.166976 -0.000000  0.035679      8.000000
 -0.018553 -0.018553 -0.356786      8.000000
 -0.018553 -0.000000 -0.321107      8.000000
  0.000000 -0.000000 -0.285429      2.000000
  0.185529 -0.000000 -0.000000      4.000000
 -0.000000 -0.000000 -0.356786      2.000000
 


--------------------------------------------------------------------------------------------------------




 Dimension of arrays:
   k-points           NKPTS =    126   k-points in BZ     NKDIM =    126   number of bands    NBANDS=      8
   number of dos      NEDOS =    301   number of ions     NIONS =      2
   non local maximal  LDIM  =      4   non local SUM 2l+1 LMDIM =      8
   total plane-waves  NPLWV =   4096
   max r-space proj   IRMAX =      1   max aug-charges    IRDMAX=   4676
   dimension x,y,z NGX =    16 NGY =   16 NGZ =   16
   dimension x,y,z NGXF=    32 NGYF=   32 NGZF=   32
   support grid    NGXF=    32 NGYF=   32 NGZF=   32
   ions per type =               2
   NGX,Y,Z   is equivalent  to a cutoff of   7.21,  7.21,  7.21 a.u.
   NGXF,Y,Z  is equivalent  to a cutoff of  14.41, 14.41, 14.41 a.u.

 SYSTEM =  unknown system                          
 POSCAR =  Si2                                     

 Startparameter for this run:
   NWRITE =      2    write-flag & timer
   PREC   = normal    normal or accurate (medium, high low for compatibility)
   ISTART =      1    job   : 0-new  1-cont  2-samecut
   ICHARG =      0    charge: 1-file 2-atom 10-const
   ISPIN  =      1    spin polarized calculation?
   LNONCOLLINEAR =      F non collinear calculations
   LSORBIT =      F    spin-orbit coupling
   INIWAV =      1    electr: 0-lowe 1-rand  2-diag
   LASPH  =      F    aspherical Exc in radial PAW
   METAGGA=      F    non-selfconsistent MetaGGA calc.

 Electronic Relaxation 1
   ENCUT  =  300.0 eV  22.05 Ry    4.70 a.u.   5.21  5.21  5.21*2*pi/ulx,y,z
   ENINI  =  300.0     initial cutoff
   ENAUG  =  322.1 eV  augmentation charge cutoff
   NELM   =     60;   NELMIN=  2; NELMDL=  0     # of ELM steps 
   EDIFF  = 0.4E-03   stopping-criterion for ELM
   LREAL  =      F    real-space projection
   NLSPLINE    = F    spline interpolate recip. space projectors
   LCOMPAT=      F    compatible to vasp.4.4
   GGA_COMPAT  = T    GGA compatible to vasp.4.4-vasp.4.6
   LMAXPAW     = -100 max onsite density
   LMAXMIX     =    2 max onsite mixed and CHGCAR
   VOSKOWN=      0    Vosko Wilk Nusair interpolation
   ROPT   =    0.00000
 Ionic relaxation
   EDIFFG = -.1E-01   stopping-criterion for IOM
   NSW    =     15    number of steps for IOM
   NBLOCK =      1;   KBLOCK =     15    inner block; outer block 
   IBRION =      2    ionic relax: 0-MD 1-quasi-New 2-CG
   NFREE  =      1    steps in history (QN), initial steepest desc. (CG)
   ISIF   =      2    stress and relaxation
   IWAVPR =     11    prediction:  0-non 1-charg 2-wave 3-comb
   ISYM   =      2    0-nonsym 1-usesym 2-fastsym
   LCORR  =      T    Harris-Foulkes like correction to forces

   POTIM  = 0.5000    time-step for ionic-motion
   TEIN   =    0.0    initial temperature
   TEBEG  =    0.0;   TEEND  =   0.0 temperature during run
   SMASS  =  -3.00    Nose mass-parameter (am)
   estimated Nose-frequenzy (Omega)   =  0.10E-29 period in steps =****** mass=  -0.311E-27a.u.
   SCALEE = 1.0000    scale energy and forces
   NPACO  =    256;   APACO  = 16.0  distance and # of slots for P.C.
   PSTRESS=    0.0 pullay stress

  Mass of Ions in am
   POMASS =  28.09
  Ionic Valenz
   ZVAL   =   4.00
  Atomic Wigner-Seitz radii
   RWIGS  =  -1.00
  virtual crystal weights 
   VCA    =   1.00
   NELECT =       8.0000    total number of electrons
   NUPDOWN=      -1.0000    fix difference up-down

 DOS related values:
   EMIN   =  10.00;   EMAX   =-10.00  energy-range for DOS
   EFERMI =   0.00
   ISMEAR =     0;   SIGMA  =   0.20  broadening in eV -4-tet -1-fermi 0-gaus

 Electronic relaxation 2 (details)
   IALGO  =     38    algorithm
   LDIAG  =      T    sub-space diagonalisation (order eigenvalues)
   LSUBROT=      F    optimize rotation matrix (better conditioning)
   TURBO    =      0    0=normal 1=particle mesh
   IRESTART =      0    0=no restart 2=restart with 2 vectors
   NREBOOT  =      0    no. of reboots
   NMIN     =      0    reboot dimension
   EREF     =   0.00    reference energy to select bands
   IMIX   =      4    mixing-type and parameters
     AMIX     =   0.40;   BMIX     =  1.00
     AMIX_MAG =   1.60;   BMIX_MAG =  1.00
     AMIN     =   0.10
     WC   =   100.;   INIMIX=   1;  MIXPRE=   1;  MAXMIX= -45

 Intra band minimization:
   WEIMIN = 0.0010     energy-eigenvalue tresh-hold
   EBREAK =  0.13E-04  absolut break condition
   DEPER  =   0.30     relativ break condition  

   TIME   =   0.40     timestep for ELM

  volume/ion in A,a.u.               =      15.29       103.21
  Fermi-wavevector in a.u.,A,eV,Ry     =   1.046930  1.978411 14.912834  1.096062
  Thomas-Fermi vector in A             =   2.181789
 
 Write flags
   LWAVE        =      T    write WAVECAR
   LDOWNSAMPLE  =      F    k-point downsampling of WAVECAR
   LCHARG       =      T    write CHGCAR
   LVTOT        =      F    write LOCPOT, total local potential
   LVHAR        =      F    write LOCPOT, Hartree potential only
   LELF         =      F    write electronic localiz. function (ELF)
   LORBIT       =      0    0 simple, 1 ext, 2 COOP (PROOUT), +10 PAW based schemes


 Dipole corrections
   LMONO  =      F    monopole corrections only (constant potential shift)
   LDIPOL =      F    correct potential (dipole corrections)
   IDIPOL =      0    1-x, 2-y, 3-z, 4-all directions 
   EPSILON=  1.0000000 bulk dielectric constant

 Exchange correlation treatment:
   GGA     =    --    GGA type
   LEXCH   =     8    internal setting for exchange type
   VOSKOWN=      0    Vosko Wilk Nusair interpolation
   LHFCALC =     F    Hartree Fock is set to
   LHFONE  =     F    Hartree Fock one center treatment
   AEXX    =    0.0000 exact exchange contribution

 Linear response parameters
   LEPSILON=     F    determine dielectric tensor
   LRPA    =     F    only Hartree local field effects (RPA)
   LNABLA  =     F    use nabla operator in PAW spheres
   LVEL    =     F    velocity operator in full k-point grid
   LINTERFAST=   F  fast interpolation
   KINTER  =     0    interpolate to denser k-point grid
   CSHIFT  =0.1000    complex shift for real part using Kramers Kronig
   OMEGAMAX=  -1.0    maximum frequency
   DEG_THRESHOLD= 0.2000000E-02 threshold for treating states as degnerate
   RTIME   =   -0.100 relaxation time in fs
  (WPLASMAI=    0.000 imaginary part of plasma frequency in eV, 0.658/RTIME)
   DFIELD  = 0.0000000 0.0000000 0.0000000 field for delta impulse in time
 
 Orbital magnetization related:
   ORBITALMAG=     F  switch on orbital magnetization
   LCHIMAG   =     F  perturbation theory with respect to B field
   DQ        =  0.001000  dq finite difference perturbation B field
   LLRAUG    =     F  two centre corrections for induced B field



--------------------------------------------------------------------------------------------------------


 conjugate gradient relaxation of ions
 charge density and potential will be updated during run
 non-spin polarized calculation
 Variant of blocked Davidson
 Davidson routine will perform the subspace rotation
 perform sub-space diagonalisation
    after iterative eigenvector-optimisation
 modified Broyden-mixing scheme, WC =      100.0
 initial mixing is a Kerker type mixing with AMIX =  0.4000 and BMIX =      1.0000
 Hartree-type preconditioning will be used
 using additional bands            4
 reciprocal scheme for non local part
 use partial core corrections
 calculate Harris-corrections to forces 
   (improved forces if not selfconsistent)
 use gradient corrections 
 use of overlap-Matrix (Vanderbilt PP)
 Gauss-broadening in eV      SIGMA  =   0.20


--------------------------------------------------------------------------------------------------------


  energy-cutoff  :      300.00
  volume of cell :       30.59
      direct lattice vectors                 reciprocal lattice vectors
    -2.450000000  2.450000000  1.274000000     0.000000000  0.204081633  0.392464678
     2.450000000 -2.450000000  1.274000000     0.204081633  0.000000000  0.392464678
     2.450000000  2.450000000 -1.274000000     0.204081633  0.204081633 -0.000000000

  length of vectors
     3.691622408  3.691622408  3.691622408     0.442354876  0.442354876  0.288615013


 
 old parameters found on file WAVECAR:
  energy-cutoff  :      300.00
  volume of cell :       30.59
      direct lattice vectors                 reciprocal lattice vectors
    -2.450000000  2.450000000  1.274000000     0.000000000  0.204081633  0.392464678
     2.450000000 -2.450000000  1.274000000     0.204081633  0.000000000  0.392464678
     2.450000000  2.450000000 -1.274000000     0.204081633  0.204081633 -0.000000000

  length of vectors

 
 k-points in units of 2pi/SCALE and weight: Automatic kpoint scheme                 
   0.00000000  0.00000000  0.00000000       0.001
   0.00000000  0.01855288  0.03567861       0.006
   0.00000000  0.03710575  0.07135721       0.006
   0.00000000  0.05565863  0.10703582       0.006
   0.00000000  0.07421150  0.14271443       0.006
  -0.00000000  0.09276438  0.17839304       0.006
   0.01855288  0.01855288  0.07135721       0.006
   0.01855288  0.03710575  0.10703582       0.012
   0.01855288  0.05565863  0.14271443       0.012
   0.01855288  0.07421150  0.17839304       0.012
   0.01855288  0.09276438  0.21407164       0.012
   0.01855288 -0.09276438 -0.14271443       0.012
   0.01855288 -0.07421150 -0.10703582       0.012
   0.01855288 -0.05565863 -0.07135721       0.012
   0.01855288 -0.03710575 -0.03567861       0.012
   0.01855288 -0.01855288  0.00000000       0.003
   0.03710575  0.03710575  0.14271443       0.006
   0.03710575  0.05565863  0.17839304       0.012
   0.03710575  0.07421150  0.21407164       0.012
   0.03710575  0.09276438  0.24975025       0.012
   0.03710575 -0.09276438 -0.10703582       0.012
   0.03710575 -0.07421150 -0.07135721       0.012
   0.03710575 -0.05565863 -0.03567861       0.012
   0.03710575 -0.03710575  0.00000000       0.003
   0.05565863  0.05565863  0.21407164       0.006
   0.05565863  0.07421150  0.24975025       0.012
   0.05565863  0.09276438  0.28542886       0.012
   0.05565863 -0.09276438 -0.07135721       0.012
   0.05565863 -0.07421150 -0.03567861       0.012
   0.05565863 -0.05565863  0.00000000       0.003
   0.07421150  0.07421150  0.28542886       0.006
   0.07421150  0.09276438  0.32110746       0.012
   0.07421150 -0.09276438 -0.03567861       0.012
   0.07421150 -0.07421150  0.00000000       0.003
   0.09276438  0.09276438  0.35678607       0.006
   0.09276438 -0.09276438 -0.00000000       0.003
   0.03710575  0.03710575  0.07135721       0.006
   0.03710575  0.05565863  0.10703582       0.012
   0.03710575  0.07421150  0.14271443       0.012
   0.03710575  0.09276438  0.17839304       0.012
   0.03710575 -0.00000000 -0.00000000       0.003
   0.05565863  0.05565863  0.14271443       0.006
   0.05565863  0.07421150  0.17839304       0.012
   0.05565863  0.09276438  0.21407164       0.012
   0.05565863  0.11131725  0.24975025       0.012
   0.05565863 -0.07421150 -0.10703582       0.012
   0.05565863 -0.05565863 -0.07135721       0.006
   0.05565863 -0.01855288  0.00000000       0.006
   0.05565863 -0.00000000  0.03567861       0.006
   0.07421150  0.07421150  0.21407164       0.006
   0.07421150  0.09276438  0.24975025       0.012
   0.07421150  0.11131725  0.28542886       0.012
   0.07421150 -0.07421150 -0.07135721       0.006
   0.07421150 -0.03710575 -0.00000000       0.006
   0.07421150 -0.01855288  0.03567861       0.012
   0.07421150 -0.00000000  0.07135721       0.006
   0.09276438  0.09276438  0.28542886       0.006
   0.09276438  0.11131725  0.32110746       0.006
   0.09276438 -0.05565863  0.00000000       0.006
   0.09276438 -0.03710575  0.03567861       0.012
   0.09276438 -0.01855288  0.07135721       0.012
   0.09276438  0.00000000  0.10703582       0.006
   0.11131725 -0.07421150 -0.00000000       0.006
   0.11131725 -0.05565863  0.03567861       0.012
   0.11131725 -0.03710575  0.07135721       0.012
   0.11131725 -0.01855288  0.10703582       0.012
   0.11131725 -0.00000000  0.14271443       0.006
  -0.07421150 -0.07421150 -0.35678607       0.006
  -0.07421150 -0.05565863 -0.32110746       0.012
  -0.07421150 -0.03710575 -0.28542886       0.012
  -0.07421150 -0.01855288 -0.24975025       0.012
  -0.07421150 -0.00000000 -0.21407164       0.006
  -0.05565863 -0.05565863 -0.28542886       0.006
  -0.05565863 -0.03710575 -0.24975025       0.012
  -0.05565863 -0.01855288 -0.21407164       0.012
  -0.05565863 -0.00000000 -0.17839304       0.006
  -0.03710575 -0.03710575 -0.21407164       0.006
  -0.03710575 -0.01855288 -0.17839304       0.012
  -0.03710575  0.00000000 -0.14271443       0.006
  -0.01855288 -0.01855288 -0.14271443       0.006
  -0.01855288 -0.00000000 -0.10703582       0.006
   0.00000000 -0.00000000 -0.07135721       0.002
   0.07421150  0.07421150  0.14271443       0.006
   0.07421150  0.09276438  0.17839304       0.012
   0.07421150 -0.00000000 -0.00000000       0.003
   0.09276438  0.09276438  0.21407164       0.006
   0.09276438  0.11131725  0.24975025       0.006
   0.09276438 -0.01855288  0.00000000       0.006
   0.09276438  0.00000000  0.03567861       0.006
   0.11131725 -0.03710575  0.00000000       0.006
   0.11131725 -0.01855288  0.03567861       0.012
   0.11131725 -0.00000000  0.07135721       0.006
   0.12987013 -0.05565863 -0.00000000       0.006
   0.12987013 -0.03710575  0.03567861       0.012
   0.12987013 -0.01855288  0.07135721       0.012
   0.12987013 -0.00000000  0.10703582       0.006
  -0.05565863 -0.05565863 -0.35678607       0.006
  -0.05565863 -0.03710575 -0.32110746       0.012
  -0.05565863 -0.01855288 -0.28542886       0.012
  -0.05565863  0.00000000 -0.24975025       0.006
  -0.03710575 -0.03710575 -0.28542886       0.006
  -0.03710575 -0.01855288 -0.24975025       0.012
  -0.03710575 -0.00000000 -0.21407164       0.006
  -0.01855288 -0.01855288 -0.21407164       0.006
  -0.01855288 -0.00000000 -0.17839304       0.006
   0.00000000 -0.00000000 -0.14271443       0.002
   0.11131725  0.00000000 -0.00000000       0.003
   0.12987013 -0.01855288  0.00000000       0.006
   0.12987013 -0.00000000  0.03567861       0.006
   0.14842301 -0.03710575 -0.00000000       0.006
   0.14842301 -0.01855288  0.03567861       0.012
   0.14842301 -0.00000000  0.07135721       0.006
  -0.03710575 -0.03710575 -0.35678607       0.006
  -0.03710575 -0.01855288 -0.32110746       0.012
  -0.03710575 -0.00000000 -0.28542886       0.006
  -0.01855288 -0.01855288 -0.28542886       0.006
  -0.01855288 -0.00000000 -0.24975025       0.006
   0.00000000  0.00000000 -0.21407164       0.002
   0.14842301 -0.00000000 -0.00000000       0.003
   0.16697588 -0.01855288 -0.00000000       0.006
   0.16697588 -0.00000000  0.03567861       0.006
  -0.01855288 -0.01855288 -0.35678607       0.006
  -0.01855288 -0.00000000 -0.32110746       0.006
   0.00000000 -0.00000000 -0.28542886       0.002
   0.18552876 -0.00000000 -0.00000000       0.003
  -0.00000000 -0.00000000 -0.35678607       0.002
 
 k-points in reciprocal lattice and weights: Automatic kpoint scheme                 
   0.00000000  0.00000000  0.00000000       0.001
   0.09090909 -0.00000000  0.00000000       0.006
   0.18181818 -0.00000000  0.00000000       0.006
   0.27272727 -0.00000000  0.00000000       0.006
   0.36363636 -0.00000000  0.00000000       0.006
   0.45454545 -0.00000000 -0.00000000       0.006
   0.09090909  0.09090909  0.00000000       0.006
   0.18181818  0.09090909 -0.00000000       0.012
   0.27272727  0.09090909  0.00000000       0.012
   0.36363636  0.09090909  0.00000000       0.012
   0.45454545  0.09090909 -0.00000000       0.012
  -0.45454545  0.09090909 -0.00000000       0.012
  -0.36363636  0.09090909  0.00000000       0.012
  -0.27272727  0.09090909  0.00000000       0.012
  -0.18181818  0.09090909  0.00000000       0.012
  -0.09090909  0.09090909  0.00000000       0.003
   0.18181818  0.18181818  0.00000000       0.006
   0.27272727  0.18181818  0.00000000       0.012
   0.36363636  0.18181818 -0.00000000       0.012
   0.45454545  0.18181818 -0.00000000       0.012
  -0.45454545  0.18181818 -0.00000000       0.012
  -0.36363636  0.18181818  0.00000000       0.012
  -0.27272727  0.18181818 -0.00000000       0.012
  -0.18181818  0.18181818  0.00000000       0.003
   0.27272727  0.27272727 -0.00000000       0.006
   0.36363636  0.27272727 -0.00000000       0.012
   0.45454545  0.27272727  0.00000000       0.012
  -0.45454545  0.27272727  0.00000000       0.012
  -0.36363636  0.27272727 -0.00000000       0.012
  -0.27272727  0.27272727 -0.00000000       0.003
   0.36363636  0.36363636  0.00000000       0.006
   0.45454545  0.36363636 -0.00000000       0.012
  -0.45454545  0.36363636 -0.00000000       0.012
  -0.36363636  0.36363636  0.00000000       0.003
   0.45454545  0.45454545 -0.00000000       0.006
  -0.45454545  0.45454545 -0.00000000       0.003
   0.09090909  0.09090909  0.09090909       0.006
   0.18181818  0.09090909  0.09090909       0.012
   0.27272727  0.09090909  0.09090909       0.012
   0.36363636  0.09090909  0.09090909       0.012
  -0.09090909  0.09090909  0.09090909       0.003
   0.18181818  0.18181818  0.09090909       0.006
   0.27272727  0.18181818  0.09090909       0.012
   0.36363636  0.18181818  0.09090909       0.012
   0.45454545  0.18181818  0.09090909       0.012
  -0.45454545  0.18181818  0.09090909       0.012
  -0.36363636  0.18181818  0.09090909       0.006
  -0.18181818  0.18181818  0.09090909       0.006
  -0.09090909  0.18181818  0.09090909       0.006
   0.27272727  0.27272727  0.09090909       0.006
   0.36363636  0.27272727  0.09090909       0.012
   0.45454545  0.27272727  0.09090909       0.012
  -0.45454545  0.27272727  0.09090909       0.006
  -0.27272727  0.27272727  0.09090909       0.006
  -0.18181818  0.27272727  0.09090909       0.012
  -0.09090909  0.27272727  0.09090909       0.006
   0.36363636  0.36363636  0.09090909       0.006
   0.45454545  0.36363636  0.09090909       0.006
  -0.36363636  0.36363636  0.09090909       0.006
  -0.27272727  0.36363636  0.09090909       0.012
  -0.18181818  0.36363636  0.09090909       0.012
  -0.09090909  0.36363636  0.09090909       0.006
  -0.45454545  0.45454545  0.09090909       0.006
  -0.36363636  0.45454545  0.09090909       0.012
  -0.27272727  0.45454545  0.09090909       0.012
  -0.18181818  0.45454545  0.09090909       0.012
  -0.09090909  0.45454545  0.09090909       0.006
  -0.45454545 -0.45454545  0.09090909       0.006
  -0.36363636 -0.45454545  0.09090909       0.012
  -0.27272727 -0.45454545  0.09090909       0.012
  -0.18181818 -0.45454545  0.09090909       0.012
  -0.09090909 -0.45454545  0.09090909       0.006
  -0.36363636 -0.36363636  0.09090909       0.006
  -0.27272727 -0.36363636  0.09090909       0.012
  -0.18181818 -0.36363636  0.09090909       0.012
  -0.09090909 -0.36363636  0.09090909       0.006
  -0.27272727 -0.27272727  0.09090909       0.006
  -0.18181818 -0.27272727  0.09090909       0.012
  -0.09090909 -0.27272727  0.09090909       0.006
  -0.18181818 -0.18181818  0.09090909       0.006
  -0.09090909 -0.18181818  0.09090909       0.006
  -0.09090909 -0.09090909  0.09090909       0.002
   0.18181818  0.18181818  0.18181818       0.006
   0.27272727  0.18181818  0.18181818       0.012
  -0.18181818  0.18181818  0.18181818       0.003
   0.27272727  0.27272727  0.18181818       0.006
   0.36363636  0.27272727  0.18181818       0.006
  -0.27272727  0.27272727  0.18181818       0.006
  -0.18181818  0.27272727  0.18181818       0.006
  -0.36363636  0.36363636  0.18181818       0.006
  -0.27272727  0.36363636  0.18181818       0.012
  -0.18181818  0.36363636  0.18181818       0.006
  -0.45454545  0.45454545  0.18181818       0.006
  -0.36363636  0.45454545  0.18181818       0.012
  -0.27272727  0.45454545  0.18181818       0.012
  -0.18181818  0.45454545  0.18181818       0.006
  -0.45454545 -0.45454545  0.18181818       0.006
  -0.36363636 -0.45454545  0.18181818       0.012
  -0.27272727 -0.45454545  0.18181818       0.012
  -0.18181818 -0.45454545  0.18181818       0.006
  -0.36363636 -0.36363636  0.18181818       0.006
  -0.27272727 -0.36363636  0.18181818       0.012
  -0.18181818 -0.36363636  0.18181818       0.006
  -0.27272727 -0.27272727  0.18181818       0.006
  -0.18181818 -0.27272727  0.18181818       0.006
  -0.18181818 -0.18181818  0.18181818       0.002
  -0.27272727  0.27272727  0.27272727       0.003
  -0.36363636  0.36363636  0.27272727       0.006
  -0.27272727  0.36363636  0.27272727       0.006
  -0.45454545  0.45454545  0.27272727       0.006
  -0.36363636  0.45454545  0.27272727       0.012
  -0.27272727  0.45454545  0.27272727       0.006
  -0.45454545 -0.45454545  0.27272727       0.006
  -0.36363636 -0.45454545  0.27272727       0.012
  -0.27272727 -0.45454545  0.27272727       0.006
  -0.36363636 -0.36363636  0.27272727       0.006
  -0.27272727 -0.36363636  0.27272727       0.006
  -0.27272727 -0.27272727  0.27272727       0.002
  -0.36363636  0.36363636  0.36363636       0.003
  -0.45454545  0.45454545  0.36363636       0.006
  -0.36363636  0.45454545  0.36363636       0.006
  -0.45454545 -0.45454545  0.36363636       0.006
  -0.36363636 -0.45454545  0.36363636       0.006
  -0.36363636 -0.36363636  0.36363636       0.002
  -0.45454545  0.45454545  0.45454545       0.003
  -0.45454545 -0.45454545  0.45454545       0.002
 
 position of ions in fractional coordinates (direct lattice) 
   0.25000000  0.75000000  0.50000000
   0.00000000  0.00000000  0.00000000
 
 position of ions in cartesian coordinates  (Angst):
   2.45000000  0.00000000  0.63700000
   0.00000000  0.00000000  0.00000000
 


--------------------------------------------------------------------------------------------------------


 k-point  1 :   0.0000 0.0000 0.0000  plane waves:     351
 k-point  2 :   0.0909-0.0000 0.0000  plane waves:     353
 k-point  3 :   0.1818-0.0000 0.0000  plane waves:     358
 k-point  4 :   0.2727-0.0000 0.0000  plane waves:     362
 k-point  5 :   0.3636-0.0000 0.0000  plane waves:     358
 k-point  6 :   0.4545-0.0000-0.0000  plane waves:     363
 k-point  7 :   0.0909 0.0909 0.0000  plane waves:     361
 k-point  8 :   0.1818 0.0909-0.0000  plane waves:     358
 k-point  9 :   0.2727 0.0909 0.0000  plane waves:     358
 k-point 10 :   0.3636 0.0909 0.0000  plane waves:     356
 k-point 11 :   0.4545 0.0909-0.0000  plane waves:     361
 k-point 12 :  -0.4545 0.0909-0.0000  plane waves:     358
 k-point 13 :  -0.3636 0.0909 0.0000  plane waves:     361
 k-point 14 :  -0.2727 0.0909 0.0000  plane waves:     360
 k-point 15 :  -0.1818 0.0909 0.0000  plane waves:     362
 k-point 16 :  -0.0909 0.0909 0.0000  plane waves:     357
 k-point 17 :   0.1818 0.1818 0.0000  plane waves:     354
 k-point 18 :   0.2727 0.1818 0.0000  plane waves:     358
 k-point 19 :   0.3636 0.1818-0.0000  plane waves:     360
 k-point 20 :   0.4545 0.1818-0.0000  plane waves:     359
 k-point 21 :  -0.4545 0.1818-0.0000  plane waves:     359
 k-point 22 :  -0.3636 0.1818 0.0000  plane waves:     364
 k-point 23 :  -0.2727 0.1818-0.0000  plane waves:     365
 k-point 24 :  -0.1818 0.1818 0.0000  plane waves:     358
 k-point 25 :   0.2727 0.2727-0.0000  plane waves:     361
 k-point 26 :   0.3636 0.2727-0.0000  plane waves:     363
 k-point 27 :   0.4545 0.2727 0.0000  plane waves:     363
 k-point 28 :  -0.4545 0.2727 0.0000  plane waves:     362
 k-point 29 :  -0.3636 0.2727-0.0000  plane waves:     366
 k-point 30 :  -0.2727 0.2727-0.0000  plane waves:     372
 k-point 31 :   0.3636 0.3636 0.0000  plane waves:     363
 k-point 32 :   0.4545 0.3636-0.0000  plane waves:     362
 k-point 33 :  -0.4545 0.3636-0.0000  plane waves:     368
 k-point 34 :  -0.3636 0.3636 0.0000  plane waves:     376
 k-point 35 :   0.4545 0.4545-0.0000  plane waves:     365
 k-point 36 :  -0.4545 0.4545-0.0000  plane waves:     376
 k-point 37 :   0.0909 0.0909 0.0909  plane waves:     361
 k-point 38 :   0.1818 0.0909 0.0909  plane waves:     365
 k-point 39 :   0.2727 0.0909 0.0909  plane waves:     358
 k-point 40 :   0.3636 0.0909 0.0909  plane waves:     360
 k-point 41 :  -0.0909 0.0909 0.0909  plane waves:     365
 k-point 42 :   0.1818 0.1818 0.0909  plane waves:     362
 k-point 43 :   0.2727 0.1818 0.0909  plane waves:     357
 k-point 44 :   0.3636 0.1818 0.0909  plane waves:     358
 k-point 45 :   0.4545 0.1818 0.0909  plane waves:     358
 k-point 46 :  -0.4545 0.1818 0.0909  plane waves:     360
 k-point 47 :  -0.3636 0.1818 0.0909  plane waves:     364
 k-point 48 :  -0.1818 0.1818 0.0909  plane waves:     358
 k-point 49 :  -0.0909 0.1818 0.0909  plane waves:     366
 k-point 50 :   0.2727 0.2727 0.0909  plane waves:     359
 k-point 51 :   0.3636 0.2727 0.0909  plane waves:     358
 k-point 52 :   0.4545 0.2727 0.0909  plane waves:     362
 k-point 53 :  -0.4545 0.2727 0.0909  plane waves:     362
 k-point 54 :  -0.2727 0.2727 0.0909  plane waves:     361
 k-point 55 :  -0.1818 0.2727 0.0909  plane waves:     363
 k-point 56 :  -0.0909 0.2727 0.0909  plane waves:     358
 k-point 57 :   0.3636 0.3636 0.0909  plane waves:     360
 k-point 58 :   0.4545 0.3636 0.0909  plane waves:     364
 k-point 59 :  -0.3636 0.3636 0.0909  plane waves:     368
 k-point 60 :  -0.2727 0.3636 0.0909  plane waves:     367
 k-point 61 :  -0.1818 0.3636 0.0909  plane waves:     361
 k-point 62 :  -0.0909 0.3636 0.0909  plane waves:     358
 k-point 63 :  -0.4545 0.4545 0.0909  plane waves:     367
 k-point 64 :  -0.3636 0.4545 0.0909  plane waves:     364
 k-point 65 :  -0.2727 0.4545 0.0909  plane waves:     366
 k-point 66 :  -0.1818 0.4545 0.0909  plane waves:     360
 k-point 67 :  -0.0909 0.4545 0.0909  plane waves:     359
 k-point 68 :  -0.4545-0.4545 0.0909  plane waves:     367
 k-point 69 :  -0.3636-0.4545 0.0909  plane waves:     363
 k-point 70 :  -0.2727-0.4545 0.0909  plane waves:     361
 k-point 71 :  -0.1818-0.4545 0.0909  plane waves:     357
 k-point 72 :  -0.0909-0.4545 0.0909  plane waves:     361
 k-point 73 :  -0.3636-0.3636 0.0909  plane waves:     363
 k-point 74 :  -0.2727-0.3636 0.0909  plane waves:     358
 k-point 75 :  -0.1818-0.3636 0.0909  plane waves:     357
 k-point 76 :  -0.0909-0.3636 0.0909  plane waves:     355
 k-point 77 :  -0.2727-0.2727 0.0909  plane waves:     359
 k-point 78 :  -0.1818-0.2727 0.0909  plane waves:     352
 k-point 79 :  -0.0909-0.2727 0.0909  plane waves:     356
 k-point 80 :  -0.1818-0.1818 0.0909  plane waves:     357
 k-point 81 :  -0.0909-0.1818 0.0909  plane waves:     358
 k-point 82 :  -0.0909-0.0909 0.0909  plane waves:     363
 k-point 83 :   0.1818 0.1818 0.1818  plane waves:     360
 k-point 84 :   0.2727 0.1818 0.1818  plane waves:     359
 k-point 85 :  -0.1818 0.1818 0.1818  plane waves:     369
 k-point 86 :   0.2727 0.2727 0.1818  plane waves:     356
 k-point 87 :   0.3636 0.2727 0.1818  plane waves:     358
 k-point 88 :  -0.2727 0.2727 0.1818  plane waves:     366
 k-point 89 :  -0.1818 0.2727 0.1818  plane waves:     365
 k-point 90 :  -0.3636 0.3636 0.1818  plane waves:     365
 k-point 91 :  -0.2727 0.3636 0.1818  plane waves:     362
 k-point 92 :  -0.1818 0.3636 0.1818  plane waves:     360
 k-point 93 :  -0.4545 0.4545 0.1818  plane waves:     362
 k-point 94 :  -0.3636 0.4545 0.1818  plane waves:     361
 k-point 95 :  -0.2727 0.4545 0.1818  plane waves:     364
 k-point 96 :  -0.1818 0.4545 0.1818  plane waves:     363
 k-point 97 :  -0.4545-0.4545 0.1818  plane waves:     362
 k-point 98 :  -0.3636-0.4545 0.1818  plane waves:     363
 k-point 99 :  -0.2727-0.4545 0.1818  plane waves:     357
 k-point ** :  -0.1818-0.4545 0.1818  plane waves:     356
 k-point ** :  -0.3636-0.3636 0.1818  plane waves:     361
 k-point ** :  -0.2727-0.3636 0.1818  plane waves:     359
 k-point ** :  -0.1818-0.3636 0.1818  plane waves:     353
 k-point ** :  -0.2727-0.2727 0.1818  plane waves:     358
 k-point ** :  -0.1818-0.2727 0.1818  plane waves:     344
 k-point ** :  -0.1818-0.1818 0.1818  plane waves:     363
 k-point ** :  -0.2727 0.2727 0.2727  plane waves:     361
 k-point ** :  -0.3636 0.3636 0.2727  plane waves:     362
 k-point ** :  -0.2727 0.3636 0.2727  plane waves:     362
 k-point ** :  -0.4545 0.4545 0.2727  plane waves:     362
 k-point ** :  -0.3636 0.4545 0.2727  plane waves:     364
 k-point ** :  -0.2727 0.4545 0.2727  plane waves:     361
 k-point ** :  -0.4545-0.4545 0.2727  plane waves:     363
 k-point ** :  -0.3636-0.4545 0.2727  plane waves:     364
 k-point ** :  -0.2727-0.4545 0.2727  plane waves:     361
 k-point ** :  -0.3636-0.3636 0.2727  plane waves:     365
 k-point ** :  -0.2727-0.3636 0.2727  plane waves:     360
 k-point ** :  -0.2727-0.2727 0.2727  plane waves:     364
 k-point ** :  -0.3636 0.3636 0.3636  plane waves:     361
 k-point ** :  -0.4545 0.4545 0.3636  plane waves:     364
 k-point ** :  -0.3636 0.4545 0.3636  plane waves:     364
 k-point ** :  -0.4545-0.4545 0.3636  plane waves:     364
 k-point ** :  -0.3636-0.4545 0.3636  plane waves:     365
 k-point ** :  -0.3636-0.3636 0.3636  plane waves:     360
 k-point ** :  -0.4545 0.4545 0.4545  plane waves:     361
 k-point ** :  -0.4545-0.4545 0.4545  plane waves:     364

 maximum and minimum number of plane-waves per node :       376      344

 maximum number of plane-waves:       376
 maximum index in each direction: 
   IXMAX=    5   IYMAX=    5   IZMAX=    5
   IXMIN=   -5   IYMIN=   -5   IZMIN=   -5


 serial   3D FFT for wavefunctions
 parallel 3D FFT for charge:
    minimum data exchange during FFTs selected (reduces bandwidth)


 total amount of memory used by VASP MPI-rank0    34372. kBytes
=======================================================================

   base      :      30000. kBytes
   nonl-proj :       3044. kBytes
   fftplans  :        160. kBytes
   grid      :        372. kBytes
   one-center:          6. kBytes
   wavefun   :        790. kBytes
 
     INWAV:  cpu time    0.3040: real time    0.5538
 Broyden mixing: mesh for mixing (old mesh)
   NGX = 11   NGY = 11   NGZ = 11
  (NGX  = 32   NGY  = 32   NGZ  = 32)
  gives a total of   1331 points

 charge density for first step will be calculated from the start-wavefunctions


--------------------------------------------------------------------------------------------------------


 Maximum index for augmentation-charges          547 (set IRDMAX)


--------------------------------------------------------------------------------------------------------


 initial charge from wavefunction
 First call to EWALD:  gamma=   0.567
 Maximum number of real-space cells 4x 4x 3
 Maximum number of reciprocal cells 3x 3x 3

    FEWALD:  cpu time    0.0080: real time    0.0076


--------------------------------------- Iteration      1(   1)  ---------------------------------------


    POTLOK:  cpu time    0.0280: real time    0.0409
    SETDIJ:  cpu time    0.0120: real time    0.0178
     EDDAV:  cpu time    0.6320: real time    0.6438
       DOS:  cpu time    0.0040: real time    0.0062
    CHARGE:  cpu time    0.0280: real time    0.0276
    MIXING:  cpu time    0.0000: real time    0.0023
    --------------------------------------------
      LOOP:  cpu time    0.7040: real time    0.7394

 eigenvalue-minimisations  :  1040
 total energy-change (2. order) :-0.1024314E+02  (-0.3019965E-05)
 number of electron       7.9999991 magnetization 
 augmentation part       -0.4735694 magnetization 

 Broyden mixing:
  rms(total) = 0.31324E-03    rms(broyden)= 0.31324E-03
  rms(prec ) = 0.94174E-03
  weight for this iteration     100.00

 Free energy of the ion-electron system (eV)
  ---------------------------------------------------
  alpha Z        PSCENC =         4.40202223
  Ewald energy   TEWEN  =      -265.18101312
  -Hartree energ DENC   =        -2.49669771
  -exchange      EXHF   =         0.00000000
  -V(xc)+E(xc)   XCENC  =       -17.58046967
  PAW double counting   =        70.33568627      -35.24895218
  entropy T*S    EENTRO =        -0.01568441
  eigenvalues    EBANDS =        29.41228125
  atomic energy  EATOM  =       206.12968587
  Solvation  Ediel_sol  =         0.00000000
  ---------------------------------------------------
  free energy    TOTEN  =       -10.24314146 eV

  energy without entropy =      -10.22745705  energy(sigma->0) =      -10.23529925


--------------------------------------------------------------------------------------------------------




--------------------------------------- Iteration      1(   2)  ---------------------------------------


    POTLOK:  cpu time    0.0240: real time    0.0290
    SETDIJ:  cpu time    0.0080: real time    0.0084
     EDDAV:  cpu time    0.6080: real time    0.6105
       DOS:  cpu time    0.0080: real time    0.0055
    --------------------------------------------
      LOOP:  cpu time    0.6480: real time    0.6534

 eigenvalue-minimisations  :  1016
 total energy-change (2. order) : 0.1687039E-06  (-0.1532115E-06)
 number of electron       7.9999991 magnetization 
 augmentation part       -0.4735694 magnetization 

 Free energy of the ion-electron system (eV)
  ---------------------------------------------------
  alpha Z        PSCENC =         4.40202223
  Ewald energy   TEWEN  =      -265.18101312
  -Hartree energ DENC   =        -2.49686070
  -exchange      EXHF   =         0.00000000
  -V(xc)+E(xc)   XCENC  =       -17.58046001
  PAW double counting   =        70.33581305      -35.24908508
  entropy T*S    EENTRO =        -0.01568248
  eigenvalues    EBANDS =        29.41243895
  atomic energy  EATOM  =       206.12968587
  Solvation  Ediel_sol  =         0.00000000
  ---------------------------------------------------
  free energy    TOTEN  =       -10.24314129 eV

  energy without entropy =      -10.22745880  energy(sigma->0) =      -10.23530005


--------------------------------------------------------------------------------------------------------




 average (electrostatic) potential at core
  the test charge radii are     0.9892
  (the norm of the test charge is              1.0000)
       1 -80.5500       2 -80.5500
 
 
 
 E-fermi :   9.1081     XC(G=0): -10.8916     alpha+bet :-15.6819


 k-point     1 :       0.0000    0.0000    0.0000
  band No.  band energies     occupation 
      1      -4.6157      2.00000
      2       6.1826      2.00000
      3       6.2986      2.00000
      4       6.2986      2.00000
      5      10.5259      0.00000
      6      16.7725      0.00000
      7      17.3667      0.00000
      8      17.3667      0.00000

 k-point     2 :       0.0909   -0.0000    0.0000
  band No.  band energies     occupation 
      1      -4.3823      2.00000
      2       5.4281      2.00000
      3       6.2536      2.00000
      4       7.4620      2.00000
      5      11.0081      0.00000
      6      15.5354      0.00000
      7      16.6079      0.00000
      8      17.3780      0.00000

 k-point     3 :       0.1818   -0.0000    0.0000
  band No.  band energies     occupation 
      1      -3.6839      2.00000
      2       5.0480      2.00000
      3       6.2526      2.00000
      4       8.9953      1.57504
      5      12.2945      0.00000
      6      13.4179      0.00000
      7      13.8155      0.00000
      8      15.8268      0.00000

 k-point     4 :       0.2727   -0.0000    0.0000
  band No.  band energies     occupation 
      1      -2.5265      2.00000
      2       5.0985      2.00000
      3       6.4771      2.00000
      4       9.3048      0.16426
      5      11.3777      0.00000
      6      12.0883      0.00000
      7      13.5978      0.00000
      8      14.5304      0.00000

 k-point     5 :       0.3636   -0.0000    0.0000
  band No.  band energies     occupation 
      1      -0.9215      2.00000
      2       5.5199      2.00000
      3       6.5165      2.00000
      4       6.9882      2.00000
      5       9.6480      0.00013
      6      12.0447      0.00000
      7      13.6827      0.00000
      8      13.8253      0.00000

 k-point     6 :       0.4545   -0.0000   -0.0000
  band No.  band energies     occupation 
      1       1.1016      2.00000
      2       3.6096      2.00000
      3       6.4760      2.00000
      4       7.6252      2.00000
      5       8.0376      2.00000
      6      10.6185      0.00000
      7      13.5246      0.00000
      8      14.5062      0.00000

 k-point     7 :       0.0909    0.0909    0.0000
  band No.  band energies     occupation 
      1      -3.7819      2.00000
      2       5.3601      2.00000
      3       7.0121      2.00000
      4       8.0675      2.00000
      5      11.8392      0.00000
      6      13.8539      0.00000
      7      13.9857      0.00000
      8      16.3530      0.00000

 k-point     8 :       0.1818    0.0909   -0.0000
  band No.  band energies     occupation 
      1      -2.7212      2.00000
      2       5.3879      2.00000
      3       7.4890      2.00000
      4       9.2164      0.44395
      5      11.0178      0.00000
      6      11.5467      0.00000
      7      13.4215      0.00000
      8      14.6384      0.00000

 k-point     9 :       0.2727    0.0909    0.0000
  band No.  band energies     occupation 
      1      -1.2099      2.00000
      2       5.7752      2.00000
      3       7.1128      2.00000
      4       7.8465      2.00000
      5       9.2886      0.20172
      6      12.0427      0.00000
      7      12.4995      0.00000
      8      13.9467      0.00000

 k-point    10 :       0.3636    0.0909    0.0000
  band No.  band energies     occupation 
      1       0.7300      2.00000
      2       4.2421      2.00000
      3       6.5885      2.00000
      4       6.9853      2.00000
      5       8.7855      1.97746
      6      10.8712      0.00000
      7      12.8169      0.00000
      8      14.9461      0.00000

 k-point    11 :       0.4545    0.0909   -0.0000
  band No.  band energies     occupation 
      1       1.6474      2.00000
      2       3.1620      2.00000
      3       5.6089      2.00000
      4       7.4321      2.00000
      5       8.5560      1.99991
      6      11.2023      0.00000
      7      12.5613      0.00000
      8      15.5492      0.00000

 k-point    12 :      -0.4545    0.0909   -0.0000
  band No.  band energies     occupation 
      1      -0.4426      2.00000
      2       4.5094      2.00000
      3       5.9476      2.00000
      4       7.0098      2.00000
      5       9.6415      0.00016
      6      12.3363      0.00000
      7      13.0178      0.00000
      8      14.8032      0.00000

 k-point    13 :      -0.3636    0.0909    0.0000
  band No.  band energies     occupation 
      1      -2.1383      2.00000
      2       3.9401      2.00000
      3       6.4328      2.00000
      4       8.9193      1.81806
      5      11.2645      0.00000
      6      12.5098      0.00000
      7      13.3646      0.00000
      8      14.7689      0.00000

 k-point    14 :      -0.2727    0.0909    0.0000
  band No.  band energies     occupation 
      1      -3.3904      2.00000
      2       3.7718      2.00000
      3       6.2032      2.00000
      4       9.8779      0.00000
      5      12.5714      0.00000
      6      13.0671      0.00000
      7      13.6877      0.00000
      8      15.2907      0.00000

 k-point    15 :      -0.1818    0.0909    0.0000
  band No.  band energies     occupation 
      1      -4.1857      2.00000
      2       4.0292      2.00000
      3       6.2731      2.00000
      4       8.4290      2.00000
      5      12.1022      0.00000
      6      14.0446      0.00000
      7      15.9725      0.00000
      8      17.0441      0.00000

 k-point    16 :      -0.0909    0.0909    0.0000
  band No.  band energies     occupation 
      1      -4.5173      2.00000
      2       4.6813      2.00000
      3       6.3898      2.00000
      4       7.4441      2.00000
      5      11.1407      0.00000
      6      15.2497      0.00000
      7      16.5995      0.00000
      8      18.8928      0.00000

 k-point    17 :       0.1818    0.1818    0.0000
  band No.  band energies     occupation 
      1      -1.3061      2.00000
      2       5.7699      2.00000
      3       7.7427      2.00000
      4       7.8538      2.00000
      5       9.4931      0.00647
      6      11.3365      0.00000
      7      12.9249      0.00000
      8      13.0763      0.00000

 k-point    18 :       0.2727    0.1818    0.0000
  band No.  band energies     occupation 
      1       0.5425      2.00000
      2       5.0413      2.00000
      3       5.9808      2.00000
      4       6.5231      2.00000
      5       9.7773      0.00000
      6      11.5237      0.00000
      7      12.2123      0.00000
      8      13.5985      0.00000

 k-point    19 :       0.3636    0.1818   -0.0000
  band No.  band energies     occupation 
      1       2.3036      2.00000
      2       2.9571      2.00000
      3       4.4774      2.00000
      4       7.4216      2.00000
      5       9.0895      1.10473
      6      11.1476      0.00000
      7      12.8145      0.00000
      8      15.9344      0.00000

 k-point    20 :       0.4545    0.1818   -0.0000
  band No.  band energies     occupation 
      1       0.2236      2.00000
      2       3.2604      2.00000
      3       5.5730      2.00000
      4       7.4736      2.00000
      5       9.3687      0.06533
      6      11.3752      0.00000
      7      14.1126      0.00000
      8      15.6758      0.00000

 k-point    21 :      -0.4545    0.1818   -0.0000
  band No.  band energies     occupation 
      1      -1.5582      2.00000
      2       2.5658      2.00000
      3       6.8783      2.00000
      4       8.5570      1.99990
      5      10.4696      0.00000
      6      12.4503      0.00000
      7      13.2814      0.00000
      8      15.9164      0.00000

 k-point    22 :      -0.3636    0.1818    0.0000
  band No.  band energies     occupation 
      1      -2.9026      2.00000
      2       2.2964      2.00000
      3       6.6030      2.00000
      4      10.4490      0.00000
      5      11.4163      0.00000
      6      12.6116      0.00000
      7      14.4347      0.00000
      8      15.9578      0.00000

 k-point    23 :      -0.2727    0.1818   -0.0000
  band No.  band energies     occupation 
      1      -3.7933      2.00000
      2       2.4645      2.00000
      3       6.6212      2.00000
      4       9.1315      0.86833
      5      12.5196      0.00000
      6      13.9461      0.00000
      7      14.9208      0.00000
      8      16.5399      0.00000

 k-point    24 :      -0.1818    0.1818    0.0000
  band No.  band energies     occupation 
      1      -4.2222      2.00000
      2       3.0589      2.00000
      3       6.6631      2.00000
      4       8.2208      2.00000
      5      12.7567      0.00000
      6      13.5946      0.00000
      7      15.2849      0.00000
      8      19.3242      0.00000

 k-point    25 :       0.2727    0.2727   -0.0000
  band No.  band energies     occupation 
      1       2.5811      2.00000
      2       3.3603      2.00000
      3       3.5537      2.00000
      4       7.4133      2.00000
      5       9.5064      0.00485
      6      10.5770      0.00000
      7      14.0002      0.00000
      8      14.8359      0.00000

 k-point    26 :       0.3636    0.2727   -0.0000
  band No.  band energies     occupation 
      1       1.0714      2.00000
      2       2.0916      2.00000
      3       5.3890      2.00000
      4       8.0107      2.00000
      5       9.0210      1.46210
      6      10.7103      0.00000
      7      15.3877      0.00000
      8      16.2106      0.00000

 k-point    27 :       0.4545    0.2727    0.0000
  band No.  band energies     occupation 
      1      -0.7898      2.00000
      2       1.2869      2.00000
      3       7.5210      2.00000
      4       8.3284      2.00000
      5       9.4994      0.00565
      6      12.0657      0.00000
      7      13.9771      0.00000
      8      15.8581      0.00000

 k-point    28 :      -0.4545    0.2727    0.0000
  band No.  band energies     occupation 
      1      -2.2227      2.00000
      2       0.9196      2.00000
      3       7.2208      2.00000
      4      10.0864      0.00000
      5      10.9747      0.00000
      6      12.5130      0.00000
      7      14.1915      0.00000
      8      14.9442      0.00000

 k-point    29 :      -0.3636    0.2727   -0.0000
  band No.  band energies     occupation 
      1      -3.2068      2.00000
      2       0.9985      2.00000
      3       7.1650      2.00000
      4       9.8131      0.00000
      5      11.1266      0.00000
      6      13.7103      0.00000
      7      15.7109      0.00000
      8      16.3374      0.00000

 k-point    30 :      -0.2727    0.2727   -0.0000
  band No.  band energies     occupation 
      1      -3.7319      2.00000
      2       1.5194      2.00000
      3       7.1185      2.00000
      4       8.8799      1.89338
      5      12.0854      0.00000
      6      13.9314      0.00000
      7      14.8903      0.00000
      8      19.0669      0.00000

 k-point    31 :       0.3636    0.3636    0.0000
  band No.  band energies     occupation 
      1       0.1573      2.00000
      2       0.1661      2.00000
      3       8.0228      2.00000
      4       8.3119      2.00000
      5       8.8102      1.96483
      6      11.9418      0.00000
      7      14.5255      0.00000
      8      15.3157      0.00000

 k-point    32 :       0.4545    0.3636   -0.0000
  band No.  band energies     occupation 
      1      -1.3545      2.00000
      2      -0.3039      2.00000
      3       8.0221      2.00000
      4       8.9921      1.58799
      5      11.1354      0.00000
      6      12.7946      0.00000
      7      14.0272      0.00000
      8      14.0749      0.00000

 k-point    33 :      -0.4545    0.3636   -0.0000
  band No.  band energies     occupation 
      1      -2.4289      2.00000
      2      -0.3177      2.00000
      3       7.8922      2.00000
      4       9.8762      0.00000
      5      10.6007      0.00000
      6      12.5655      0.00000
      7      15.7490      0.00000
      8      16.4933      0.00000

 k-point    34 :      -0.3636    0.3636    0.0000
  band No.  band energies     occupation 
      1      -3.0484      2.00000
      2       0.1194      2.00000
      3       7.7551      2.00000
      4       9.6136      0.00035
      5      10.7401      0.00000
      6      12.6539      0.00000
      7      17.1929      0.00000
      8      18.8740      0.00000

 k-point    35 :       0.4545    0.4545   -0.0000
  band No.  band energies     occupation 
      1      -1.4639      2.00000
      2      -1.4633      2.00000
      3       8.7867      1.97694
      4       8.8104      1.96469
      5      11.4558      0.00000
      6      11.5783      0.00000
      7      15.6806      0.00000
      8      16.4603      0.00000

 k-point    36 :      -0.4545    0.4545   -0.0000
  band No.  band energies     occupation 
      1      -2.1750      2.00000
      2      -1.1162      2.00000
      3       8.5723      1.99985
      4       9.5681      0.00114
      5      10.4818      0.00000
      6      11.4973      0.00000
      7      18.7871      0.00000
      8      18.8237      0.00000

 k-point    37 :       0.0909    0.0909    0.0909
  band No.  band energies     occupation 
      1      -3.4880      2.00000
      2       3.7550      2.00000
      3       7.2777      2.00000
      4       8.8292      1.95137
      5      12.8185      0.00000
      6      13.4271      0.00000
      7      13.7245      0.00000
      8      15.4670      0.00000

 k-point    38 :       0.1818    0.0909    0.0909
  band No.  band energies     occupation 
      1      -2.3318      2.00000
      2       3.8575      2.00000
      3       7.7875      2.00000
      4       9.3493      0.08804
      5      10.8372      0.00000
      6      11.2974      0.00000
      7      14.2688      0.00000
      8      15.1481      0.00000

 k-point    39 :       0.2727    0.0909    0.0909
  band No.  band energies     occupation 
      1      -0.7285      2.00000
      2       4.3669      2.00000
      3       6.6101      2.00000
      4       7.9030      2.00000
      5       9.3522      0.08435
      6      12.7568      0.00000
      7      13.3564      0.00000
      8      14.1473      0.00000

 k-point    40 :       0.3636    0.0909    0.0909
  band No.  band energies     occupation 
      1       1.2917      2.00000
      2       3.7810      2.00000
      3       5.3579      2.00000
      4       6.6423      2.00000
      5       9.5967      0.00055
      6      11.7551      0.00000
      7      13.7346      0.00000
      8      14.4393      0.00000

 k-point    41 :      -0.0909    0.0909    0.0909
  band No.  band energies     occupation 
      1      -4.4189      2.00000
      2       4.3629      2.00000
      3       5.6021      2.00000
      4       8.4399      2.00000
      5      11.6000      0.00000
      6      14.0467      0.00000
      7      17.5285      0.00000
      8      18.0930      0.00000

 k-point    42 :       0.1818    0.1818    0.0909
  band No.  band energies     occupation 
      1      -0.8241      2.00000
      2       4.3029      2.00000
      3       7.3515      2.00000
      4       7.4349      2.00000
      5       9.9796      0.00000
      6      11.8692      0.00000
      7      13.9956      0.00000
      8      14.2342      0.00000

 k-point    43 :       0.2727    0.1818    0.0909
  band No.  band energies     occupation 
      1       1.1093      2.00000
      2       4.5579      2.00000
      3       5.1926      2.00000
      4       5.6388      2.00000
      5      10.7434      0.00000
      6      12.6905      0.00000
      7      13.2283      0.00000
      8      14.1470      0.00000

 k-point    44 :       0.3636    0.1818    0.0909
  band No.  band energies     occupation 
      1       2.0264      2.00000
      2       3.4650      2.00000
      3       4.1909      2.00000
      4       6.4350      2.00000
      5      10.3756      0.00000
      6      12.3996      0.00000
      7      13.5177      0.00000
      8      15.2505      0.00000

 k-point    45 :       0.4545    0.1818    0.0909
  band No.  band energies     occupation 
      1      -0.0582      2.00000
      2       3.0281      2.00000
      3       6.2673      2.00000
      4       7.8650      2.00000
      5       9.7189      0.00002
      6      12.5651      0.00000
      7      13.5377      0.00000
      8      14.9768      0.00000

 k-point    46 :      -0.4545    0.1818    0.0909
  band No.  band energies     occupation 
      1      -1.7499      2.00000
      2       2.4137      2.00000
      3       8.2138      2.00000
      4       9.2107      0.46821
      5      10.5819      0.00000
      6      11.5636      0.00000
      7      13.1155      0.00000
      8      15.0112      0.00000

 k-point    47 :      -0.3636    0.1818    0.0909
  band No.  band energies     occupation 
      1      -2.9995      2.00000
      2       2.2271      2.00000
      3       7.7179      2.00000
      4       9.4601      0.01282
      5      12.0893      0.00000
      6      12.9570      0.00000
      7      14.1283      0.00000
      8      14.8304      0.00000

 k-point    48 :      -0.1818    0.1818    0.0909
  band No.  band energies     occupation 
      1      -4.1243      2.00000
      2       3.0749      2.00000
      3       5.5479      2.00000
      4       9.4178      0.02852
      5      12.4464      0.00000
      6      13.0073      0.00000
      7      16.4581      0.00000
      8      18.8065      0.00000

 k-point    49 :      -0.0909    0.1818    0.0909
  band No.  band energies     occupation 
      1      -3.9896      2.00000
      2       3.7288      2.00000
      3       5.1772      2.00000
      4       9.7763      0.00000
      5      12.5493      0.00000
      6      12.8297      0.00000
      7      15.7892      0.00000
      8      18.0163      0.00000

 k-point    50 :       0.2727    0.2727    0.0909
  band No.  band energies     occupation 
      1       2.8004      2.00000
      2       2.9938      2.00000
      3       3.6326      2.00000
      4       6.3626      2.00000
      5      10.9374      0.00000
      6      11.8697      0.00000
      7      14.6875      0.00000
      8      14.8790      0.00000

 k-point    51 :       0.3636    0.2727    0.0909
  band No.  band energies     occupation 
      1       0.7968      2.00000
      2       1.8298      2.00000
      3       6.0937      2.00000
      4       7.8037      2.00000
      5      10.3272      0.00000
      6      11.5713      0.00000
      7      14.2230      0.00000
      8      15.4022      0.00000

 k-point    52 :       0.4545    0.2727    0.0909
  band No.  band energies     occupation 
      1      -0.9784      2.00000
      2       1.1129      2.00000
      3       8.6341      1.99920
      4       9.0989      1.05176
      5      10.4092      0.00000
      6      11.8135      0.00000
      7      12.4513      0.00000
      8      14.1408      0.00000

 k-point    53 :      -0.4545    0.2727    0.0909
  band No.  band energies     occupation 
      1      -2.3185      2.00000
      2       0.8351      2.00000
      3       8.3273      2.00000
      4      10.1148      0.00000
      5      11.1025      0.00000
      6      12.4457      0.00000
      7      13.6015      0.00000
      8      13.9314      0.00000

 k-point    54 :      -0.2727    0.2727    0.0909
  band No.  band energies     occupation 
      1      -3.6346      2.00000
      2       1.5888      2.00000
      3       5.9536      2.00000
      4      10.1566      0.00000
      5      10.9453      0.00000
      6      15.0532      0.00000
      7      15.1410      0.00000
      8      18.8598      0.00000

 k-point    55 :      -0.1818    0.2727    0.0909
  band No.  band energies     occupation 
      1      -3.5983      2.00000
      2       2.5469      2.00000
      3       5.1279      2.00000
      4      10.7605      0.00000
      5      11.0237      0.00000
      6      14.3470      0.00000
      7      15.3154      0.00000
      8      17.2269      0.00000

 k-point    56 :      -0.0909    0.2727    0.0909
  band No.  band energies     occupation 
      1      -3.0981      2.00000
      2       3.5373      2.00000
      3       5.0933      2.00000
      4      10.7818      0.00000
      5      11.4542      0.00000
      6      12.8901      0.00000
      7      14.4835      0.00000
      8      15.5876      0.00000

 k-point    57 :       0.3636    0.3636    0.0909
  band No.  band energies     occupation 
      1      -0.0232      2.00000
      2      -0.0203      2.00000
      3       8.7759      1.98116
      4       9.1306      0.87348
      5      10.3871      0.00000
      6      11.4819      0.00000
      7      12.8933      0.00000
      8      13.4516      0.00000

 k-point    58 :       0.4545    0.3636    0.0909
  band No.  band energies     occupation 
      1      -1.4486      2.00000
      2      -0.3946      2.00000
      3       9.0949      1.07452
      4       9.9793      0.00000
      5      10.9957      0.00000
      6      11.7694      0.00000
      7      13.3467      0.00000
      8      13.4229      0.00000

 k-point    59 :      -0.3636    0.3636    0.0909
  band No.  band energies     occupation 
      1      -2.9523      2.00000
      2       0.2041      2.00000
      3       6.5840      2.00000
      4       9.5958      0.00056
      5      10.9071      0.00000
      6      13.8960      0.00000
      7      17.2813      0.00000
      8      18.5791      0.00000

 k-point    60 :      -0.2727    0.3636    0.0909
  band No.  band energies     occupation 
      1      -3.0137      2.00000
      2       1.1519      2.00000
      3       5.6004      2.00000
      4       9.5847      0.00075
      5      11.5440      0.00000
      6      14.6062      0.00000
      7      16.2097      0.00000
      8      16.6492      0.00000

 k-point    61 :      -0.1818    0.3636    0.0909
  band No.  band energies     occupation 
      1      -2.6124      2.00000
      2       2.4602      2.00000
      3       5.0906      2.00000
      4       9.8782      0.00000
      5      11.0558      0.00000
      6      13.3213      0.00000
      7      15.3362      0.00000
      8      16.4067      0.00000

 k-point    62 :      -0.0909    0.3636    0.0909
  band No.  band energies     occupation 
      1      -1.7524      2.00000
      2       3.7857      2.00000
      3       5.3923      2.00000
      4       8.3907      2.00000
      5      10.4936      0.00000
      6      13.1696      0.00000
      7      14.3513      0.00000
      8      14.6144      0.00000

 k-point    63 :      -0.4545    0.4545    0.0909
  band No.  band energies     occupation 
      1      -2.0806      2.00000
      2      -1.0252      2.00000
      3       7.4072      2.00000
      4       8.4137      2.00000
      5      11.7685      0.00000
      6      12.7662      0.00000
      7      18.3282      0.00000
      8      18.4241      0.00000

 k-point    64 :      -0.3636    0.4545    0.0909
  band No.  band energies     occupation 
      1      -2.2386      2.00000
      2      -0.1422      2.00000
      3       6.3149      2.00000
      4       8.3203      2.00000
      5      12.2888      0.00000
      6      13.9935      0.00000
      7      15.6245      0.00000
      8      17.4410      0.00000

 k-point    65 :      -0.2727    0.4545    0.0909
  band No.  band energies     occupation 
      1      -1.9363      2.00000
      2       1.1626      2.00000
      3       5.6372      2.00000
      4       8.5823      1.99980
      5      10.8729      0.00000
      6      13.9711      0.00000
      7      15.2195      0.00000
      8      16.7721      0.00000

 k-point    66 :      -0.1818    0.4545    0.0909
  band No.  band energies     occupation 
      1      -1.1765      2.00000
      2       2.8157      2.00000
      3       5.4537      2.00000
      4       7.9677      2.00000
      5       9.2643      0.26943
      6      13.2313      0.00000
      7      15.0205      0.00000
      8      15.8539      0.00000

 k-point    67 :      -0.0909    0.4545    0.0909
  band No.  band energies     occupation 
      1       0.0316      2.00000
      2       4.4044      2.00000
      3       5.4788      2.00000
      4       6.0745      2.00000
      5       9.6670      0.00008
      6      11.8865      0.00000
      7      12.8086      0.00000
      8      16.2108      0.00000

 k-point    68 :      -0.4545   -0.4545    0.0909
  band No.  band energies     occupation 
      1      -1.2795      2.00000
      2      -1.2776      2.00000
[...]
      4       8.0064      2.00000
      5      13.0081      0.00000
      6      14.8822      0.00000
      7      17.2348      0.00000
      8      17.9484      0.00000

 k-point    92 :      -0.1818    0.3636    0.1818
  band No.  band energies     occupation 
      1      -2.1310      2.00000
      2       2.3864      2.00000
      3       4.0857      2.00000
      4       8.4292      2.00000
      5      10.7526      0.00000
      6      14.7333      0.00000
      7      16.3489      0.00000
      8      16.9079      0.00000

 k-point    93 :      -0.4545    0.4545    0.1818
  band No.  band energies     occupation 
      1      -1.7994      2.00000
      2      -0.7557      2.00000
      3       5.7710      2.00000
      4       6.7772      2.00000
      5      13.7174      0.00000
      6      14.6650      0.00000
      7      17.9070      0.00000
      8      17.9883      0.00000

 k-point    94 :      -0.3636    0.4545    0.1818
  band No.  band energies     occupation 
      1      -1.8608      2.00000
      2       0.1945      2.00000
      3       4.7422      2.00000
      4       6.7310      2.00000
      5      13.3056      0.00000
      6      15.1679      0.00000
      7      17.0541      0.00000
      8      18.4891      0.00000

 k-point    95 :      -0.2727    0.4545    0.1818
  band No.  band energies     occupation 
      1      -1.4623      2.00000
      2       1.5048      2.00000
      3       4.2234      2.00000
      4       7.0914      2.00000
      5      10.4656      0.00000
      6      15.8172      0.00000
      7      16.4670      0.00000
      8      18.1265      0.00000

 k-point    96 :      -0.1818    0.4545    0.1818
  band No.  band energies     occupation 
      1      -0.6082      2.00000
      2       2.8320      2.00000
      3       4.5433      2.00000
      4       7.4596      2.00000
      5       7.9894      2.00000
      6      14.0861      0.00000
      7      15.6943      0.00000
      8      16.8864      0.00000

 k-point    97 :      -0.4545   -0.4545    0.1818
  band No.  band energies     occupation 
      1      -0.9152      2.00000
      2      -0.9120      2.00000
      3       5.6348      2.00000
      4       5.6368      2.00000
      5      13.3578      0.00000
      6      15.5334      0.00000
      7      16.4917      0.00000
      8      18.5370      0.00000

 k-point    98 :      -0.3636   -0.4545    0.1818
  band No.  band energies     occupation 
      1      -0.6140      2.00000
      2       0.3956      2.00000
      3       4.9416      2.00000
      4       5.9187      2.00000
      5      10.3109      0.00000
      6      16.3206      0.00000
      7      16.7737      0.00000
      8      17.9361      0.00000

 k-point    99 :      -0.2727   -0.4545    0.1818
  band No.  band energies     occupation 
      1       0.1392      2.00000
      2       2.0541      2.00000
      3       4.7606      2.00000
      4       6.5697      2.00000
      5       7.3860      2.00000
      6      14.3367      0.00000
      7      16.6459      0.00000
      8      17.8880      0.00000

 k-point   100 :      -0.1818   -0.4545    0.1818
  band No.  band energies     occupation 
      1       1.3310      2.00000
      2       3.6467      2.00000
      3       4.7652      2.00000
      4       5.4106      2.00000
      5       7.6943      2.00000
      6      12.4209      0.00000
      7      13.8948      0.00000
      8      17.4621      0.00000

 k-point   101 :      -0.3636   -0.3636    0.1818
  band No.  band energies     occupation 
      1       1.0361      2.00000
      2       1.0586      2.00000
      3       5.5425      2.00000
      4       5.5595      2.00000
      5       7.2716      2.00000
      6      14.3431      0.00000
      7      17.6806      0.00000
      8      17.8541      0.00000

 k-point   102 :      -0.2727   -0.3636    0.1818
  band No.  band energies     occupation 
      1       2.1264      2.00000
      2       3.0108      2.00000
      3       4.5293      2.00000
      4       5.7353      2.00000
      5       6.6092      2.00000
      6      12.6737      0.00000
      7      14.9273      0.00000
      8      16.5259      0.00000

 k-point   103 :      -0.1818   -0.3636    0.1818
  band No.  band energies     occupation 
      1       2.0254      2.00000
      2       3.7473      2.00000
      3       5.1196      2.00000
      4       6.6392      2.00000
      5       7.8694      2.00000
      6      11.1948      0.00000
      7      12.4041      0.00000
      8      14.8152      0.00000

 k-point   104 :      -0.2727   -0.2727    0.1818
  band No.  band energies     occupation 
      1       1.9409      2.00000
      2       4.4980      2.00000
      3       4.5809      2.00000
      4       6.9790      2.00000
      5       7.0659      2.00000
      6      11.4119      0.00000
      7      13.1877      0.00000
      8      13.8420      0.00000

 k-point   105 :      -0.1818   -0.2727    0.1818
  band No.  band energies     occupation 
      1      -0.0282      2.00000
      2       6.3329      2.00000
      3       6.8068      2.00000
      4       7.9869      2.00000
      5       8.2604      2.00000
      6      10.5537      0.00000
      7      11.4703      0.00000
      8      12.2280      0.00000

 k-point   106 :      -0.1818   -0.1818    0.1818
  band No.  band energies     occupation 
      1      -1.6934      2.00000
      2       8.1793      2.00000
      3       8.3817      2.00000
      4       8.3817      2.00000
      5       9.0048      1.53471
      6      10.0323      0.00000
      7      11.9835      0.00000
      8      11.9835      0.00000

 k-point   107 :      -0.2727    0.2727    0.2727
  band No.  band energies     occupation 
      1      -2.8604      2.00000
      2       1.6746      2.00000
      3       3.4008      2.00000
      4       7.8048      2.00000
      5      13.5494      0.00000
      6      16.7934      0.00000
      7      17.0995      0.00000
      8      18.1466      0.00000

 k-point   108 :      -0.3636    0.3636    0.2727
  band No.  band energies     occupation 
      1      -2.1890      2.00000
      2       0.7894      2.00000
      3       3.5370      2.00000
      4       6.4363      2.00000
      5      14.6317      0.00000
      6      16.6653      0.00000
      7      17.8603      0.00000
      8      18.7030      0.00000

 k-point   109 :      -0.2727    0.3636    0.2727
  band No.  band energies     occupation 
      1      -2.0556      2.00000
      2       1.4155      2.00000
      3       3.1764      2.00000
      4       6.5595      2.00000
      5      13.3218      0.00000
      6      15.9213      0.00000
      7      18.4336      0.00000
      8      19.3170      0.00000

 k-point   110 :      -0.4545    0.4545    0.2727
  band No.  band energies     occupation 
      1      -1.3373      2.00000
      2      -0.3239      2.00000
      3       4.2597      2.00000
      4       5.2467      2.00000
      5      15.4410      0.00000
      6      16.1111      0.00000
      7      17.9311      0.00000
      8      18.2275      0.00000

 k-point   111 :      -0.3636    0.4545    0.2727
  band No.  band energies     occupation 
      1      -1.3019      2.00000
      2       0.6298      2.00000
      3       3.3955      2.00000
      4       5.2834      2.00000
      5      13.2334      0.00000
      6      16.9625      0.00000
      7      18.9614      0.00000
      8      19.5149      0.00000

 k-point   112 :      -0.2727    0.4545    0.2727
  band No.  band energies     occupation 
      1      -0.8078      2.00000
      2       1.6113      2.00000
      3       3.3819      2.00000
      4       5.7439      2.00000
      5      10.1513      0.00000
      6      17.1063      0.00000
      7      17.8519      0.00000
      8      18.5982      0.00000

 k-point   113 :      -0.4545   -0.4545    0.2727
  band No.  band energies     occupation 
      1      -0.3881      2.00000
      2      -0.3834      2.00000
      3       4.2062      2.00000
      4       4.2074      2.00000
      5      13.1843      0.00000
      6      17.5846      0.00000
      7      18.4319      0.00000
      8      19.5490      0.00000

 k-point   114 :      -0.3636   -0.4545    0.2727
  band No.  band energies     occupation 
      1       0.0092      2.00000
      2       0.9258      2.00000
      3       3.6873      2.00000
      4       4.5849      2.00000
      5       9.9875      0.00000
      6      17.5721      0.00000
      7      18.6590      0.00000
      8      19.4087      0.00000

 k-point   115 :      -0.2727   -0.4545    0.2727
  band No.  band energies     occupation 
      1       0.8551      2.00000
      2       2.2544      2.00000
      3       4.0165      2.00000
      4       5.3760      2.00000
      5       7.0836      2.00000
      6      15.3975      0.00000
      7      16.8797      0.00000
      8      18.5159      0.00000

 k-point   116 :      -0.3636   -0.3636    0.2727
  band No.  band energies     occupation 
      1       1.6537      2.00000
      2       1.6864      2.00000
      3       4.4012      2.00000
      4       4.4106      2.00000
      5       6.9881      2.00000
      6      15.7082      0.00000
      7      17.6483      0.00000
      8      17.9355      0.00000

 k-point   117 :      -0.2727   -0.3636    0.2727
  band No.  band energies     occupation 
      1       2.8068      2.00000
      2       3.2802      2.00000
      3       4.4333      2.00000
      4       5.0678      2.00000
      5       5.5669      2.00000
      6      13.8528      0.00000
      7      14.9511      0.00000
      8      15.8081      0.00000

 k-point   118 :      -0.2727   -0.2727    0.2727
  band No.  band energies     occupation 
      1       1.8524      2.00000
      2       4.8875      2.00000
      3       4.9875      2.00000
      4       6.4857      2.00000
      5       6.4857      2.00000
      6      12.4724      0.00000
      7      13.0854      0.00000
      8      13.0854      0.00000

 k-point   119 :      -0.3636    0.3636    0.3636
  band No.  band energies     occupation 
      1      -1.5320      2.00000
      2       0.8936      2.00000
      3       2.6911      2.00000
      4       5.0687      2.00000
      5      15.7316      0.00000
      6      16.5836      0.00000
      7      18.3259      0.00000
      8      19.8389      0.00000

 k-point   120 :      -0.4545    0.4545    0.3636
  band No.  band energies     occupation 
      1      -0.7122      2.00000
      2       0.2066      2.00000
      3       2.9962      2.00000
      4       3.8991      2.00000
      5      16.1551      0.00000
      6      16.3737      0.00000
      7      18.9913      0.00000
      8      19.6786      0.00000

 k-point   121 :      -0.3636    0.4545    0.3636
  band No.  band energies     occupation 
      1      -0.5800      2.00000
      2       0.8288      2.00000
      3       2.6394      2.00000
      4       4.0261      2.00000
      5      13.0641      0.00000
      6      18.5109      0.00000
      7      19.9218      0.00000
      8      20.3169      0.00000

 k-point   122 :      -0.4545   -0.4545    0.3636
  band No.  band energies     occupation 
      1       0.2376      2.00000
      2       0.2442      2.00000
      3       3.0327      2.00000
      4       3.0340      2.00000
      5      12.9986      0.00000
      6      19.1923      0.00000
      7      20.1887      0.00000
      8      20.2441      0.00000

 k-point   123 :      -0.3636   -0.4545    0.3636
  band No.  band energies     occupation 
      1       0.7316      2.00000
      2       1.2215      2.00000
      3       3.0234      2.00000
      4       3.5067      2.00000
      5       9.8206      0.00000
      6      18.4963      0.00000
      7      19.7744      0.00000
      8      19.8894      0.00000

 k-point   124 :      -0.3636   -0.3636    0.3636
  band No.  band energies     occupation 
      1       2.0392      2.00000
      2       2.0825      2.00000
      3       3.8387      2.00000
      4       3.8387      2.00000
      5       6.8947      2.00000
      6      16.6004      0.00000
      7      17.5695      0.00000
      8      17.5695      0.00000

 k-point   125 :      -0.4545    0.4545    0.4545
  band No.  band energies     occupation 
      1       0.0116      2.00000
      2       0.5009      2.00000
      3       2.3304      2.00000
      4       2.8142      2.00000
      5      16.2535      0.00000
      6      16.3046      0.00000
      7      20.3557      0.00000
      8      20.8824      0.00000

 k-point   126 :      -0.4545   -0.4545    0.4545
  band No.  band energies     occupation 
      1       0.6283      2.00000
      2       0.6368      2.00000
      3       2.4587      2.00000
      4       2.4587      2.00000
      5      12.9298      0.00000
      6      19.6154      0.00000
      7      20.9234      0.00000
      8      21.0380      0.00000


--------------------------------------------------------------------------------------------------------


 soft charge-density along one line, spin component           1
         0         1         2         3         4         5         6         7         8         9
 total charge-density along one line
 
 pseudopotential strength for first ion, spin component:           1
 18.064  -0.003   0.000  -0.000  -0.000  -0.000   0.000   0.000
 -0.003   0.005  -0.000   0.000   0.000   0.000  -0.000  -0.000
  0.000  -0.000   4.116   0.000   0.000  -0.006  -0.000  -0.000
 -0.000   0.000   0.000   4.117   0.000  -0.000  -0.006  -0.000
 -0.000   0.000   0.000   0.000   4.116  -0.000  -0.000  -0.006
 -0.000   0.000  -0.006  -0.000  -0.000   0.005   0.000   0.000
  0.000  -0.000  -0.000  -0.006  -0.000   0.000   0.005   0.000
  0.000  -0.000  -0.000  -0.000  -0.006   0.000   0.000   0.005
 total augmentation occupancy for first ion, spin component:           1
  1.615  -0.493   0.000   0.000   0.000   0.000   0.000   0.000
 -0.493   0.903   0.000   0.000   0.000   0.000   0.000  -0.000
  0.000   0.000   0.896   0.000  -0.000  -0.494   0.000   0.000
  0.000   0.000   0.000   0.863   0.000  -0.000  -0.512   0.000
 -0.000  -0.000  -0.000   0.000   0.896   0.000   0.000  -0.494
  0.000   0.000  -0.494   0.000   0.000   0.354  -0.000  -0.000
  0.000   0.000   0.000  -0.512   0.000   0.000   0.392  -0.000
  0.000  -0.000   0.000   0.000  -0.494  -0.000  -0.000   0.354


------------------------ aborting loop because EDIFF is reached ----------------------------------------


    CHARGE:  cpu time    0.0280: real time    0.0289
    FORLOC:  cpu time    0.0000: real time    0.0007
    FORNL :  cpu time    0.0280: real time    0.0290
    STRESS:  cpu time    0.3520: real time    0.3516
    FORCOR:  cpu time    0.0160: real time    0.0146
    FORHAR:  cpu time    0.0040: real time    0.0040
    MIXING:  cpu time    0.0000: real time    0.0014
    OFIELD:  cpu time    0.0000: real time    0.0005

  FORCE on cell =-STRESS in cart. coord.  units (eV):
  Direction    XX          YY          ZZ          XY          YZ          ZX
  --------------------------------------------------------------------------------------
  Alpha Z     4.40202     4.40202     4.40202
  Ewald     -90.96023   -90.96023   -83.26083    -0.00000     0.00000     0.00000
  Hartree     0.55298     0.55298     1.39112    -0.00000    -0.00000    -0.00000
  E(xc)     -25.41970   -25.41970   -25.37690     0.00001     0.00000     0.00000
  Local     -11.17490   -11.17490   -17.47129    -0.00005    -0.00003    -0.00003
  n-local    77.00879    76.78559    76.52638     1.07335    -0.33207    -0.45576
  augment   -12.08719   -12.08719   -11.98749     0.00003     0.00003     0.00003
  Kinetic    59.78480    54.95717    56.67972     3.70498    -1.71772    -3.37039
  Fock        0.00000     0.00000     0.00000     0.00000     0.00000     0.00000
  -------------------------------------------------------------------------------------
  Total      -0.41885    -0.41885     0.90272    -0.00000     0.00000     0.00000
  in kB     -21.93831   -21.93831    47.28263    -0.00000     0.00000     0.00000
  external pressure =        1.14 kB  Pullay stress =        0.00 kB


 VOLUME and BASIS-vectors are now :
 -----------------------------------------------------------------------------
  energy-cutoff  :      300.00
  volume of cell :       30.59
      direct lattice vectors                 reciprocal lattice vectors
    -2.450000000  2.450000000  1.274000000     0.000000000  0.204081633  0.392464678
     2.450000000 -2.450000000  1.274000000     0.204081633  0.000000000  0.392464678
     2.450000000  2.450000000 -1.274000000     0.204081633  0.204081633 -0.000000000

  length of vectors
     3.691622408  3.691622408  3.691622408     0.442354876  0.442354876  0.288615013


 FORCES acting on ions
    electron-ion (+dipol)            ewald-force                    non-local-force                 convergence-correction
 -----------------------------------------------------------------------------------------------
   0.457E-06 -.457E-06 -.194E-13   0.198E-14 0.156E-15 0.342E-17   0.279E-17 0.973E-17 -.103E-17   0.557E-09 -.557E-09 0.144E-16
   -.457E-06 0.457E-06 0.602E-14   -.185E-14 0.943E-16 0.891E-15   -.125E-16 0.187E-16 0.192E-17   -.557E-09 0.557E-09 -.192E-16
 -----------------------------------------------------------------------------------------------
   0.870E-14 0.699E-14 -.134E-13   0.139E-15 0.250E-15 0.894E-15   -.971E-17 0.284E-16 0.888E-18   0.100E-15 0.127E-15 -.478E-17
 
 
 POSITION                                       TOTAL-FORCE (eV/Angst)
 -----------------------------------------------------------------------------------
      2.45000      0.00000      0.63700        -0.000000     -0.000000      0.000000
      0.00000      0.00000      0.00000         0.000000      0.000000     -0.000000
 -----------------------------------------------------------------------------------
    total drift:                                0.000000      0.000000     -0.000000


--------------------------------------------------------------------------------------------------------



  FREE ENERGIE OF THE ION-ELECTRON SYSTEM (eV)
  ---------------------------------------------------
  free  energy   TOTEN  =       -10.24314129 eV

  energy  without entropy=      -10.22745880  energy(sigma->0) =      -10.23530005
 


--------------------------------------------------------------------------------------------------------


    POTLOK:  cpu time    0.0320: real time    0.0449


--------------------------------------------------------------------------------------------------------




--------------------------------------------------------------------------------------------------------


  
 reached required accuracy - stopping structural energy minimisation
 writing wavefunctions
     LOOP+:  cpu time    2.9920: real time    4.1260
    4ORBIT:  cpu time    0.0000: real time    0.0000

 total amount of memory used by VASP MPI-rank0    34372. kBytes
=======================================================================

   base      :      30000. kBytes
   nonl-proj :       3044. kBytes
   fftplans  :        160. kBytes
   grid      :        372. kBytes
   one-center:          6. kBytes
   wavefun   :        790. kBytes
 
  
  
 General timing and accounting informations for this job:
 ========================================================
  
                  Total CPU time used (sec):        8.224
                            User time (sec):        5.932
                          System time (sec):        2.292
                         Elapsed time (sec):       11.676
  
                   Maximum memory used (kb):        9196.
                   Average memory used (kb):           0.
  
                          Minor page faults:        37979
                          Major page faults:           23
                 Voluntary context switches:        40100
