<?xml version="1.0" encoding="ISO-8859-1"?>
<modeling>
 <generator>
  <i name="program" type="string">vasp </i>
  <i name="version" type="string">5.4.4.18Apr17-6-g9f103f2a35  </i>
  <i name="subversion" type="string">(build Dec 09 2018 21:25:21) complex            parallel </i>
  <i name="platform" type="string">IFC18.0.1.163_CrayMPICH7.7.0_MKL18.0.1.163 </i>
  <i name="date" type="string">2019 03 19 </i>
  <i name="time" type="string">13:33:03 </i>
 </generator>
 <incar>
  <i type="string" name="PREC">normal</i>
  <i type="int" name="IBRION">     2</i>
  <i name="EDIFF">      0.00040000</i>
  <i name="EDIFFG">     -0.01000000</i>
  <i type="int" name="NSW">    15</i>
  <i type="int" name="ISIF">     2</i>
  <i name="ENCUT">    250.00000000</i>
  <i type="int" name="NBANDS">     8</i>
  <i type="logical" name="LREAL"> F  </i>
  <i type="int" name="ISMEAR">     0</i>
  <i name="SIGMA">      0.20000000</i>
  <v type="int" name="KPOINT_BSE">    -1     0     0     0</v>
 </incar>
 <structure name="primitive_cell" >
  <crystal>
   <varray name="basis" >
    <v>       0.00000000       2.71500000       2.71500000 </v>
    <v>       2.71500000       0.00000000       2.71500000 </v>
    <v>       2.71500000       2.71500000       0.00000000 </v>
   </varray>
   <i name="volume">     40.02575175 </i>
   <varray name="rec_basis" >
    <v>      -0.18416206       0.18416206       0.18416206 </v>
    <v>       0.18416206      -0.18416206       0.18416206 </v>
    <v>       0.18416206       0.18416206      -0.18416206 </v>
   </varray>
  </crystal>
  <varray name="positions" >
   <v>      -0.50000000      -0.50000000      -0.50000000 </v>
   <v>      -0.25000000      -0.25000000      -0.25000000 </v>
  </varray>
 </structure>
 <varray name="primitive_index" >
  <v type="int" >        1 </v>
  <v type="int" >        2 </v>
 </varray>
 <kpoints>
  <generation param="Monkhorst-Pack">
   <v type="int" name="divisions">       4        4        4 </v>
   <v name="usershift">      0.00000000       0.00000000       0.00000000 </v>
   <v name="genvec1">      0.25000000       0.00000000      -0.00000000 </v>
   <v name="genvec2">      0.00000000       0.25000000       0.00000000 </v>
   <v name="genvec3">     -0.00000000      -0.00000000       0.25000000 </v>
   <v name="shift">      0.50000000       0.50000000       0.50000000 </v>
  </generation>
  <varray name="kpointlist" >
   <v>       0.12500000       0.12500000       0.12500000 </v>
   <v>       0.37500000       0.12500000       0.12500000 </v>
   <v>      -0.37500000       0.12500000       0.12500000 </v>
   <v>      -0.12500000       0.12500000       0.12500000 </v>
   <v>       0.37500000       0.37500000       0.12500000 </v>
   <v>      -0.37500000       0.37500000       0.12500000 </v>
   <v>      -0.12500000       0.37500000       0.12500000 </v>
   <v>      -0.37500000      -0.37500000       0.12500000 </v>
   <v>       0.37500000       0.37500000       0.37500000 </v>
   <v>      -0.37500000       0.37500000       0.37500000 </v>
  </varray>
  <varray name="weights" >
   <v>       0.03125000 </v>
   <v>       0.09375000 </v>
   <v>       0.09375000 </v>
   <v>       0.09375000 </v>
   <v>       0.09375000 </v>
   <v>       0.18750000 </v>
   <v>       0.18750000 </v>
   <v>       0.09375000 </v>
   <v>       0.03125000 </v>
   <v>       0.09375000 </v>
  </varray>
 </kpoints>
 <parameters>
  <separator name="general" >
   <i type="string" name="SYSTEM">unknown system</i>
   <i type="logical" name="LCOMPAT"> F  </i>
  </separator>
  <separator name="electronic" >
   <i type="string" name="PREC">normal</i>
   <i name="ENMAX">    250.00000000</i>
   <i name="ENAUG">    322.06900000</i>
   <i name="EDIFF">      0.00040000</i>
   <i type="int" name="IALGO">    38</i>
   <i type="int" name="IWAVPR">    11</i>
   <i type="int" name="NBANDS">     8</i>
   <i name="NELECT">      8.00000000</i>
   <i type="int" name="TURBO">     0</i>
   <i type="int" name="IRESTART">     0</i>
   <i type="int" name="NREBOOT">     0</i>
   <i type="int" name="NMIN">     0</i>
   <i name="EREF">      0.00000000</i>
   <separator name="electronic smearing" >
    <i type="int" name="ISMEAR">     0</i>
    <i name="SIGMA">      0.20000000</i>
    <i name="KSPACING">      0.50000000</i>
    <i type="logical" name="KGAMMA"> T  </i>
   </separator>
   <separator name="electronic projectors" >
    <i type="logical" name="LREAL"> F  </i>
    <v name="ROPT">      0.00000000</v>
    <i type="int" name="LMAXPAW">  -100</i>
    <i type="int" name="LMAXMIX">     2</i>
    <i type="logical" name="NLSPLINE"> F  </i>
   </separator>
   <separator name="electronic startup" >
    <i type="int" name="ISTART">     0</i>
    <i type="int" name="ICHARG">     2</i>
    <i type="int" name="INIWAV">     1</i>
   </separator>
   <separator name="electronic spin" >
    <i type="int" name="ISPIN">     1</i>
    <i type="logical" name="LNONCOLLINEAR"> F  </i>
    <v name="MAGMOM">      1.00000000      1.00000000</v>
    <i name="NUPDOWN">     -1.00000000</i>
    <i type="logical" name="LSORBIT"> F  </i>
    <v name="SAXIS">      0.00000000      0.00000000      1.00000000</v>
    <i type="logical" name="LSPIRAL"> F  </i>
    <v name="QSPIRAL">      0.00000000      0.00000000      0.00000000</v>
    <i type="logical" name="LZEROZ"> F  </i>
   </separator>
   <separator name="electronic exchange-correlation" >
    <i type="logical" name="LASPH"> F  </i>
    <i type="logical" name="LMETAGGA"> F  </i>
   </separator>
   <separator name="electronic convergence" >
    <i type="int" name="NELM">    60</i>
    <i type="int" name="NELMDL">    -5</i>
    <i type="int" name="NELMIN">     2</i>
    <i name="ENINI">    250.00000000</i>
    <separator name="electronic convergence detail" >
     <i type="logical" name="LDIAG"> T  </i>
     <i type="logical" name="LSUBROT"> F  </i>
     <i name="WEIMIN">      0.00100000</i>
     <i name="EBREAK">      0.00001250</i>
     <i name="DEPER">      0.30000000</i>
     <i type="int" name="NRMM">     4</i>
     <i name="TIME">      0.40000000</i>
    </separator>
   </separator>
   <separator name="electronic mixer" >
    <i name="AMIX">      0.40000000</i>
    <i name="BMIX">      1.00000000</i>
    <i name="AMIN">      0.10000000</i>
    <i name="AMIX_MAG">      1.60000000</i>
    <i name="BMIX_MAG">      1.00000000</i>
    <separator name="electronic mixer details" >
     <i type="int" name="IMIX">     4</i>
     <i type="logical" name="MIXFIRST"> F  </i>
     <i type="int" name="MAXMIX">   -45</i>
     <i name="WC">    100.00000000</i>
     <i type="int" name="INIMIX">     1</i>
     <i type="int" name="MIXPRE">     1</i>
     <i type="int" name="MREMOVE">     5</i>
    </separator>
   </separator>
   <separator name="electronic dipolcorrection" >
    <i type="logical" name="LDIPOL"> F  </i>
    <i type="logical" name="LMONO"> F  </i>
    <i type="int" name="IDIPOL">     0</i>
    <i name="EPSILON">      1.00000000</i>
    <v name="DIPOL">   -100.00000000   -100.00000000   -100.00000000</v>
    <i name="EFIELD">      0.00000000</i>
   </separator>
  </separator>
  <separator name="grids" >
   <i type="int" name="NGX">    16</i>
   <i type="int" name="NGY">    16</i>
   <i type="int" name="NGZ">    16</i>
   <i type="int" name="NGXF">    32</i>
   <i type="int" name="NGYF">    32</i>
   <i type="int" name="NGZF">    32</i>
   <i type="logical" name="ADDGRID"> F  </i>
  </separator>
  <separator name="ionic" >
   <i type="int" name="NSW">    15</i>
   <i type="int" name="IBRION">     2</i>
   <i type="int" name="MDALGO">     0</i>
   <i type="int" name="ISIF">     2</i>
   <i name="PSTRESS">      0.00000000</i>
   <i name="EDIFFG">     -0.01000000</i>
   <i type="int" name="NFREE">     1</i>
   <i name="POTIM">      0.50000000</i>
   <i name="SMASS">     -3.00000000</i>
   <i name="SCALEE">      1.00000000</i>
  </separator>
  <separator name="ionic md" >
   <i name="TEBEG">      0.00010000</i>
   <i name="TEEND">      0.00010000</i>
   <i type="int" name="NBLOCK">     1</i>
   <i type="int" name="KBLOCK">    15</i>
   <i type="int" name="NPACO">   256</i>
   <i name="APACO">     16.00000000</i>
  </separator>
  <separator name="symmetry" >
   <i type="int" name="ISYM">     2</i>
   <i name="SYMPREC">      0.00001000</i>
  </separator>
  <separator name="dos" >
   <i type="int" name="LORBIT">     0</i>
   <v name="RWIGS">     -1.00000000</v>
   <i type="int" name="NEDOS">   301</i>
   <i name="EMIN">     10.00000000</i>
   <i name="EMAX">    -10.00000000</i>
   <i name="EFERMI">      0.00000000</i>
  </separator>
  <separator name="writing" >
   <i type="int" name="NWRITE">     2</i>
   <i type="logical" name="LWAVE"> T  </i>
   <i type="logical" name="LDOWNSAMPLE"> F  </i>
   <i type="logical" name="LCHARG"> T  </i>
   <i type="logical" name="LPARD"> F  </i>
   <i type="logical" name="LVTOT"> F  </i>
   <i type="logical" name="LVHAR"> F  </i>
   <i type="logical" name="LELF"> F  </i>
   <i type="logical" name="LOPTICS"> F  </i>
   <v name="STM">      0.00000000      0.00000000      0.00000000      0.00000000      0.00000000      0.00000000      0.00000000</v>
  </separator>
  <separator name="performance" >
   <i type="int" name="NPAR">     8</i>
   <i type="int" name="NSIM">     4</i>
   <i type="int" name="NBLK">    -1</i>
   <i type="logical" name="LPLANE"> T  </i>
   <i type="logical" name="LSCALAPACK"> T  </i>
   <i type="logical" name="LSCAAWARE"> F  </i>
   <i type="logical" name="LSCALU"> F  </i>
   <i type="logical" name="LASYNC"> F  </i>
   <i type="logical" name="LORBITALREAL"> F  </i>
  </separator>
  <separator name="miscellaneous" >
   <i type="int" name="IDIOT">     3</i>
   <i type="int" name="ISPECIAL">     0</i>
   <i type="logical" name="LMUSIC"> F  </i>
   <v name="POMASS">     28.08500000</v>
   <v name="DARWINR">      0.00000000</v>
   <v name="DARWINV">      1.00000000</v>
   <i type="logical" name="LCORR"> T  </i>
  </separator>
  <i type="logical" name="GGA_COMPAT"> T  </i>
  <i type="logical" name="LBERRY"> F  </i>
  <i type="int" name="ICORELEVEL">     0</i>
  <i type="logical" name="LDAU"> F  </i>
  <i type="int" name="I_CONSTRAINED_M">     0</i>
  <separator name="electronic exchange-correlation" >
   <i type="string" name="GGA">--</i>
   <i type="int" name="VOSKOWN">     0</i>
   <i type="logical" name="LHFCALC"> F  </i>
   <i type="string" name="PRECFOCK"></i>
   <i type="logical" name="LSYMGRAD"> F  </i>
   <i type="logical" name="LHFONE"> F  </i>
   <i type="logical" name="LRHFCALC"> F  </i>
   <i type="logical" name="LTHOMAS"> F  </i>
   <i type="logical" name="LMODELHF"> F  </i>
   <i name="ENCUT4O">     -1.00000000</i>
   <i type="int" name="EXXOEP">     0</i>
   <i type="int" name="FOURORBIT">     0</i>
   <i name="AEXX">      0.00000000</i>
   <i name="HFALPHA">      0.00000000</i>
   <i name="MCALPHA">      0.00000000</i>
   <i name="ALDAX">      1.00000000</i>
   <i name="AGGAX">      1.00000000</i>
   <i name="ALDAC">      1.00000000</i>
   <i name="AGGAC">      1.00000000</i>
   <i type="int" name="NKREDX">     1</i>
   <i type="int" name="NKREDY">     1</i>
   <i type="int" name="NKREDZ">     1</i>
   <i type="logical" name="SHIFTRED"> F  </i>
   <i type="logical" name="ODDONLY"> F  </i>
   <i type="logical" name="EVENONLY"> F  </i>
   <i type="int" name="LMAXFOCK">     0</i>
   <i type="int" name="NMAXFOCKAE">     0</i>
   <i type="logical" name="LFOCKAEDFT"> F  </i>
   <i name="HFSCREEN">      0.00000000</i>
   <i name="HFSCREENC">      0.00000000</i>
   <i type="int" name="NBANDSGWLOW">     0</i>
  </separator>
  <separator name="vdW DFT" >
   <i type="logical" name="LUSE_VDW"> F  </i>
   <i name="Zab_VDW">     -0.84910000</i>
   <i name="PARAM1">      0.12340000</i>
   <i name="PARAM2">      1.00000000</i>
   <i name="PARAM3">      0.00000000</i>
  </separator>
  <separator name="model GW" >
   <i type="int" name="MODEL_GW">     0</i>
   <i name="MODEL_EPS0">     12.00772552</i>
   <i name="MODEL_ALPHA">      1.00000000</i>
  </separator>
  <separator name="linear response parameters" >
   <i type="logical" name="LEPSILON"> F  </i>
   <i type="logical" name="LRPA"> F  </i>
   <i type="logical" name="LNABLA"> F  </i>
   <i type="logical" name="LVEL"> F  </i>
   <i type="int" name="KINTER">     0</i>
   <i name="CSHIFT">      0.10000000</i>
   <i name="OMEGAMAX">     -1.00000000</i>
   <i name="DEG_THRESHOLD">      0.00200000</i>
   <i name="RTIME">     -0.10000000</i>
   <i name="WPLASMAI">      0.00000000</i>
   <v name="DFIELD">      0.00000000      0.00000000      0.00000000</v>
   <v name="WPLASMA">      0.00000000      0.00000000      0.00000000      0.00000000      0.00000000      0.00000000      0.00000000      0.00000000      0.00000000</v>
  </separator>
  <separator name="orbital magnetization" >
   <i type="logical" name="NUCIND"> F  </i>
   <v name="MAGPOS">      0.00000000      0.00000000      0.00000000</v>
   <i type="logical" name="LNICSALL"> T  </i>
   <i type="logical" name="ORBITALMAG"> F  </i>
   <i type="logical" name="LMAGBLOCH"> F  </i>
   <i type="logical" name="LCHIMAG"> F  </i>
   <i type="logical" name="LGAUGE"> T  </i>
   <i type="int" name="MAGATOM">     0</i>
   <v name="MAGDIPOL">      0.00000000      0.00000000      0.00000000</v>
   <v name="AVECCONST">      0.00000000      0.00000000      0.00000000</v>
  </separator>
  <separator name="response functions" >
   <i type="logical" name="LADDER"> F  </i>
   <i type="logical" name="LRPAFORCE"> F  </i>
   <i type="logical" name="LFXC"> F  </i>
   <i type="logical" name="LHARTREE"> T  </i>
   <i type="int" name="IBSE">     0</i>
   <v type="int" name="KPOINT">    -1     0     0     0</v>
   <i type="logical" name="LTCTE"> F  </i>
   <i type="logical" name="LTETE"> F  </i>
   <i type="logical" name="LTRIPLET"> F  </i>
   <i type="logical" name="LFXCEPS"> F  </i>
   <i type="logical" name="LFXHEG"> F  </i>
   <i type="int" name="NATURALO">     2</i>
   <i type="logical" name="L2ORDER"> F  </i>
   <i type="logical" name="LMP2LT"> F  </i>
   <i type="logical" name="LUSEW"> F  </i>
   <i name="ENCUTGW">     -2.00000000</i>
   <i name="ENCUTGWSOFT">     -2.00000000</i>
   <i name="ENCUTLF">     -1.00000000</i>
   <i type="int" name="LMAXMP2">    -1</i>
   <i name="SCISSOR">      0.00000000</i>
   <i type="int" name="NOMEGA">     0</i>
   <i type="int" name="NOMEGAR">     0</i>
   <i type="int" name="NBANDSGW">    -1</i>
   <i type="int" name="NBANDSO">    -1</i>
   <i type="int" name="NBANDSV">    -1</i>
   <i type="int" name="NELM">     1</i>
   <i type="int" name="NELMHF">     1</i>
   <i type="int" name="DIM">     3</i>
   <i type="int" name="ANTIRES">     0</i>
   <i name="OMEGAMAX">    -30.00000000</i>
   <i name="OMEGAMIN">    -30.00000000</i>
   <i name="OMEGATL">   -200.00000000</i>
   <i type="int" name="OMEGAGRID">   140</i>
   <i name="CSHIFT">     -0.10000000</i>
   <i type="logical" name="SELFENERGY"> F  </i>
   <i type="logical" name="LSPECTRAL"> F  </i>
   <i type="logical" name="LSPECTRALGW"> F  </i>
   <i type="logical" name="LSINGLES"> F  </i>
   <i type="logical" name="LFERMIGW"> F  </i>
   <i type="logical" name="ODDONLYGW"> F  </i>
   <i type="logical" name="EVENONLYGW"> F  </i>
   <i type="int" name="NKREDLFX">     1</i>
   <i type="int" name="NKREDLFY">     1</i>
   <i type="int" name="NKREDLFZ">     1</i>
   <i type="int" name="MAXMEM">  2800</i>
   <i type="int" name="TELESCOPE">     0</i>
   <i type="int" name="TAUPAR">     1</i>
   <i type="int" name="OMEGAPAR">    -1</i>
   <i name="LAMBDA">      1.00000000</i>
  </separator>
  <separator name="External order field" >
   <i name="OFIELD_KAPPA">      0.00000000</i>
   <v name="OFIELD_K">      0.00000000      0.00000000      0.00000000</v>
   <i name="OFIELD_Q6_NEAR">      0.00000000</i>
   <i name="OFIELD_Q6_FAR">      0.00000000</i>
   <i name="OFIELD_A">      0.00000000</i>
  </separator>
 </parameters>
 <atominfo>
  <atoms>       2 </atoms>
  <types>       1 </types>
  <array name="atoms" >
   <dimension dim="1">ion</dimension>
   <field type="string">element</field>
   <field type="int">atomtype</field>
   <set>
    <rc><c>Si</c><c>   1</c></rc>
    <rc><c>Si</c><c>   1</c></rc>
   </set>
  </array>
  <array name="atomtypes" >
   <dimension dim="1">type</dimension>
   <field type="int">atomspertype</field>
   <field type="string">element</field>
   <field>mass</field>
   <field>valence</field>
   <field type="string">pseudopotential</field>
   <set>
    <rc><c>   2</c><c>Si</c><c>     28.08500000</c><c>      4.00000000</c><c> PAW_PBE Si 05Jan2001                   </c></rc>
   </set>
  </array>
 </atominfo>
 <structure name="initialpos" >
  <crystal>
   <varray name="basis" >
    <v>       0.00000000       2.71500000       2.71500000 </v>
    <v>       2.71500000       0.00000000       2.71500000 </v>
    <v>       2.71500000       2.71500000       0.00000000 </v>
   </varray>
   <i name="volume">     40.02575175 </i>
   <varray name="rec_basis" >
    <v>      -0.18416206       0.18416206       0.18416206 </v>
    <v>       0.18416206      -0.18416206       0.18416206 </v>
    <v>       0.18416206       0.18416206      -0.18416206 </v>
   </varray>
  </crystal>
  <varray name="positions" >
   <v>       0.50000000       0.50000000       0.50000000 </v>
   <v>       0.75000000       0.75000000       0.75000000 </v>
  </varray>
 </structure>
 <calculation>
  <scstep>
   <time name="dav">    0.08    0.09</time>
   <time name="total">    0.12    0.13</time>
   <energy>
    <i name="alphaZ">      3.36414203 </i>
    <i name="ewald">   -228.56352493 </i>
    <i name="hartreedc">    -11.00108243 </i>
    <i name="XCdc">    -18.60181216 </i>
    <i name="pawpsdc">     65.95520812 </i>
    <i name="pawaedc">    -30.76852678 </i>
    <i name="eentropy">     -0.01526582 </i>
    <i name="bandstr">     14.49007705 </i>
    <i name="atom">    206.12349923 </i>
    <i name="e_fr_energy">      0.98271429 </i>
    <i name="e_wo_entrp">      0.99798011 </i>
    <i name="e_0_energy">      0.99034720 </i>
   </energy>
  </scstep>
  <scstep>
   <time name="dav">    0.14    0.14</time>
   <time name="total">    0.14    0.14</time>
   <energy>
    <i name="e_fr_energy">    -10.89266221 </i>
    <i name="e_wo_entrp">    -10.89266219 </i>
    <i name="e_0_energy">    -10.89266220 </i>
   </energy>
  </scstep>
  <scstep>
   <time name="dav">    0.09    0.10</time>
   <time name="total">    0.09    0.10</time>
   <energy>
    <i name="e_fr_energy">    -11.00042097 </i>
    <i name="e_wo_entrp">    -11.00042095 </i>
    <i name="e_0_energy">    -11.00042096 </i>
   </energy>
  </scstep>
  <scstep>
   <time name="dav">    0.14    0.14</time>
   <time name="total">    0.14    0.14</time>
   <energy>
    <i name="e_fr_energy">    -11.00083420 </i>
    <i name="e_wo_entrp">    -11.00083418 </i>
    <i name="e_0_energy">    -11.00083419 </i>
   </energy>
  </scstep>
  <scstep>
   <time name="dav">    0.08    0.09</time>
   <time name="total">    0.10    0.10</time>
   <energy>
    <i name="e_fr_energy">    -11.00083432 </i>
    <i name="e_wo_entrp">    -11.00083430 </i>
    <i name="e_0_energy">    -11.00083431 </i>
   </energy>
  </scstep>
  <scstep>
   <time name="dav">    0.08    0.09</time>
   <time name="total">    0.12    0.13</time>
   <energy>
    <i name="e_fr_energy">    -10.87637663 </i>
    <i name="e_wo_entrp">    -10.87637640 </i>
    <i name="e_0_energy">    -10.87637651 </i>
   </energy>
  </scstep>
  <scstep>
   <time name="dav">    0.09    0.09</time>
   <time name="total">    0.13    0.14</time>
   <energy>
    <i name="e_fr_energy">    -10.81976801 </i>
    <i name="e_wo_entrp">    -10.81976447 </i>
    <i name="e_0_energy">    -10.81976624 </i>
   </energy>
  </scstep>
  <scstep>
   <time name="dav">    0.07    0.07</time>
   <time name="total">    0.11    0.12</time>
   <energy>
    <i name="e_fr_energy">    -10.82107580 </i>
    <i name="e_wo_entrp">    -10.82107330 </i>
    <i name="e_0_energy">    -10.82107455 </i>
   </energy>
  </scstep>
  <scstep>
   <time name="dav">    0.06    0.06</time>
   <time name="total">    0.09    0.10</time>
   <energy>
    <i name="alphaZ">      3.36414203 </i>
    <i name="ewald">   -228.56352493 </i>
    <i name="hartreedc">    -14.90678385 </i>
    <i name="XCdc">    -17.95328426 </i>
    <i name="pawpsdc">     74.98688715 </i>
    <i name="pawaedc">    -40.03061916 </i>
    <i name="eentropy">     -0.00000247 </i>
    <i name="bandstr">      6.15851659 </i>
    <i name="atom">    206.12349923 </i>
    <i name="e_fr_energy">    -10.82116967 </i>
    <i name="e_wo_entrp">    -10.82116720 </i>
    <i name="e_0_energy">    -10.82116844 </i>
   </energy>
  </scstep>
  <structure>
   <crystal>
    <varray name="basis" >
     <v>       0.00000000       2.71500000       2.71500000 </v>
     <v>       2.71500000       0.00000000       2.71500000 </v>
     <v>       2.71500000       2.71500000       0.00000000 </v>
    </varray>
    <i name="volume">     40.02575175 </i>
    <varray name="rec_basis" >
     <v>      -0.18416206       0.18416206       0.18416206 </v>
     <v>       0.18416206      -0.18416206       0.18416206 </v>
     <v>       0.18416206       0.18416206      -0.18416206 </v>
    </varray>
   </crystal>
   <varray name="positions" >
    <v>       0.50000000       0.50000000       0.50000000 </v>
    <v>       0.75000000       0.75000000       0.75000000 </v>
   </varray>
  </structure>
  <varray name="forces" >
   <v>       0.00000000      -0.00000000      -0.00000000 </v>
   <v>      -0.00000000       0.00000000       0.00000000 </v>
  </varray>
  <varray name="stress" >
   <v>      18.17397877       0.00000000      -0.00000000 </v>
   <v>       0.00000000      18.17397877       0.00000000 </v>
   <v>      -0.00000000      -0.00000000      18.17397877 </v>
  </varray>
  <energy>
   <i name="e_fr_energy">    -10.82116967 </i>
   <i name="e_wo_entrp">    -10.82116844 </i>
   <i name="e_0_energy">     -0.00000247 </i>
  </energy>
  <time name="totalsc">    1.78    2.60</time>
  <eigenvalues>
   <array>
    <dimension dim="1">band</dimension>
    <dimension dim="2">kpoint</dimension>
    <dimension dim="3">spin</dimension>
    <field>eigene</field>
    <field>occ</field>
    <set>
     <set comment="spin 1">
      <set comment="kpoint 1">
       <r>   -5.9268    1.0000 </r>
       <r>    4.2394    1.0000 </r>
       <r>    5.5508    1.0000 </r>
       <r>    5.5508    1.0000 </r>
       <r>    8.3471    0.0000 </r>
       <r>    8.8353    0.0000 </r>
       <r>    8.8353    0.0000 </r>
       <r>   10.5551    0.0000 </r>
      </set>
      <set comment="kpoint 2">
       <r>   -4.8802    1.0000 </r>
       <r>    1.2091    1.0000 </r>
       <r>    3.5248    1.0000 </r>
       <r>    5.0632    1.0000 </r>
       <r>    8.5668    0.0000 </r>
       <r>    9.5250    0.0000 </r>
       <r>    9.7080    0.0000 </r>
       <r>   12.1493    0.0000 </r>
      </set>
      <set comment="kpoint 3">
       <r>   -3.7117    1.0000 </r>
       <r>   -0.9163    1.0000 </r>
       <r>    3.5554    1.0000 </r>
       <r>    4.2732    1.0000 </r>
       <r>    8.0411    0.0000 </r>
       <r>    9.3654    0.0000 </r>
       <r>    9.9535    0.0000 </r>
       <r>   13.2263    0.0000 </r>
      </set>
      <set comment="kpoint 4">
       <r>   -5.3891    1.0000 </r>
       <r>    2.6120    1.0000 </r>
       <r>    4.5181    1.0000 </r>
       <r>    4.5947    1.0000 </r>
       <r>    7.9924    0.0000 </r>
       <r>    9.5544    0.0000 </r>
       <r>   10.3190    0.0000 </r>
       <r>   10.6060    0.0000 </r>
      </set>
      <set comment="kpoint 5">
       <r>   -4.3382    1.0000 </r>
       <r>    0.8945    1.0000 </r>
       <r>    3.1640    1.0000 </r>
       <r>    3.6269    1.0000 </r>
       <r>    7.1956    0.0000 </r>
       <r>    8.7456    0.0000 </r>
       <r>   11.8536    0.0000 </r>
       <r>   12.1283    0.0000 </r>
      </set>
      <set comment="kpoint 6">
       <r>   -2.6612    1.0000 </r>
       <r>   -1.0991    1.0000 </r>
       <r>    1.7726    1.0000 </r>
       <r>    2.8740    1.0000 </r>
       <r>    8.2359    0.0000 </r>
       <r>   10.1332    0.0000 </r>
       <r>   11.1287    0.0000 </r>
       <r>   13.2972    0.0000 </r>
      </set>
      <set comment="kpoint 7">
       <r>   -3.9122    1.0000 </r>
       <r>   -0.0080    1.0000 </r>
       <r>    2.5130    1.0000 </r>
       <r>    3.9059    1.0000 </r>
       <r>    8.7255    0.0000 </r>
       <r>    9.4043    0.0000 </r>
       <r>   10.8718    0.0000 </r>
       <r>   11.7963    0.0000 </r>
      </set>
      <set comment="kpoint 8">
       <r>   -2.8373    1.0000 </r>
       <r>   -0.9970    1.0000 </r>
       <r>    2.3975    1.0000 </r>
       <r>    3.1513    1.0000 </r>
       <r>    6.7410    0.0000 </r>
       <r>    7.8148    0.0000 </r>
       <r>   14.1294    0.0000 </r>
       <r>   14.2176    0.0000 </r>
      </set>
      <set comment="kpoint 9">
       <r>   -4.4369    1.0000 </r>
       <r>   -0.1146    1.0000 </r>
       <r>    4.7498    1.0000 </r>
       <r>    4.7498    1.0000 </r>
       <r>    7.5121    0.0000 </r>
       <r>    9.3033    0.0000 </r>
       <r>    9.3033    0.0000 </r>
       <r>   13.7188    0.0000 </r>
      </set>
      <set comment="kpoint 10">
       <r>   -3.2072    1.0000 </r>
       <r>   -0.8083    1.0000 </r>
       <r>    1.8404    1.0000 </r>
       <r>    3.9484    1.0000 </r>
       <r>    7.6925    0.0000 </r>
       <r>   11.3210    0.0000 </r>
       <r>   11.3351    0.0000 </r>
       <r>   12.8155    0.0000 </r>
      </set>
     </set>
    </set>
   </array>
  </eigenvalues>
  <separator name="orbital magnetization" >
   <v name="MAGDIPOLOUT">      0.00000000      0.00000000      0.00000000</v>
  </separator>
  <dos>
   <i name="efermi">      6.13945250 </i>
   <total>
    <array>
     <dimension dim="1">gridpoints</dimension>
     <dimension dim="2">spin</dimension>
     <field>energy</field>
     <field>total</field>
     <field>integrated</field>
     <set>
      <set comment="spin 1">
       <r>    -7.9268     0.0000     0.0000 </r>
       <r>    -7.8463     0.0000     0.0000 </r>
       <r>    -7.7658     0.0000     0.0000 </r>
       <r>    -7.6853     0.0000     0.0000 </r>
       <r>    -7.6049     0.0000     0.0000 </r>
       <r>    -7.5244     0.0000     0.0000 </r>
       <r>    -7.4439     0.0000     0.0000 </r>
       <r>    -7.3634     0.0000     0.0000 </r>
       <r>    -7.2829     0.0000     0.0000 </r>
       <r>    -7.2024     0.0000     0.0000 </r>
       <r>    -7.1220     0.0000     0.0000 </r>
       <r>    -7.0415     0.0000     0.0000 </r>
       <r>    -6.9610     0.0000     0.0000 </r>
       <r>    -6.8805     0.0000     0.0000 </r>
       <r>    -6.8000     0.0000     0.0000 </r>
       <r>    -6.7196     0.0000     0.0000 </r>
       <r>    -6.6391     0.0000     0.0000 </r>
       <r>    -6.5586     0.0000     0.0000 </r>
       <r>    -6.4781     0.0000     0.0000 </r>
       <r>    -6.3976     0.0003     0.0000 </r>
       <r>    -6.3172     0.0019     0.0002 </r>
       <r>    -6.2367     0.0088     0.0009 </r>
       <r>    -6.1562     0.0296     0.0033 </r>
       <r>    -6.0757     0.0728     0.0091 </r>
       <r>    -5.9952     0.1305     0.0196 </r>
       <r>    -5.9147     0.1708     0.0334 </r>
       <r>    -5.8343     0.1645     0.0466 </r>
       <r>    -5.7538     0.1229     0.0565 </r>
       <r>    -5.6733     0.0978     0.0644 </r>
       <r>    -5.5928     0.1440     0.0760 </r>
       <r>    -5.5123     0.2782     0.0984 </r>
       <r>    -5.4319     0.4426     0.1340 </r>
       <r>    -5.3514     0.5229     0.1761 </r>
       <r>    -5.2709     0.4558     0.2127 </r>
       <r>    -5.1904     0.3095     0.2377 </r>
       <r>    -5.1099     0.2186     0.2552 </r>
       <r>    -5.0295     0.2614     0.2763 </r>
       <r>    -4.9490     0.4017     0.3086 </r>
       <r>    -4.8685     0.5145     0.3500 </r>
       <r>    -4.7880     0.4946     0.3898 </r>
       <r>    -4.7075     0.3658     0.4193 </r>
       <r>    -4.6271     0.2582     0.4401 </r>
       <r>    -4.5466     0.2808     0.4627 </r>
       <r>    -4.4661     0.4346     0.4976 </r>
       <r>    -4.3856     0.6115     0.5468 </r>
       <r>    -4.3051     0.6745     0.6011 </r>
       <r>    -4.2246     0.5935     0.6489 </r>
       <r>    -4.1442     0.5047     0.6895 </r>
       <r>    -4.0637     0.5881     0.7368 </r>
       <r>    -3.9832     0.8711     0.8069 </r>
       <r>    -3.9027     1.1742     0.9014 </r>
       <r>    -3.8222     1.2851     1.0049 </r>
       <r>    -3.7418     1.1540     1.0978 </r>
       <r>    -3.6613     0.8762     1.1683 </r>
       <r>    -3.5808     0.5677     1.2140 </r>
       <r>    -3.5003     0.3268     1.2403 </r>
       <r>    -3.4198     0.2290     1.2587 </r>
       <r>    -3.3394     0.2902     1.2820 </r>
       <r>    -3.2589     0.4361     1.3171 </r>
       <r>    -3.1784     0.5373     1.3604 </r>
       <r>    -3.0979     0.5267     1.4028 </r>
       <r>    -3.0174     0.4857     1.4419 </r>
       <r>    -2.9369     0.5600     1.4869 </r>
       <r>    -2.8565     0.7995     1.5513 </r>
       <r>    -2.7760     1.1105     1.6407 </r>
       <r>    -2.6955     1.3202     1.7469 </r>
       <r>    -2.6150     1.2762     1.8496 </r>
       <r>    -2.5345     0.9679     1.9275 </r>
       <r>    -2.4541     0.5597     1.9726 </r>
       <r>    -2.3736     0.2420     1.9920 </r>
       <r>    -2.2931     0.0773     1.9983 </r>
       <r>    -2.2126     0.0181     1.9997 </r>
       <r>    -2.1321     0.0031     2.0000 </r>
       <r>    -2.0517     0.0004     2.0000 </r>
       <r>    -1.9712     0.0000     2.0000 </r>
       <r>    -1.8907     0.0000     2.0000 </r>
       <r>    -1.8102     0.0000     2.0000 </r>
       <r>    -1.7297     0.0000     2.0000 </r>
       <r>    -1.6492     0.0002     2.0000 </r>
       <r>    -1.5688     0.0019     2.0002 </r>
       <r>    -1.4883     0.0123     2.0012 </r>
       <r>    -1.4078     0.0581     2.0058 </r>
       <r>    -1.3273     0.2029     2.0222 </r>
       <r>    -1.2468     0.5293     2.0648 </r>
       <r>    -1.1664     1.0450     2.1489 </r>
       <r>    -1.0859     1.5966     2.2774 </r>
       <r>    -1.0054     1.9462     2.4340 </r>
       <r>    -0.9249     1.9629     2.5920 </r>
       <r>    -0.8444     1.6870     2.7277 </r>
       <r>    -0.7640     1.2430     2.8278 </r>
       <r>    -0.6835     0.7688     2.8896 </r>
       <r>    -0.6030     0.3857     2.9207 </r>
       <r>    -0.5225     0.1534     2.9330 </r>
       <r>    -0.4420     0.0563     2.9376 </r>
       <r>    -0.3615     0.0576     2.9422 </r>
       <r>    -0.2811     0.1589     2.9550 </r>
       <r>    -0.2006     0.3973     2.9870 </r>
       <r>    -0.1201     0.7587     3.0480 </r>
       <r>    -0.0396     1.0894     3.1357 </r>
       <r>     0.0409     1.1678     3.2297 </r>
       <r>     0.1213     0.9289     3.3044 </r>
       <r>     0.2018     0.5456     3.3484 </r>
       <r>     0.2823     0.2358     3.3673 </r>
       <r>     0.3628     0.0749     3.3734 </r>
       <r>     0.4433     0.0188     3.3749 </r>
       <r>     0.5237     0.0115     3.3758 </r>
       <r>     0.6042     0.0369     3.3788 </r>
       <r>     0.6847     0.1143     3.3880 </r>
       <r>     0.7652     0.2611     3.4090 </r>
       <r>     0.8457     0.4402     3.4444 </r>
       <r>     0.9262     0.5620     3.4896 </r>
       <r>     1.0066     0.5846     3.5367 </r>
       <r>     1.0871     0.5716     3.5827 </r>
       <r>     1.1676     0.5830     3.6296 </r>
       <r>     1.2481     0.5701     3.6755 </r>
       <r>     1.3286     0.4637     3.7128 </r>
       <r>     1.4090     0.3047     3.7373 </r>
       <r>     1.4895     0.2230     3.7553 </r>
       <r>     1.5700     0.3411     3.7827 </r>
       <r>     1.6505     0.7038     3.8394 </r>
       <r>     1.7310     1.1911     3.9352 </r>
       <r>     1.8114     1.5085     4.0566 </r>
       <r>     1.8919     1.4170     4.1707 </r>
       <r>     1.9724     0.9898     4.2503 </r>
       <r>     2.0529     0.5268     4.2927 </r>
       <r>     2.1334     0.2656     4.3141 </r>
       <r>     2.2138     0.2779     4.3365 </r>
       <r>     2.2943     0.5555     4.3812 </r>
       <r>     2.3748     1.0378     4.4647 </r>
       <r>     2.4553     1.5539     4.5898 </r>
       <r>     2.5358     1.8562     4.7392 </r>
       <r>     2.6163     1.8140     4.8852 </r>
       <r>     2.6967     1.5639     5.0110 </r>
       <r>     2.7772     1.3713     5.1214 </r>
       <r>     2.8577     1.3315     5.2286 </r>
       <r>     2.9382     1.3328     5.3358 </r>
       <r>     3.0187     1.3045     5.4408 </r>
       <r>     3.0991     1.2861     5.5443 </r>
       <r>     3.1796     1.2464     5.6446 </r>
       <r>     3.2601     1.1032     5.7334 </r>
       <r>     3.3406     0.9478     5.8097 </r>
       <r>     3.4211     0.9977     5.8900 </r>
       <r>     3.5015     1.2829     5.9933 </r>
       <r>     3.5820     1.5549     6.1184 </r>
       <r>     3.6625     1.5959     6.2468 </r>
       <r>     3.7430     1.5067     6.3681 </r>
       <r>     3.8235     1.5336     6.4915 </r>
       <r>     3.9040     1.6692     6.6259 </r>
       <r>     3.9844     1.6526     6.7589 </r>
       <r>     4.0649     1.3822     6.8701 </r>
       <r>     4.1454     1.0708     6.9563 </r>
       <r>     4.2259     0.9278     7.0310 </r>
       <r>     4.3064     0.9314     7.1059 </r>
       <r>     4.3868     0.9879     7.1854 </r>
       <r>     4.4673     1.0881     7.2730 </r>
       <r>     4.5478     1.2058     7.3700 </r>
       <r>     4.6283     1.2266     7.4688 </r>
       <r>     4.7088     1.0795     7.5556 </r>
       <r>     4.7892     0.8324     7.6226 </r>
       <r>     4.8697     0.6222     7.6727 </r>
       <r>     4.9502     0.5399     7.7162 </r>
       <r>     5.0307     0.5578     7.7611 </r>
       <r>     5.1112     0.5530     7.8056 </r>
       <r>     5.1917     0.4462     7.8415 </r>
       <r>     5.2721     0.2916     7.8649 </r>
       <r>     5.3526     0.2025     7.8812 </r>
       <r>     5.4331     0.2266     7.8995 </r>
       <r>     5.5136     0.3093     7.9244 </r>
       <r>     5.5941     0.3493     7.9525 </r>
       <r>     5.6745     0.2939     7.9761 </r>
       <r>     5.7550     0.1809     7.9907 </r>
       <r>     5.8355     0.0813     7.9972 </r>
       <r>     5.9160     0.0266     7.9994 </r>
       <r>     5.9965     0.0064     7.9999 </r>
       <r>     6.0769     0.0011     8.0000 </r>
       <r>     6.1574     0.0002     8.0000 </r>
       <r>     6.2379     0.0004     8.0000 </r>
       <r>     6.3184     0.0028     8.0003 </r>
       <r>     6.3989     0.0148     8.0015 </r>
       <r>     6.4794     0.0568     8.0060 </r>
       <r>     6.5598     0.1583     8.0188 </r>
       <r>     6.6403     0.3219     8.0447 </r>
       <r>     6.7208     0.4783     8.0832 </r>
       <r>     6.8013     0.5221     8.1252 </r>
       <r>     6.8818     0.4328     8.1600 </r>
       <r>     6.9622     0.3196     8.1857 </r>
       <r>     7.0427     0.3097     8.2107 </r>
       <r>     7.1232     0.4155     8.2441 </r>
       <r>     7.2037     0.5253     8.2864 </r>
       <r>     7.2842     0.5285     8.3289 </r>
       <r>     7.3646     0.4433     8.3646 </r>
       <r>     7.4451     0.3898     8.3960 </r>
       <r>     7.5256     0.4607     8.4330 </r>
       <r>     7.6061     0.6576     8.4860 </r>
       <r>     7.6866     0.9131     8.5595 </r>
       <r>     7.7671     1.1394     8.6511 </r>
       <r>     7.8475     1.2976     8.7556 </r>
       <r>     7.9280     1.4205     8.8699 </r>
       <r>     8.0085     1.5386     8.9937 </r>
       <r>     8.0890     1.6318     9.1251 </r>
       <r>     8.1695     1.6665     9.2592 </r>
       <r>     8.2499     1.6012     9.3880 </r>
       <r>     8.3304     1.4051     9.5011 </r>
       <r>     8.4109     1.1681     9.5951 </r>
       <r>     8.4914     1.1003     9.6837 </r>
       <r>     8.5719     1.3348     9.7911 </r>
       <r>     8.6523     1.7665     9.9333 </r>
       <r>     8.7328     2.0870    10.1013 </r>
       <r>     8.8133     2.0056    10.2627 </r>
       <r>     8.8938     1.5134    10.3845 </r>
       <r>     8.9743     0.8994    10.4568 </r>
       <r>     9.0547     0.4886    10.4962 </r>
       <r>     9.1352     0.4520    10.5325 </r>
       <r>     9.2157     0.8198    10.5985 </r>
       <r>     9.2962     1.4900    10.7184 </r>
       <r>     9.3767     2.1861    10.8944 </r>
       <r>     9.4572     2.5720    11.1014 </r>
       <r>     9.5376     2.5009    11.3026 </r>
       <r>     9.6181     2.0963    11.4714 </r>
       <r>     9.6986     1.5960    11.5998 </r>
       <r>     9.7791     1.1928    11.6958 </r>
       <r>     9.8596     0.9965    11.7760 </r>
       <r>     9.9400     1.0330    11.8591 </r>
       <r>    10.0205     1.2316    11.9583 </r>
       <r>    10.1010     1.4436    12.0744 </r>
       <r>    10.1815     1.5164    12.1965 </r>
       <r>    10.2620     1.3948    12.3087 </r>
       <r>    10.3424     1.1588    12.4020 </r>
       <r>    10.4229     0.9508    12.4785 </r>
       <r>    10.5034     0.8665    12.5483 </r>
       <r>    10.5839     0.8944    12.6202 </r>
       <r>    10.6644     0.9663    12.6980 </r>
       <r>    10.7449     1.0690    12.7840 </r>
       <r>    10.8253     1.2188    12.8821 </r>
       <r>    10.9058     1.3605    12.9916 </r>
       <r>    10.9863     1.4421    13.1077 </r>
       <r>    11.0668     1.5153    13.2296 </r>
       <r>    11.1473     1.6232    13.3603 </r>
       <r>    11.2277     1.6974    13.4969 </r>
       <r>    11.3082     1.6301    13.6281 </r>
       <r>    11.3887     1.3672    13.7381 </r>
       <r>    11.4692     0.9766    13.8167 </r>
       <r>    11.5497     0.6698    13.8706 </r>
       <r>    11.6301     0.6701    13.9245 </r>
       <r>    11.7106     1.0068    14.0056 </r>
       <r>    11.7911     1.4372    14.1212 </r>
       <r>    11.8716     1.6364    14.2529 </r>
       <r>    11.9521     1.5342    14.3764 </r>
       <r>    12.0326     1.3557    14.4855 </r>
       <r>    12.1130     1.2612    14.5870 </r>
       <r>    12.1935     1.1413    14.6789 </r>
       <r>    12.2740     0.8624    14.7483 </r>
       <r>    12.3545     0.4998    14.7885 </r>
       <r>    12.4350     0.2208    14.8063 </r>
       <r>    12.5154     0.0984    14.8142 </r>
       <r>    12.5959     0.1164    14.8236 </r>
       <r>    12.6764     0.2414    14.8430 </r>
       <r>    12.7569     0.4130    14.8762 </r>
       <r>    12.8374     0.5259    14.9185 </r>
       <r>    12.9178     0.5165    14.9601 </r>
       <r>    12.9983     0.4722    14.9981 </r>
       <r>    13.0788     0.5815    15.0449 </r>
       <r>    13.1593     0.9317    15.1199 </r>
       <r>    13.2398     1.3548    15.2289 </r>
       <r>    13.3203     1.5271    15.3518 </r>
       <r>    13.4007     1.2918    15.4558 </r>
       <r>    13.4812     0.8281    15.5225 </r>
       <r>    13.5617     0.4373    15.5576 </r>
       <r>    13.6422     0.2512    15.5779 </r>
       <r>    13.7227     0.2045    15.5943 </r>
       <r>    13.8031     0.1949    15.6100 </r>
       <r>    13.8836     0.2085    15.6268 </r>
       <r>    13.9641     0.3131    15.6520 </r>
       <r>    14.0446     0.5532    15.6965 </r>
       <r>    14.1251     0.8438    15.7644 </r>
       <r>    14.2055     0.9954    15.8445 </r>
       <r>    14.2860     0.8874    15.9160 </r>
       <r>    14.3665     0.5947    15.9638 </r>
       <r>    14.4470     0.2987    15.9879 </r>
       <r>    14.5275     0.1120    15.9969 </r>
       <r>    14.6080     0.0312    15.9994 </r>
       <r>    14.6884     0.0065    15.9999 </r>
       <r>    14.7689     0.0010    16.0000 </r>
       <r>    14.8494     0.0001    16.0000 </r>
       <r>    14.9299     0.0000    16.0000 </r>
       <r>    15.0104     0.0000    16.0000 </r>
       <r>    15.0908     0.0000    16.0000 </r>
       <r>    15.1713     0.0000    16.0000 </r>
       <r>    15.2518     0.0000    16.0000 </r>
       <r>    15.3323     0.0000    16.0000 </r>
       <r>    15.4128     0.0000    16.0000 </r>
       <r>    15.4932     0.0000    16.0000 </r>
       <r>    15.5737     0.0000    16.0000 </r>
       <r>    15.6542     0.0000    16.0000 </r>
       <r>    15.7347     0.0000    16.0000 </r>
       <r>    15.8152     0.0000    16.0000 </r>
       <r>    15.8956     0.0000    16.0000 </r>
       <r>    15.9761     0.0000    16.0000 </r>
       <r>    16.0566     0.0000    16.0000 </r>
       <r>    16.1371     0.0000    16.0000 </r>
       <r>    16.2176     0.0000    16.0000 </r>
      </set>
     </set>
    </array>
   </total>
  </dos>
 </calculation>
 <structure name="finalpos" >
  <crystal>
   <varray name="basis" >
    <v>       0.00000000       2.71500000       2.71500000 </v>
    <v>       2.71500000       0.00000000       2.71500000 </v>
    <v>       2.71500000       2.71500000       0.00000000 </v>
   </varray>
   <i name="volume">     40.02575175 </i>
   <varray name="rec_basis" >
    <v>      -0.18416206       0.18416206       0.18416206 </v>
    <v>       0.18416206      -0.18416206       0.18416206 </v>
    <v>       0.18416206       0.18416206      -0.18416206 </v>
   </varray>
  </crystal>
  <varray name="positions" >
   <v>       0.50000000       0.50000000       0.50000000 </v>
   <v>       0.75000000       0.75000000       0.75000000 </v>
  </varray>
 </structure>
</modeling>
