   2   2   0   0
  0.2001288E+02  0.3839590E-09  0.3839590E-09  0.3839590E-09  0.5000000E-15
  1.000000000000000E-004
  CAR 
 unknown system                          
     14.82977779     -7.30387907  301      6.05023800      1.00000000
     -7.304  0.0000E+00  0.0000E+00
     -7.230  0.0000E+00  0.0000E+00
     -7.156  0.0000E+00  0.0000E+00
     -7.083  0.0000E+00  0.0000E+00
     -7.009  0.0000E+00  0.0000E+00
     -6.935  0.0000E+00  0.0000E+00
     -6.861  0.0000E+00  0.0000E+00
     -6.787  0.0000E+00  0.0000E+00
     -6.714  0.0000E+00  0.0000E+00
     -6.640  0.0000E+00  0.0000E+00
     -6.566  0.0000E+00  0.0000E+00
     -6.492  0.0000E+00  0.0000E+00
     -6.419  0.7273E-15  0.5366E-16
     -6.345  0.4078E-13  0.3062E-14
     -6.271  0.1768E-11  0.1335E-12
     -6.197  0.5855E-10  0.4453E-11
     -6.123  0.1483E-08  0.1139E-09
     -6.050  0.2872E-07  0.2233E-08
     -5.976  0.4256E-06  0.3363E-07
     -5.902  0.4825E-05  0.3896E-06
     -5.828  0.4187E-04  0.3479E-05
     -5.755  0.2781E-03  0.2400E-04
     -5.681  0.1415E-02  0.1284E-03
     -5.607  0.5512E-02  0.5350E-03
     -5.533  0.1645E-01  0.1749E-02
     -5.459  0.3762E-01  0.4524E-02
     -5.386  0.6591E-01  0.9387E-02
     -5.312  0.8851E-01  0.1592E-01
     -5.238  0.9110E-01  0.2264E-01
     -5.164  0.7185E-01  0.2794E-01
     -5.091  0.4343E-01  0.3114E-01
     -5.017  0.2012E-01  0.3263E-01
     -4.943  0.7140E-02  0.3315E-01
     -4.869  0.1941E-02  0.3330E-01
     -4.795  0.4043E-03  0.3333E-01
     -4.722  0.6447E-04  0.3333E-01
     -4.648  0.7872E-05  0.3333E-01
     -4.574  0.7357E-06  0.3333E-01
     -4.500  0.5261E-07  0.3333E-01
     -4.427  0.2878E-08  0.3333E-01
     -4.353  0.1245E-09  0.3333E-01
     -4.279  0.1406E-09  0.3333E-01
     -4.205  0.3533E-08  0.3333E-01
     -4.131  0.6981E-07  0.3333E-01
     -4.058  0.1055E-05  0.3333E-01
     -3.984  0.1220E-04  0.3333E-01
     -3.910  0.1080E-03  0.3334E-01
     -3.836  0.7317E-03  0.3340E-01
     -3.762  0.3797E-02  0.3368E-01
     -3.689  0.1509E-01  0.3479E-01
     -3.615  0.4592E-01  0.3818E-01
     -3.541  0.1071E+00  0.4608E-01
     -3.467  0.1914E+00  0.6020E-01
     -3.394  0.2622E+00  0.7955E-01
     -3.320  0.2752E+00  0.9985E-01
     -3.246  0.2214E+00  0.1162E+00
     -3.172  0.1365E+00  0.1263E+00
     -3.098  0.6448E-01  0.1310E+00
     -3.025  0.2334E-01  0.1327E+00
     -2.951  0.6473E-02  0.1332E+00
     -2.877  0.1375E-02  0.1333E+00
     -2.803  0.2237E-03  0.1333E+00
     -2.730  0.2786E-04  0.1333E+00
     -2.656  0.2655E-05  0.1333E+00
     -2.582  0.1937E-06  0.1333E+00
     -2.508  0.1081E-07  0.1333E+00
     -2.434  0.4613E-09  0.1333E+00
     -2.361  0.1506E-10  0.1333E+00
     -2.287  0.3756E-12  0.1333E+00
     -2.213  0.7223E-14  0.1333E+00
     -2.139  0.0000E+00  0.1333E+00
     -2.066  0.0000E+00  0.1333E+00
     -1.992  0.0000E+00  0.1333E+00
     -1.918  0.0000E+00  0.1333E+00
     -1.844  0.0000E+00  0.1333E+00
     -1.770  0.0000E+00  0.1333E+00
     -1.697  0.7524E-16  0.1333E+00
     -1.623  0.3085E-14  0.1333E+00
     -1.549  0.1724E-12  0.1333E+00
     -1.475  0.7298E-11  0.1333E+00
     -1.402  0.2361E-09  0.1333E+00
     -1.328  0.5840E-08  0.1333E+00
     -1.254  0.1105E-06  0.1333E+00
     -1.180  0.1599E-05  0.1333E+00
     -1.106  0.1770E-04  0.1333E+00
     -1.033  0.1500E-03  0.1333E+00
     -0.959  0.9734E-03  0.1334E+00
     -0.885  0.4836E-02  0.1338E+00
     -0.811  0.1840E-01  0.1351E+00
     -0.738  0.5365E-01  0.1391E+00
     -0.664  0.1198E+00  0.1479E+00
     -0.590  0.2051E+00  0.1631E+00
     -0.516  0.2691E+00  0.1829E+00
     -0.442  0.2705E+00  0.2029E+00
     -0.369  0.2084E+00  0.2183E+00
     -0.295  0.1231E+00  0.2273E+00
     -0.221  0.5568E-01  0.2314E+00
     -0.147  0.1930E-01  0.2329E+00
     -0.074  0.5126E-02  0.2332E+00
      0.000  0.1043E-02  0.2333E+00
      0.074  0.1624E-03  0.2333E+00
      0.148  0.1937E-04  0.2333E+00
      0.222  0.1768E-05  0.2333E+00
      0.295  0.1235E-06  0.2333E+00
      0.369  0.6597E-08  0.2333E+00
      0.443  0.2696E-09  0.2333E+00
      0.517  0.8422E-11  0.2333E+00
      0.590  0.2013E-12  0.2333E+00
      0.664  0.3612E-14  0.2333E+00
      0.738  0.0000E+00  0.2333E+00
      0.812  0.1756E-15  0.2333E+00
      0.886  0.1111E-13  0.2333E+00
      0.959  0.5257E-12  0.2333E+00
      1.033  0.1902E-10  0.2333E+00
      1.107  0.5264E-09  0.2333E+00
      1.181  0.1114E-07  0.2333E+00
      1.254  0.1803E-06  0.2333E+00
      1.328  0.2232E-05  0.2333E+00
      1.402  0.2115E-04  0.2333E+00
      1.476  0.1535E-03  0.2333E+00
      1.550  0.8523E-03  0.2334E+00
      1.623  0.3626E-02  0.2337E+00
      1.697  0.1182E-01  0.2345E+00
      1.771  0.2953E-01  0.2367E+00
      1.845  0.5672E-01  0.2409E+00
      1.918  0.8445E-01  0.2471E+00
      1.992  0.1008E+00  0.2546E+00
      2.066  0.1074E+00  0.2625E+00
      2.140  0.1256E+00  0.2718E+00
      2.214  0.1752E+00  0.2847E+00
      2.287  0.2423E+00  0.3026E+00
      2.361  0.2808E+00  0.3233E+00
      2.435  0.2556E+00  0.3422E+00
      2.509  0.1794E+00  0.3554E+00
      2.582  0.9664E-01  0.3625E+00
      2.656  0.3991E-01  0.3655E+00
      2.730  0.1263E-01  0.3664E+00
      2.804  0.3061E-02  0.3666E+00
      2.878  0.5682E-03  0.3667E+00
      2.951  0.8102E-04  0.3667E+00
      3.025  0.1226E-04  0.3667E+00
      3.099  0.3615E-04  0.3667E+00
      3.173  0.2763E-03  0.3667E+00
      3.246  0.1649E-02  0.3668E+00
      3.320  0.7542E-02  0.3674E+00
      3.394  0.2642E-01  0.3693E+00
      3.468  0.7089E-01  0.3745E+00
      3.542  0.1458E+00  0.3853E+00
      3.615  0.2297E+00  0.4022E+00
      3.689  0.2773E+00  0.4227E+00
      3.763  0.2566E+00  0.4416E+00
      3.837  0.1820E+00  0.4551E+00
      3.911  0.9894E-01  0.4624E+00
      3.984  0.4121E-01  0.4654E+00
      4.058  0.1315E-01  0.4664E+00
      4.132  0.3214E-02  0.4666E+00
      4.206  0.6017E-03  0.4667E+00
      4.279  0.8626E-04  0.4667E+00
      4.353  0.9480E-05  0.4667E+00
      4.427  0.1030E-05  0.4667E+00
      4.501  0.3095E-05  0.4667E+00
      4.575  0.3010E-04  0.4667E+00
      4.648  0.2278E-03  0.4667E+00
      4.722  0.1320E-02  0.4668E+00
      4.796  0.5861E-02  0.4672E+00
      4.870  0.1993E-01  0.4687E+00
      4.943  0.5190E-01  0.4725E+00
      5.017  0.1036E+00  0.4802E+00
      5.091  0.1584E+00  0.4918E+00
      5.165  0.1857E+00  0.5055E+00
      5.239  0.1668E+00  0.5179E+00
      5.312  0.1149E+00  0.5263E+00
      5.386  0.6060E-01  0.5308E+00
      5.460  0.2450E-01  0.5326E+00
      5.534  0.7589E-02  0.5332E+00
      5.607  0.1801E-02  0.5333E+00
      5.681  0.3272E-03  0.5333E+00
      5.755  0.4552E-04  0.5333E+00
      5.829  0.4849E-05  0.5333E+00
      5.903  0.3952E-06  0.5333E+00
      5.976  0.2465E-07  0.5333E+00
      6.050  0.1176E-08  0.5333E+00
      6.124  0.4289E-10  0.5333E+00
      6.198  0.1196E-11  0.5333E+00
      6.271  0.2556E-13  0.5333E+00
      6.345  0.4163E-14  0.5333E+00
      6.419  0.2083E-12  0.5333E+00
      6.493  0.8701E-11  0.5333E+00
      6.567  0.2778E-09  0.5333E+00
      6.640  0.6783E-08  0.5333E+00
      6.714  0.1266E-06  0.5333E+00
      6.788  0.1809E-05  0.5333E+00
      6.862  0.1977E-04  0.5333E+00
      6.935  0.1654E-03  0.5333E+00
      7.009  0.1059E-02  0.5334E+00
      7.083  0.5194E-02  0.5338E+00
      7.157  0.1951E-01  0.5352E+00
      7.231  0.5615E-01  0.5394E+00
      7.304  0.1238E+00  0.5485E+00
      7.378  0.2092E+00  0.5640E+00
      7.452  0.2709E+00  0.5839E+00
      7.526  0.2692E+00  0.6038E+00
      7.599  0.2067E+00  0.6191E+00
      7.673  0.1274E+00  0.6285E+00
      7.747  0.7579E-01  0.6341E+00
      7.821  0.6531E-01  0.6389E+00
      7.895  0.8002E-01  0.6448E+00
      7.968  0.9310E-01  0.6516E+00
      8.042  0.8661E-01  0.6580E+00
      8.116  0.6220E-01  0.6626E+00
      8.190  0.3427E-01  0.6651E+00
      8.263  0.1447E-01  0.6662E+00
      8.337  0.4683E-02  0.6666E+00
      8.411  0.1161E-02  0.6666E+00
      8.485  0.2203E-03  0.6667E+00
      8.559  0.3203E-04  0.6667E+00
      8.632  0.3568E-05  0.6667E+00
      8.706  0.3741E-06  0.6667E+00
      8.780  0.1046E-05  0.6667E+00
      8.854  0.1141E-04  0.6667E+00
      8.927  0.9706E-04  0.6667E+00
      9.001  0.6323E-03  0.6667E+00
      9.075  0.3154E-02  0.6670E+00
      9.149  0.1205E-01  0.6678E+00
      9.223  0.3527E-01  0.6704E+00
      9.296  0.7910E-01  0.6763E+00
      9.370  0.1359E+00  0.6863E+00
      9.444  0.1790E+00  0.6995E+00
      9.518  0.1807E+00  0.7128E+00
      9.591  0.1398E+00  0.7232E+00
      9.665  0.8285E-01  0.7293E+00
      9.739  0.3764E-01  0.7320E+00
      9.813  0.1312E-01  0.7330E+00
      9.887  0.3629E-02  0.7333E+00
      9.960  0.1611E-02  0.7334E+00
     10.034  0.4627E-02  0.7337E+00
     10.108  0.1741E-01  0.7350E+00
     10.182  0.5136E-01  0.7388E+00
     10.255  0.1161E+00  0.7474E+00
     10.329  0.2013E+00  0.7622E+00
     10.403  0.2673E+00  0.7820E+00
     10.477  0.2720E+00  0.8020E+00
     10.551  0.2122E+00  0.8177E+00
     10.624  0.1269E+00  0.8270E+00
     10.698  0.5811E-01  0.8313E+00
     10.772  0.2040E-01  0.8328E+00
     10.846  0.5484E-02  0.8332E+00
     10.919  0.1130E-02  0.8333E+00
     10.993  0.1787E-03  0.8333E+00
     11.067  0.2844E-04  0.8333E+00
     11.141  0.6747E-04  0.8333E+00
     11.215  0.4737E-03  0.8334E+00
     11.288  0.2624E-02  0.8336E+00
     11.362  0.1116E-01  0.8344E+00
     11.436  0.3650E-01  0.8371E+00
     11.510  0.9229E-01  0.8439E+00
     11.584  0.1822E+00  0.8573E+00
     11.657  0.2866E+00  0.8785E+00
     11.731  0.3711E+00  0.9059E+00
     11.805  0.4131E+00  0.9363E+00
     11.879  0.4086E+00  0.9665E+00
     11.952  0.3576E+00  0.9929E+00
     12.026  0.2668E+00  0.1013E+01
     12.100  0.1626E+00  0.1025E+01
     12.174  0.7859E-01  0.1030E+01
     12.248  0.2959E-01  0.1033E+01
     12.321  0.8660E-02  0.1033E+01
     12.395  0.2324E-02  0.1033E+01
     12.469  0.2270E-02  0.1034E+01
     12.543  0.7183E-02  0.1034E+01
     12.616  0.2012E-01  0.1036E+01
     12.690  0.4343E-01  0.1039E+01
     12.764  0.7185E-01  0.1044E+01
     12.838  0.9110E-01  0.1051E+01
     12.912  0.8851E-01  0.1057E+01
     12.985  0.6591E-01  0.1062E+01
     13.059  0.3762E-01  0.1065E+01
     13.133  0.1645E-01  0.1066E+01
     13.207  0.5512E-02  0.1067E+01
     13.280  0.1415E-02  0.1067E+01
     13.354  0.2781E-03  0.1067E+01
     13.428  0.4187E-04  0.1067E+01
     13.502  0.4825E-05  0.1067E+01
     13.576  0.4256E-06  0.1067E+01
     13.649  0.2872E-07  0.1067E+01
     13.723  0.1483E-08  0.1067E+01
     13.797  0.5855E-10  0.1067E+01
     13.871  0.1768E-11  0.1067E+01
     13.944  0.4083E-13  0.1067E+01
     14.018  0.7022E-15  0.1067E+01
     14.092  0.0000E+00  0.1067E+01
     14.166  0.0000E+00  0.1067E+01
     14.240  0.0000E+00  0.1067E+01
     14.313  0.0000E+00  0.1067E+01
     14.387  0.0000E+00  0.1067E+01
     14.461  0.0000E+00  0.1067E+01
     14.535  0.0000E+00  0.1067E+01
     14.608  0.0000E+00  0.1067E+01
     14.682  0.0000E+00  0.1067E+01
     14.756  0.0000E+00  0.1067E+01
     14.830  0.0000E+00  0.1067E+01
