unknown system                          
   1.00000000000000     
    -2.450000    2.450000    1.274000
     2.450000   -2.450000    1.274000
     2.450000    2.450000   -1.274000
   Si
     2
Direct
  0.250000  0.750000  0.500000
  0.000000  0.000000  0.000000
 
   28   28   28
 -5.5847     -4.0549     -.67302E-01  4.8726      9.0785      11.418      11.688      10.496      8.7924      7.1759    
  5.8246      4.7993      4.0969      3.6913      3.5591      3.6913      4.0969      4.7993      5.8247      7.1759    
  8.7924      10.496      11.688      11.418      9.0785      4.8726     -.67312E-01 -4.0549     -4.0549     -4.8398    
 -2.6898      1.5434      6.2753      9.9390      11.644      11.420      10.001      8.2987      6.7499      5.4899    
  4.5585      3.9433      3.6171      3.5591      3.7644      4.2453      5.0269      6.1324      7.5540      9.2105    
  10.875      11.835      11.178      8.4568      4.0885     -.64143     -.67312E-01 -2.6898     -2.7420     -.21197    
  3.8837      8.0084      10.826      11.741      11.005      9.4203      7.7585      6.3012      5.1478      4.3181    
  3.7929      3.5456      3.5591      3.8323      4.3802      5.2280      6.3945      7.8607      9.5283      11.128    
  11.901      11.027      8.2304      4.0885      4.8726      1.5434     -.21197     0.33099      2.9349      6.5257    
  9.7335      11.531      11.627      10.449      8.7923      7.2024      5.8551      4.8168      4.0906      3.6533    
  3.4805      3.5592      3.8914      4.4938      5.3904      6.5946      8.0766      9.7269      11.253      11.918    
  11.027      8.4568      9.0785      6.2753      3.8837      2.9349      3.8501      6.2199      9.0227      11.145    
  11.900      11.270      9.7938      8.1525      6.6603      5.4347      4.5132      3.8869      3.5311      3.4249    
  3.5592      3.9385      4.5798      5.5045      6.7199      8.1882      9.7944      11.253      11.901      11.178    
  11.418      9.9390      8.0084      6.5257      6.2199      7.2561      9.1449      11.009      12.038      11.872    
  10.708      9.1090      7.5348      6.1591      5.0593      4.2503      3.7154      3.4314      3.3812      3.5592    
  3.9713      4.6334      5.5633      6.7626      8.1882      9.7269      11.128      11.835      11.688      11.644    
  10.826      9.7335      9.0227      9.1449      10.081      11.347      12.270      12.347      11.493      10.034    
  8.4463      6.9707      5.7215      4.7441      4.0377      3.5824      3.3578      3.3512      3.5592      3.9881    
  4.6515      5.5633      6.7199      8.0766      9.5283      10.875      10.496      11.420      11.741      11.531    
  11.145      11.009      11.347      12.034      12.661      12.776      12.148      10.888      9.3590      7.8441    
  6.4871      5.3651      4.4999      3.8820      3.4917      3.3128      3.3359      3.5592      3.9881      4.6334    
  5.5045      6.5946      7.8607      9.2105      8.7924      10.001      11.005      11.627      11.900      12.038    
  12.270      12.661      13.046      13.126      12.659      11.619      10.228      8.7463      7.3368      6.1058    
  5.1024      4.3338      3.7872      3.4459      3.2977      3.3359      3.5592      3.9713      4.5798      5.3904    
  6.3945      7.5540      7.1759      8.2987      9.4203      10.449      11.270      11.872      12.347      12.776    
  13.126      13.244      12.948      12.161      10.990      9.6301      8.2416      6.9532      5.8429      4.9417    
  4.2499      3.7554      3.4459      3.3128      3.3512      3.5592      3.9385      4.4938      5.2280      6.1324    
  5.8247      6.7499      7.7585      8.7923      9.7938      10.708      11.493      12.148      12.659      12.948    
  12.897      12.426      11.564      10.428      9.1552      7.8827      6.7143      5.7089      4.8877      4.2499    
  3.7872      3.4917      3.3578      3.3812      3.5592      3.8914      4.3802      5.0269      4.7993      5.4900    
  6.3012      7.2024      8.1525      9.1090      10.034      10.888      11.619      12.161      12.426      12.334    
  11.863      11.055      10.009      8.8502      7.6964      6.6333      5.7089      4.9417      4.3338      3.8820    
  3.5824      3.4314      3.4249      3.5592      3.8323      4.2453      4.0969      4.5585      5.1478      5.8551    
  6.6603      7.5348      8.4463      9.3590      10.228      10.990      11.564      11.863      11.822      11.425    
  10.716      9.7857      8.7452      7.6964      6.7143      5.8429      5.1024      4.4999      4.0377      3.7154    
  3.5311      3.4805      3.5591      3.7644      3.6913      3.9433      4.3181      4.8168      5.4347      6.1591    
  6.9707      7.8441      8.7463      9.6301      10.428      11.055      11.425      11.474      11.186      10.597    
  9.7857      8.8502      7.8827      6.9532      6.1058      5.3651      4.7441      4.2503      3.8869      3.6533    
  3.5456      3.5591      3.5591      3.6171      3.7929      4.0906      4.5132      5.0593      5.7215      6.4871    
  7.3368      8.2416      9.1552      10.009      10.716      11.186      11.352      11.186      10.716      10.009    
  9.1552      8.2416      7.3368      6.4871      5.7215      5.0593      4.5132      4.0906      3.7929      3.6171    
  3.6913      3.5591      3.5456      3.6533      3.8869      4.2503      4.7441      5.3651      6.1058      6.9532    
  7.8827      8.8502      9.7857      10.597      11.186      11.474      11.425      11.055      10.428      9.6301    
  8.7463      7.8441      6.9707      6.1591      5.4347      4.8168      4.3181      3.9433      4.0969      3.7644    
  3.5591      3.4805      3.5311      3.7154      4.0376      4.4999      5.1024      5.8429      6.7143      7.6964    
  8.7452      9.7857      10.716      11.425      11.822      11.863      11.564      10.990      10.228      9.3590    
  8.4463      7.5348      6.6603      5.8551      5.1478      4.5585      4.7993      4.2453      3.8323      3.5592    
  3.4249      3.4314      3.5824      3.8820      4.3338      4.9417      5.7089      6.6333      7.6964      8.8502    
  10.009      11.055      11.863      12.334      12.426      12.161      11.619      10.888      10.034      9.1090    
  8.1525      7.2024      6.3012      5.4899      5.8246      5.0269      4.3802      3.8914      3.5592      3.3812    
  3.3578      3.4917      3.7872      4.2499      4.8877      5.7089      6.7143      7.8827      9.1552      10.428    
  11.564      12.426      12.897      12.948      12.659      12.148      11.493      10.708      9.7938      8.7923    
  7.7585      6.7499      7.1759      6.1324      5.2280      4.4938      3.9385      3.5592      3.3512      3.3128    
  3.4459      3.7554      4.2499      4.9417      5.8429      6.9532      8.2416      9.6301      10.990      12.161    
  12.948      13.244      13.126      12.776      12.347      11.872      11.270      10.449      9.4203      8.2987    
  8.7924      7.5540      6.3945      5.3905      4.5798      3.9713      3.5592      3.3359      3.2977      3.4459    
  3.7872      4.3338      5.1024      6.1058      7.3368      8.7463      10.228      11.619      12.659      13.126    
  13.046      12.661      12.270      12.038      11.900      11.627      11.005      10.001      10.496      9.2105    
  7.8607      6.5946      5.5046      4.6334      3.9881      3.5592      3.3359      3.3128      3.4917      3.8820    
  4.4999      5.3651      6.4871      7.8441      9.3590      10.888      12.148      12.776      12.661      12.034    
  11.347      11.009      11.145      11.531      11.741      11.420      11.688      10.875      9.5283      8.0766    
  6.7199      5.5634      4.6516      3.9881      3.5592      3.3512      3.3578      3.5824      4.0376      4.7441    
  5.7215      6.9707      8.4463      10.034      11.493      12.347      12.270      11.347      10.081      9.1449    
  9.0227      9.7335      10.826      11.644      11.418      11.835      11.128      9.7269      8.1882      6.7626    
  5.5634      4.6334      3.9713      3.5592      3.3812      3.4314      3.7154      4.2503      5.0593      6.1591    
  7.5348      9.1090      10.708      11.872      12.038      11.009      9.1449      7.2561      6.2199      6.5257    
  8.0084      9.9390      9.0785      11.178      11.901      11.253      9.7944      8.1882      6.7199      5.5046    
  4.5798      3.9385      3.5592      3.4249      3.5311      3.8869      4.5132      5.4347      6.6603      8.1525    
  9.7938      11.270      11.900      11.145      9.0227      6.2199      3.8501      2.9349      3.8837      6.2753    
  4.8726      8.4568      11.027      11.918      11.253      9.7269      8.0766      6.5946      5.3905      4.4938    
  3.8914      3.5592      3.4805      3.6533      4.0906      4.8168      5.8551      7.2024      8.7923      10.449    
  11.627      11.531      9.7335      6.5257      2.9349     0.33099     -.21197      1.5434     -.67302E-01  4.0885    
  8.2304      11.027      11.901      11.128      9.5283      7.8607      6.3945      5.2280      4.3802      3.8323    
  3.5591      3.5456      3.7929      4.3181      5.1478      6.3012      7.7585      9.4203      11.005      11.741    
  10.826      8.0084      3.8837     -.21197     -2.7420     -2.6898     -4.0549     -.64141      4.0885      8.4568    
  11.178      11.835      10.875      9.2105      7.5540      6.1324      5.0269      4.2453      3.7644      3.5591    
  3.6171      3.9433      4.5585      5.4900      6.7499      8.2987      10.001      11.420      11.644      9.9390    
  6.2753      1.5434     -2.6898     -4.8398     -4.0548     -2.9484     0.53494      5.0519      9.0059      11.262    
  11.547      10.392      8.6996      7.0786      5.7129      4.6667      3.9391      3.5039      3.3359      3.4242    
  3.7754      4.4120      5.3614      6.6338      8.1846      9.8715      11.224      11.345      9.5735      5.9704    
  1.4829     -2.3481     -2.9484     -4.0548     -2.3481      1.4828      5.9703      9.5734      11.345      11.223    
  9.8715      8.1846      6.6338      5.3614      4.4119      3.7754      3.4242      3.3359      3.5039      3.9391    
  4.6667      5.7129      7.0786      8.6996      10.392      11.547      11.262      9.0060      5.0519     0.53494    
 0.63788     -2.2383     -2.6898     -.55436      3.2881      7.3597      10.289      11.383      10.798      9.2822    
  7.6362      6.1774      5.0132      4.1689      3.6272      3.3607      3.3512      3.5961      4.1103      4.9202    
  6.0491      7.4874      9.1529      10.819      11.794      11.230      8.7542      4.8131      5.3188      1.7788    
 -.34843     -.21194      2.0975      5.5993      8.9222      10.954      11.287      10.264      8.6594      7.0826    
  5.7329      4.6857      3.9492      3.5013      3.3166      3.3812      3.6968      4.2805      5.1590      6.3508    
  7.8361      9.5179      11.138      11.987      11.317      8.9063      9.4444      6.4722      3.7414      2.3750    
  2.9349      5.1341      7.9937      10.347      11.393      11.000      9.6446      8.0352      6.5507      5.3217    
  4.3941      3.7628      3.4034      3.2940      3.4249      3.8012      4.4412      5.3698      6.6001      8.1026    
  9.7713      11.339      12.135      11.536      11.839      10.249      8.0395      6.1592      5.4532      6.2199    
  8.0551      10.076      11.386      11.502      10.525      8.9932      7.4380      6.0646      4.9615      4.1505    
  3.6172      3.3376      3.2940      3.4806      3.9044      4.5838      5.5404      6.7810      8.2690      9.8948    
  11.408      12.223      12.214      12.134      11.130      9.7092      8.6040      8.3858      9.1448      10.443    
  11.565      11.906      11.271      9.9218      8.3628      6.8949      5.6446      4.6662      3.9636      3.5175    
  3.3064      3.3167      3.5457      4.0014      4.7005      5.6601      6.8812      8.3225      9.8774      11.333    
  11.103      12.065      12.309      11.882      11.170      10.685      10.760      11.347      12.046      12.345    
  11.914      10.782      9.2911      7.7870      6.4301      5.3070      4.4460      3.8393      3.4667      3.3104    
  3.3608      3.6172      4.0872      4.7843      5.7210      6.8930      8.2578      9.7171      9.4219      10.719    
  11.742      12.271      12.332      12.182      12.132      12.331      12.661      12.809      12.468      11.534    
  10.180      8.7067      7.2968      6.0639      5.0638      4.3071      3.7805      3.4657      3.3490      3.4242    
  3.6914      4.1566      4.8297      5.7184      6.8146      8.0776      7.7935      9.0102      10.202      11.240    
  11.972      12.391      12.631      12.842      13.051      13.126      12.860      12.122      10.967      9.6048    
  8.2120      6.9199      5.8121      4.9229      4.2529      3.7881      3.5136      3.4202      3.5038      3.7645    
  4.2057      4.8335      5.6517      6.6504      6.4113      7.4244      8.5088      9.5901      10.592      11.430    
  12.067      12.539      12.882      13.055      12.948      12.453      11.568      10.411      9.1253      7.8456    
  6.6787      5.6861      4.8890      4.2845      3.8610      3.6085      3.5212      3.5961      3.8323      4.2310    
  4.7950      5.5249      5.3463      6.1135      6.9952      7.9506      8.9253      9.8641      10.722      11.459    
  12.046      12.449      12.602      12.426      11.890      11.039      9.9649      8.7922      7.6381      6.5891    
  5.6924      4.9636      4.4008      3.9972      3.7473      3.6480      3.6967      3.8914      4.2310      4.7161    
  4.6022      5.1276      5.7768      6.5339      7.3703      8.2476      9.1250      9.9643      10.727      11.364    
  11.811      11.996      11.863      11.398      10.643      9.6882      8.6436      7.6098      6.6596      5.8331    
  5.1455      4.5992      4.1929      3.9255      3.7957      3.8011      3.9385      4.2056      4.1566      4.4603    
  4.8830      5.4222      6.0681      6.8014      7.5958      8.4208      9.2432      10.022      10.700      11.206    
  11.466      11.425      11.071      10.444      9.6214      8.7001      7.7683      6.8906      6.1051      5.4304    
  4.8748      4.4428      4.1372      3.9585      3.9043      3.9712      3.9880      4.0871      4.2995      4.6273    
  5.0702      5.6231      6.2736      7.0041      7.7925      8.6102      9.4162      10.151      10.740      11.104    
  11.186      10.967      10.476      9.7795      8.9636      8.1080      7.2738      6.5002      5.8106      5.2199    
  4.7389      4.3745      4.1292      4.0014      4.0871      3.9880      4.0014      4.1292      4.3745      4.7389    
  5.2199      5.8106      6.5003      7.2738      8.1080      8.9636      9.7795      10.476      10.967      11.186    
  11.104      10.740      10.151      9.4162      8.6102      7.7925      7.0041      6.2736      5.6231      5.0702    
  4.6272      4.2995      4.4603      4.1566      3.9712      3.9043      3.9585      4.1372      4.4428      4.8748    
  5.4305      6.1052      6.8906      7.7683      8.7001      9.6214      10.444      11.071      11.425      11.466    
  11.206      10.700      10.022      9.2432      8.4208      7.5958      6.8014      6.0680      5.4222      4.8830    
  5.1276      4.6022      4.2057      3.9385      3.8011      3.7957      3.9255      4.1929      4.5992      5.1455    
  5.8331      6.6596      7.6098      8.6436      9.6882      10.643      11.398      11.863      11.996      11.811    
  11.364      10.727      9.9643      9.1250      8.2475      7.3703      6.5339      5.7767      6.1135      5.3463    
  4.7162      4.2310      3.8914      3.6967      3.6480      3.7473      3.9972      4.4008      4.9636      5.6924    
  6.5891      7.6381      8.7922      9.9649      11.039      11.890      12.426      12.602      12.449      12.046    
  11.459      10.722      9.8641      8.9253      7.9506      6.9953      7.4244      6.4113      5.5249      4.7950    
  4.2310      3.8324      3.5961      3.5212      3.6086      3.8610      4.2845      4.8890      5.6861      6.6787    
  7.8456      9.1253      10.411      11.568      12.453      12.948      13.055      12.882      12.539      12.067    
  11.430      10.592      9.5901      8.5088      9.0102      7.7935      6.6504      5.6517      4.8336      4.2057    
  3.7645      3.5039      3.4202      3.5136      3.7880      4.2529      4.9229      5.8121      6.9199      8.2120    
  9.6048      10.967      12.122      12.860      13.126      13.051      12.842      12.631      12.391      11.972    
  11.240      10.202      10.719      9.4219      8.0776      6.8146      5.7184      4.8298      4.1566      3.6914    
  3.4242      3.3490      3.4657      3.7805      4.3071      5.0638      6.0639      7.2968      8.7067      10.180    
  11.534      12.468      12.809      12.661      12.331      12.132      12.182      12.332      12.271      11.742    
  12.065      11.103      9.7171      8.2578      6.8930      5.7210      4.7843      4.0871      3.6172      3.3608    
  3.3104      3.4667      3.8393      4.4460      5.3070      6.4301      7.7870      9.2911      10.782      11.914    
  12.345      12.046      11.347      10.760      10.685      11.170      11.882      12.309      12.134      12.214    
  11.333      9.8774      8.3225      6.8812      5.6601      4.7005      4.0014      3.5457      3.3166      3.3064    
  3.5175      3.9636      4.6662      5.6446      6.8949      8.3628      9.9218      11.271      11.906      11.565    
  10.443      9.1449      8.3858      8.6040      9.7093      11.130      10.249      11.839      12.223      11.408    
  9.8948      8.2689      6.7810      5.5404      4.5838      3.9044      3.4806      3.2940      3.3376      3.6172    
  4.1505      4.9615      6.0646      7.4380      8.9932      10.525      11.502      11.386      10.076      8.0551    
  6.2199      5.4532      6.1593      8.0395      6.4722      9.4444      11.536      12.135      11.339      9.7713    
  8.1026      6.6000      5.3698      4.4412      3.8011      3.4249      3.2940      3.4034      3.7628      4.3941    
  5.3217      6.5507      8.0352      9.6446      11.000      11.393      10.347      7.9937      5.1341      2.9349    
  2.3751      3.7415      1.7788      5.3188      8.9062      11.317      11.987      11.138      9.5179      7.8361    
  6.3508      5.1590      4.2805      3.6968      3.3812      3.3166      3.5013      3.9492      4.6857      5.7329    
  7.0826      8.6594      10.264      11.287      10.954      8.9222      5.5994      2.0975     -.21191     -.34840    
 -2.2383     0.63789      4.8131      8.7542      11.230      11.794      10.819      9.1529      7.4874      6.0491    
  4.9202      4.1103      3.5961      3.3512      3.3607      3.6272      4.1689      5.0132      6.1774      7.6362    
  9.2822      10.798      11.383      10.289      7.3597      3.2881     -.55433     -2.6898     -.67141E-01 0.63799    
  3.3266      6.9134      10.043      11.724      11.706      10.451      8.7601      7.1507      5.7885      4.7340    
  3.9867      3.5213      3.3128      3.3490      3.6335      4.1849      5.0294      6.1826      7.6180      9.2307    
  10.728      11.378      10.515      8.0358      4.6096      1.4829     0.53505     -.64124     0.53505      3.5705    
  7.2384      10.187      11.552      11.252      9.8666      8.2001      6.6672      5.4020      4.4480      3.7963    
  3.4203      3.2977      3.4203      3.7963      4.4480      5.4020      6.6672      8.2001      9.8666      11.252    
  11.552      10.187      7.2384      3.5705      3.3266     0.63799     -.67138E-01  1.4829      4.6096      8.0358    
  10.515      11.378      10.728      9.2307      7.6181      6.1826      5.0294      4.1849      3.6335      3.3490    
  3.3128      3.5213      3.9867      4.7340      5.7885      7.1507      8.7601      10.451      11.706      11.724    
  10.043      6.9134      7.1650      3.9452      1.7789      1.5436      3.2882      6.2149      9.0971      10.881    
  11.136      10.134      8.5784      7.0426      5.7202      4.6877      3.9561      3.5051      3.3104      3.3578    
  3.6480      4.1967      5.0299      6.1697      7.6075      9.2671      10.955      12.097      11.948      10.178    
  10.603      7.9631      5.3136      3.7415      3.8837      5.5994      8.0549      10.167      11.136      10.775    
  9.4888      7.9393      6.4995      5.3004      4.3915      3.7710      3.4163      3.3064      3.4314      3.7957    
  4.4172      5.3212      6.5250      8.0107      9.6896      11.351      12.419      12.240      12.567      11.243    
  9.1501      7.1673      6.1593      6.5257      7.9937      9.7785      11.010      11.167      10.282      8.8322    
  7.3390      6.0109      4.9398      4.1522      3.6368      3.3710      3.3376      3.5311      3.9585      4.6380    
  5.5925      6.8335      8.3340      9.9977      11.614      12.653      12.763      12.857      11.954      10.481    
  9.1556      8.6040      9.0227      10.076      11.099      11.471      10.936      9.6910      8.2088      6.8006    
  5.5951      4.6516      3.9783      3.5583      3.3710      3.4033      3.6533      4.1292      4.8478      5.8281    
  7.0748      8.5540      10.166      11.719      11.645      12.706      13.017      12.561      11.687      10.927    
  10.685      11.008      11.565      11.855      11.506      10.482      9.0795      7.6455      6.3446      5.2668    
  4.4450      3.8750      3.5379      3.4163      3.5012      3.7929      4.2995      5.0350      6.0130      7.2318    
  8.6527      10.179      10.031      11.387      12.451      12.963      12.910      12.542      12.208      12.132    
  12.270      12.345      12.034      11.185      9.9151      8.5138      7.1673      5.9884      5.0364      4.3257    
  3.8448      3.5757      3.5050      3.6271      3.9434      4.4603      5.1880      6.1343      7.2920      8.6205    
  8.4578      9.7305      10.956      11.990      12.649      12.908      12.913      12.860      12.842      12.776    
  12.468      11.760      10.662      9.3600      8.0305      6.7979      5.7458      4.9112      4.2965      3.8877    
  3.6698      3.6334      3.7754      4.0969      4.6022      5.2966      6.1828      7.2496      7.1068      8.1761    
  9.2986      10.387      11.350      12.083      12.543      12.788      12.898      12.881      12.658      12.122    
  11.242      10.118      8.8841      7.6633      6.5574      5.6273      4.8950      4.3574      4.0016      3.8165    
  3.7962      3.9390      4.2453      4.7162      5.3530      6.1542      6.0503      6.8741      7.7961      8.7671    
  9.7222      10.595      11.331      11.891      12.268      12.465      12.449      12.161      11.568      10.706    
  9.6588      8.5347      7.4418      6.4616      5.6394      4.9891      4.5066      4.1826      4.0103      3.9866    
  4.1102      4.3802      4.7950      5.3531      5.2967      5.8785      6.5686      7.3455      8.1735      9.0061    
  9.7952      10.500      11.089      11.531      11.788      11.811      11.564      11.039      10.272      9.3431    
  8.3510      7.3881      6.5208      5.7849      5.1919      4.7403      4.4254      4.2446      4.1967      4.2805    
  4.4938      4.8336      4.8298      5.1882      5.6512      6.2119      6.8553      7.5570      8.2849      9.0047    
  9.6834      10.287      10.776      11.100      11.206      11.055      10.643      10.006      9.2164      8.3597    
  7.5149      6.7387      6.0626      5.4995      5.0526      4.7227      4.5107      4.4172      4.4412      4.5798    
  4.6334      4.7844      5.0351      5.3842      5.8276      6.3562      6.9540      7.5999      8.2697      8.9366    
  9.5670      10.116      10.526      10.740      10.716      10.444      9.9533      9.3045      8.5719      7.8240    
  7.1119      6.4665      5.9045      5.4350      5.0647      4.7982      4.6381      4.5838      4.7005      4.6516    
  4.7005      4.8479      5.0944      5.4385      5.8753      6.3951      6.9850      7.6289      8.3054      8.9820    
  9.6109      10.130      10.476      10.597      10.476      10.130      9.6109      8.9820      8.3054      7.6289    
  6.9850      6.3951      5.8753      5.4385      5.0944      4.8479      5.0352      4.7844      4.6334      4.5838    
  4.6381      4.7982      5.0647      5.4350      5.9045      6.4665      7.1119      7.8240      8.5719      9.3045    
  9.9533      10.444      10.716      10.740      10.526      10.116      9.5670      8.9367      8.2697      7.5998    
  6.9539      6.3562      5.8276      5.3842      5.6512      5.1882      4.8298      4.5798      4.4412      4.4172    
  4.5107      4.7227      5.0526      5.4995      6.0626      6.7387      7.5149      8.3597      9.2164      10.006    
  10.643      11.055      11.206      11.100      10.776      10.287      9.6834      9.0047      8.2849      7.5570    
  6.8553      6.2119      6.5686      5.8785      5.2967      4.8336      4.4938      4.2805      4.1967      4.2446    
  4.4254      4.7403      5.1919      5.7849      6.5208      7.3881      8.3511      9.3431      10.272      11.039    
  11.564      11.811      11.787      11.531      11.089      10.500      9.7953      9.0061      8.1735      7.3455    
  7.7961      6.8741      6.0503      5.3531      4.7950      4.3801      4.1102      3.9866      4.0103      4.1826    
  4.5066      4.9891      5.6394      6.4616      7.4418      8.5347      9.6588      10.706      11.568      12.161    
  12.449      12.465      12.268      11.891      11.331      10.595      9.7222      8.7671      9.2986      8.1761    
  7.1068      6.1542      5.3530      4.7161      4.2453      3.9390      3.7962      3.8165      4.0016      4.3574    
  4.8950      5.6273      6.5574      7.6633      8.8841      10.118      11.242      12.122      12.658      12.881    
  12.898      12.788      12.543      12.083      11.350      10.388      10.956      9.7305      8.4578      7.2495    
  6.1828      5.2966      4.6021      4.0969      3.7754      3.6334      3.6698      3.8877      4.2965      4.9112    
  5.7458      6.7979      8.0305      9.3600      10.662      11.760      12.468      12.776      12.842      12.860    
  12.913      12.908      12.649      11.990      12.451      11.387      10.031      8.6204      7.2920      6.1343    
  5.1880      4.4603      3.9433      3.6271      3.5050      3.5757      3.8448      4.3257      5.0364      5.9884    
  7.1673      8.5138      9.9151      11.185      12.034      12.345      12.270      12.132      12.208      12.542    
  12.910      12.963      13.017      12.706      11.645      10.179      8.6527      7.2318      6.0130      5.0350    
  4.2995      3.7929      3.5012      3.4162      3.5379      3.8750      4.4450      5.2668      6.3446      7.6455    
  9.0795      10.482      11.506      11.855      11.565      11.008      10.685      10.927      11.687      12.561    
  11.954      12.857      12.763      11.719      10.166      8.5539      7.0748      5.8281      4.8478      4.1292    
  3.6533      3.4033      3.3709      3.5583      3.9783      4.6516      5.5951      6.8006      8.2088      9.6910    
  10.936      11.471      11.099      10.076      9.0227      8.6040      9.1556      10.481      9.1501      11.243    
  12.567      12.653      11.614      9.9977      8.3340      6.8335      5.5924      4.6380      3.9585      3.5311    
  3.3376      3.3710      3.6368      4.1522      4.9398      6.0109      7.3390      8.8322      10.282      11.167    
  11.010      9.7785      7.9937      6.5257      6.1593      7.1673      5.3136      7.9631      10.603      12.240    
  12.419      11.351      9.6896      8.0107      6.5250      5.3211      4.4172      3.7958      3.4314      3.3064    
  3.4163      3.7710      4.3915      5.3004      6.4995      7.9393      9.4888      10.775      11.136      10.167    
  8.0549      5.5994      3.8837      3.7415      1.7789      3.9452      7.1650      10.178      11.948      12.097    
  10.955      9.2671      7.6075      6.1697      5.0298      4.1967      3.6480      3.3578      3.3104      3.5051    
  3.9561      4.6877      5.7202      7.0426      8.5784      10.134      11.136      10.881      9.0971      6.2150    
  3.2882      1.5436      4.8727      5.3189      7.1650      9.6171      11.647      12.503      12.026      10.626    
  8.9589      7.3891      6.0538      5.0059      4.2446      3.7473      3.4917      3.4656      3.6699      4.1177    
  4.8312      5.8283      7.0981      8.5701      10.082      11.180      11.260      10.090      8.0358      5.9704    
  5.0520      4.0886      4.8132      6.9134      9.4653      11.414      12.084      11.435      9.9711      8.3441    
  6.8537      5.6168      4.6717      4.0104      3.6086      3.4459      3.5136      3.8165      4.3718      5.2034    
  6.3252      7.7133      9.2733      10.780      11.650      11.309      9.6580      7.2384      6.9134      4.8132    
  4.0886      5.0520      7.2384      9.6580      11.309      11.650      10.780      9.2733      7.7133      6.3252    
  5.2034      4.3718      3.8165      3.5136      3.4459      3.6086      4.0104      4.6718      5.6167      6.8537    
  8.3441      9.9711      11.435      12.084      11.414      9.4653      9.6171      7.1650      5.3189      4.8727    
  5.9704      8.0358      10.090      11.260      11.180      10.082      8.5701      7.0981      5.8283      4.8312    