unknown system                          
   1.00000000000000     
    -2.450000    2.450000    1.274000
     2.450000   -2.450000    1.274000
     2.450000    2.450000   -1.274000
   Si
     2
Direct
  0.250000  0.750000  0.500000
  0.000000  0.000000  0.000000
 
   28   28   28
 -.55847244348E+01 -.40548909846E+01 -.67301997132E-01 0.48725665581E+01 0.90784592629E+01
 0.11418449042E+02 0.11688270306E+02 0.10495909312E+02 0.87923678942E+01 0.71759320230E+01
 0.58246497506E+01 0.47992734906E+01 0.40969248372E+01 0.36913440242E+01 0.35590747270E+01
 0.36913347398E+01 0.40969286714E+01 0.47992928245E+01 0.58246612955E+01 0.71759269172E+01
 0.87923631454E+01 0.10495914808E+02 0.11688276281E+02 0.11418450474E+02 0.90784624648E+01
 0.48725682983E+01 -.67312410884E-01 -.40549062136E+01 -.40549062136E+01 -.48398286600E+01
 -.26898278968E+01 0.15434418178E+01 0.62752974163E+01 0.99390016496E+01 0.11643621544E+02
 0.11419849550E+02 0.10001441929E+02 0.82987168797E+01 0.67498752731E+01 0.54899427258E+01
 0.45585086831E+01 0.39433452975E+01 0.36170841955E+01 0.35590851384E+01 0.37644095384E+01
 0.42453214333E+01 0.50268910121E+01 0.61324338204E+01 0.75539808074E+01 0.92105195424E+01
 0.10875188696E+02 0.11835416757E+02 0.11178255330E+02 0.84567955151E+01 0.40884721347E+01
 -.64142713393E+00 -.67312410884E-01 -.26898368478E+01 -.27420126273E+01 -.21196822035E+00
 0.38836635356E+01 0.80083639579E+01 0.10826480030E+02 0.11741238905E+02 0.11005026459E+02
 0.94202779668E+01 0.77585054939E+01 0.63011980735E+01 0.51477944557E+01 0.43180998441E+01
 0.37929165461E+01 0.35455926740E+01 0.35591180031E+01 0.38323299295E+01 0.43801760745E+01
 0.52279646808E+01 0.63945252484E+01 0.78606632380E+01 0.95283246019E+01 0.11127879287E+02
 0.11900592078E+02 0.11027123663E+02 0.82304059660E+01 0.40884721347E+01 0.48725682983E+01
 0.15434373856E+01 -.21196684055E+00 0.33098869184E+00 0.29348835246E+01 0.65256946911E+01
 0.97335290142E+01 0.11531011522E+02 0.11626529758E+02 0.10448923190E+02 0.87922727123E+01
 0.72023918385E+01 0.58551084830E+01 0.48167846932E+01 0.40906339153E+01 0.36533231545E+01
 0.34805039831E+01 0.35591603605E+01 0.38914154030E+01 0.44938152937E+01 0.53904478884E+01
 0.65945563496E+01 0.80766383561E+01 0.97268618988E+01 0.11253172734E+02 0.11917875351E+02
 0.11027123663E+02 0.84567955151E+01 0.90784624648E+01 0.62752949990E+01 0.38836667266E+01
 0.29348956248E+01 0.38500612363E+01 0.62199092201E+01 0.90227092695E+01 0.11144902089E+02
 0.11899526117E+02 0.11269981500E+02 0.97937747560E+01 0.81525074430E+01 0.66602726137E+01
 0.54346527998E+01 0.45132175661E+01 0.38869054872E+01 0.35310998454E+01 0.34249081436E+01
 0.35591982461E+01 0.39385377133E+01 0.45798056627E+01 0.55045265693E+01 0.67198837995E+01
 0.81881781090E+01 0.97943685427E+01 0.11253172734E+02 0.11900592078E+02 0.11178255330E+02
 0.11418450474E+02 0.99389978420E+01 0.80083573812E+01 0.65257044726E+01 0.62199286573E+01
 0.72560978843E+01 0.91448750597E+01 0.11008551677E+02 0.12037906435E+02 0.11872335767E+02
 0.10707936757E+02 0.91090131244E+01 0.75348430658E+01 0.61591250857E+01 0.50592728667E+01
 0.42502567873E+01 0.37154295984E+01 0.34313674763E+01 0.33812288671E+01 0.35592236607E+01
 0.39712909979E+01 0.46333557821E+01 0.55633282508E+01 0.67625615790E+01 0.81881781090E+01
 0.97268618988E+01 0.11127879287E+02 0.11835416757E+02 0.11688276281E+02 0.11643627537E+02
 0.10826470546E+02 0.97335198004E+01 0.90227223290E+01 0.91448959638E+01 0.10080542465E+02
 0.11347106627E+02 0.12270095387E+02 0.12347429231E+02 0.11492504202E+02 0.10033814209E+02
 0.84463371534E+01 0.69706766329E+01 0.57215384171E+01 0.47440948781E+01 0.40376507273E+01
 0.35823609174E+01 0.33578061416E+01 0.33512029610E+01 0.35592363353E+01 0.39880672232E+01
 0.46515338495E+01 0.55633282508E+01 0.67198837995E+01 0.80766383561E+01 0.95283246019E+01
 0.10875188696E+02 0.10495914808E+02 0.11419868683E+02 0.11741248548E+02 0.11530999799E+02
 0.11144892692E+02 0.11008563695E+02 0.11347122842E+02 0.12034347709E+02 0.12660852536E+02
 0.12775882725E+02 0.12147884617E+02 0.10887665342E+02 0.93590212629E+01 0.78440880734E+01
 0.64870906004E+01 0.53650774403E+01 0.44999368781E+01 0.38819777433E+01 0.34917392238E+01
 0.33128016940E+01 0.33359274054E+01 0.35592398863E+01 0.39880672232E+01 0.46333557821E+01
 0.55045265693E+01 0.65945563496E+01 0.78606632380E+01 0.92105195424E+01 0.87923631454E+01
 0.10001454675E+02 0.11005052534E+02 0.11626541148E+02 0.11899516354E+02 0.12037899350E+02
 0.12270102692E+02 0.12660859859E+02 0.13045774175E+02 0.13125845254E+02 0.12658559811E+02
 0.11619299065E+02 0.10227980552E+02 0.87463204995E+01 0.73368434484E+01 0.61058190704E+01
 0.51023789753E+01 0.43338482886E+01 0.37872214409E+01 0.34459048182E+01 0.32976625968E+01
 0.33359274054E+01 0.35592363353E+01 0.39712909979E+01 0.45798056627E+01 0.53904478884E+01
 0.63945252484E+01 0.75539808074E+01 0.71759269172E+01 0.82987117918E+01 0.94202923844E+01
 0.10448948144E+02 0.11269992360E+02 0.11872331262E+02 0.12347426136E+02 0.12775883654E+02
 0.13125842808E+02 0.13243549781E+02 0.12947551945E+02 0.12161416275E+02 0.10990416068E+02
 0.96301019346E+01 0.82416246573E+01 0.69531992846E+01 0.58429229933E+01 0.49417108770E+01
 0.42498958735E+01 0.37554295264E+01 0.34459048182E+01 0.33128016940E+01 0.33512029610E+01
 0.35592236607E+01 0.39385377133E+01 0.44938152937E+01 0.52279646808E+01 0.61324338204E+01
 0.58246612955E+01 0.67498714580E+01 0.77585008475E+01 0.87922832424E+01 0.97937916636E+01
 0.10707945010E+02 0.11492506045E+02 0.12147885881E+02 0.12658555202E+02 0.12947542128E+02
 0.12896992031E+02 0.12425670572E+02 0.11564355621E+02 0.10427990805E+02 0.91551578204E+01
 0.78827470709E+01 0.67143479392E+01 0.57088940876E+01 0.48876669857E+01 0.42498958735E+01
 0.37872214409E+01 0.34917392238E+01 0.33578061416E+01 0.33812288671E+01 0.35591982461E+01
 0.38914154030E+01 0.43801760745E+01 0.50268910121E+01 0.47992928245E+01 0.54899571104E+01
 0.63011977493E+01 0.72023883992E+01 0.81525107604E+01 0.91090185119E+01 0.10033818359E+02
 0.10887672046E+02 0.11619303811E+02 0.12161408870E+02 0.12425657636E+02 0.12333826615E+02
 0.11862936199E+02 0.11055046751E+02 0.10008924680E+02 0.88502121477E+01 0.76964095359E+01
 0.66332741156E+01 0.57088940876E+01 0.49417108770E+01 0.43338482886E+01 0.38819777433E+01
 0.35823609174E+01 0.34313674763E+01 0.34249081436E+01 0.35591603605E+01 0.38323299295E+01
 0.42453214333E+01 0.40969286714E+01 0.45585254489E+01 0.51478087400E+01 0.58551124240E+01
 0.66602709655E+01 0.75348393076E+01 0.84463317791E+01 0.93590205598E+01 0.10227988827E+02
 0.10990422706E+02 0.11564348651E+02 0.11862924158E+02 0.11821642454E+02 0.11424798262E+02
 0.10715863713E+02 0.97856779623E+01 0.87451540654E+01 0.76964095359E+01 0.67143479392E+01
 0.58429229933E+01 0.51023789753E+01 0.44999368781E+01 0.40376507273E+01 0.37154295984E+01
 0.35310998454E+01 0.34805039831E+01 0.35591180031E+01 0.37644095384E+01 0.36913347398E+01
 0.39433446474E+01 0.43181095508E+01 0.48167963077E+01 0.54346598183E+01 0.61591255886E+01
 0.69706691370E+01 0.78440759571E+01 0.87463149292E+01 0.96301082265E+01 0.10427997766E+02
 0.11055042387E+02 0.11424789127E+02 0.11474268448E+02 0.11186256352E+02 0.10597053049E+02
 0.97856779623E+01 0.88502121477E+01 0.78827470709E+01 0.69531992846E+01 0.61058190704E+01
 0.53650774403E+01 0.47440948781E+01 0.42502567873E+01 0.38869054872E+01 0.36533231545E+01
 0.35455926740E+01 0.35590851384E+01 0.35590747270E+01 0.36170773513E+01 0.37929113752E+01
 0.40906359556E+01 0.45132246249E+01 0.50592802031E+01 0.57215412419E+01 0.64870842139E+01
 0.73368296419E+01 0.82416148125E+01 0.91551599520E+01 0.10008931045E+02 0.10715862151E+02
 0.11186249549E+02 0.11351619173E+02 0.11186256352E+02 0.10715863713E+02 0.10008924680E+02
 0.91551578204E+01 0.82416246573E+01 0.73368434484E+01 0.64870906004E+01 0.57215384171E+01
 0.50592728667E+01 0.45132175661E+01 0.40906339153E+01 0.37929165461E+01 0.36170841955E+01
 0.36913440242E+01 0.35590912911E+01 0.35455896248E+01 0.36533168312E+01 0.38869027661E+01
 0.42502582756E+01 0.47440993499E+01 0.53650825422E+01 0.61058177636E+01 0.69531874768E+01
 0.78827340286E+01 0.88502102960E+01 0.97856837108E+01 0.10597052664E+02 0.11186249549E+02
 0.11474268448E+02 0.11424798262E+02 0.11055046751E+02 0.10427990805E+02 0.96301019346E+01
 0.87463204995E+01 0.78440880734E+01 0.69706766329E+01 0.61591250857E+01 0.54346527998E+01
 0.48167846932E+01 0.43180998441E+01 0.39433452975E+01 0.40969248372E+01 0.37644197901E+01
 0.35591281662E+01 0.34805058788E+01 0.35310977642E+01 0.37154267458E+01 0.40376465509E+01
 0.44999362502E+01 0.51023860102E+01 0.58429279529E+01 0.67143390663E+01 0.76963947696E+01
 0.87451505910E+01 0.97856837108E+01 0.10715862151E+02 0.11424789127E+02 0.11821642454E+02
 0.11862936199E+02 0.11564355621E+02 0.10990416068E+02 0.10227980552E+02 0.93590212629E+01
 0.84463371534E+01 0.75348430658E+01 0.66602726137E+01 0.58551084830E+01 0.51477944557E+01
 0.45585086831E+01 0.47992734906E+01 0.42453164245E+01 0.38323397546E+01 0.35591712388E+01
 0.34249157609E+01 0.34313746013E+01 0.35823618815E+01 0.38819686736E+01 0.43338422974E+01
 0.49417191972E+01 0.57089032435E+01 0.66332665606E+01 0.76963947696E+01 0.88502102960E+01
 0.10008931045E+02 0.11055042387E+02 0.11862924158E+02 0.12333826615E+02 0.12425670572E+02
 0.12161416275E+02 0.11619299065E+02 0.10887665342E+02 0.10033814209E+02 0.91090131244E+01
 0.81525074430E+01 0.72023918385E+01 0.63011980735E+01 0.54899427258E+01 0.58246497506E+01
 0.50268762127E+01 0.43801749516E+01 0.38914237538E+01 0.35592068007E+01 0.33812422484E+01
 0.33578245313E+01 0.34917453957E+01 0.37872090254E+01 0.42498864668E+01 0.48876757533E+01
 0.57089032435E+01 0.67143390663E+01 0.78827340286E+01 0.91551599520E+01 0.10427997766E+02
 0.11564348651E+02 0.12425657636E+02 0.12896992031E+02 0.12947551945E+02 0.12658559811E+02
 0.12147884617E+02 0.11492504202E+02 0.10707936757E+02 0.97937747560E+01 0.87922727123E+01
 0.77585054939E+01 0.67498752731E+01 0.71759320230E+01 0.61324279004E+01 0.52279615384E+01
 0.44938225333E+01 0.39385440798E+01 0.35592282928E+01 0.33512210866E+01 0.33128292466E+01
 0.34459145739E+01 0.37554159160E+01 0.42498864668E+01 0.49417191972E+01 0.58429279529E+01
 0.69531874768E+01 0.82416148125E+01 0.96301082265E+01 0.10990422706E+02 0.12161408870E+02
 0.12947542128E+02 0.13243549781E+02 0.13125845254E+02 0.12775882725E+02 0.12347429231E+02
 0.11872335767E+02 0.11269981500E+02 0.10448923190E+02 0.94202779668E+01 0.82987168797E+01
 0.87923678942E+01 0.75539846731E+01 0.63945267944E+01 0.53904605694E+01 0.45798230030E+01
 0.39712954963E+01 0.35592374411E+01 0.33359482151E+01 0.32976936628E+01 0.34459145739E+01
 0.37872090254E+01 0.43338422974E+01 0.51023860102E+01 0.61058177636E+01 0.73368296419E+01
 0.87463149292E+01 0.10227988827E+02 0.11619303811E+02 0.12658555202E+02 0.13125842808E+02
 0.13045774175E+02 0.12660852536E+02 0.12270095387E+02 0.12037906435E+02 0.11899526117E+02
 0.11626529758E+02 0.11005026459E+02 0.10001441929E+02 0.10495909312E+02 0.92105233513E+01
 0.78606640848E+01 0.65945654673E+01 0.55045542445E+01 0.46333812554E+01 0.39880705827E+01
 0.35592395880E+01 0.33359482151E+01 0.33128292466E+01 0.34917453957E+01 0.38819686736E+01
 0.44999362502E+01 0.53650825422E+01 0.64870842139E+01 0.78440759571E+01 0.93590205598E+01
 0.10887672046E+02 0.12147885881E+02 0.12775883654E+02 0.12660859859E+02 0.12034347709E+02
 0.11347106627E+02 0.11008551677E+02 0.11144902089E+02 0.11531011522E+02 0.11741238905E+02
 0.11419849550E+02 0.11688270306E+02 0.10875193750E+02 0.95283272076E+01 0.80766358381E+01
 0.67198985498E+01 0.55633650013E+01 0.46515624243E+01 0.39880705827E+01 0.35592374411E+01
 0.33512210866E+01 0.33578245313E+01 0.35823618815E+01 0.40376465509E+01 0.47440993499E+01
 0.57215412419E+01 0.69706691370E+01 0.84463317791E+01 0.10033818359E+02 0.11492506045E+02
 0.12347426136E+02 0.12270102692E+02 0.11347122842E+02 0.10080542465E+02 0.91448750597E+01
 0.90227092695E+01 0.97335290142E+01 0.10826480030E+02 0.11643621544E+02 0.11418449042E+02
 0.11835425852E+02 0.11127894510E+02 0.97268634878E+01 0.81881734113E+01 0.67625784084E+01
 0.55633650013E+01 0.46333812554E+01 0.39712954963E+01 0.35592282928E+01 0.33812422484E+01
 0.34313746013E+01 0.37154267458E+01 0.42502582756E+01 0.50592802031E+01 0.61591255886E+01
 0.75348393076E+01 0.91090185119E+01 0.10707945010E+02 0.11872331262E+02 0.12037899350E+02
 0.11008563695E+02 0.91448959638E+01 0.72560978843E+01 0.62199092201E+01 0.65256946911E+01
 0.80083639579E+01 0.99390016496E+01 0.90784592629E+01 0.11178258016E+02 0.11900612982E+02
 0.11253194133E+02 0.97943697313E+01 0.81881734113E+01 0.67198985498E+01 0.55045542445E+01
 0.45798230030E+01 0.39385440798E+01 0.35592068007E+01 0.34249157609E+01 0.35310977642E+01
 0.38869027661E+01 0.45132246249E+01 0.54346598183E+01 0.66602709655E+01 0.81525107604E+01
 0.97937916636E+01 0.11269992360E+02 0.11899516354E+02 0.11144892692E+02 0.90227223290E+01
 0.62199286573E+01 0.38500612363E+01 0.29348835246E+01 0.38836635356E+01 0.62752974163E+01
 0.48725665581E+01 0.84567866246E+01 0.11027128773E+02 0.11917900707E+02 0.11253194133E+02
 0.97268634878E+01 0.80766358381E+01 0.65945654673E+01 0.53904605694E+01 0.44938225333E+01
 0.38914237538E+01 0.35591712388E+01 0.34805058788E+01 0.36533168312E+01 0.40906359556E+01
 0.48167963077E+01 0.58551124240E+01 0.72023883992E+01 0.87922832424E+01 0.10448948144E+02
 0.11626541148E+02 0.11530999799E+02 0.97335198004E+01 0.65257044726E+01 0.29348956248E+01
 0.33098869184E+00 -.21196822035E+00 0.15434418178E+01 -.67301997132E-01 0.40884678138E+01
 0.82303948968E+01 0.11027128773E+02 0.11900612982E+02 0.11127894510E+02 0.95283272076E+01
 0.78606640848E+01 0.63945267944E+01 0.52279615384E+01 0.43801749516E+01 0.38323397546E+01
 0.35591281662E+01 0.35455896248E+01 0.37929113752E+01 0.43181095508E+01 0.51478087400E+01
 0.63011977493E+01 0.77585008475E+01 0.94202923844E+01 0.11005052534E+02 0.11741248548E+02
 0.10826470546E+02 0.80083573812E+01 0.38836667266E+01 -.21196684055E+00 -.27420126273E+01
 -.26898278968E+01 -.40548909846E+01 -.64141446633E+00 0.40884678138E+01 0.84567866246E+01
 0.11178258016E+02 0.11835425852E+02 0.10875193750E+02 0.92105233513E+01 0.75539846731E+01
 0.61324279004E+01 0.50268762127E+01 0.42453164245E+01 0.37644197901E+01 0.35590912911E+01
 0.36170773513E+01 0.39433446474E+01 0.45585254489E+01 0.54899571104E+01 0.67498714580E+01
 0.82987117918E+01 0.10001454675E+02 0.11419868683E+02 0.11643627537E+02 0.99389978420E+01
 0.62752949990E+01 0.15434373856E+01 -.26898368478E+01 -.48398286600E+01 -.40548216887E+01
 -.29483661859E+01 0.53494307850E+00 0.50518907042E+01 0.90059456046E+01 0.11261689562E+02
 0.11547439654E+02 0.10391827640E+02 0.86995606611E+01 0.70786411946E+01 0.57129294970E+01
 0.46666900377E+01 0.39391233088E+01 0.35038723963E+01 0.33358711481E+01 0.34241580429E+01
 0.37754485216E+01 0.44119643899E+01 0.53613830205E+01 0.66337632753E+01 0.81845963584E+01
 0.98715069600E+01 0.11223503024E+02 0.11344603239E+02 0.95734592894E+01 0.59703673467E+01
 0.14828547475E+01 -.23481243179E+01 -.29483769294E+01 -.40548300547E+01 -.23481328858E+01
 0.14828350328E+01 0.59703424550E+01 0.95734406808E+01 0.11344584224E+02 0.11223475571E+02
 0.98714869769E+01 0.81846002883E+01 0.66337746164E+01 0.53613761472E+01 0.44119470687E+01
 0.37754452633E+01 0.34241658639E+01 0.33358702592E+01 0.35038681694E+01 0.39391368656E+01
 0.46667155569E+01 0.57129408831E+01 0.70786363678E+01 0.86995623818E+01 0.10391844251E+02
 0.11547459122E+02 0.11261707919E+02 0.90059682946E+01 0.50519099055E+01 0.53494476547E+00
 0.63787790209E+00 -.22383015621E+01 -.26897799299E+01 -.55436174407E+00 0.32880710063E+01
 0.73597181235E+01 0.10289012083E+02 0.11383404440E+02 0.10797927650E+02 0.92821740340E+01
 0.76362106858E+01 0.61773661314E+01 0.50131777836E+01 0.41688979193E+01 0.36271770070E+01
 0.33607430675E+01 0.33511613202E+01 0.35961463156E+01 0.41103217060E+01 0.49202178876E+01
 0.60490873812E+01 0.74874225923E+01 0.91528794015E+01 0.10818937483E+02 0.11793921819E+02
 0.11230445336E+02 0.87541990904E+01 0.48131118245E+01 0.53187999617E+01 0.17788167759E+01
 -.34843321397E+00 -.21193688773E+00 0.20974574873E+01 0.55993405218E+01 0.89222147616E+01
 0.10953691600E+02 0.11286881397E+02 0.10264062656E+02 0.86594330277E+01 0.70826468310E+01
 0.57329427508E+01 0.46857317257E+01 0.39492352116E+01 0.35012809176E+01 0.33166425665E+01
 0.33812177485E+01 0.36967735650E+01 0.42805459399E+01 0.51590051501E+01 0.63508108193E+01
 0.78360640164E+01 0.95179157416E+01 0.11138256646E+02 0.11987024111E+02 0.11317363080E+02
 0.89062543427E+01 0.94444214419E+01 0.64721929854E+01 0.37414364960E+01 0.23750314488E+01
 0.29348951981E+01 0.51340596909E+01 0.79936911256E+01 0.10347009739E+02 0.11392684683E+02
 0.11000172785E+02 0.96446209557E+01 0.80351572437E+01 0.65507364047E+01 0.53216915741E+01
 0.43941208437E+01 0.37627992839E+01 0.34034080213E+01 0.32940310727E+01 0.34249373379E+01
 0.38011550546E+01 0.44411856476E+01 0.53698264135E+01 0.66000582468E+01 0.81026178344E+01
 0.97713085289E+01 0.11338703916E+02 0.12135158479E+02 0.11535716756E+02 0.11838905779E+02
 0.10248920336E+02 0.80394556374E+01 0.61592178695E+01 0.54532176978E+01 0.62199000845E+01
 0.80550990184E+01 0.10076119801E+02 0.11385693787E+02 0.11501622714E+02 0.10524968633E+02
 0.89931559259E+01 0.74379795611E+01 0.60645872654E+01 0.49614653437E+01 0.41504596896E+01
 0.36171695620E+01 0.33376373413E+01 0.32940372755E+01 0.34805739539E+01 0.39044069414E+01
 0.45837969918E+01 0.55403878298E+01 0.67809767486E+01 0.82689559778E+01 0.98948376125E+01
 0.11408038586E+02 0.12222945592E+02 0.12214203195E+02 0.12133716121E+02 0.11130464269E+02
 0.97092120069E+01 0.86039791936E+01 0.83857624095E+01 0.91448476190E+01 0.10443391195E+02
 0.11565451774E+02 0.11906476069E+02 0.11270730720E+02 0.99217703792E+01 0.83628001759E+01
 0.68949222230E+01 0.56446180095E+01 0.46662286229E+01 0.39636159677E+01 0.35175175104E+01
 0.33063681773E+01 0.33166572245E+01 0.35456922737E+01 0.40014474110E+01 0.47004722583E+01
 0.56601190774E+01 0.68811827163E+01 0.83224930278E+01 0.98774411794E+01 0.11332708622E+02
 0.11102619764E+02 0.12065008857E+02 0.12309059724E+02 0.11881693404E+02 0.11169779034E+02
 0.10684952830E+02 0.10760047567E+02 0.11347067630E+02 0.12046177713E+02 0.12344944081E+02
 0.11914144832E+02 0.10781619044E+02 0.92910780960E+01 0.77869935363E+01 0.64301248156E+01
 0.53070391026E+01 0.44459829114E+01 0.38393126596E+01 0.34667189480E+01 0.33103710875E+01
 0.33607560277E+01 0.36171922205E+01 0.40871552181E+01 0.47842686694E+01 0.57209936729E+01
 0.68930093978E+01 0.82577795468E+01 0.97170725690E+01 0.94218775410E+01 0.10718979370E+02
 0.11742165640E+02 0.12270923797E+02 0.12332150278E+02 0.12182434544E+02 0.12131885074E+02
 0.12330525559E+02 0.12660811300E+02 0.12809185013E+02 0.12467893109E+02 0.11533808366E+02
 0.10179817249E+02 0.87066612734E+01 0.72967979908E+01 0.60638815427E+01 0.50638050593E+01
 0.43071055990E+01 0.37805299258E+01 0.34656575553E+01 0.33489596761E+01 0.34241651480E+01
 0.36914350051E+01 0.41566447480E+01 0.48297426964E+01 0.57183674186E+01 0.68145746620E+01
 0.80776416953E+01 0.77934727664E+01 0.90101546656E+01 0.10201737187E+02 0.11240376711E+02
 0.11972490735E+02 0.12391061249E+02 0.12631356098E+02 0.12841873517E+02 0.13050680159E+02
 0.13125810255E+02 0.12860205751E+02 0.12122109957E+02 0.10966782291E+02 0.96048059415E+01
 0.82119546761E+01 0.69198820757E+01 0.58120918322E+01 0.49229336493E+01 0.42529484174E+01
 0.37880584757E+01 0.35136046452E+01 0.34202146257E+01 0.35038493364E+01 0.37644718955E+01
 0.42056581986E+01 0.48335455384E+01 0.56516956471E+01 0.66504040082E+01 0.64113308056E+01
 0.74243886227E+01 0.85088227283E+01 0.95901248003E+01 0.10591875627E+02 0.11430307994E+02
 0.12066681999E+02 0.12538906566E+02 0.12881527321E+02 0.13054975666E+02 0.12947527669E+02
 0.12452983494E+02 0.11567622843E+02 0.10411389970E+02 0.91252515241E+01 0.78455558114E+01
 0.66786876324E+01 0.56860502795E+01 0.48890008997E+01 0.42844865552E+01 0.38610206717E+01
 0.36085420584E+01 0.35211797836E+01 0.35960990948E+01 0.38323412726E+01 0.42310138344E+01
 0.47949515358E+01 0.55249142217E+01 0.53462836789E+01 0.61135267551E+01 0.69952450029E+01
 0.79505661107E+01 0.89252561608E+01 0.98641183959E+01 0.10722112914E+02 0.11458572861E+02
 0.12045672210E+02 0.12449147427E+02 0.12601861042E+02 0.12425656679E+02 0.11890049593E+02
 0.11038563551E+02 0.99649227527E+01 0.87922224492E+01 0.76381473036E+01 0.65891185417E+01
 0.56924035804E+01 0.49635883387E+01 0.44007957570E+01 0.39971790953E+01 0.37473099751E+01
 0.36479624682E+01 0.36967027405E+01 0.38913754572E+01 0.42310037559E+01 0.47161492961E+01
 0.46021573525E+01 0.51276173592E+01 0.57767556096E+01 0.65338625875E+01 0.73702537009E+01
 0.82475504637E+01 0.91249764095E+01 0.99643472831E+01 0.10727003493E+02 0.11364266611E+02
 0.11811483132E+02 0.11996429696E+02 0.11862929300E+02 0.11397574027E+02 0.10642890393E+02
 0.96882472555E+01 0.86435557626E+01 0.76098074263E+01 0.66596278556E+01 0.58330933526E+01
 0.51454758940E+01 0.45991688939E+01 0.41929035044E+01 0.39255142472E+01 0.37957097299E+01
 0.38010711682E+01 0.39384569709E+01 0.42056287369E+01 0.41565982930E+01 0.44603276691E+01
 0.48829983732E+01 0.54221868827E+01 0.60680520126E+01 0.68014310435E+01 0.75957840668E+01
 0.84208255497E+01 0.92431949465E+01 0.10021541801E+02 0.10699593711E+02 0.11205738122E+02
 0.11465557877E+02 0.11424794653E+02 0.11071372334E+02 0.10443877804E+02 0.96213937341E+01
 0.87000854234E+01 0.77682720462E+01 0.68905828784E+01 0.61051461119E+01 0.54304377167E+01
 0.48747755296E+01 0.44427685918E+01 0.41372141274E+01 0.39584925311E+01 0.39043232080E+01
 0.39711857048E+01 0.39879543352E+01 0.40870959684E+01 0.42995294656E+01 0.46272542068E+01
 0.50702404481E+01 0.56230655837E+01 0.62735937012E+01 0.70040928301E+01 0.77924680102E+01
 0.86101947800E+01 0.94162313418E+01 0.10151326558E+02 0.10740009188E+02 0.11104400495E+02
 0.11186253613E+02 0.10967050808E+02 0.10475678192E+02 0.97795187151E+01 0.89635826646E+01
 0.81080308978E+01 0.72738348362E+01 0.65002401119E+01 0.58106125568E+01 0.52199116434E+01
 0.47388885843E+01 0.43745110479E+01 0.41291928622E+01 0.40013761527E+01 0.40871049685E+01
 0.39879616311E+01 0.40013815569E+01 0.41292049453E+01 0.43745275691E+01 0.47389017486E+01
 0.52199257168E+01 0.58106330011E+01 0.65002542503E+01 0.72738293300E+01 0.81080192990E+01
 0.89635874867E+01 0.97795347893E+01 0.10475683443E+02 0.10967044785E+02 0.11186252961E+02
 0.11104402973E+02 0.10739997036E+02 0.10151303089E+02 0.94162200308E+01 0.86102007651E+01
 0.77924713403E+01 0.70040819273E+01 0.62735773622E+01 0.56230504291E+01 0.50702235574E+01
 0.46272398578E+01 0.42995281034E+01 0.44603362225E+01 0.41566189043E+01 0.39712052667E+01
 0.39043423641E+01 0.39585151863E+01 0.41372312787E+01 0.44427744707E+01 0.48747838487E+01
 0.54304582894E+01 0.61051622127E+01 0.68905773527E+01 0.77682585460E+01 0.87000858309E+01
 0.96214014463E+01 0.10443873525E+02 0.11071360582E+02 0.11424792082E+02 0.11465558217E+02
 0.11205722347E+02 0.10699566275E+02 0.10021524998E+02 0.92431933241E+01 0.84208242898E+01
 0.75957766545E+01 0.68014224409E+01 0.60680411668E+01 0.54221711322E+01 0.48829886131E+01
 0.51276151979E+01 0.46021744945E+01 0.42056554858E+01 0.39384826625E+01 0.38011001944E+01
 0.37957412005E+01 0.39255309668E+01 0.41929008535E+01 0.45991693036E+01 0.51454932934E+01
 0.58331087809E+01 0.66596229511E+01 0.76097956697E+01 0.86435550890E+01 0.96882473843E+01
 0.10642875591E+02 0.11397555161E+02 0.11862923571E+02 0.11996428092E+02 0.11811467163E+02
 0.11364241009E+02 0.10726985602E+02 0.99643387987E+01 0.91249694252E+01 0.82475465015E+01
 0.73702549514E+01 0.65338599283E+01 0.57767456269E+01 0.61135254360E+01 0.53462917399E+01
 0.47161732269E+01 0.42310300533E+01 0.38913995376E+01 0.36967355792E+01 0.36479988647E+01
 0.37473249528E+01 0.39971691235E+01 0.44007892918E+01 0.49636005747E+01 0.56924147823E+01
 0.65891131074E+01 0.76381392541E+01 0.87922231158E+01 0.99649169565E+01 0.11038539965E+02
 0.11890024909E+02 0.12425647361E+02 0.12601857163E+02 0.12449134608E+02 0.12045655290E+02
 0.11458560182E+02 0.10722100835E+02 0.98641068636E+01 0.89252559109E+01 0.79505769607E+01
 0.69952512513E+01 0.74244009635E+01 0.64113383579E+01 0.55249334286E+01 0.47949797994E+01
 0.42310338454E+01 0.38323570377E+01 0.35961290305E+01 0.35212152238E+01 0.36085533267E+01
 0.38610064018E+01 0.42844767764E+01 0.48890074508E+01 0.56860539820E+01 0.66786795880E+01
 0.78455510872E+01 0.91252536821E+01 0.10411380285E+02 0.11567595497E+02 0.12452957908E+02
 0.12947516303E+02 0.13054969711E+02 0.12881520620E+02 0.12538904022E+02 0.12066680105E+02
 0.11430296865E+02 0.10591863091E+02 0.95901290010E+01 0.85088404187E+01 0.90101745923E+01
 0.77934858947E+01 0.66504178927E+01 0.56517241805E+01 0.48335748307E+01 0.42056683432E+01
 0.37644757864E+01 0.35038706853E+01 0.34202424363E+01 0.35136099195E+01 0.37880436115E+01
 0.42529396913E+01 0.49229351106E+01 0.58120864353E+01 0.69198699561E+01 0.82119511963E+01
 0.96048076473E+01 0.10966771047E+02 0.12122086377E+02 0.12860186815E+02 0.13125800370E+02
 0.13050673581E+02 0.12841875161E+02 0.12631370421E+02 0.12391072603E+02 0.11972484749E+02
 0.11240368043E+02 0.10201746633E+02 0.10718994114E+02 0.94218946010E+01 0.80776498957E+01
 0.68145904135E+01 0.57184004655E+01 0.48297689684E+01 0.41566444316E+01 0.36914275457E+01
 0.34241747323E+01 0.33489743963E+01 0.34656551743E+01 0.37805175500E+01 0.43071009737E+01
 0.50638024563E+01 0.60638681067E+01 0.72967824617E+01 0.87066568536E+01 0.10179815855E+02
 0.11533798094E+02 0.12467881098E+02 0.12809180239E+02 0.12660807305E+02 0.12330521191E+02
 0.12131896323E+02 0.12182464108E+02 0.12332173119E+02 0.12270925260E+02 0.11742165124E+02
 0.12065018239E+02 0.11102638453E+02 0.97170827493E+01 0.82577789270E+01 0.68930220500E+01
 0.57210243289E+01 0.47842877629E+01 0.40871466514E+01 0.36171774989E+01 0.33607538942E+01
 0.33103703587E+01 0.34667088037E+01 0.38393042209E+01 0.44459826625E+01 0.53070333694E+01
 0.64301071824E+01 0.77869779462E+01 0.92910719439E+01 0.10781612865E+02 0.11914137961E+02
 0.12344949010E+02 0.12046191602E+02 0.11347073302E+02 0.10760049128E+02 0.10684973823E+02
 0.11169818470E+02 0.11881722120E+02 0.12309068090E+02 0.12133728059E+02 0.12214220611E+02
 0.11332728371E+02 0.98774427938E+01 0.83224830335E+01 0.68811883976E+01 0.56601402695E+01
 0.47004809779E+01 0.40014346047E+01 0.35456760975E+01 0.33166461784E+01 0.33063535992E+01
 0.35175015673E+01 0.39636111688E+01 0.46662303027E+01 0.56446098475E+01 0.68949059519E+01
 0.83627896001E+01 0.99217636736E+01 0.11270720220E+02 0.11906474642E+02 0.11565474768E+02
 0.10443423437E+02 0.91448647403E+01 0.83857732208E+01 0.86040085592E+01 0.97092535581E+01
 0.11130491118E+02 0.10248937960E+02 0.11838916333E+02 0.12222965900E+02 0.11408055522E+02
 0.98948317050E+01 0.82689395978E+01 0.67809739132E+01 0.55403946037E+01 0.45837941723E+01
 0.39043941777E+01 0.34805613821E+01 0.32940214983E+01 0.33376140623E+01 0.36171518136E+01
 0.41504572958E+01 0.49614652046E+01 0.60645772751E+01 0.74379700028E+01 0.89931551191E+01
 0.10524964080E+02 0.11501610854E+02 0.11385699338E+02 0.10076157470E+02 0.80551443162E+01
 0.62199274152E+01 0.54532389058E+01 0.61592523090E+01 0.80394911432E+01 0.64722159683E+01
 0.94444253427E+01 0.11535721203E+02 0.12135174899E+02 0.11338714191E+02 0.97712983057E+01
 0.81026004417E+01 0.66000480572E+01 0.53698176218E+01 0.44411727378E+01 0.38011455215E+01
 0.34249308039E+01 0.32940145807E+01 0.34033832196E+01 0.37627849511E+01 0.43941198271E+01
 0.53216866048E+01 0.65507253898E+01 0.80351576575E+01 0.96446322941E+01 0.11000173496E+02
 0.11392676163E+02 0.10347023011E+02 0.79937365316E+01 0.51341090563E+01 0.29349282097E+01
 0.23750606652E+01 0.37414708015E+01 0.17788445926E+01 0.53188072084E+01 0.89062443631E+01
 0.11317358696E+02 0.11987030531E+02 0.11138257613E+02 0.95179053002E+01 0.78360512716E+01
 0.63507964983E+01 0.51589839097E+01 0.42805269554E+01 0.36967687823E+01 0.33812165759E+01
 0.33166281036E+01 0.35012616448E+01 0.39492292928E+01 0.46857320882E+01 0.57329324058E+01
 0.70826361605E+01 0.86594435790E+01 0.10264084932E+02 0.11286889403E+02 0.10953691002E+02
 0.89222351088E+01 0.55993849624E+01 0.20975006483E+01 -.21190516006E+00 -.34840200893E+00
 -.22382765975E+01 0.63789311078E+00 0.48131039329E+01 0.87541793477E+01 0.11230432403E+02
 0.11793914943E+02 0.10818928628E+02 0.91528722945E+01 0.74874183057E+01 0.60490729053E+01
 0.49201906566E+01 0.41103024207E+01 0.35961463607E+01 0.33511626930E+01 0.33607318221E+01
 0.36271681819E+01 0.41689035717E+01 0.50131806563E+01 0.61773529550E+01 0.76362023557E+01
 0.92821918217E+01 0.10797956055E+02 0.11383419425E+02 0.10289021735E+02 0.73597429870E+01
 0.32881061287E+01 -.55433350173E+00 -.26897569988E+01 -.67141102123E-01 0.63798757242E+00
 0.33265974193E+01 0.69134364716E+01 0.10043468259E+02 0.11724337191E+02 0.11706448716E+02
 0.10451314544E+02 0.87600889660E+01 0.71507494648E+01 0.57884707779E+01 0.47339778289E+01
 0.39867012856E+01 0.35212762290E+01 0.33128254501E+01 0.33490186424E+01 0.36335193969E+01
 0.41848787321E+01 0.50293625151E+01 0.61825730630E+01 0.76180493355E+01 0.92306755394E+01
 0.10727626274E+02 0.11378234432E+02 0.10514932338E+02 0.80358433894E+01 0.46096312420E+01
 0.14829403904E+01 0.53504918803E+00 -.64124196762E+00 0.53504870808E+00 0.35705015807E+01
 0.72384402233E+01 0.10187239516E+02 0.11552079123E+02 0.11251723755E+02 0.98665675343E+01
 0.82001284949E+01 0.66672320990E+01 0.54019734237E+01 0.44479656822E+01 0.37963069893E+01
 0.34203035960E+01 0.32976853661E+01 0.34202929164E+01 0.37963062871E+01 0.44479722880E+01
 0.54019615901E+01 0.66672016291E+01 0.82001110366E+01 0.98665766156E+01 0.11251736942E+02
 0.11552078735E+02 0.10187235718E+02 0.72384440518E+01 0.35705066621E+01 0.33265975232E+01
 0.63798742883E+00 -.67138373073E-01 0.14829368303E+01 0.46096196531E+01 0.80358411434E+01