    2    2   15    1
  0.1529437E+02  0.3691622E-09  0.3691622E-09  0.3691622E-09  0.5000000E-15
  1.000000000000000E-004
  CAR 
 unknown system                          
      8     28      8
 
  0.8333333E-01  0.8333333E-01  0.8333333E-01  0.3703704E-01
    1       -3.667144   1.000000
    2        3.912151   1.000000
    3        7.132689   1.000000
    4        8.647639   0.999917
    5       12.878930   0.000000
    6       13.765890   0.000000
    7       13.996311   0.000000
    8       15.818599   0.000000
 
  0.2500000E+00  0.8333333E-01  0.8333333E-01  0.7407407E-01
    1       -1.340858   1.000000
    2        4.285728   1.000000
    3        7.502949   1.000000
    4        7.985976   1.000000
    5        9.746106   0.000031
    6       12.326539   0.000000
    7       13.598250   0.000000
    8       14.384186   0.000000
 
  0.4166667E+00  0.8333333E-01  0.8333333E-01  0.3703704E-01
    1        2.198232   1.000000
    2        2.738636   1.000000
    3        6.036257   1.000000
    4        6.124171   1.000000
    5        9.589109   0.001909
    6       11.390803   0.000000
    7       13.675856   0.000000
    8       14.565284   0.000000
 
 -0.8333333E-01  0.8333333E-01  0.8333333E-01  0.1851852E-01
    1       -4.449872   1.000000
    2        4.512786   1.000000
    3        5.702746   1.000000
    4        8.259028   1.000000
    5       11.518463   0.000000
    6       14.378565   0.000000
    7       17.512486   0.000000
    8       18.258004   0.000000
 
  0.2500000E+00  0.2500000E+00  0.8333333E-01  0.3703704E-01
    1        2.101499   1.000000
    2        3.999845   1.000000
    3        4.100349   1.000000
    4        5.853890   1.000000
    5       11.000832   0.000000
    6       12.232983   0.000000
    7       13.839941   0.000000
    8       14.331666   0.000000
 
  0.4166667E+00  0.2500000E+00  0.8333333E-01  0.7407407E-01
    1       -0.050170   1.000000
    2        1.851922   1.000000
    3        7.006171   1.000000
    4        8.315379   1.000000
    5        9.980399   0.000000
    6       11.808202   0.000000
    7       13.583707   0.000000
    8       15.233216   0.000000
 
 -0.4166667E+00  0.2500000E+00  0.8333333E-01  0.3703704E-01
    1       -2.682496   1.000000
    2        1.170265   1.000000
    3        8.030651   1.000000
    4        9.857850   0.000001
    5       11.479032   0.000000
    6       12.956692   0.000000
    7       14.121508   0.000000
    8       14.338675   0.000000
 
 -0.2500000E+00  0.2500000E+00  0.8333333E-01  0.3703704E-01
    1       -3.790054   1.000000
    2        1.947508   1.000000
    3        5.967970   1.000000
    4        9.856443   0.000001
    5       11.485122   0.000000
    6       14.555289   0.000000
    7       15.384954   0.000000
    8       18.945277   0.000000
 
 -0.8333333E-01  0.2500000E+00  0.8333333E-01  0.3703704E-01
    1       -3.338743   1.000000
    2        3.657314   1.000000
    3        5.186461   1.000000
    4       10.701049   0.000000
    5       11.838838   0.000000
    6       13.272871   0.000000
    7       14.073400   0.000000
    8       15.962920   0.000000
 
  0.4166667E+00  0.4166667E+00  0.8333333E-01  0.1851852E-01
    1       -1.058733   1.000000
    2       -1.058733   1.000000
    3        9.496522   0.012606
    4        9.496529   0.012604
    5       11.389292   0.000000
    6       11.389297   0.000000
    7       13.748642   0.000000
    8       13.748651   0.000000
 
 -0.4166667E+00  0.4166667E+00  0.8333333E-01  0.3703704E-01
    1       -2.480731   1.000000
    2       -0.546517   1.000000
    3        7.191327   1.000000
    4        9.045230   0.829700
    5       11.272149   0.000000
    6       13.116467   0.000000
    7       18.300864   0.000000
    8       18.564819   0.000000
 
 -0.2500000E+00  0.4166667E+00  0.8333333E-01  0.7407407E-01
    1       -2.359301   1.000000
    2        1.432800   1.000000
    3        5.581272   1.000000
    4        9.196613   0.453245
    5       11.402169   0.000000
    6       13.500184   0.000000
    7       15.579061   0.000000
    8       16.774488   0.000000
 
 -0.8333333E-01  0.4166667E+00  0.8333333E-01  0.3703704E-01
    1       -0.697234   1.000000
    2        4.265848   1.000000
    3        5.890254   1.000000
    4        6.482560   1.000000
    5       10.092492   0.000000
    6       12.320466   0.000000
    7       13.382737   0.000000
    8       15.403560   0.000000
 
 -0.4166667E+00 -0.4166667E+00  0.8333333E-01  0.3703704E-01
    1       -0.750819   1.000000
    2       -0.746092   1.000000
    3        7.072410   1.000000
    4        7.088782   1.000000
    5       11.304681   0.000000
    6       14.527163   0.000000
    7       15.313006   0.000000
    8       15.423815   0.000000
 
 -0.2500000E+00 -0.4166667E+00  0.8333333E-01  0.7407407E-01
    1        0.574222   1.000000
    2        2.411274   1.000000
    3        5.815809   1.000000
    4        6.570615   1.000000
    5        8.253447   1.000000
    6       11.864153   0.000000
    7       15.442516   0.000000
    8       17.008033   0.000000
 
 -0.8333333E-01 -0.4166667E+00  0.8333333E-01  0.3703704E-01
    1        1.478553   1.000000
    2        3.444090   1.000000
    3        6.379873   1.000000
    4        7.618759   1.000000
    5        8.199817   1.000000
    6       10.825866   0.000000
    7       11.657346   0.000000
    8       15.715423   0.000000
 
 -0.2500000E+00 -0.2500000E+00  0.8333333E-01  0.3703704E-01
    1        1.172736   1.000000
    2        4.892120   1.000000
    3        4.936606   1.000000
    4        7.738541   1.000000
    5        8.727121   0.999318
    6       10.297394   0.000000
    7       12.682674   0.000000
    8       13.506716   0.000000
 
 -0.8333333E-01 -0.2500000E+00  0.8333333E-01  0.3703704E-01
    1       -1.992709   1.000000
    2        6.716606   1.000000
    3        7.731253   1.000000
    4        8.499160   0.999999
    5        9.891161   0.000000
    6       11.139581   0.000000
    7       12.407926   0.000000
    8       13.590538   0.000000
 
 -0.8333333E-01 -0.8333333E-01  0.8333333E-01  0.9259259E-02
    1       -3.996926   1.000000
    2        6.761923   1.000000
    3        6.831447   1.000000
    4        6.831459   1.000000
    5       11.217556   0.000000
    6       14.552531   0.000000
    7       14.833445   0.000000
    8       16.755054   0.000000
 
  0.2500000E+00  0.2500000E+00  0.2500000E+00  0.9259259E-02
    1        3.406617   1.000000
    2        3.406620   1.000000
    3        4.061801   1.000000
    4        4.061803   1.000000
    5       13.252285   0.000000
    6       13.252286   0.000000
    7       15.046083   0.000000
    8       15.046084   0.000000
 
 -0.2500000E+00  0.2500000E+00  0.2500000E+00  0.1851852E-01
    1       -3.137000   1.000000
    2        1.931714   1.000000
    3        3.633236   1.000000
    4        8.563476   0.999993
    5       12.934110   0.000000
    6       16.121929   0.000000
    7       17.362677   0.000000
    8       18.302319   0.000000
 
 -0.4166667E+00  0.4166667E+00  0.2500000E+00  0.3703704E-01
    1       -1.846430   1.000000
    2        0.024742   1.000000
    3        4.279254   1.000000
    4        6.102132   1.000000
    5       14.806731   0.000000
    6       16.263192   0.000000
    7       17.861436   0.000000
    8       18.214724   0.000000
 
 -0.2500000E+00  0.4166667E+00  0.2500000E+00  0.3703704E-01
    1       -1.399889   1.000000
    2        1.715401   1.000000
    3        3.474881   1.000000
    4        6.516409   1.000000
    5       10.859054   0.000000
    6       16.544666   0.000000
    7       17.536879   0.000000
    8       18.451150   0.000000
 
 -0.4166667E+00 -0.4166667E+00  0.2500000E+00  0.3703704E-01
    1        0.137058   1.000000
    2        0.147547   1.000000
    3        4.399912   1.000000
    4        4.404273   1.000000
    5       10.591163   0.000000
    6       17.694396   0.000000
    7       18.296175   0.000000
    8       19.047486   0.000000
 
 -0.2500000E+00 -0.4166667E+00  0.2500000E+00  0.3703704E-01
    1        1.771163   1.000000
    2        2.990673   1.000000
    3        4.752765   1.000000
    4        5.260298   1.000000
    5        6.012838   1.000000
    6       13.978670   0.000000
    7       15.408716   0.000000
    8       17.290933   0.000000
 
 -0.2500000E+00 -0.2500000E+00  0.2500000E+00  0.9259259E-02
    1        0.858131   1.000000
    2        5.780986   1.000000
    3        5.869520   1.000000
    4        7.279948   1.000000
    5        7.279953   1.000000
    6       11.585472   0.000000
    7       12.302971   0.000000
    8       12.302993   0.000000
 
 -0.4166667E+00  0.4166667E+00  0.4166667E+00  0.1851852E-01
    1       -0.627670   1.000000
    2        0.619025   1.000000
    3        2.439915   1.000000
    4        3.669523   1.000000
    5       16.272684   0.000000
    6       16.475972   0.000000
    7       19.410033   0.000000
    8       20.508342   0.000000
 
 -0.4166667E+00 -0.4166667E+00  0.4166667E+00  0.9259259E-02
    1        1.050807   1.000000
    2        1.069045   1.000000
    3        2.872105   1.000000
    4        2.872106   1.000000
    5       10.308446   0.000000
    6       19.222660   0.000000
    7       20.359826   0.000000
    8       20.359841   0.000000
