       N       E                     dE             d eps       ncg     rms          rms(c)
DAV:   1    -0.102405388677E+02   -0.10241E+02   -0.72232E-03   632   0.493E-01    0.510E-02
DAV:   2    -0.102404620788E+02    0.76789E-04   -0.14344E-04   288   0.909E-02
   1 F= -.10240462E+02 E0= -.10234766E+02  d E =-.102405E+02
