unknown system                          
   1.00000000000000     
     0.000000    2.715000    2.715000
     2.715000    0.000000    2.715000
     2.715000    2.715000    0.000000
   Si
     2
Direct
  0.500000  0.500000  0.500000
  0.750000  0.750000  0.750000
 
   36   36   36
 0.88078421540E+00 0.89712984860E+00 0.94722614816E+00 0.10341100680E+01 0.11624445448E+01
 0.13380372977E+01 0.15673062958E+01 0.18566525060E+01 0.22115542822E+01 0.26351368985E+01
 0.31260990716E+01 0.36762136431E+01 0.42680530028E+01 0.48738978236E+01 0.54567254573E+01
 0.59736566903E+01 0.63814528689E+01 0.66429604930E+01 0.67330805673E+01 0.66429502558E+01
 0.63814420446E+01 0.59736631499E+01 0.54567667625E+01 0.48739765860E+01 0.42681490841E+01
 0.36762934536E+01 0.31261367711E+01 0.26351296196E+01 0.22115196090E+01 0.18566135170E+01
 0.15672781308E+01 0.13380235532E+01 0.11624416632E+01 0.10341127682E+01 0.94723021228E+00
 0.89713255997E+00 0.89712984860E+00 0.92564014947E+00 0.98440824915E+00 0.10767248666E+01
 0.12070391605E+01 0.13804634859E+01 0.16021993655E+01 0.18768389541E+01 0.22074118407E+01
 0.25940414212E+01 0.30322156423E+01 0.35109557040E+01 0.40114760986E+01 0.45070847439E+01
 0.49649023269E+01 0.53494667713E+01 0.56276366064E+01 0.57737294733E+01 0.57737295382E+01
 0.56276395503E+01 0.53494814057E+01 0.49649395271E+01 0.45071453061E+01 0.40115420450E+01
 0.35109988870E+01 0.30322181178E+01 0.25940073037E+01 0.22073611517E+01 0.18767930558E+01
 0.16021707585E+01 0.13804534717E+01 0.12070407621E+01 0.10767285560E+01 0.98440824707E+00
 0.92563713831E+00 0.89712807223E+00 0.94722614816E+00 0.98440824915E+00 0.10487742083E+01
 0.11436229362E+01 0.12730008432E+01 0.14411954716E+01 0.16521375379E+01 0.19086749198E+01
 0.22116421490E+01 0.25586809008E+01 0.29429053265E+01 0.33517193357E+01 0.37662805942E+01
 0.41621341474E+01 0.45113107612E+01 0.47857354643E+01 0.49613100534E+01 0.50217535697E+01
 0.49613149374E+01 0.47857482483E+01 0.45113350011E+01 0.41621672218E+01 0.37663087344E+01
 0.33517238965E+01 0.29428774538E+01 0.25586291704E+01 0.22115857523E+01 0.19086313196E+01
 0.16521155755E+01 0.14411945589E+01 0.12730123604E+01 0.11436342368E+01 0.10487762538E+01
 0.98440152233E+00 0.94721890250E+00 0.93507742377E+00 0.10341100680E+01 0.10767248666E+01
 0.11436229362E+01 0.12379564595E+01 0.13632612448E+01 0.15229484474E+01 0.17197101962E+01
 0.19548173763E+01 0.22272794752E+01 0.25328874482E+01 0.28632816021E+01 0.32053325880E+01
 0.35412110871E+01 0.38494665357E+01 0.41072018318E+01 0.42930760239E+01 0.43905373396E+01
 0.43905388738E+01 0.42930814524E+01 0.41072112096E+01 0.38494749787E+01 0.35412086800E+01
 0.32053108760E+01 0.28632412902E+01 0.25328392370E+01 0.22272374953E+01 0.19547921549E+01
 0.17197060217E+01 0.15229631344E+01 0.13632858456E+01 0.12379777335E+01 0.11436306231E+01
 0.10767185064E+01 0.10340986715E+01 0.10134207617E+01 0.10134261595E+01 0.11624445448E+01
 0.12070391605E+01 0.12730008432E+01 0.13632612448E+01 0.14808120904E+01 0.16282128875E+01
 0.18070345501E+01 0.20172324509E+01 0.22564509992E+01 0.25193145871E+01 0.27968559767E+01
 0.30763258547E+01 0.33416489283E+01 0.35746985588E+01 0.37573539500E+01 0.38740343643E+01
 0.39141752171E+01 0.38740348099E+01 0.37573540221E+01 0.35746938700E+01 0.33416331015E+01
 0.30762975129E+01 0.27968225676E+01 0.25192875132E+01 0.22564381671E+01 0.20172361271E+01
 0.18070536468E+01 0.16282435452E+01 0.14808460153E+01 0.13632871787E+01 0.12730107453E+01
 0.12070334956E+01 0.11624316021E+01 0.11367606827E+01 0.11283973809E+01 0.11367705044E+01
 0.13380372977E+01 0.13804634859E+01 0.14411954716E+01 0.15229484474E+01 0.16282128875E+01
 0.17588016037E+01 0.19153673393E+01 0.20968928524E+01 0.23001680273E+01 0.25193145239E+01
 0.27454948691E+01 0.29670024454E+01 0.31699180847E+01 0.33394163573E+01 0.34616227078E+01
 0.35257038762E+01 0.35257039282E+01 0.34616216327E+01 0.33394104737E+01 0.31699037134E+01
 0.29669816630E+01 0.27454773312E+01 0.25193107958E+01 0.23001817585E+01 0.20969205923E+01
 0.19154034689E+01 0.17588400633E+01 0.16282457631E+01 0.15229678086E+01 0.14411984288E+01
 0.13804541579E+01 0.13380235225E+01 0.13113874084E+01 0.12986018687E+01 0.12986060489E+01
 0.13113985452E+01 0.15673062958E+01 0.16021993655E+01 0.16521375379E+01 0.17197101962E+01
 0.18070345501E+01 0.19153673393E+01 0.20447256810E+01 0.21935148401E+01 0.23581732994E+01
 0.25328874249E+01 0.27094932196E+01 0.28777270573E+01 0.30259641139E+01 0.31424766742E+01
 0.32170702773E+01 0.32427648084E+01 0.32170722224E+01 0.31424766776E+01 0.30259585796E+01
 0.28777179601E+01 0.27094887367E+01 0.25328959636E+01 0.23581970035E+01 0.21935492371E+01
 0.20447636093E+01 0.19154007442E+01 0.18070548692E+01 0.17197121590E+01 0.16521240484E+01
 0.16021801468E+01 0.15672904538E+01 0.15447893962E+01 0.15323548444E+01 0.15283993647E+01
 0.15323586442E+01 0.15447986313E+01 0.18566525060E+01 0.18768389541E+01 0.19086749198E+01
 0.19548173763E+01 0.20172324509E+01 0.20968928524E+01 0.21935148401E+01 0.23053193915E+01
 0.24288200920E+01 0.25586810752E+01 0.26877478184E+01 0.28073910312E+01 0.29082707666E+01
 0.29815080702E+01 0.30200776871E+01 0.30200810777E+01 0.29815152493E+01 0.29082763441E+01
 0.28073934815E+01 0.26877507494E+01 0.25586891340E+01 0.24288352045E+01 0.23053403094E+01
 0.21935373344E+01 0.20969089035E+01 0.20172324227E+01 0.19547971618E+01 0.19086415986E+01
 0.18768071520E+01 0.18566336107E+01 0.18451265883E+01 0.18394034996E+01 0.18371757748E+01
 0.18371741075E+01 0.18394014407E+01 0.18451315762E+01 0.22115542822E+01 0.22074118407E+01
 0.22116421490E+01 0.22272794752E+01 0.22564509992E+01 0.23001680273E+01 0.23581732994E+01
 0.24288200920E+01 0.25089836221E+01 0.25940416089E+01 0.26780125604E+01 0.27539686253E+01
 0.28147906573E+01 0.28542016415E+01 0.28678611878E+01 0.28542127183E+01 0.28148065356E+01
 0.27539825819E+01 0.26780210341E+01 0.25940433106E+01 0.25089791448E+01 0.24288127775E+01
 0.23581661304E+01 0.23001576899E+01 0.22564288347E+01 0.22272414719E+01 0.22115965545E+01
 0.22073745542E+01 0.22115368203E+01 0.22204406058E+01 0.22303000954E+01 0.22377671725E+01
 0.22405279437E+01 0.22377572149E+01 0.22302879929E+01 0.22204384352E+01 0.26351368985E+01
 0.25940414212E+01 0.25586809008E+01 0.25328874482E+01 0.25193145871E+01 0.25193145239E+01
 0.25328874249E+01 0.25586810752E+01 0.25940416089E+01 0.26351369324E+01 0.26772117507E+01
 0.27150488844E+01 0.27436537573E+01 0.27590620094E+01 0.27590705686E+01 0.27436751636E+01
 0.27150728349E+01 0.26772264345E+01 0.26351327698E+01 0.25940156431E+01 0.25586402502E+01
 0.25328438860E+01 0.25192745442E+01 0.25192749768E+01 0.25328448824E+01 0.25586413111E+01
 0.25940165606E+01 0.26351334342E+01 0.26772265752E+01 0.27150723607E+01 0.27436744349E+01
 0.27590699619E+01 0.27590615014E+01 0.27436532409E+01 0.27150485228E+01 0.26772116661E+01
 0.31260990716E+01 0.30322156423E+01 0.29429053265E+01 0.28632816021E+01 0.27968559767E+01
 0.27454948691E+01 0.27094932196E+01 0.26877478184E+01 0.26780125604E+01 0.26772117507E+01
 0.26818112604E+01 0.26882662462E+01 0.26935289905E+01 0.26955341864E+01 0.26935479588E+01
 0.26882945150E+01 0.26818314015E+01 0.26772050016E+01 0.26779697855E+01 0.26876776008E+01
 0.27094169221E+01 0.27454309540E+01 0.27968100509E+01 0.28632517726E+01 0.29428924040E+01
 0.30322225509E+01 0.31261233647E+01 0.32180906426E+01 0.33007283967E+01 0.33665536714E+01
 0.34090460080E+01 0.34237351992E+01 0.34090300733E+01 0.33665264711E+01 0.33006953665E+01
 0.32180576435E+01 0.36762136431E+01 0.35109557040E+01 0.33517193357E+01 0.32053325880E+01
 0.30763258547E+01 0.29670024454E+01 0.28777270573E+01 0.28073910312E+01 0.27539686253E+01
 0.27150488844E+01 0.26882662462E+01 0.26716160812E+01 0.26636665676E+01 0.26636767573E+01
 0.26716408593E+01 0.26882877515E+01 0.27150420212E+01 0.27539167913E+01 0.28073018160E+01
 0.28776296603E+01 0.29669272546E+01 0.30762870216E+01 0.32053285874E+01 0.33517434390E+01
 0.35110002670E+01 0.36762671613E+01 0.38386138952E+01 0.39875717886E+01 0.41121021533E+01
 0.42019288690E+01 0.42490421021E+01 0.42490385604E+01 0.42019179286E+01 0.41120815105E+01
 0.39875372802E+01 0.38385654497E+01 0.42680530028E+01 0.40114760986E+01 0.37662805942E+01
 0.35412110871E+01 0.33416489283E+01 0.31699180847E+01 0.30259641139E+01 0.29082707666E+01
 0.28147906573E+01 0.27436537573E+01 0.26935289905E+01 0.26636665676E+01 0.26537454288E+01
 0.26636823947E+01 0.26935462552E+01 0.27436459850E+01 0.28147353443E+01 0.29081723712E+01
 0.30258573320E+01 0.31698433800E+01 0.33416257795E+01 0.35412343300E+01 0.37663344517E+01
 0.40115441931E+01 0.42681193541E+01 0.45241007452E+01 0.47649879417E+01 0.49749559992E+01
 0.51385451006E+01 0.52426355502E+01 0.52783790500E+01 0.52426434254E+01 0.51385534886E+01
 0.49749529794E+01 0.47649628575E+01 0.45240509556E+01 0.48738978236E+01 0.45070847439E+01
 0.41621341474E+01 0.38494665357E+01 0.35746985588E+01 0.33394163573E+01 0.31424766742E+01
 0.29815080702E+01 0.28542016415E+01 0.27590620094E+01 0.26955341864E+01 0.26636767573E+01
 0.26636823947E+01 0.26955425874E+01 0.27590495542E+01 0.28541434640E+01 0.29814047819E+01
 0.31423655366E+01 0.33393459512E+01 0.35746911457E+01 0.38495088120E+01 0.41621988006E+01
 0.45071505575E+01 0.48739516580E+01 0.52473374386E+01 0.56079710593E+01 0.59340022434E+01
 0.62032330325E+01 0.63956483457E+01 0.64960000559E+01 0.64960111025E+01 0.63956756883E+01
 0.62032627307E+01 0.59340193039E+01 0.56079648507E+01 0.52473049890E+01 0.54567254573E+01
 0.49649023269E+01 0.45113107612E+01 0.41072018318E+01 0.37573539500E+01 0.34616227078E+01
 0.32170702773E+01 0.30200776871E+01 0.28678611878E+01 0.27590705686E+01 0.26935479588E+01
 0.26716408593E+01 0.26935462552E+01 0.27590495542E+01 0.28677978027E+01 0.30199699434E+01
 0.32169549359E+01 0.34615537482E+01 0.37573564642E+01 0.41072537241E+01 0.45113708570E+01
 0.49649453816E+01 0.54567472596E+01 0.59685418535E+01 0.64758330950E+01 0.69497852693E+01
 0.73599793388E+01 0.76776132333E+01 0.78788229877E+01 0.79477565646E+01 0.78788436638E+01
 0.76776474925E+01 0.73600168148E+01 0.69498157244E+01 0.64758487424E+01 0.59685393389E+01
 0.59736566903E+01 0.53494667713E+01 0.47857354643E+01 0.42930760239E+01 0.38740343643E+01
 0.35257038762E+01 0.32427648084E+01 0.30200810777E+01 0.28542127183E+01 0.27436751636E+01
 0.26882945150E+01 0.26882877515E+01 0.27436459850E+01 0.28541434640E+01 0.30199699434E+01
 0.32426464310E+01 0.35256339528E+01 0.38740411591E+01 0.42931324231E+01 0.47857875509E+01
 0.53494831310E+01 0.59736420105E+01 0.66382230111E+01 0.73141047725E+01 0.79652224758E+01
 0.85519121241E+01 0.90348321900E+01 0.93790902309E+01 0.95583401764E+01 0.95583391382E+01
 0.93790910199E+01 0.90348427344E+01 0.85519360790E+01 0.79652551124E+01 0.73141385237E+01
 0.66382520797E+01 0.63814528689E+01 0.56276366064E+01 0.49613100534E+01 0.43905373396E+01
 0.39141752171E+01 0.35257039282E+01 0.32170722224E+01 0.29815152493E+01 0.28148065356E+01
 0.27150728349E+01 0.26818314015E+01 0.27150420212E+01 0.28147353443E+01 0.29814047819E+01
 0.32169549359E+01 0.35256339528E+01 0.39141830652E+01 0.43905958449E+01 0.49613578658E+01
 0.56276351990E+01 0.63814110365E+01 0.72028358461E+01 0.80598073708E+01 0.89099723955E+01
 0.97044447694E+01 0.10392286499E+02 0.10925307975E+02 0.11263245392E+02 0.11379060011E+02
 0.11263197173E+02 0.10925242077E+02 0.10392240540E+02 0.97044370522E+01 0.89099972026E+01
 0.80598518021E+01 0.72028887983E+01 0.66429604930E+01 0.57737294733E+01 0.50217535697E+01
 0.43905388738E+01 0.38740348099E+01 0.34616216327E+01 0.31424766776E+01 0.29082763441E+01
 0.27539825819E+01 0.26772264345E+01 0.26772050016E+01 0.27539167913E+01 0.29081723712E+01
 0.31423655366E+01 0.34615537482E+01 0.38740411591E+01 0.43905958449E+01 0.50217994279E+01
 0.57737212095E+01 0.66429064426E+01 0.76122642838E+01 0.86494091036E+01 0.97080599130E+01
 0.10731734274E+02 0.11658365877E+02 0.12425241351E+02 0.12974841271E+02 0.13262118764E+02
 0.13262060720E+02 0.12974697049E+02 0.12425080723E+02 0.11658252617E+02 0.10731690727E+02
 0.97080718210E+01 0.86494553165E+01 0.76123280429E+01 0.67330805673E+01 0.57737295382E+01
 0.49613149374E+01 0.42930814524E+01 0.37573540221E+01 0.33394104737E+01 0.30259585796E+01
 0.28073934815E+01 0.26780210341E+01 0.26351327698E+01 0.26779697855E+01 0.28073018160E+01
 0.30258573320E+01 0.33393459512E+01 0.37573564642E+01 0.42931324231E+01 0.49613578658E+01
 0.57737212095E+01 0.67330273853E+01 0.78276094083E+01 0.90281234698E+01 0.10287903715E+02
 0.11546211626E+02 0.12732490747E+02 0.13770569838E+02 0.14583968984E+02 0.15103831225E+02
 0.15282495823E+02 0.15103680720E+02 0.14583731274E+02 0.13770337578E+02 0.12732333347E+02
 0.11546143360E+02 0.10287900778E+02 0.90281611475E+01 0.78276698657E+01 0.66429502558E+01
 0.56276395503E+01 0.47857482483E+01 0.41072112096E+01 0.35746938700E+01 0.31699037134E+01
 0.28777179601E+01 0.26877507494E+01 0.25940433106E+01 0.25940156431E+01 0.26876776008E+01
 0.28776296603E+01 0.31698433800E+01 0.35746911457E+01 0.41072537241E+01 0.47857875509E+01
 0.56276351990E+01 0.66429064426E+01 0.78276094083E+01 0.91587560548E+01 0.10593328644E+02
 0.12070791298E+02 0.13516728431E+02 0.14845590366E+02 0.15960175273E+02 0.16762541902E+02
 0.17181992847E+02 0.17181916266E+02 0.16762336654E+02 0.15959909199E+02 0.14845348058E+02
 0.13516565736E+02 0.12070712139E+02 0.10593308347E+02 0.91587761530E+01 0.78276563226E+01
 0.63814420446E+01 0.53494814057E+01 0.45113350011E+01 0.38494749787E+01 0.33416331015E+01
 0.29669816630E+01 0.27094887367E+01 0.25586891340E+01 0.25089791448E+01 0.25586402502E+01
 0.27094169221E+01 0.29669272546E+01 0.33416257795E+01 0.38495088120E+01 0.45113708570E+01
 0.53494831310E+01 0.63814110365E+01 0.76122642838E+01 0.90281234698E+01 0.10593328644E+02
 0.12252044066E+02 0.13931421034E+02 0.15542292010E+02 0.16967148066E+02 0.18083065174E+02
 0.18794101879E+02 0.19038295201E+02 0.18794002850E+02 0.18082882023E+02 0.16966924109E+02
 0.15542087861E+02 0.13931276077E+02 0.12251959769E+02 0.10593290484E+02 0.90281244155E+01
 0.76122949804E+01 0.59736631499E+01 0.49649395271E+01 0.41621672218E+01 0.35412086800E+01
 0.30762975129E+01 0.27454773312E+01 0.25328959636E+01 0.24288352045E+01 0.24288127775E+01
 0.25328438860E+01 0.27454309540E+01 0.30762870216E+01 0.35412343300E+01 0.41621988006E+01
 0.49649453816E+01 0.59736420105E+01 0.72028358461E+01 0.86494091036E+01 0.10287903715E+02
 0.12070791298E+02 0.13931421034E+02 0.15783616091E+02 0.17499404594E+02 0.18935071583E+02
 0.19969464527E+02 0.20511679683E+02 0.20511664512E+02 0.19969405241E+02 0.18934951456E+02
 0.17499240850E+02 0.15783453581E+02 0.13931292841E+02 0.12070704145E+02 0.10287854716E+02
 0.86493988456E+01 0.72028556776E+01 0.54567667625E+01 0.45071453061E+01 0.37663087344E+01
 0.32053108760E+01 0.27968225676E+01 0.25193107958E+01 0.23581970035E+01 0.23053403094E+01
 0.23581661304E+01 0.25192745442E+01 0.27968100509E+01 0.32053285874E+01 0.37663344517E+01
 0.45071505575E+01 0.54567472596E+01 0.66382230111E+01 0.80598073708E+01 0.97080599130E+01
 0.11546211626E+02 0.13516728431E+02 0.15542292010E+02 0.17499404594E+02 0.19229699293E+02
 0.20590416513E+02 0.21462564593E+02 0.21763356956E+02 0.21462585656E+02 0.20590409024E+02
 0.19229623115E+02 0.17499272796E+02 0.15542150903E+02 0.13516611113E+02 0.11546127738E+02
 0.97080119024E+01 0.80597984969E+01 0.66382427738E+01 0.48739765860E+01 0.40115420450E+01
 0.33517238965E+01 0.28632412902E+01 0.25192875132E+01 0.23001817585E+01 0.21935492371E+01
 0.21935373344E+01 0.23001576899E+01 0.25192749768E+01 0.28632517726E+01 0.33517434390E+01
 0.40115441931E+01 0.48739516580E+01 0.59685418535E+01 0.73141047725E+01 0.89099723955E+01
 0.10731734274E+02 0.12732490747E+02 0.14845590366E+02 0.16967148066E+02 0.18935071583E+02
 0.20590416513E+02 0.21791700665E+02 0.22425190929E+02 0.22425226379E+02 0.21791765108E+02
 0.20590431132E+02 0.18935000659E+02 0.16967022830E+02 0.14845461687E+02 0.12732385516E+02
 0.10731659921E+02 0.89099357710E+01 0.73141102994E+01 0.59685732757E+01 0.42681490841E+01
 0.35109988870E+01 0.29428774538E+01 0.25328392370E+01 0.22564381671E+01 0.20969205923E+01
 0.20447636093E+01 0.20969089035E+01 0.22564288347E+01 0.25328448824E+01 0.29428924040E+01
 0.35110002670E+01 0.42681193541E+01 0.52473374386E+01 0.64758330950E+01 0.79652224758E+01
 0.97044447694E+01 0.11658365877E+02 0.13770569838E+02 0.15960175273E+02 0.18083065174E+02
 0.19969464527E+02 0.21462564593E+02 0.22425190929E+02 0.22758352941E+02 0.22425271047E+02
 0.21462644855E+02 0.19969469153E+02 0.18082988110E+02 0.15960062199E+02 0.13770459788E+02
 0.11658274715E+02 0.97043846855E+01 0.79652090685E+01 0.64758657529E+01 0.52473866278E+01
 0.36762934536E+01 0.30322181178E+01 0.25586291704E+01 0.22272374953E+01 0.20172361271E+01
 0.19154034689E+01 0.19154007442E+01 0.20172324227E+01 0.22272414719E+01 0.25586413111E+01
 0.30322225509E+01 0.36762671613E+01 0.45241007452E+01 0.56079710593E+01 0.69497852693E+01
 0.85519121241E+01 0.10392286499E+02 0.12425241351E+02 0.14583968984E+02 0.16762541902E+02
 0.18794101879E+02 0.20511679683E+02 0.21763356956E+02 0.22425226379E+02 0.22425271047E+02
 0.21763450663E+02 0.20511744899E+02 0.18794097682E+02 0.16762483297E+02 0.14583886229E+02
 0.12425152813E+02 0.10392211800E+02 0.85518798550E+01 0.69498122642E+01 0.56080372203E+01
 0.45241618670E+01 0.31261367711E+01 0.25940073037E+01 0.22115857523E+01 0.19547921549E+01
 0.18070536468E+01 0.17588400633E+01 0.18070548692E+01 0.19547971618E+01 0.22115965545E+01
 0.25940165606E+01 0.31261233647E+01 0.38386138952E+01 0.47649879417E+01 0.59340022434E+01
 0.73599793388E+01 0.90348321900E+01 0.10925307975E+02 0.12974841271E+02 0.15103831225E+02
 0.17181992847E+02 0.19038295201E+02 0.20511664512E+02 0.21462585656E+02 0.21791765108E+02
 0.21462644855E+02 0.20511744899E+02 0.19038356010E+02 0.17182016120E+02 0.15103814681E+02
 0.12974787764E+02 0.10925238542E+02 0.90347887703E+01 0.73599982539E+01 0.59340785688E+01
 0.47650761203E+01 0.38386695688E+01 0.26351296196E+01 0.22073611517E+01 0.19086313196E+01
 0.17197060217E+01 0.16282435452E+01 0.16282457631E+01 0.17197121590E+01 0.19086415986E+01
 0.22073745542E+01 0.26351334342E+01 0.32180906426E+01 0.39875717886E+01 0.49749559992E+01
 0.62032330325E+01 0.76776132333E+01 0.93790902309E+01 0.11263245392E+02 0.13262118764E+02
 0.15282495823E+02 0.17181916266E+02 0.18794002850E+02 0.19969405241E+02 0.20590409024E+02
 0.20590431132E+02 0.19969469153E+02 0.18794097682E+02 0.17182016120E+02 0.15282563480E+02
 0.13262126076E+02 0.11263202737E+02 0.93790476133E+01 0.76776246386E+01 0.62033116575E+01
 0.49750624336E+01 0.39876523305E+01 0.32181217165E+01 0.22115196090E+01 0.18767930558E+01
 0.16521155755E+01 0.15229631344E+01 0.14808460153E+01 0.15229678086E+01 0.16521240484E+01
 0.18768071520E+01 0.22115368203E+01 0.26772265752E+01 0.33007283967E+01 0.41121021533E+01
 0.51385451006E+01 0.63956483457E+01 0.78788229877E+01 0.95583401764E+01 0.11379060011E+02
 0.13262060720E+02 0.15103680720E+02 0.16762336654E+02 0.18082882023E+02 0.18934951456E+02
 0.19229623115E+02 0.18935000659E+02 0.18082988110E+02 0.16762483297E+02 0.15103814681E+02
 0.13262126076E+02 0.11379049547E+02 0.95583040369E+01 0.78788266065E+01 0.63957202907E+01
 0.51386565560E+01 0.41121972620E+01 0.33007720300E+01 0.26772255228E+01 0.18566135170E+01
 0.16021707585E+01 0.14411945589E+01 0.13632858456E+01 0.13632871787E+01 0.14411984288E+01
 0.16021801468E+01 0.18566336107E+01 0.22204406058E+01 0.27150723607E+01 0.33665536714E+01
 0.42019288690E+01 0.52426355502E+01 0.64960000559E+01 0.79477565646E+01 0.95583391382E+01
 0.11263197173E+02 0.12974697049E+02 0.14583731274E+02 0.15959909199E+02 0.16966924109E+02
 0.17499240850E+02 0.17499272796E+02 0.16967022830E+02 0.15960062199E+02 0.14583886229E+02
 0.12974787764E+02 0.11263202737E+02 0.95583040369E+01 0.79477501781E+01 0.64960595916E+01
 0.52427412108E+01 0.42020276701E+01 0.33666038119E+01 0.27150713611E+01 0.22204166065E+01
 0.15672781308E+01 0.13804534717E+01 0.12730123604E+01 0.12379777335E+01 0.12730107453E+01
 0.13804541579E+01 0.15672904538E+01 0.18451265883E+01 0.22303000954E+01 0.27436744349E+01
 0.34090460080E+01 0.42490421021E+01 0.52783790500E+01 0.64960111025E+01 0.78788436638E+01
 0.93790910199E+01 0.10925242077E+02 0.12425080723E+02 0.13770337578E+02 0.14845348058E+02
 0.15542087861E+02 0.15783453581E+02 0.15542150903E+02 0.14845461687E+02 0.13770459788E+02
 0.12425152813E+02 0.10925238542E+02 0.93790476133E+01 0.78788266065E+01 0.64960595916E+01
 0.52784776366E+01 0.42491409418E+01 0.34091007834E+01 0.27436746938E+01 0.22302695674E+01
 0.18450976592E+01 0.13380235532E+01 0.12070407621E+01 0.11436342368E+01 0.11436306231E+01
 0.12070334956E+01 0.13380235225E+01 0.15447893962E+01 0.18394034996E+01 0.22377671725E+01
 0.27590699619E+01 0.34237351992E+01 0.42490385604E+01 0.52426434254E+01 0.63956756883E+01
 0.76776474925E+01 0.90348427344E+01 0.10392240540E+02 0.11658252617E+02 0.12732333347E+02
 0.13516565736E+02 0.13931276077E+02 0.13931292841E+02 0.13516611113E+02 0.12732385516E+02
 0.11658274715E+02 0.10392211800E+02 0.90347887703E+01 0.76776246386E+01 0.63957202907E+01
 0.52427412108E+01 0.42491409418E+01 0.34237970273E+01 0.27590758651E+01 0.22377348571E+01
 0.18393659573E+01 0.15447699925E+01 0.11624416632E+01 0.10767285560E+01 0.10487762538E+01
 0.10767185064E+01 0.11624316021E+01 0.13113874084E+01 0.15323548444E+01 0.18371757748E+01
 0.22405279437E+01 0.27590615014E+01 0.34090300733E+01 0.42019179286E+01 0.51385534886E+01
 0.62032627307E+01 0.73600168148E+01 0.85519360790E+01 0.97044370522E+01 0.10731690727E+02
 0.11546143360E+02 0.12070712139E+02 0.12251959769E+02 0.12070704145E+02 0.11546127738E+02
 0.10731659921E+02 0.97043846855E+01 0.85518798550E+01 0.73599982539E+01 0.62033116575E+01
 0.51386565560E+01 0.42020276701E+01 0.34091007834E+01 0.27590758651E+01 0.22404994221E+01
 0.18371340726E+01 0.15323267522E+01 0.13113825181E+01 0.10341127682E+01 0.98440824707E+00
 0.98440152233E+00 0.10340986715E+01 0.11367606827E+01 0.12986018687E+01 0.15283993647E+01
 0.18371741075E+01 0.22377572149E+01 0.27436532409E+01 0.33665264711E+01 0.41120815105E+01
 0.49749529794E+01 0.59340193039E+01 0.69498157244E+01 0.79652551124E+01 0.89099972026E+01
 0.97080718210E+01 0.10287900778E+02 0.10593308347E+02 0.10593290484E+02 0.10287854716E+02
 0.97080119024E+01 0.89099357710E+01 0.79652090685E+01 0.69498122642E+01 0.59340785688E+01
 0.49750624336E+01 0.41121972620E+01 0.33666038119E+01 0.27436746938E+01 0.22377348571E+01
 0.18371340726E+01 0.15283663773E+01 0.12985895799E+01 0.11367678789E+01 0.94723021228E+00
 0.92563713831E+00 0.94721890250E+00 0.10134207617E+01 0.11283973809E+01 0.12986060489E+01
 0.15323586442E+01 0.18394014407E+01 0.22302879929E+01 0.27150485228E+01 0.33006953665E+01
 0.39875372802E+01 0.47649628575E+01 0.56079648507E+01 0.64758487424E+01 0.73141385237E+01
 0.80598518021E+01 0.86494553165E+01 0.90281611475E+01 0.91587761530E+01 0.90281244155E+01
 0.86493988456E+01 0.80597984969E+01 0.73141102994E+01 0.64758657529E+01 0.56080372203E+01
 0.47650761203E+01 0.39876523305E+01 0.33007720300E+01 0.27150713611E+01 0.22302695674E+01
 0.18393659573E+01 0.15323267522E+01 0.12985895799E+01 0.11283988657E+01 0.10134334190E+01
 0.89713255997E+00 0.89712807223E+00 0.93507742377E+00 0.10134261595E+01 0.11367705044E+01
 0.13113985452E+01 0.15447986313E+01 0.18451315762E+01 0.22204384352E+01 0.26772116661E+01
 0.32180576435E+01 0.38385654497E+01 0.45240509556E+01 0.52473049890E+01 0.59685393389E+01
 0.66382520797E+01 0.72028887983E+01 0.76123280429E+01 0.78276698657E+01 0.78276563226E+01
 0.76122949804E+01 0.72028556776E+01 0.66382427738E+01 0.59685732757E+01 0.52473866278E+01
 0.45241618670E+01 0.38386695688E+01 0.32181217165E+01 0.26772255228E+01 0.22204166065E+01
 0.18450976592E+01 0.15447699925E+01 0.13113825181E+01 0.11367678789E+01 0.10134334190E+01
 0.93508730856E+00 0.89712994778E+00 0.92564015020E+00 0.98440829617E+00 0.10767249499E+01
 0.12070391599E+01 0.13804634072E+01 0.16021993288E+01 0.18768389752E+01 0.22074118427E+01
 0.25940414308E+01 0.30322157420E+01 0.35109558019E+01 0.40114759649E+01 0.45070842764E+01
 0.49649015988E+01 0.53494658713E+01 0.56276356688E+01 0.57737288255E+01 0.57737295421E+01
 0.56276402393E+01 0.53494824352E+01 0.49649404559E+01 0.45071457615E+01 0.40115417287E+01
 0.35109977393E+01 0.30322165168E+01 0.25940058798E+01 0.22073603497E+01 0.18767929899E+01
 0.16021713818E+01 0.13804546241E+01 0.12070420884E+01 0.10767296608E+01 0.98440899000E+00
 0.92563761866E+00 0.89712836227E+00 0.92564015020E+00 0.96220622122E+00 0.10254477834E+01
 0.11185561747E+01 0.12454914943E+01 0.14105090269E+01 0.16175695593E+01 0.18695937196E+01
 0.21674968806E+01 0.25089834392E+01 0.28872153214E+01 0.32896687582E+01 0.36976612719E+01
 0.40870410001E+01 0.44302967144E+01 0.46999114780E+01 0.48723319556E+01 0.49316752541E+01
 0.48723362614E+01 0.46999235619E+01 0.44303215264E+01 0.40870782508E+01 0.36976990386E+01
 0.32896877744E+01 0.28872030099E+01 0.25089435792E+01 0.21674458586E+01 0.18695494048E+01
 0.16175431691E+01 0.14105024209E+01 0.12454977664E+01 0.11185637460E+01 0.10254480405E+01
 0.96219924707E+00 0.92563320096E+00 0.91368594594E+00 0.98440829617E+00 0.10254477834E+01
 0.10897474625E+01 0.11802889887E+01 0.13005176468E+01 0.14538715762E+01 0.16431731280E+01
 0.18698683100E+01 0.21331197289E+01 0.24288200165E+01 0.27486962049E+01 0.30797858939E+01
 0.34046188955E+01 0.37023645583E+01 0.39509788136E+01 0.41300661639E+01 0.42238949312E+01
 0.42238955974E+01 0.41300697589E+01 0.39509879942E+01 0.37023783964E+01 0.34046299979E+01
 0.30797836526E+01 0.27486745022E+01 0.24287823452E+01 0.21330771862E+01 0.18698333686E+01
 0.16431544637E+01 0.14538712082E+01 0.13005297817E+01 0.11803022910E+01 0.10897518700E+01
 0.10254413242E+01 0.98439785138E+00 0.96445085474E+00 0.96445577169E+00 0.10767249499E+01
 0.11185561747E+01 0.11802889887E+01 0.12646999309E+01 0.13747699028E+01 0.15132034908E+01
 0.16818170856E+01 0.18808169904E+01 0.21080265210E+01 0.23581733364E+01 0.26224066417E+01
 0.28882531102E+01 0.31402045880E+01 0.33610325228E+01 0.35337455365E+01 0.36438930861E+01
 0.36817516649E+01 0.36438917098E+01 0.35337444657E+01 0.33610312135E+01 0.31401987633E+01
 0.28882385959E+01 0.26223837077E+01 0.23581466892E+01 0.21080023656E+01 0.18808011078E+01
 0.16818139905E+01 0.15132142231E+01 0.13747894904E+01 0.12647185997E+01 0.11802979543E+01
 0.11185532752E+01 0.10767154443E+01 0.10525681710E+01 0.10446860595E+01 0.10525758927E+01
 0.12070391599E+01 0.12454914943E+01 0.13005176468E+01 0.13747699028E+01 0.14708555906E+01
 0.15908522642E+01 0.17357313617E+01 0.19047393607E+01 0.20948172712E+01 0.23001680368E+01
 0.25121043309E+01 0.27193103907E+01 0.29086124786E+01 0.30662651108E+01 0.31796287866E+01
 0.32389649152E+01 0.32389639482E+01 0.31796260748E+01 0.30662598844E+01 0.29086023387E+01
 0.27192947799E+01 0.25120875033E+01 0.23001563944E+01 0.20948144501E+01 0.19047455941E+01
 0.17357460309E+01 0.15908738709E+01 0.14708793987E+01 0.13747886200E+01 0.13005260239E+01
 0.12454897187E+01 0.12070318751E+01 0.11828343884E+01 0.11711894939E+01 0.11711923529E+01
 0.11828415133E+01 0.13804634072E+01 0.14105090269E+01 0.14538715762E+01 0.15132034908E+01
 0.15908522642E+01 0.16884012660E+01 0.18061819002E+01 0.19428103103E+01 0.20948172616E+01
 0.22564509534E+01 0.24197415475E+01 0.25749105915E+01 0.27111731449E+01 0.28179071026E+01
 0.28860538106E+01 0.29094918606E+01 0.28860542974E+01 0.28179056792E+01 0.27111670353E+01
 0.25749002919E+01 0.24197324623E+01 0.22564499991E+01 0.20948275846E+01 0.19428301016E+01
 0.18062070823E+01 0.16884270187E+01 0.15908727929E+01 0.15132138294E+01 0.14538712355E+01
 0.14105024572E+01 0.13804560851E+01 0.13611750619E+01 0.13505427299E+01 0.13471621758E+01
 0.13505452239E+01 0.13611802246E+01 0.16021993288E+01 0.16175695593E+01 0.16431731280E+01
 0.16818170856E+01 0.17357313617E+01 0.18061819002E+01 0.18931174878E+01 0.19948814754E+01
 0.21080265091E+01 0.22272795019E+01 0.23457182634E+01 0.24552248561E+01 0.25472508861E+01
 0.26138540122E+01 0.26488542199E+01 0.26488563824E+01 0.26138579342E+01 0.25472517714E+01
 0.24552211947E+01 0.23457138150E+01 0.22272801514E+01 0.21080358515E+01 0.19948991756E+01
 0.18931398083E+01 0.18062022917E+01 0.17357421464E+01 0.16818138600E+01 0.16431589038E+01
 0.16175531982E+01 0.16021886747E+01 0.15940770712E+01 0.15904655066E+01 0.15892360349E+01
 0.15892353016E+01 0.15904648375E+01 0.15940803820E+01 0.18768389752E+01 0.18695937196E+01
 0.18698683100E+01 0.18808169904E+01 0.19047393607E+01 0.19428103103E+01 0.19948814754E+01
 0.20593520208E+01 0.21331197459E+01 0.22116422700E+01 0.22891635695E+01 0.23591707669E+01
 0.24151083859E+01 0.24512866885E+01 0.24638114504E+01 0.24512930844E+01 0.24151157590E+01
 0.23591738436E+01 0.22891613769E+01 0.22116374930E+01 0.21331163145E+01 0.20593534715E+01
 0.19948884739E+01 0.19428179251E+01 0.19047387550E+01 0.18808025565E+01 0.18698435729E+01
 0.18695692694E+01 0.18768244582E+01 0.18879491554E+01 0.18992395104E+01 0.19074835730E+01
 0.19104890635E+01 0.19074782124E+01 0.18992341044E+01 0.18879513109E+01 0.22074118427E+01
 0.21674968806E+01 0.21331197289E+01 0.21080265210E+01 0.20948172712E+01 0.20948172616E+01
 0.21080265091E+01 0.21331197459E+01 0.21674969382E+01 0.22074119185E+01 0.22482354811E+01
 0.22849125735E+01 0.23126206685E+01 0.23275384128E+01 0.23275432571E+01 0.23126316294E+01
 0.22849216956E+01 0.22482355752E+01 0.22074000655E+01 0.21674759738E+01 0.21330976283E+01
 0.21080111176E+01 0.20948091013E+01 0.20948086307E+01 0.21080099059E+01 0.21330961901E+01
 0.21674749099E+01 0.22073997924E+01 0.22482361663E+01 0.22849229138E+01 0.23126330847E+01
 0.23275445734E+01 0.23275393456E+01 0.23126211603E+01 0.22849127258E+01 0.22482354552E+01
 0.25940414308E+01 0.25089834392E+01 0.24288200165E+01 0.23581733364E+01 0.23001680368E+01
 0.22564509534E+01 0.22272795019E+01 0.22116422700E+01 0.22074119185E+01 0.22115542663E+01