   2   2   0   0
  0.2001288E+02  0.3839590E-09  0.3839590E-09  0.3839590E-09  0.5000000E-15
  1.000000000000000E-004
  CAR 
 unknown system                          
     17.19372852     -8.16661749  301      5.93333755      1.00000000
     -8.167  0.0000E+00  0.0000E+00
     -8.082  0.0000E+00  0.0000E+00
     -7.998  0.0000E+00  0.0000E+00
     -7.913  0.0000E+00  0.0000E+00
     -7.828  0.0000E+00  0.0000E+00
     -7.744  0.0000E+00  0.0000E+00
     -7.659  0.0000E+00  0.0000E+00
     -7.575  0.0000E+00  0.0000E+00
     -7.490  0.0000E+00  0.0000E+00
     -7.406  0.0000E+00  0.0000E+00
     -7.321  0.5253E-18  0.4441E-19
     -7.237  0.6129E-16  0.5225E-17
     -7.152  0.5138E-14  0.4395E-15
     -7.068  0.3046E-12  0.2618E-13
     -6.983  0.1277E-10  0.1106E-11
     -6.899  0.3803E-09  0.3325E-10
     -6.814  0.8063E-08  0.7148E-09
     -6.730  0.1224E-06  0.1106E-07
     -6.645  0.1337E-05  0.1241E-06
     -6.560  0.1060E-04  0.1020E-05
     -6.476  0.6155E-04  0.6223E-05
     -6.391  0.2649E-03  0.2862E-04
     -6.307  0.8580E-03  0.1012E-03
     -6.222  0.2136E-02  0.2817E-03
     -6.138  0.4205E-02  0.6372E-03
     -6.053  0.6815E-02  0.1213E-02
     -5.969  0.9507E-02  0.2017E-02
     -5.884  0.1192E-01  0.3024E-02
     -5.800  0.1395E-01  0.4203E-02
     -5.715  0.1577E-01  0.5536E-02
     -5.631  0.1751E-01  0.7017E-02
     -5.546  0.1900E-01  0.8623E-02
     -5.462  0.2021E-01  0.1033E-01
     -5.377  0.2155E-01  0.1215E-01
     -5.292  0.2320E-01  0.1411E-01
     -5.208  0.2476E-01  0.1621E-01
     -5.123  0.2579E-01  0.1839E-01
     -5.039  0.2645E-01  0.2062E-01
     -4.954  0.2758E-01  0.2295E-01
     -4.870  0.2967E-01  0.2546E-01
     -4.785  0.3182E-01  0.2815E-01
     -4.701  0.3283E-01  0.3093E-01
     -4.616  0.3299E-01  0.3372E-01
     -4.532  0.3381E-01  0.3657E-01
     -4.447  0.3598E-01  0.3962E-01
     -4.363  0.3876E-01  0.4289E-01
     -4.278  0.4135E-01  0.4639E-01
     -4.193  0.4372E-01  0.5008E-01
     -4.109  0.4578E-01  0.5395E-01
     -4.024  0.4757E-01  0.5797E-01
     -3.940  0.5000E-01  0.6220E-01
     -3.855  0.5383E-01  0.6675E-01
     -3.771  0.5754E-01  0.7162E-01
     -3.686  0.5850E-01  0.7656E-01
     -3.602  0.5657E-01  0.8134E-01
     -3.517  0.5379E-01  0.8589E-01
     -3.433  0.5055E-01  0.9016E-01
     -3.348  0.4629E-01  0.9408E-01
     -3.264  0.4307E-01  0.9772E-01
     -3.179  0.4360E-01  0.1014E+00
     -3.095  0.4656E-01  0.1053E+00
     -3.010  0.4736E-01  0.1093E+00
     -2.925  0.4316E-01  0.1130E+00
     -2.841  0.3555E-01  0.1160E+00
     -2.756  0.2852E-01  0.1184E+00
     -2.672  0.2527E-01  0.1205E+00
     -2.587  0.2648E-01  0.1228E+00
     -2.503  0.2977E-01  0.1253E+00
     -2.418  0.3092E-01  0.1279E+00
     -2.334  0.2712E-01  0.1302E+00
     -2.249  0.1931E-01  0.1318E+00
     -2.165  0.1093E-01  0.1328E+00
     -2.080  0.5072E-02  0.1332E+00
     -1.996  0.3069E-02  0.1335E+00
     -1.911  0.5422E-02  0.1339E+00
     -1.827  0.1233E-01  0.1350E+00
     -1.742  0.2183E-01  0.1368E+00
     -1.657  0.2894E-01  0.1392E+00
     -1.573  0.2995E-01  0.1418E+00
     -1.488  0.2691E-01  0.1441E+00
     -1.404  0.2605E-01  0.1463E+00
     -1.319  0.3282E-01  0.1490E+00
     -1.235  0.4871E-01  0.1531E+00
     -1.150  0.6931E-01  0.1590E+00
     -1.066  0.8510E-01  0.1662E+00
     -0.981  0.8777E-01  0.1736E+00
     -0.897  0.7762E-01  0.1802E+00
     -0.812  0.6334E-01  0.1855E+00
     -0.728  0.5300E-01  0.1900E+00
     -0.643  0.4700E-01  0.1940E+00
     -0.559  0.4205E-01  0.1975E+00
     -0.474  0.3860E-01  0.2008E+00
     -0.389  0.3925E-01  0.2041E+00
     -0.305  0.4188E-01  0.2077E+00
     -0.220  0.4068E-01  0.2111E+00
     -0.136  0.3446E-01  0.2140E+00
     -0.051  0.2858E-01  0.2164E+00
      0.033  0.2748E-01  0.2188E+00
      0.118  0.2900E-01  0.2212E+00
      0.202  0.2814E-01  0.2236E+00
      0.287  0.2388E-01  0.2256E+00
      0.371  0.1999E-01  0.2273E+00
      0.456  0.2018E-01  0.2290E+00
      0.540  0.2403E-01  0.2310E+00
      0.625  0.2701E-01  0.2333E+00
      0.710  0.2489E-01  0.2354E+00
      0.794  0.1880E-01  0.2370E+00
      0.879  0.1391E-01  0.2382E+00
      0.963  0.1360E-01  0.2393E+00
      1.048  0.1671E-01  0.2407E+00
      1.132  0.2013E-01  0.2424E+00
      1.217  0.2269E-01  0.2444E+00
      1.301  0.2635E-01  0.2466E+00
      1.386  0.3371E-01  0.2494E+00
      1.470  0.4540E-01  0.2533E+00
      1.555  0.5984E-01  0.2583E+00
      1.639  0.7310E-01  0.2645E+00
      1.724  0.7962E-01  0.2712E+00
      1.808  0.7692E-01  0.2777E+00
      1.893  0.6948E-01  0.2836E+00
      1.978  0.6509E-01  0.2891E+00
      2.062  0.6742E-01  0.2948E+00
      2.147  0.7305E-01  0.3010E+00
      2.231  0.7603E-01  0.3074E+00
      2.316  0.7488E-01  0.3138E+00
      2.400  0.7319E-01  0.3199E+00
      2.485  0.7366E-01  0.3262E+00
      2.569  0.7604E-01  0.3326E+00
      2.654  0.8066E-01  0.3394E+00
      2.738  0.8860E-01  0.3469E+00
      2.823  0.9718E-01  0.3551E+00
      2.907  0.1008E+00  0.3636E+00
      2.992  0.9816E-01  0.3719E+00
      3.076  0.9488E-01  0.3800E+00
      3.161  0.9620E-01  0.3881E+00
      3.246  0.9980E-01  0.3965E+00
      3.330  0.9951E-01  0.4049E+00
      3.415  0.9463E-01  0.4129E+00
      3.499  0.9035E-01  0.4206E+00
      3.584  0.8998E-01  0.4282E+00
      3.668  0.9130E-01  0.4359E+00
      3.753  0.9015E-01  0.4435E+00
      3.837  0.8553E-01  0.4508E+00
      3.922  0.8087E-01  0.4576E+00
      4.006  0.8046E-01  0.4644E+00
      4.091  0.8414E-01  0.4715E+00
      4.175  0.8616E-01  0.4788E+00
      4.260  0.8144E-01  0.4857E+00
      4.344  0.7238E-01  0.4918E+00
      4.429  0.6531E-01  0.4973E+00
      4.514  0.6197E-01  0.5026E+00
      4.598  0.5839E-01  0.5075E+00
      4.683  0.5147E-01  0.5118E+00
      4.767  0.4311E-01  0.5155E+00
      4.852  0.3669E-01  0.5186E+00
      4.936  0.3251E-01  0.5213E+00
      5.021  0.2873E-01  0.5238E+00
      5.105  0.2480E-01  0.5259E+00
      5.190  0.2158E-01  0.5277E+00
      5.274  0.1906E-01  0.5293E+00
      5.359  0.1612E-01  0.5307E+00
      5.443  0.1244E-01  0.5317E+00
      5.528  0.8716E-02  0.5324E+00
      5.613  0.5523E-02  0.5329E+00
      5.697  0.3025E-02  0.5332E+00
      5.782  0.1343E-02  0.5333E+00
      5.866  0.4642E-03  0.5333E+00
      5.951  0.1632E-03  0.5333E+00
      6.035  0.2710E-03  0.5334E+00
      6.120  0.9556E-03  0.5334E+00
      6.204  0.2645E-02  0.5337E+00
      6.289  0.5479E-02  0.5341E+00
      6.373  0.8953E-02  0.5349E+00
      6.458  0.1269E-01  0.5360E+00
      6.542  0.1715E-01  0.5374E+00
      6.627  0.2250E-01  0.5393E+00
      6.711  0.2760E-01  0.5416E+00
      6.796  0.3126E-01  0.5443E+00
      6.881  0.3348E-01  0.5471E+00
      6.965  0.3487E-01  0.5501E+00
      7.050  0.3658E-01  0.5532E+00
      7.134  0.4075E-01  0.5566E+00
      7.219  0.4871E-01  0.5607E+00
      7.303  0.5847E-01  0.5657E+00
      7.388  0.6551E-01  0.5712E+00
      7.472  0.6779E-01  0.5769E+00
      7.557  0.6927E-01  0.5828E+00
      7.641  0.7564E-01  0.5892E+00
      7.726  0.8685E-01  0.5965E+00
      7.810  0.9704E-01  0.6047E+00
      7.895  0.1018E+00  0.6133E+00
      7.979  0.1021E+00  0.6220E+00
      8.064  0.1010E+00  0.6305E+00
      8.149  0.9951E-01  0.6389E+00
      8.233  0.9599E-01  0.6470E+00
      8.318  0.8925E-01  0.6546E+00
      8.402  0.8103E-01  0.6614E+00
      8.487  0.7488E-01  0.6677E+00
      8.571  0.7304E-01  0.6739E+00
      8.656  0.7621E-01  0.6804E+00
      8.740  0.8534E-01  0.6876E+00
      8.825  0.1002E+00  0.6960E+00
      8.909  0.1168E+00  0.7059E+00
      8.994  0.1289E+00  0.7168E+00
      9.078  0.1327E+00  0.7280E+00
      9.163  0.1290E+00  0.7389E+00
      9.247  0.1209E+00  0.7492E+00
      9.332  0.1114E+00  0.7586E+00
      9.417  0.1032E+00  0.7673E+00
      9.501  0.9735E-01  0.7755E+00
      9.586  0.9247E-01  0.7833E+00
      9.670  0.8817E-01  0.7908E+00
      9.755  0.8681E-01  0.7981E+00
      9.839  0.8863E-01  0.8056E+00
      9.924  0.8980E-01  0.8132E+00
     10.008  0.8807E-01  0.8207E+00
     10.093  0.8546E-01  0.8279E+00
     10.177  0.8367E-01  0.8350E+00
     10.262  0.8182E-01  0.8419E+00
     10.346  0.8000E-01  0.8486E+00
     10.431  0.8086E-01  0.8555E+00
     10.516  0.8569E-01  0.8627E+00
     10.600  0.9125E-01  0.8704E+00
     10.685  0.9285E-01  0.8783E+00
     10.769  0.8908E-01  0.8858E+00
     10.854  0.8193E-01  0.8927E+00
     10.938  0.7402E-01  0.8990E+00
     11.023  0.6764E-01  0.9047E+00
     11.107  0.6521E-01  0.9102E+00
     11.192  0.6830E-01  0.9160E+00
     11.276  0.7546E-01  0.9224E+00
     11.361  0.8214E-01  0.9293E+00
     11.445  0.8466E-01  0.9365E+00
     11.530  0.8295E-01  0.9435E+00
     11.614  0.7790E-01  0.9501E+00
     11.699  0.6927E-01  0.9559E+00
     11.784  0.5818E-01  0.9608E+00
     11.868  0.4896E-01  0.9650E+00
     11.953  0.4645E-01  0.9689E+00
     12.037  0.5155E-01  0.9733E+00
     12.122  0.6077E-01  0.9784E+00
     12.206  0.6952E-01  0.9843E+00
     12.291  0.7480E-01  0.9906E+00
     12.375  0.7544E-01  0.9970E+00
     12.460  0.7083E-01  0.1003E+01
     12.544  0.6106E-01  0.1008E+01
     12.629  0.4899E-01  0.1012E+01
     12.713  0.3914E-01  0.1016E+01
     12.798  0.3328E-01  0.1018E+01
     12.882  0.2987E-01  0.1021E+01
     12.967  0.2766E-01  0.1023E+01
     13.052  0.2777E-01  0.1026E+01
     13.136  0.3256E-01  0.1028E+01
     13.221  0.4256E-01  0.1032E+01
     13.305  0.5368E-01  0.1036E+01
     13.390  0.5808E-01  0.1041E+01
     13.474  0.5078E-01  0.1046E+01
     13.559  0.3577E-01  0.1049E+01
     13.643  0.2232E-01  0.1051E+01
     13.728  0.1579E-01  0.1052E+01
     13.812  0.1436E-01  0.1053E+01
     13.897  0.1360E-01  0.1054E+01
     13.981  0.1212E-01  0.1055E+01
     14.066  0.1199E-01  0.1056E+01
     14.150  0.1482E-01  0.1058E+01
     14.235  0.1876E-01  0.1059E+01
     14.320  0.1977E-01  0.1061E+01
     14.404  0.1588E-01  0.1062E+01
     14.489  0.9414E-02  0.1063E+01
     14.573  0.4159E-02  0.1063E+01
     14.658  0.1769E-02  0.1063E+01
     14.742  0.1790E-02  0.1064E+01
     14.827  0.3185E-02  0.1064E+01
     14.911  0.4828E-02  0.1064E+01
     14.996  0.5821E-02  0.1065E+01
     15.080  0.6041E-02  0.1065E+01
     15.165  0.5704E-02  0.1066E+01
     15.249  0.4709E-02  0.1066E+01
     15.334  0.3117E-02  0.1066E+01
     15.419  0.1553E-02  0.1067E+01
     15.503  0.5646E-03  0.1067E+01
     15.588  0.1478E-03  0.1067E+01
     15.672  0.2769E-04  0.1067E+01
     15.757  0.3701E-05  0.1067E+01
     15.841  0.3520E-06  0.1067E+01
     15.926  0.2377E-07  0.1067E+01
     16.010  0.1138E-08  0.1067E+01
     16.095  0.3857E-10  0.1067E+01
     16.179  0.9235E-12  0.1067E+01
     16.264  0.1561E-13  0.1067E+01
     16.348  0.1849E-15  0.1067E+01
     16.433  0.2101E-17  0.1067E+01
     16.517  0.0000E+00  0.1067E+01
     16.602  0.0000E+00  0.1067E+01
     16.687  0.0000E+00  0.1067E+01
     16.771  0.0000E+00  0.1067E+01
     16.856  0.0000E+00  0.1067E+01
     16.940  0.0000E+00  0.1067E+01
     17.025  0.0000E+00  0.1067E+01
     17.109  0.0000E+00  0.1067E+01
     17.194  0.0000E+00  0.1067E+01
