       N       E                     dE             d eps       ncg     rms          rms(c)
DAV:   1     0.412922907449E+01    0.41292E+01   -0.27643E+03  1776   0.588E+02
DAV:   2    -0.108486881786E+02   -0.14978E+02   -0.14406E+02  2776   0.727E+01
DAV:   3    -0.110220410577E+02   -0.17335E+00   -0.17335E+00  2160   0.102E+01
DAV:   4    -0.110227179891E+02   -0.67693E-03   -0.67693E-03  2928   0.700E-01
DAV:   5    -0.110227183406E+02   -0.35145E-06   -0.35141E-06  2176   0.141E-02    0.301E+00
DAV:   6    -0.108979955867E+02    0.12472E+00   -0.82598E-02  2136   0.150E+00    0.178E+00
DAV:   7    -0.108411365007E+02    0.56859E-01   -0.15158E-01  2256   0.216E+00    0.154E-01
DAV:   8    -0.108424546871E+02   -0.13182E-02   -0.41567E-03  2056   0.481E-01    0.250E-02
DAV:   9    -0.108425467971E+02   -0.92110E-04   -0.96499E-05  1480   0.809E-02
   1 F= -.10842547E+02 E0= -.10842517E+02  d E =-.108425E+02
       N       E                     dE             d eps       ncg     rms          rms(c)
DAV:   1    -0.108519250201E+02   -0.94703E-02   -0.26264E-01  2224   0.287E+00    0.324E-01
DAV:   2    -0.108474790914E+02    0.44459E-02   -0.37285E-03  2376   0.406E-01    0.186E-01
DAV:   3    -0.108451430882E+02    0.23360E-02   -0.47412E-03  2184   0.347E-01    0.234E-02
DAV:   4    -0.108451323964E+02    0.10692E-04   -0.52837E-05  1064   0.661E-02
   2 F= -.10845132E+02 E0= -.10845116E+02  d E =-.258560E-02
       N       E                     dE             d eps       ncg     rms          rms(c)
DAV:   1    -0.108485556886E+02   -0.34126E-02   -0.42255E-02  2152   0.116E+00    0.131E-01
DAV:   2    -0.108478480597E+02    0.70763E-03   -0.59235E-04  2296   0.162E-01    0.750E-02
DAV:   3    -0.108474841618E+02    0.36390E-03   -0.74488E-04  1352   0.139E-01
   3 F= -.10847484E+02 E0= -.10847464E+02  d E =-.493736E-02
