unknown system                          
   1.00000000000000     
     0.000000    2.734922    2.734922
     2.734922    0.000000    2.734922
     2.734922    2.734922    0.000000
   Si
     2
Direct
  0.500000  0.500000  0.500000
  0.750000  0.750000  0.750000
 
   32   32   32
 0.81978223610E+00 0.84097754669E+00 0.90587265489E+00 0.10183253735E+01 0.11845554221E+01
 0.14128340379E+01 0.17127924325E+01 0.20938620553E+01 0.25624117086E+01 0.31176134648E+01
 0.37468351064E+01 0.44220678976E+01 0.50991325728E+01 0.57209485922E+01 0.62251044853E+01
 0.65545980369E+01 0.66692633384E+01 0.65546002244E+01 0.62251062052E+01 0.57209447508E+01
 0.50991196464E+01 0.44220489838E+01 0.37468187193E+01 0.31176066443E+01 0.25624157406E+01
 0.20938738288E+01 0.17128067777E+01 0.14128450674E+01 0.11845593890E+01 0.10183235408E+01
 0.90586945947E+00 0.84097584951E+00 0.84097754669E+00 0.87758977087E+00 0.95295569277E+00
 0.10711210268E+01 0.12376546189E+01 0.14591836851E+01 0.17426232981E+01 0.20936734214E+01
 0.25142575701E+01 0.29990619644E+01 0.35320400943E+01 0.40843077121E+01 0.46148760168E+01
 0.50750042181E+01 0.54157925434E+01 0.55973977264E+01 0.55974000661E+01 0.54157945638E+01
 0.50749955940E+01 0.46148525743E+01 0.40842802216E+01 0.35320284372E+01 0.29990763287E+01
 0.25142866261E+01 0.20936951252E+01 0.17426269439E+01 0.14591772940E+01 0.12376509023E+01
 0.10711221236E+01 0.95295525162E+00 0.87758550173E+00 0.84097481169E+00 0.90587265489E+00
 0.95295569277E+00 0.10342279703E+01 0.11534898328E+01 0.13154099505E+01 0.15250068842E+01
 0.17868193963E+01 0.21034390881E+01 0.24732431873E+01 0.28876338713E+01 0.33286742970E+01
 0.37683533459E+01 0.41705024301E+01 0.44956024307E+01 0.47076522802E+01 0.47813699140E+01
 0.47076500764E+01 0.44955986387E+01 0.41704983458E+01 0.37683508096E+01 0.33286749870E+01
 0.28876381550E+01 0.24732495338E+01 0.21034449695E+01 0.17868231007E+01 0.15250084228E+01
 0.13154101749E+01 0.11534890560E+01 0.10342259302E+01 0.95295276411E+00 0.90587040228E+00
 0.89047084234E+00 0.10183253735E+01 0.10711210268E+01 0.11534898328E+01 0.12688013291E+01
 0.14208803272E+01 0.16134246930E+01 0.18490761817E+01 0.21279686206E+01 0.24457833573E+01
 0.27917411187E+01 0.31473548743E+01 0.34868682789E+01 0.37799260197E+01 0.39962536814E+01
 0.41113000615E+01 0.41112975611E+01 0.39962478839E+01 0.37799227011E+01 0.34868747419E+01
 0.31473711960E+01 0.27917553147E+01 0.24457812436E+01 0.21279499882E+01 0.18490568174E+01
 0.16134198901E+01 0.14208895525E+01 0.12688118451E+01 0.11534922186E+01 0.10711166822E+01
 0.10183205089E+01 0.99259488137E+00 0.99259670784E+00 0.11845554221E+01 0.12376546189E+01
 0.13154099505E+01 0.14208803272E+01 0.15573278820E+01 0.17275062401E+01 0.19326135565E+01
 0.21709015814E+01 0.24361361257E+01 0.27163877516E+01 0.29938114907E+01 0.32459651158E+01
 0.34487669037E+01 0.35805663106E+01 0.36262982849E+01 0.35805638007E+01 0.34487631096E+01
 0.32459618955E+01 0.29938102367E+01 0.27163884468E+01 0.24361374483E+01 0.21709020441E+01
 0.19326125159E+01 0.17275038485E+01 0.15573244605E+01 0.14208762193E+01 0.13154058771E+01
 0.12376515902E+01 0.11845539478E+01 0.11537043967E+01 0.11435917416E+01 0.11537047661E+01
 0.14128340379E+01 0.14591836851E+01 0.15250068842E+01 0.16134246930E+01 0.17275062401E+01
 0.18693936195E+01 0.20391981409E+01 0.22337928997E+01 0.24457840393E+01 0.26630927325E+01
 0.28695718762E+01 0.30468345939E+01 0.31770505734E+01 0.32460694899E+01 0.32460678347E+01
 0.31770477384E+01 0.30468329573E+01 0.28695690404E+01 0.26630851342E+01 0.24457751079E+01
 0.22337926495E+01 0.20392117146E+01 0.18694124600E+01 0.17275142629E+01 0.16134139392E+01
 0.15249855438E+01 0.14591679777E+01 0.14128329084E+01 0.13833880691E+01 0.13690861656E+01
 0.13690813610E+01 0.13833799789E+01 0.17127924325E+01 0.17426232981E+01 0.17868193963E+01
 0.18490761817E+01 0.19326135565E+01 0.20391981409E+01 0.21681360561E+01 0.23154119630E+01
 0.24732431873E+01 0.26303568419E+01 0.27731635544E+01 0.28876981087E+01 0.29618858354E+01
 0.29875734005E+01 0.29618862900E+01 0.28876991225E+01 0.27731658723E+01 0.26303615547E+01
 0.24732502018E+01 0.23154188659E+01 0.21681391037E+01 0.20391948984E+01 0.19326049018E+01
 0.18490659998E+01 0.17868123270E+01 0.17426221837E+01 0.17127969157E+01 0.16939752007E+01
 0.16836540420E+01 0.16803686854E+01 0.16836491241E+01 0.16939683511E+01 0.20938620553E+01
 0.20936734214E+01 0.21034390881E+01 0.21279686206E+01 0.21709015814E+01 0.22337928997E+01
 0.23154119630E+01 0.24113711828E+01 0.25142568881E+01 0.26144167085E+01 0.27013615986E+01
 0.27654571180E+01 0.27994409266E+01 0.27994437950E+01 0.27654632319E+01 0.27013673294E+01
 0.26144231097E+01 0.25142683014E+01 0.24113869499E+01 0.23154217712E+01 0.22337840280E+01
 0.21708730635E+01 0.21279370991E+01 0.21034267557E+01 0.20936875724E+01 0.20938881670E+01
 0.20990478163E+01 0.21049341364E+01 0.21086113316E+01 0.21086126487E+01 0.21049309576E+01
 0.20990302784E+01 0.25624117086E+01 0.25142575701E+01 0.24732431873E+01 0.24457833573E+01
 0.24361361257E+01 0.24457840393E+01 0.24732431873E+01 0.25142568881E+01 0.25624117086E+01
 0.26101944346E+01 0.26503073770E+01 0.26768624448E+01 0.26861355415E+01 0.26768658003E+01
 0.26503132965E+01 0.26102025413E+01 0.25624207553E+01 0.25142626927E+01 0.24732411567E+01
 0.24457743900E+01 0.24361242904E+01 0.24457750720E+01 0.24732411567E+01 0.25142620107E+01
 0.25624207553E+01 0.26102032233E+01 0.26503132965E+01 0.26768651183E+01 0.26861355415E+01
 0.26768631268E+01 0.26503073770E+01 0.26101937526E+01 0.31176134648E+01 0.29990619644E+01
 0.28876338713E+01 0.27917411187E+01 0.27163877516E+01 0.26630927325E+01 0.26303568419E+01
 0.26144167085E+01 0.26101944346E+01 0.26123815346E+01 0.26164420513E+01 0.26192452414E+01
 0.26192467439E+01 0.26164454758E+01 0.26123867406E+01 0.26102031246E+01 0.26144251894E+01
 0.26303548119E+01 0.26630773756E+01 0.27163738261E+01 0.27917467922E+01 0.28876578129E+01
 0.29990835234E+01 0.31176163798E+01 0.32323421603E+01 0.33314656994E+01 0.34042627364E+01
 0.34427581635E+01 0.34427582168E+01 0.34042665762E+01 0.33314770907E+01 0.32323538141E+01
 0.37468351064E+01 0.35320400943E+01 0.33286742970E+01 0.31473548743E+01 0.29938114907E+01
 0.28695718762E+01 0.27731635544E+01 0.27013615986E+01 0.26503073770E+01 0.26164420513E+01
 0.25971277933E+01 0.25908510272E+01 0.25971328989E+01 0.26164490353E+01 0.26503149463E+01
 0.27013700881E+01 0.27731701822E+01 0.28695728971E+01 0.29938092811E+01 0.31473563848E+01
 0.33286815997E+01 0.35320481843E+01 0.37468396029E+01 0.39579773401E+01 0.41476991486E+01
 0.42983242238E+01 0.43951271457E+01 0.44285016710E+01 0.43951299764E+01 0.42983268142E+01
 0.41476997994E+01 0.39579760392E+01 0.44220678976E+01 0.40843077121E+01 0.37683533459E+01
 0.34868682789E+01 0.32459651158E+01 0.30468345939E+01 0.28876981087E+01 0.27654571180E+01
 0.26768624448E+01 0.26192452414E+01 0.25908510272E+01 0.25908532005E+01 0.26192519302E+01
 0.26768728550E+01 0.27654675301E+01 0.28877038000E+01 0.30468359817E+01 0.32459690660E+01
 0.34868784929E+01 0.37683620856E+01 0.40843046505E+01 0.44220562844E+01 0.47620449335E+01
 0.50793481768E+01 0.53471465283E+01 0.55410317880E+01 0.56427867386E+01 0.56427851678E+01
 0.55410244596E+01 0.53471336235E+01 0.50793400076E+01 0.47620502011E+01 0.50991325728E+01
 0.46148760168E+01 0.41705024301E+01 0.37799260197E+01 0.34487669037E+01 0.31770505734E+01
 0.29618858354E+01 0.27994409266E+01 0.26861355415E+01 0.26192467439E+01 0.25971328989E+01
 0.26192519302E+01 0.26861430923E+01 0.27994481136E+01 0.29618905919E+01 0.31770506424E+01
 0.34487626299E+01 0.37799234636E+01 0.41705090562E+01 0.46148923638E+01 0.50991511742E+01
 0.55995813805E+01 0.60836116571E+01 0.65135282146E+01 0.68521578551E+01 0.70687216512E+01
 0.71432124863E+01 0.70687329973E+01 0.68521722662E+01 0.65135366826E+01 0.60836097217E+01
 0.55995689930E+01 0.57209485922E+01 0.50750042181E+01 0.44956024307E+01 0.39962536814E+01
 0.35805663106E+01 0.32460694899E+01 0.29875734005E+01 0.27994437950E+01 0.26768658003E+01
 0.26164454758E+01 0.26164490353E+01 0.26768728550E+01 0.27994481136E+01 0.29875732432E+01
 0.32460673823E+01 0.35805637918E+01 0.39962510085E+01 0.44956041743E+01 0.50750201289E+01
 0.57209837710E+01 0.64071704476E+01 0.70941323367E+01 0.77325863572E+01 0.82699631670E+01
 0.86584520779E+01 0.88622200926E+01 0.88622383692E+01 0.86584937308E+01 0.82699983735E+01
 0.77325904380E+01 0.70941028737E+01 0.64071264413E+01 0.62251044853E+01 0.54157925434E+01
 0.47076522802E+01 0.41113000615E+01 0.36262982849E+01 0.32460678347E+01 0.29618862900E+01
 0.27654632319E+01 0.26503132965E+01 0.26123867406E+01 0.26503149463E+01 0.27654675301E+01
 0.29618905919E+01 0.32460673823E+01 0.36262941722E+01 0.41113011369E+01 0.47076670504E+01
 0.54158217231E+01 0.62251414056E+01 0.71095281392E+01 0.80253420719E+01 0.89132347153E+01
 0.97043356026E+01 0.10329746130E+02 0.10731059949E+02 0.10869372803E+02 0.10731066438E+02
 0.10329756711E+02 0.97043429628E+01 0.89132293085E+01 0.80253197501E+01 0.71094935869E+01
 0.65545980369E+01 0.55973977264E+01 0.47813699140E+01 0.41112975611E+01 0.35805638007E+01
 0.31770477384E+01 0.28876991225E+01 0.27013673294E+01 0.26102025413E+01 0.26102031246E+01
 0.27013700881E+01 0.28877038000E+01 0.31770506424E+01 0.35805637918E+01 0.41113011369E+01
 0.47813863825E+01 0.55974307371E+01 0.65546416294E+01 0.76309461136E+01 0.87829858307E+01
 0.99456836422E+01 0.11036408857E+02 0.11963878031E+02 0.12640850674E+02 0.12998389941E+02
 0.12998373132E+02 0.12640819836E+02 0.11963865687E+02 0.11036419149E+02 0.99456911592E+01
 0.87829688693E+01 0.76309071782E+01 0.66692633384E+01 0.55974000661E+01 0.47076500764E+01
 0.39962478839E+01 0.34487631096E+01 0.30468329573E+01 0.27731658723E+01 0.26144231097E+01
 0.25624207553E+01 0.26144251894E+01 0.27731701822E+01 0.30468359817E+01 0.34487626299E+01
 0.39962510085E+01 0.47076670504E+01 0.55974307371E+01 0.66692982778E+01 0.79092397980E+01
 0.92796506544E+01 0.10716393489E+02 0.12129678129E+02 0.13409744857E+02 0.14438560006E+02
 0.15107637707E+02 0.15339675452E+02 0.15107633698E+02 0.14438560200E+02 0.13409749081E+02
 0.12129674976E+02 0.10716375956E+02 0.92796228662E+01 0.79092071918E+01 0.65546002244E+01
 0.54157945638E+01 0.44955986387E+01 0.37799227011E+01 0.32459618955E+01 0.28695690404E+01
 0.26303615547E+01 0.25142683014E+01 0.25142626927E+01 0.26303548119E+01 0.28695728971E+01
 0.32459690660E+01 0.37799234636E+01 0.44956041743E+01 0.54158217231E+01 0.65546416294E+01
 0.79092397980E+01 0.94527826563E+01 0.11129434300E+02 0.12851764763E+02 0.14501287822E+02
 0.15933627829E+02 0.16990344438E+02 0.17549535818E+02 0.17549550472E+02 0.16990372283E+02
 0.15933638895E+02 0.14501271960E+02 0.12851739569E+02 0.11129417141E+02 0.94527662500E+01
 0.79092078958E+01 0.62251062052E+01 0.50749955940E+01 0.41704983458E+01 0.34868747419E+01
 0.29938102367E+01 0.26630851342E+01 0.24732502018E+01 0.24113869499E+01 0.24732411567E+01
 0.26630773756E+01 0.29938092811E+01 0.34868784929E+01 0.41705090562E+01 0.50750201289E+01
 0.62251414056E+01 0.76309461136E+01 0.92796506544E+01 0.11129434300E+02 0.13104575176E+02
 0.15091014119E+02 0.16926974753E+02 0.18408266554E+02 0.19367063408E+02 0.19698531507E+02
 0.19367062874E+02 0.18408263642E+02 0.16926966722E+02 0.15091001842E+02 0.13104563832E+02
 0.11129424403E+02 0.92796333124E+01 0.76309152617E+01 0.57209447508E+01 0.46148525743E+01
 0.37683508096E+01 0.31473711960E+01 0.27163884468E+01 0.24457751079E+01 0.23154188659E+01
 0.23154217712E+01 0.24457743900E+01 0.27163738261E+01 0.31473563848E+01 0.37683620856E+01
 0.46148923638E+01 0.57209837710E+01 0.71095281392E+01 0.87829858307E+01 0.10716393489E+02
 0.12851764763E+02 0.15091014119E+02 0.17275180428E+02 0.19170399594E+02 0.20563791894E+02
 0.21301229172E+02 0.21301212175E+02 0.20563759365E+02 0.19170380154E+02 0.17275175393E+02
 0.15091006464E+02 0.12851752982E+02 0.10716390949E+02 0.87829895728E+01 0.71095148479E+01
 0.50991196464E+01 0.40842802216E+01 0.33286749870E+01 0.27917553147E+01 0.24361374483E+01
 0.22337926495E+01 0.21681391037E+01 0.22337840280E+01 0.24361242904E+01 0.27917467922E+01
 0.33286815997E+01 0.40843046505E+01 0.50991511742E+01 0.64071704476E+01 0.80253420719E+01
 0.99456836422E+01 0.12129678129E+02 0.14501287822E+02 0.16926974753E+02 0.19170399594E+02
 0.20981680911E+02 0.22158466801E+02 0.22566546589E+02 0.22158441558E+02 0.20981641844E+02
 0.19170363750E+02 0.16926956653E+02 0.14501292594E+02 0.12129698415E+02 0.99457026478E+01
 0.80253434224E+01 0.64071497511E+01 0.44220489838E+01 0.35320284372E+01 0.28876381550E+01
 0.24457812436E+01 0.21709020441E+01 0.20392117146E+01 0.20391948984E+01 0.21708730635E+01
 0.24457750720E+01 0.28876578129E+01 0.35320481843E+01 0.44220562844E+01 0.55995813805E+01
 0.70941323367E+01 0.89132347153E+01 0.11036408857E+02 0.13409744857E+02 0.15933627829E+02
 0.18408266554E+02 0.20563791894E+02 0.22158466801E+02 0.23007095488E+02 0.23007085038E+02
 0.22158428807E+02 0.20563729923E+02 0.18408218108E+02 0.15933631466E+02 0.13409789953E+02
 0.11036446183E+02 0.89132367296E+01 0.70941171034E+01 0.55995728016E+01 0.37468187193E+01
 0.29990763287E+01 0.24732495338E+01 0.21279499882E+01 0.19326125159E+01 0.18694124600E+01
 0.19326049018E+01 0.21279370991E+01 0.24732411567E+01 0.29990835234E+01 0.37468396029E+01
 0.47620449335E+01 0.60836116571E+01 0.77325863572E+01 0.97043356026E+01 0.11963878031E+02
 0.14438560006E+02 0.16990344438E+02 0.19367063408E+02 0.21301229172E+02 0.22566546589E+02
 0.23007085038E+02 0.22566520646E+02 0.21301182812E+02 0.19367015593E+02 0.16990320381E+02
 0.14438569768E+02 0.11963908990E+02 0.97043669447E+01 0.77326035196E+01 0.60836088028E+01
 0.47620258286E+01 0.31176066443E+01 0.25142866261E+01 0.21034449695E+01 0.18490568174E+01
 0.17275038485E+01 0.17275142629E+01 0.18490659998E+01 0.21034267557E+01 0.25142620107E+01
 0.31176163798E+01 0.39579773401E+01 0.50793481768E+01 0.65135282146E+01 0.82699631670E+01
 0.10329746130E+02 0.12640850674E+02 0.15107637707E+02 0.17549535818E+02 0.19698531507E+02
 0.21301212175E+02 0.22158441558E+02 0.22158428807E+02 0.21301182812E+02 0.19698501190E+02
 0.17549510845E+02 0.15107619005E+02 0.12640849597E+02 0.10329777696E+02 0.82700155537E+01
 0.65135585142E+01 0.50793295068E+01 0.39579381793E+01 0.25624157406E+01 0.20936951252E+01
 0.17868231007E+01 0.16134198901E+01 0.15573244605E+01 0.16134139392E+01 0.17868123270E+01
 0.20936875724E+01 0.25624207553E+01 0.32323421603E+01 0.41476991486E+01 0.53471465283E+01
 0.68521578551E+01 0.86584520779E+01 0.10731059949E+02 0.12998389941E+02 0.15339675452E+02
 0.17549550472E+02 0.19367062874E+02 0.20563759365E+02 0.20981641844E+02 0.20563729923E+02
 0.19367015593E+02 0.17549510845E+02 0.15339669036E+02 0.12998419938E+02 0.10731106108E+02
 0.86584921433E+01 0.68521815334E+01 0.53471515795E+01 0.41476884833E+01 0.32323272799E+01
 0.20938738288E+01 0.17426269439E+01 0.15250084228E+01 0.14208895525E+01 0.14208762193E+01
 0.15249855438E+01 0.17426221837E+01 0.20938881670E+01 0.26102032233E+01 0.33314656994E+01
 0.42983242238E+01 0.55410317880E+01 0.70687216512E+01 0.88622200926E+01 0.10869372803E+02
 0.12998373132E+02 0.15107633698E+02 0.16990372283E+02 0.18408263642E+02 0.19170380154E+02
 0.19170363750E+02 0.18408218108E+02 0.16990320381E+02 0.15107619005E+02 0.12998419938E+02
 0.10869450960E+02 0.88622742038E+01 0.70687323616E+01 0.55410261472E+01 0.42983274684E+01
 0.33314699087E+01 0.26101929650E+01 0.17128067777E+01 0.14591772940E+01 0.13154101749E+01
 0.12688118451E+01 0.13154058771E+01 0.14591679777E+01 0.17127969157E+01 0.20990478163E+01
 0.26503132965E+01 0.34042627364E+01 0.43951271457E+01 0.56427867386E+01 0.71432124863E+01
 0.88622383692E+01 0.10731066438E+02 0.12640819836E+02 0.14438560200E+02 0.15933638895E+02
 0.16926966722E+02 0.17275175393E+02 0.16926956653E+02 0.15933631466E+02 0.14438569768E+02
 0.12640849597E+02 0.10731106108E+02 0.88622742038E+01 0.71432371226E+01 0.56427988372E+01
 0.43951272468E+01 0.34042547808E+01 0.26503065515E+01 0.20990501993E+01 0.14128450674E+01
 0.12376509023E+01 0.11534890560E+01 0.11534922186E+01 0.12376515902E+01 0.14128329084E+01
 0.16939752007E+01 0.21049341364E+01 0.26768651183E+01 0.34427581635E+01 0.44285016710E+01
 0.56427851678E+01 0.70687329973E+01 0.86584937308E+01 0.10329756711E+02 0.11963865687E+02
 0.13409749081E+02 0.14501271960E+02 0.15091001842E+02 0.15091006464E+02 0.14501292594E+02
 0.13409789953E+02 0.11963908990E+02 0.10329777696E+02 0.86584921433E+01 0.70687323616E+01
 0.56427988372E+01 0.44285160282E+01 0.34427570190E+01 0.26768561398E+01 0.21049368870E+01
 0.16939912876E+01 0.11845593890E+01 0.10711221236E+01 0.10342259302E+01 0.10711166822E+01
 0.11845539478E+01 0.13833880691E+01 0.16836540420E+01 0.21086113316E+01 0.26861355415E+01
 0.34427582168E+01 0.43951299764E+01 0.55410244596E+01 0.68521722662E+01 0.82699983735E+01
 0.97043429628E+01 0.11036419149E+02 0.12129674976E+02 0.12851739569E+02 0.13104563832E+02
 0.12851752982E+02 0.12129698415E+02 0.11036446183E+02 0.97043669447E+01 0.82700155537E+01
 0.68521815334E+01 0.55410261472E+01 0.43951272468E+01 0.34427570190E+01 0.26861392795E+01
 0.21086171508E+01 0.16836579207E+01 0.13833911949E+01 0.10183235408E+01 0.95295525162E+00
 0.95295276411E+00 0.10183205089E+01 0.11537043967E+01 0.13690861656E+01 0.16803686854E+01
 0.21086126487E+01 0.26768631268E+01 0.34042665762E+01 0.42983268142E+01 0.53471336235E+01
 0.65135366826E+01 0.77325904380E+01 0.89132293085E+01 0.99456911592E+01 0.10716375956E+02
 0.11129417141E+02 0.11129424403E+02 0.10716390949E+02 0.99457026478E+01 0.89132367296E+01
 0.77326035196E+01 0.65135585142E+01 0.53471515795E+01 0.42983274684E+01 0.34042547808E+01
 0.26768561398E+01 0.21086171508E+01 0.16803751626E+01 0.13690868131E+01 0.11537036939E+01
 0.90586945947E+00 0.87758550173E+00 0.90587040228E+00 0.99259488137E+00 0.11435917416E+01
 0.13690813610E+01 0.16836491241E+01 0.21049309576E+01 0.26503073770E+01 0.33314770907E+01
 0.41476997994E+01 0.50793400076E+01 0.60836097217E+01 0.70941028737E+01 0.80253197501E+01
 0.87829688693E+01 0.92796228662E+01 0.94527662500E+01 0.92796333124E+01 0.87829895728E+01
 0.80253434224E+01 0.70941171034E+01 0.60836088028E+01 0.50793295068E+01 0.41476884833E+01
 0.33314699087E+01 0.26503065515E+01 0.21049368870E+01 0.16836579207E+01 0.13690868131E+01
 0.11435918902E+01 0.99259304040E+00 0.84097584951E+00 0.84097481169E+00 0.89047084234E+00
 0.99259670784E+00 0.11537047661E+01 0.13833799789E+01 0.16939683511E+01 0.20990302784E+01
 0.26101937526E+01 0.32323538141E+01 0.39579760392E+01 0.47620502011E+01 0.55995689930E+01
 0.64071264413E+01 0.71094935869E+01 0.76309071782E+01 0.79092071918E+01 0.79092078958E+01
 0.76309152617E+01 0.71095148479E+01 0.64071497511E+01 0.55995728016E+01 0.47620258286E+01
 0.39579381793E+01 0.32323272799E+01 0.26101929650E+01 0.20990501993E+01 0.16939912876E+01
 0.13833911949E+01 0.11537036939E+01 0.99259304040E+00 0.89047084585E+00 0.84097833771E+00
 0.87759010071E+00 0.95295569877E+00 0.10711211215E+01 0.12376547390E+01 0.14591834964E+01
 0.17426229293E+01 0.20936732868E+01 0.25142576791E+01 0.29990621084E+01 0.35320404928E+01
 0.40843087470E+01 0.46148775160E+01 0.50750056959E+01 0.54157939369E+01 0.55973991972E+01
 0.55974013026E+01 0.54157950150E+01 0.50749952165E+01 0.46148516715E+01 0.40842787789E+01
 0.35320263306E+01 0.29990739683E+01 0.25142846559E+01 0.20936936554E+01 0.17426257473E+01
 0.14591765240E+01 0.12376508930E+01 0.10711226901E+01 0.95295590563E+00 0.87758617080E+00
 0.84097566317E+00 0.87759010071E+00 0.92345857197E+00 0.10027659897E+01 0.11193484331E+01
 0.12778415206E+01 0.14831401905E+01 0.17395881716E+01 0.20495744175E+01 0.24113721946E+01
 0.28165018206E+01 0.32474534765E+01 0.36769499710E+01 0.40697607017E+01 0.43873396610E+01
 0.45945149793E+01 0.46665488426E+01 0.45945175849E+01 0.43873317149E+01 0.40697355851E+01
 0.36769215359E+01 0.32474453802E+01 0.28165232881E+01 0.24114075161E+01 0.20495978550E+01
 0.17395879513E+01 0.14831264333E+01 0.12778316921E+01 0.11193484568E+01 0.10027680532E+01
 0.92345518487E+00 0.87758451496E+00 0.86259903515E+00 0.95295569877E+00 0.10027659897E+01
 0.10808455086E+01 0.11906395128E+01 0.13358979451E+01 0.15200771940E+01 0.17454922829E+01
 0.20120309174E+01 0.23154119690E+01 0.26453435106E+01 0.29843252518E+01 0.33079759268E+01
 0.35874602594E+01 0.37938853349E+01 0.39037172444E+01 0.39037168448E+01 0.37938823355E+01
 0.35874531715E+01 0.33079689456E+01 0.29843258647E+01 0.26453543787E+01 0.23154273572E+01
 0.20120419054E+01 0.17454944970E+01 0.15200732595E+01 0.13358935110E+01 0.11906376135E+01
 0.10808446633E+01 0.10027634468E+01 0.95295176635E+00 0.92876749844E+00 0.92876948169E+00
 0.10711211215E+01 0.11193484331E+01 0.11906395128E+01 0.12881366438E+01 0.14149752767E+01
 0.15735971452E+01 0.17648593275E+01 0.19868908917E+01 0.22337923125E+01 0.24945453435E+01
 0.27527280751E+01 0.29875973765E+01 0.31767243325E+01 0.32997759377E+01 0.33425026720E+01
 0.32997747924E+01 0.31767209391E+01 0.29875959055E+01 0.27527355267E+01 0.24945595332E+01
 0.22337998115E+01 0.19868828492E+01 0.17648443702E+01 0.15735914089E+01 0.14149821759E+01
 0.12881443142E+01 0.11906381763E+01 0.11193420099E+01 0.10711183564E+01 0.10433392905E+01
 0.10342778483E+01 0.10433379597E+01 0.12376547390E+01 0.12778415206E+01 0.13358979451E+01
 0.14149752767E+01 0.15179636702E+01 0.16467011265E+01 0.18010715772E+01 0.19780562398E+01
 0.21709017014E+01 0.23687264054E+01 0.25569610930E+01 0.27188709244E+01 0.28380417024E+01
 0.29013007673E+01 0.29013016476E+01 0.28380411492E+01 0.27188656085E+01 0.25569554702E+01
 0.23687278667E+01 0.21709093862E+01 0.19780611964E+01 0.18010687509E+01 0.16466952398E+01
 0.15179607702E+01 0.14149738795E+01 0.13358932900E+01 0.12778349844E+01 0.12376525847E+01
 0.12125551575E+01 0.12005239828E+01 0.12005214091E+01 0.12125517731E+01 0.14591834964E+01
 0.14831401905E+01 0.15200771940E+01 0.15735971452E+01 0.16467011265E+01 0.17409324887E+01
 0.18555563345E+01 0.19868912903E+01 0.21279691139E+01 0.22687512934E+01 0.23970746969E+01
 0.25002933124E+01 0.25673151349E+01 0.25905533995E+01 0.25673134332E+01 0.25002908610E+01
 0.23970721073E+01 0.22687488092E+01 0.21279682760E+01 0.19868949601E+01 0.18555650754E+01
 0.17409412623E+01 0.16467020191E+01 0.15735869568E+01 0.15200615724E+01 0.14831290149E+01
 0.14591822551E+01 0.14447852566E+01 0.14372476677E+01 0.14349158163E+01 0.14372418374E+01
 0.14447792837E+01 0.17426229293E+01 0.17395881716E+01 0.17454922829E+01 0.17648593275E+01
 0.18010715772E+01 0.18555563345E+01 0.19271928549E+01 0.20120305425E+01 0.21034387193E+01
 0.21927916245E+01 0.22706567889E+01 0.23282583676E+01 0.23588738882E+01 0.23588737586E+01
 0.23282587879E+01 0.22706602070E+01 0.21928003573E+01 0.21034509440E+01 0.20120393354E+01
 0.19271918094E+01 0.18555459855E+01 0.18010585906E+01 0.17648498370E+01 0.17454878680E+01
 0.17395878125E+01 0.17426259806E+01 0.17498544832E+01 0.17571379695E+01 0.17615288970E+01
 0.17615263028E+01 0.17571319610E+01 0.17498486988E+01 0.20936732868E+01 0.20495744175E+01
 0.20120309174E+01 0.19868908917E+01 0.19780562398E+01 0.19868912903E+01 0.20120305425E+01
 0.20495732711E+01 0.20936726048E+01 0.21374906585E+01 0.21743526644E+01 0.21988088512E+01
 0.22073605785E+01 0.21988114264E+01 0.21743597761E+01 0.21375053166E+01 0.20936935379E+01
 0.20495900480E+01 0.20120292183E+01 0.19868681296E+01 0.19780236515E+01 0.19868676078E+01
 0.20120272354E+01 0.20495869446E+01 0.20936908315E+01 0.21375033312E+01 0.21743576126E+01
 0.21988092574E+01 0.22073596458E+01 0.21988091523E+01 0.21743529350E+01 0.21374906841E+01
 0.25142576791E+01 0.24113721946E+01 0.23154119690E+01 0.22337923125E+01 0.21709017014E+01
 0.21279691139E+01 0.21034387193E+01 0.20936726048E+01 0.20938621643E+01 0.20990311044E+01
 0.21049313561E+01 0.21086130016E+01 0.21086128308E+01 0.21049362962E+01 0.20990492098E+01
 0.20938889559E+01 0.20936888089E+01 0.21034278890E+01 0.21279367216E+01 0.21708714787E+01
 0.22337825853E+01 0.23154203465E+01 0.24113845895E+01 0.25142656493E+01 0.26144216399E+01
 0.27013668148E+01 0.27654624619E+01 0.27994431038E+01 0.27994414931E+01 0.27654584540E+01
 0.27013622677E+01 0.26144168780E+01 0.29990621084E+01 0.28165018206E+01 0.26453435106E+01
 0.24945453435E+01 0.23687264054E+01 0.22687512934E+01 0.21927916245E+01 0.21374906585E+01
 0.20990311044E+01 0.20739962072E+01 0.20599041700E+01 0.20553531571E+01 0.20599096432E+01
 0.20740145786E+01 0.20990610360E+01 0.21375119751E+01 0.21927806503E+01 0.22687097413E+01
 0.23686876331E+01 0.24945431662E+01 0.26453767735E+01 0.28165374757E+01 0.29990724095E+01
 0.31800385981E+01 0.33439062712E+01 0.34748697780E+01 0.35594521859E+01 0.35886860348E+01
 0.35594453757E+01 0.34748685507E+01 0.33439177989E+01 0.31800503216E+01 0.35320404928E+01
 0.32474534765E+01 0.29843252518E+01 0.27527280751E+01 0.25569610930E+01 0.23970746969E+01
 0.22706567889E+01 0.21743526644E+01 0.21049313561E+01 0.20599041700E+01 0.20377348694E+01
 0.20377422716E+01 0.20599276982E+01 0.21049661133E+01 0.21743776110E+01 0.22706482221E+01
 0.23970345568E+01 0.25569229695E+01 0.27527259238E+01 0.29843589294E+01 0.32474925597E+01
 0.35320592656E+01 0.38217298519E+01 0.40949852813E+01 0.43278810589E+01 0.44978649150E+01
 0.45875571978E+01 0.45875569165E+01 0.44978646192E+01 0.43278832305E+01 0.40949910648E+01
 0.38217307966E+01 0.40843087470E+01 0.36769499710E+01 0.33079759268E+01 0.29875973765E+01
 0.27188709244E+01 0.25002933124E+01 0.23282583676E+01 0.21988088512E+01 0.21086130016E+01
 0.20553531571E+01 0.20377422716E+01 0.20553781006E+01 0.21086529149E+01 0.21988378174E+01
 0.23282488350E+01 0.25002484001E+01 0.27188315355E+01 0.29876026919E+01 0.33080206122E+01
 0.36769930222E+01 0.40843221624E+01 0.45109663969E+01 0.49292259008E+01 0.53054858714E+01
 0.56051427159E+01 0.57983701159E+01 0.58651283767E+01 0.57983732163E+01 0.56051414859E+01
 0.53054819561E+01 0.49292292360E+01 0.45109727573E+01 0.46148775160E+01 0.40697607017E+01
 0.35874602594E+01 0.31767243325E+01 0.28380417024E+01 0.25673151349E+01 0.23588738882E+01
 0.22073605785E+01 0.21086128308E+01 0.20599096432E+01 0.20599276982E+01 0.21086529149E+01
 0.22073887651E+01 0.23588613550E+01 0.25672669374E+01 0.28379991650E+01 0.31767289063E+01
 0.35875130346E+01 0.40698231685E+01 0.46149115861E+01 0.52026050224E+01 0.58000357308E+01
 0.63635811784E+01 0.68442679605E+01 0.71954978080E+01 0.73809995296E+01 0.73810042790E+01
 0.71955088878E+01 0.68442812916E+01 0.63635972448E+01 0.58000518434E+01 0.52026052952E+01
 0.50750056959E+01 0.43873396610E+01 0.37938853349E+01 0.32997759377E+01 0.29013007673E+01
 0.25905533995E+01 0.23588737586E+01 0.21988114264E+01 0.21049362962E+01 0.20740145786E+01
 0.21049661133E+01 0.21988378174E+01 0.23588613550E+01 0.25905030249E+01 0.29012561461E+01
 0.32997838259E+01 0.37939481772E+01 0.43874150249E+01 0.50750513569E+01 0.58381463594E+01
 0.66411943323E+01 0.74320995192E+01 0.81469141456E+01 0.87187339629E+01 0.90887865373E+01
 0.92168990856E+01 0.90888078525E+01 0.87187629463E+01 0.81469380505E+01 0.74321165810E+01
 0.66412047557E+01 0.58381375246E+01 0.54157939369E+01 0.45945149793E+01 0.39037172444E+01
 0.33425026720E+01 0.29013016476E+01 0.25673134332E+01 0.23282587879E+01 0.21743597761E+01
 0.20990492098E+01 0.20990610360E+01 0.21743776110E+01 0.23282488350E+01 0.25672669374E+01
 0.29012561461E+01 0.33425111385E+01 0.39037908750E+01 0.45946068977E+01 0.54158467752E+01
 0.63535779497E+01 0.73737033018E+01 0.84196003857E+01 0.94146550871E+01 0.10270567266E+02
 0.10900599876E+02 0.11235063864E+02 0.11235067891E+02 0.10900608684E+02 0.10270575873E+02
 0.94146656969E+01 0.84196206701E+01 0.73737281261E+01 0.63535781565E+01 0.55973991972E+01
 0.46665488426E+01 0.39037168448E+01 0.32997747924E+01 0.28380411492E+01 0.25002908610E+01
 0.22706602070E+01 0.21375053166E+01 0.20938889559E+01 0.21375119751E+01 0.22706482221E+01
 0.25002484001E+01 0.28379991650E+01 0.32997838259E+01 0.39037908750E+01 0.46666439955E+01
 0.55974566631E+01 0.66905001581E+01 0.79179441691E+01 0.92246540733E+01 0.10527227941E+02
 0.11719293701E+02 0.12684257717E+02 0.13314650148E+02 0.13534024047E+02 0.13314633352E+02
 0.12684242822E+02 0.11719296463E+02 0.10527250279E+02 0.92246896826E+01 0.79179770108E+01
 0.66904996784E+01 0.55974013026E+01 0.45945175849E+01 0.37938823355E+01 0.31767209391E+01
 0.27188656085E+01 0.23970721073E+01 0.21928003573E+01 0.20936935379E+01 0.20936888089E+01
 0.21927806503E+01 0.23970345568E+01 0.27188315355E+01 0.31767289063E+01 0.37939481772E+01
 0.45946068977E+01 0.55974566631E+01 0.68077553081E+01 0.82085626492E+01 0.97530540165E+01
 0.11359653036E+02 0.12912340834E+02 0.14269252090E+02 0.15282081723E+02 0.15824957796E+02
 0.15824960032E+02 0.15282089074E+02 0.14269263014E+02 0.12912352299E+02 0.11359670212E+02
 0.97530861415E+01 0.82085987421E+01 0.68077583736E+01 0.54157950150E+01 0.43873317149E+01
 0.35874531715E+01 0.29875959055E+01 0.25569554702E+01 0.22687488092E+01 0.21034509440E+01
 0.20495900480E+01 0.21034278890E+01 0.22687097413E+01 0.25569229695E+01 0.29876026919E+01
 0.35875130346E+01 0.43874150249E+01 0.54158467752E+01 0.66905001581E+01 0.82085626492E+01
 0.99373670900E+01 0.11806345671E+02 0.13701840055E+02 0.15468537226E+02 0.16923532692E+02
 0.17887025460E+02 0.18224831905E+02 0.17887050267E+02 0.16923565022E+02 0.15468556123E+02
 0.13701843024E+02 0.11806355212E+02 0.99374030245E+01 0.82086077998E+01 0.66905088723E+01
 0.50749952165E+01 0.40697355851E+01 0.33079689456E+01 0.27527355267E+01 0.23687278667E+01
 0.21279682760E+01 0.20120393354E+01 0.20120292183E+01 0.21279367216E+01 0.23686876331E+01
 0.27527259238E+01 0.33080206122E+01 0.40698231685E+01 0.50750513569E+01 0.63535779497E+01
 0.79179441691E+01 0.97530540165E+01 0.11806345671E+02 0.13978493373E+02 0.16117113752E+02
 0.18021002786E+02 0.19463441480E+02 0.20242133741E+02 0.20242129940E+02 0.19463440425E+02
 0.18021016265E+02 0.16117132618E+02 0.13978505234E+02 0.11806363477E+02 0.97530990221E+01