 running on    8 total cores
 distrk:  each k-point on    8 cores,    1 groups
 distr:  one band on    1 cores,    8 groups
 using from now: INCAR     
 vasp.5.4.4.18Apr17-6-g9f103f2a35 (build Dec 09 2018 21:25:21) complex          
  
 POSCAR found type information on POSCAR  Si
 POSCAR found :  1 types and       2 ions
 scaLAPACK will be used

 ----------------------------------------------------------------------------- 
|                                                                             |
|           W    W    AA    RRRRR   N    N  II  N    N   GGGG   !!!           |
|           W    W   A  A   R    R  NN   N  II  NN   N  G    G  !!!           |
|           W    W  A    A  R    R  N N  N  II  N N  N  G       !!!           |
|           W WW W  AAAAAA  RRRRR   N  N N  II  N  N N  G  GGG   !            |
|           WW  WW  A    A  R   R   N   NN  II  N   NN  G    G                |
|           W    W  A    A  R    R  N    N  II  N    N   GGGG   !!!           |
|                                                                             |
|      For optimal performance we recommend to set                            |
|        NCORE= 4 - approx SQRT( number of cores)                             |
|      NCORE specifies how many cores store one orbital (NPAR=cpu/NCORE).     |
|      This setting can  greatly improve the performance of VASP for DFT.     |
|      The default,   NCORE=1            might be grossly inefficient         |
|      on modern multi-core architectures or massively parallel machines.     |
|      Do your own testing !!!!                                               |
|      Unfortunately you need to use the default for GW and RPA calculations. |
|      (for HF NCORE is supported but not extensively tested yet)             |
|                                                                             |
 ----------------------------------------------------------------------------- 

 LDA part: xc-table for Pade appr. of Perdew
 POSCAR, INCAR and KPOINTS ok, starting setup
 FFT: planning ...
 WAVECAR not read
 entering main loop
       N       E                     dE             d eps       ncg     rms          rms(c)
DAV:   1    -0.309170906466E+01   -0.30917E+01   -0.20425E+03  1640   0.381E+02
DAV:   2    -0.101507187739E+02   -0.70590E+01   -0.68799E+01  2536   0.488E+01
DAV:   3    -0.102036753005E+02   -0.52957E-01   -0.52862E-01  1864   0.515E+00
DAV:   4    -0.102037947339E+02   -0.11943E-03   -0.11942E-03  2568   0.199E-01
DAV:   5    -0.102037947809E+02   -0.46978E-07   -0.47050E-07  1824   0.273E-03    0.150E+00
DAV:   6    -0.101976759166E+02    0.61189E-02   -0.17352E-03  2008   0.303E-01    0.939E-01
DAV:   7    -0.101928833063E+02    0.47926E-02   -0.51779E-03  1792   0.540E-01    0.338E-02
DAV:   8    -0.101928665166E+02    0.16790E-04   -0.73512E-05  1112   0.654E-02
   1 F= -.10192867E+02 E0= -.10184587E+02  d E =-.101929E+02
 curvature:   0.00 expect dE= 0.000E+00 dE for cont linesearch  0.000E+00
 trial: gam= 0.00000 g(F)=  0.258E-45 g(S)=  0.114E-01 ort = 0.000E+00 (trialstep = 0.100E+01)
 search vector abs. value=  0.114E-01
 bond charge predicted
       N       E                     dE             d eps       ncg     rms          rms(c)
DAV:   1    -0.102052998335E+02   -0.12417E-01   -0.28945E-01  2416   0.306E+00    0.331E-01
DAV:   2    -0.102022200751E+02    0.30798E-02   -0.57895E-03  1952   0.577E-01    0.184E-01
DAV:   3    -0.102007722191E+02    0.14479E-02   -0.38979E-03  2144   0.344E-01    0.163E-02
DAV:   4    -0.102007833920E+02   -0.11173E-04   -0.13889E-04  1008   0.945E-02
   2 F= -.10200783E+02 E0= -.10192366E+02  d E =-.791688E-02
 trial-energy change:   -0.007917  1 .order   -0.008533   -0.011391   -0.005675
 step:   1.9929(harm=  1.9929)  dis= 0.00000  next Energy=   -10.204217 (dE=-0.114E-01)
 bond charge predicted
       N       E                     dE             d eps       ncg     rms          rms(c)
DAV:   1    -0.102098658779E+02   -0.90937E-02   -0.28373E-01  2352   0.300E+00    0.318E-01
DAV:   2    -0.102069860277E+02    0.28799E-02   -0.55229E-03  1984   0.565E-01    0.178E-01
DAV:   3    -0.102056172676E+02    0.13688E-02   -0.36350E-03  2112   0.332E-01    0.152E-02
DAV:   4    -0.102056272302E+02   -0.99626E-05   -0.12768E-04   944   0.906E-02
   3 F= -.10205627E+02 E0= -.10196877E+02  d E =-.127607E-01
 curvature:  -1.00 expect dE=-0.291E-02 dE for cont linesearch -0.112E-02
 ZBRENT: increasing intervall
 opt :   3.9788  next Energy=   -10.208577 (dE=-0.157E-01)
 bond charge predicted
       N       E                     dE             d eps       ncg     rms          rms(c)
DAV:   1    -0.102264179375E+02   -0.20801E-01   -0.11101E+00  2256   0.584E+00    0.615E-01
DAV:   2    -0.102155616650E+02    0.10856E-01   -0.21410E-02  1872   0.111E+00    0.345E-01
DAV:   3    -0.102103330685E+02    0.52286E-02   -0.13822E-02  2152   0.644E-01    0.311E-02
DAV:   4    -0.102103684570E+02   -0.35389E-04   -0.46042E-04   960   0.172E-01
   4 F= -.10210368E+02 E0= -.10202183E+02  d E =-.175019E-01
 curvature:  -2.62 expect dE=-0.107E-01 dE for cont linesearch -0.181E-07
 trial: gam= 0.35733 g(F)=  0.102E-46 g(S)=  0.408E-02 ort = 0.886E-05 (trialstep = 0.160E+01)
 search vector abs. value=  0.554E-02
 bond charge predicted
       N       E                     dE             d eps       ncg     rms          rms(c)
DAV:   1    -0.102127723007E+02   -0.24392E-02   -0.26281E-01  2280   0.295E+00    0.314E-01
DAV:   2    -0.102102567874E+02    0.25155E-02   -0.40862E-03  1912   0.473E-01    0.184E-01
DAV:   3    -0.102088137258E+02    0.14431E-02   -0.25352E-03  2056   0.282E-01    0.164E-02
DAV:   4    -0.102088129672E+02    0.75851E-06   -0.58284E-05   856   0.580E-02
   5 F= -.10208813E+02 E0= -.10200911E+02  d E =0.155549E-02
 trial-energy change:    0.001555  1 .order    0.001718   -0.006514    0.009951
 step:   0.6313(harm=  0.6313)  dis= 0.00000  next Energy=   -10.211657 (dE=-0.129E-02)
 bond charge predicted
       N       E                     dE             d eps       ncg     rms          rms(c)
DAV:   1    -0.102132964128E+02   -0.44827E-02   -0.94593E-02  2264   0.175E+00    0.191E-01
DAV:   2    -0.102123366445E+02    0.95977E-03   -0.15297E-03  1872   0.287E-01    0.112E-01
DAV:   3    -0.102117758900E+02    0.56075E-03   -0.96338E-04  1400   0.175E-01    0.939E-03
DAV:   4    -0.102117758041E+02    0.85827E-07   -0.37631E-05   824   0.499E-02
   6 F= -.10211776E+02 E0= -.10203723E+02  d E =-.140735E-02
 curvature:  -0.43 expect dE=-0.991E-05 dE for cont linesearch -0.737E-06
 ZBRENT: interpolating
 opt :   0.6462  next Energy=   -10.211777 (dE=-0.141E-02)
 bond charge predicted
       N       E                     dE             d eps       ncg     rms          rms(c)
DAV:   1    -0.102117757365E+02    0.15345E-06   -0.30133E-05   808   0.320E-02    0.386E-03
DAV:   2    -0.102117754362E+02    0.30033E-06   -0.14431E-06   816   0.986E-03
   7 F= -.10211775E+02 E0= -.10203724E+02  d E =-.140698E-02
 curvature:  -0.42 expect dE=-0.112E-04 dE for cont linesearch -0.526E-06
 ZBRENT: interpolating
 opt :   0.7301  next Energy=   -10.211779 (dE=-0.141E-02)
 bond charge predicted
       N       E                     dE             d eps       ncg     rms          rms(c)
DAV:   1    -0.102117660645E+02    0.96720E-05   -0.68851E-04  1384   0.151E-01    0.164E-02
DAV:   2    -0.102117600580E+02    0.60066E-05   -0.18549E-05   808   0.331E-02
   8 F= -.10211760E+02 E0= -.10203714E+02  d E =-.139160E-02
 curvature:  -2.83 expect dE=-0.672E-04 dE for cont linesearch -0.579E-04
 trial: gam= 0.00000 g(F)=  0.913E-46 g(S)=  0.237E-04 ort =-0.336E-03 (trialstep = 0.142E+01)
 search vector abs. value=  0.237E-04
 reached required accuracy - stopping structural energy minimisation
 writing wavefunctions
