unknown system                          
   1.00000000000000     
     0.000000    2.744734    2.744734
     2.744734    0.000000    2.744734
     2.744734    2.744734   -0.000000
   Si
     2
Direct
  0.500000  0.500000  0.500000
  0.750000  0.750000  0.750000
 
   32   32   32
 0.87438     0.89606     0.96227      1.0766      1.2450      1.4757      1.7781      2.1618      2.6329      3.1903    
  3.8211      4.4971      5.1739      5.7947      6.2975      6.6258      6.7400      6.6257      6.2974      5.7946    
  5.1738      4.4969      3.8211      3.1903      2.6330      2.1619      1.7783      1.4758      1.2450      1.0766    
 0.96220     0.89602     0.89606     0.93348      1.0103      1.1302      1.2987      1.5224      1.8082      2.1617    
  2.5848      3.0719      3.6068      4.1603      4.6914      5.1515      5.4921      5.6734      5.6734      5.4920    
  5.1515      4.6913      4.1602      3.6068      3.0720      2.5849      2.1618      1.8083      1.5225      1.2987    
  1.1302      1.0102     0.93343     0.89604     0.96227      1.0103      1.0929      1.2137      1.3774      1.5889    
  1.8529      2.1720      2.5442      2.9607      3.4035      3.8445      4.2474      4.5729      4.7851      4.8589    
  4.7851      4.5729      4.2474      3.8445      3.4036      2.9609      2.5443      2.1721      1.8530      1.5889    
  1.3773      1.2136      1.0928      1.0102     0.96225     0.94653      1.0766      1.1302      1.2137      1.3303    
  1.4840      1.6784      1.9161      2.1972      2.5171      2.8649      3.2219      3.5624      3.8562      4.0730    
  4.1883      4.1883      4.0730      3.8562      3.5624      3.2219      2.8650      2.5172      2.1973      1.9161    
  1.6783      1.4839      1.3303      1.2136      1.1302      1.0766      1.0504      1.0504      1.2450      1.2987    
  1.3774      1.4840      1.6219      1.7938      2.0008      2.2409      2.5077      2.7891      3.0675      3.3205    
  3.5240      3.6563      3.7022      3.6562      3.5239      3.3205      3.0675      2.7892      2.5077      2.2409    
  2.0008      1.7938      1.6218      1.4839      1.3773      1.2987      1.2450      1.2138      1.2036      1.2138    
  1.4757      1.5224      1.5889      1.6784      1.7938      1.9372      2.1085      2.3043      2.5171      2.7351    
  2.9423      3.1203      3.2512      3.3206      3.3206      3.2512      3.1202      2.9423      2.7351      2.5171    
  2.3043      2.1085      1.9372      1.7937      1.6783      1.5889      1.5224      1.4757      1.4461      1.4317    
  1.4317      1.4460      1.7781      1.8082      1.8529      1.9161      2.0008      2.1085      2.2382      2.3860    
  2.5442      2.7017      2.8451      2.9604      3.0352      3.0612      3.0352      2.9604      2.8451      2.7017    
  2.5442      2.3860      2.2382      2.1084      2.0008      1.9161      1.8529      1.8082      1.7782      1.7595    
  1.7493      1.7461      1.7492      1.7594      2.1618      2.1617      2.1720      2.1972      2.2409      2.3043    
  2.3860      2.4819      2.5848      2.6853      2.7729      2.8378      2.8723      2.8723      2.8378      2.7729    
  2.6853      2.5848      2.4819      2.3860      2.3043      2.2409      2.1972      2.1720      2.1618      2.1619    
  2.1673      2.1737      2.1777      2.1776      2.1736      2.1672      2.6329      2.5848      2.5442      2.5171    
  2.5077      2.5171      2.5442      2.5848      2.6329      2.6810      2.7218      2.7490      2.7586      2.7491    
  2.7219      2.6811      2.6329      2.5848      2.5442      2.5172      2.5077      2.5172      2.5442      2.5848    
  2.6329      2.6811      2.7219      2.7491      2.7586      2.7490      2.7218      2.6810      3.1903      3.0719    
  2.9607      2.8649      2.7891      2.7351      2.7017      2.6853      2.6810      2.6836      2.6882      2.6914    
  2.6914      2.6883      2.6837      2.6811      2.6854      2.7017      2.7352      2.7892      2.8649      2.9608    
  3.0720      3.1903      3.3052      3.4049      3.4785      3.5176      3.5176      3.4785      3.4050      3.3052    
  3.8211      3.6068      3.4035      3.2219      3.0675      2.9423      2.8451      2.7729      2.7218      2.6882    
  2.6692      2.6631      2.6693      2.6883      2.7220      2.7730      2.8452      2.9424      3.0676      3.2219    
  3.4036      3.6068      3.8211      4.0318      4.2215      4.3725      4.4698      4.5034      4.4698      4.3726    
  4.2216      4.0319      4.4971      4.1603      3.8445      3.5624      3.3205      3.1203      2.9604      2.8378    
  2.7490      2.6914      2.6631      2.6631      2.6916      2.7492      2.8379      2.9606      3.1204      3.3205    
  3.5624      3.8445      4.1602      4.4969      4.8355      5.1514      5.4182      5.6116      5.7133      5.7133    
  5.6117      5.4183      5.1515      4.8356      5.1739      4.6914      4.2474      3.8562      3.5240      3.2512    
  3.0352      2.8723      2.7586      2.6914      2.6693      2.6916      2.7588      2.8725      3.0354      3.2513    
  3.5240      3.8562      4.2473      4.6913      5.1738      5.6712      6.1516      6.5780      6.9139      7.1287    
  7.2026      7.1287      6.9140      6.5782      6.1518      5.6714      5.7947      5.1515      4.5729      4.0730    
  3.6563      3.3206      3.0612      2.8723      2.7491      2.6883      2.6883      2.7492      2.8725      3.0614    
  3.3208      3.6563      4.0730      4.5728      5.1514      5.7946      6.4758      7.1562      7.7874      8.3180    
  8.7014      8.9024      8.9024      8.7014      8.3181      7.7874      7.1563      6.4759      6.2975      5.4921    
  4.7851      4.1883      3.7022      3.3206      3.0352      2.8378      2.7219      2.6837      2.7220      2.8379    
  3.0354      3.3208      3.7022      4.1883      4.7850      5.4919      6.2973      7.1746      8.0803      8.9562    
  9.7351      10.350      10.744      10.880      10.744      10.350      9.7350      8.9562      8.0804      7.1747    
  6.6258      5.6734      4.8589      4.1883      3.6562      3.2512      2.9604      2.7729      2.6811      2.6811    
  2.7730      2.9606      3.2513      3.6563      4.1883      4.8588      5.6733      6.6257      7.6928      8.8312    
  9.9767      11.049      11.958      12.622      12.972      12.972      12.622      11.958      11.048      9.9766    
  8.8312      7.6929      6.7400      5.6734      4.7851      4.0730      3.5239      3.1202      2.8451      2.6853    
  2.6329      2.6854      2.8452      3.1204      3.5240      4.0730      4.7850      5.6733      6.7399      7.9692    
  9.3229      10.737      12.125      13.379      14.385      15.039      15.265      15.039      14.385      13.379    
  12.125      10.737      9.3229      7.9693      6.6257      5.4920      4.5729      3.8562      3.3205      2.9423    
  2.7017      2.5848      2.5848      2.7017      2.9424      3.3205      3.8562      4.5728      5.4919      6.6257    
  7.9692      9.4942      11.145      12.835      14.450      15.849      16.877      17.420      17.420      16.877    
  15.849      14.450      12.835      11.145      9.4942      7.9692      6.2974      5.1515      4.2474      3.5624    
  3.0675      2.7351      2.5442      2.4819      2.5442      2.7352      3.0676      3.5624      4.2473      5.1514    
  6.2973      7.6928      9.3229      11.145      13.084      15.028      16.819      18.257      19.186      19.507    
  19.186      18.258      16.819      15.029      13.084      11.145      9.3229      7.6928      5.7946      4.6913    
  3.8445      3.2219      2.7892      2.5171      2.3860      2.3860      2.5172      2.7892      3.2219      3.8445    
  4.6913      5.7946      7.1746      8.8312      10.737      12.835      15.028      17.159      18.998      20.346    
  21.059      21.059      20.346      18.998      17.159      15.029      12.835      10.737      8.8311      7.1746    
  5.1738      4.1602      3.4036      2.8650      2.5077      2.3043      2.2382      2.3043      2.5077      2.8649    
  3.4036      4.1602      5.1738      6.4758      8.0803      9.9767      12.125      14.450      16.819      18.998    
  20.751      21.887      22.281      21.888      20.751      18.998      16.819      14.450      12.125      9.9765    
  8.0802      6.4758      4.4969      3.6068      2.9609      2.5172      2.2409      2.1085      2.1084      2.2409    
  2.5172      2.9608      3.6068      4.4969      5.6712      7.1562      8.9562      11.049      13.379      15.849    
  18.257      20.346      21.887      22.706      22.706      21.887      20.346      18.257      15.849      13.379    
  11.048      8.9561      7.1561      5.6712      3.8211      3.0720      2.5443      2.1973      2.0008      1.9372    
  2.0008      2.1972      2.5442      3.0720      3.8211      4.8355      6.1516      7.7874      9.7351      11.958    
  14.385      16.877      19.186      21.059      22.281      22.706      22.281      21.058      19.186      16.877    
  14.385      11.958      9.7350      7.7872      6.1515      4.8354      3.1903      2.5849      2.1721      1.9161    
  1.7938      1.7937      1.9161      2.1720      2.5848      3.1903      4.0318      5.1514      6.5780      8.3180    
  10.350      12.622      15.039      17.420      19.507      21.059      21.888      21.887      21.058      19.506    
  17.420      15.039      12.621      10.350      8.3179      6.5779      5.1513      4.0317      2.6330      2.1618    
  1.8530      1.6783      1.6218      1.6783      1.8529      2.1618      2.6329      3.3052      4.2215      5.4182    
  6.9139      8.7014      10.744      12.972      15.265      17.420      19.186      20.346      20.751      20.346    
  19.186      17.420      15.265      12.972      10.744      8.7012      6.9137      5.4181      4.2215      3.3052    
  2.1619      1.8083      1.5889      1.4839      1.4839      1.5889      1.8082      2.1619      2.6811      3.4049    
  4.3725      5.6116      7.1287      8.9024      10.880      12.972      15.039      16.877      18.258      18.998    
  18.998      18.257      16.877      15.039      12.972      10.880      8.9023      7.1285      5.6115      4.3725    
  3.4049      2.6811      1.7783      1.5225      1.3773      1.3303      1.3773      1.5224      1.7782      2.1673    
  2.7219      3.4785      4.4698      5.7133      7.2026      8.9024      10.744      12.622      14.385      15.849    
  16.819      17.159      16.819      15.849      14.385      12.621      10.744      8.9023      7.2025      5.7132    
  4.4697      3.4785      2.7219      2.1674      1.4758      1.2987      1.2136      1.2136      1.2987      1.4757    
  1.7595      2.1737      2.7491      3.5176      4.5034      5.7133      7.1287      8.7014      10.350      11.958    
  13.379      14.450      15.029      15.029      14.450      13.379      11.958      10.350      8.7012      7.1285    
  5.7132      4.5034      3.5176      2.7491      2.1738      1.7596      1.2450      1.1302      1.0928      1.1302    
  1.2450      1.4461      1.7493      2.1777      2.7586      3.5176      4.4698      5.6117      6.9140      8.3181    
  9.7350      11.048      12.125      12.835      13.084      12.835      12.125      11.048      9.7350      8.3179    
  6.9137      5.6115      4.4697      3.5176      2.7587      2.1778      1.7494      1.4461      1.0766      1.0102    
  1.0102      1.0766      1.2138      1.4317      1.7461      2.1776      2.7490      3.4785      4.3726      5.4183    
  6.5782      7.7874      8.9562      9.9766      10.737      11.145      11.145      10.737      9.9765      8.9561    
  7.7872      6.5779      5.4181      4.3725      3.4785      2.7491      2.1778      1.7462      1.4318      1.2138    
 0.96220     0.93343     0.96225      1.0504      1.2036      1.4317      1.7492      2.1736      2.7218      3.4050    
  4.2216      5.1515      6.1518      7.1563      8.0804      8.8312      9.3229      9.4942      9.3229      8.8311    
  8.0802      7.1561      6.1515      5.1513      4.2215      3.4049      2.7219      2.1738      1.7494      1.4318    
  1.2036      1.0504     0.89602     0.89604     0.94653      1.0504      1.2138      1.4460      1.7594      2.1672    
  2.6810      3.3052      4.0319      4.8356      5.6714      6.4759      7.1747      7.6929      7.9693      7.9692    
  7.6928      7.1746      6.4758      5.6712      4.8354      4.0317      3.3052      2.6811      2.1674      1.7596    
  1.4461      1.2138      1.0504     0.94647     0.89606     0.93348      1.0103      1.1302      1.2987      1.5224    
  1.8082      2.1617      2.5848      3.0719      3.6068      4.1603      4.6914      5.1515      5.4921      5.6734    
  5.6734      5.4920      5.1515      4.6913      4.1602      3.6068      3.0720      2.5849      2.1618      1.8083    
  1.5225      1.2987      1.1302      1.0102     0.93343     0.89604     0.93348     0.98033      1.0610      1.1793    
  1.3396      1.5468      1.8054      2.1177      2.4819      2.8892      3.3219      3.7527      4.1464      4.4645    
  4.6719      4.7440      4.6718      4.4644      4.1464      3.7527      3.3220      2.8893      2.4821      2.1179    
  1.8055      1.5468      1.3395      1.1792      1.0610     0.98030     0.93346     0.91813      1.0103      1.0610    
  1.1404      1.2516      1.3985      1.5845      1.8120      2.0806      2.3860      2.7177      3.0581      3.3828    
  3.6631      3.8701      3.9802      3.9802      3.8700      3.6631      3.3828      3.0582      2.7178      2.3861    
  2.0807      1.8120      1.5845      1.3985      1.2516      1.1403      1.0610      1.0103     0.98553     0.98553    
  1.1302      1.1793      1.2516      1.3504      1.4787      1.6391      1.8321      2.0559      2.3043      2.5662    
  2.8253      3.0610      3.2507      3.3743      3.4171      3.3742      3.2507      3.0610      2.8254      2.5663    
  2.3044      2.0559      1.8321      1.6390      1.4787      1.3503      1.2516      1.1793      1.1302      1.1019    
  1.0926      1.1019      1.2987      1.3396      1.3985      1.4787      1.5831      1.7133      1.8691      2.0472    
  2.2409      2.4394      2.6282      2.7907      2.9104      2.9740      2.9740      2.9104      2.7906      2.6282    
  2.4394      2.2410      2.0473      1.8691      1.7132      1.5830      1.4786      1.3984      1.3395      1.2988    
  1.2733      1.2610      1.2610      1.2732      1.5224      1.5468      1.5845      1.6391      1.7133      1.8086    
  1.9240      2.0559      2.1972      2.3383      2.4670      2.5708      2.6383      2.6617      2.6383      2.5708    
  2.4670      2.3383      2.1973      2.0559      1.9240      1.8086      1.7132      1.6390      1.5845      1.5468    
  1.5224      1.5079      1.5003      1.4979      1.5002      1.5078      1.8082      1.8054      1.8120      1.8321    
  1.8691      1.9240      1.9958      2.0806      2.1720      2.2615      2.3398      2.3979      2.4289      2.4289    
  2.3979      2.3398      2.2615      2.1720      2.0806      1.9958      1.9240      1.8690      1.8321      1.8119    
  1.8054      1.8082      1.8155      1.8230      1.8275      1.8275      1.8229      1.8154      2.1617      2.1177    
  2.0806      2.0559      2.0472      2.0559      2.0806      2.1177      2.1617      2.2057      2.2431      2.2680    
  2.2768      2.2681      2.2431      2.2058      2.1617      2.1178      2.0806      2.0559      2.0472      2.0559    
  2.0806      2.1178      2.1617      2.2058      2.2431      2.2680      2.2768      2.2680      2.2431      2.2057    
  2.5848      2.4819      2.3860      2.3043      2.2409      2.1972      2.1720      2.1617      2.1618      2.1672    
  2.1736      2.1776      2.1777      2.1737      2.1673      2.1619      2.1618      2.1720      2.1972      2.2409    
  2.3043      2.3860      2.4819      2.5848      2.6853      2.7729      2.8378      2.8723      2.8723      2.8378    
  2.7729      2.6853      3.0719      2.8892      2.7177      2.5662      2.4394      2.3383      2.2615      2.2057    
  2.1672      2.1425      2.1287      2.1243      2.1288      2.1426      2.1674      2.2058      2.2615      2.3383    
  2.4393      2.5662      2.7177      2.8892      3.0719      3.2531      3.4175      3.5493      3.6347      3.6642    
  3.6347      3.5494      3.4176      3.2532      3.6068      3.3219      3.0581      2.8253      2.6282      2.4670    
  2.3398      2.2431      2.1736      2.1287      2.1067      2.1067      2.1289      2.1738      2.2432      2.3398    
  2.4670      2.6281      2.8252      3.0581      3.3219      3.6067      3.8964      4.1697      4.4028      4.5733    
  4.6633      4.6634      4.5733      4.4029      4.1697      3.8964      4.1603      3.7527      3.3828      3.0610    
  2.7907      2.5708      2.3979      2.2680      2.1776      2.1243      2.1067      2.1244      2.1778      2.2682    
  2.3980      2.5708      2.7906      3.0608      3.3827      3.7527      4.1602      4.5862      5.0035      5.3787    
  5.6776      5.8704      5.9371      5.8705      5.6777      5.3788      5.0036      4.5863      4.6914      4.1464    
  3.6631      3.2507      2.9104      2.6383      2.4289      2.2768      2.1777      2.1288      2.1289      2.1778    
  2.2770      2.4290      2.6383      2.9103      3.2506      3.6630      4.1463      4.6913      5.2775      5.8723    
  6.4326      6.9101      7.2588      7.4430      7.4430      7.2589      6.9101      6.4327      5.8724      5.2776    
  5.1515      4.4645      3.8701      3.3743      2.9740      2.6617      2.4289      2.2681      2.1737      2.1426    
  2.1738      2.2682      2.4290      2.6617      2.9739      3.3741      3.8699      4.4643      5.1514      5.9119    
  6.7102      7.4948      8.2027      8.7684      9.1342      9.2608      9.1342      8.7684      8.2028      7.4948    
  6.7103      5.9120      5.4921      4.6719      3.9802      3.4171      2.9740      2.6383      2.3979      2.2431    
  2.1673      2.1674      2.2432      2.3980      2.6383      2.9739      3.4170      3.9800      4.6717      5.4919    
  6.4258      7.4388      8.4748      9.4583      10.303      10.924      11.253      11.253      10.924      10.303    
  9.4582      8.4748      7.4389      6.4259      5.6734      4.7440      3.9802      3.3742      2.9104      2.5708    
  2.3398      2.2058      2.1619      2.2058      2.3398      2.5708      2.9103      3.3741      3.9800      4.7438    
  5.6733      6.7614      7.9795      9.2726      10.558      11.733      12.682      13.301      13.517      13.301    
  12.682      11.733      10.558      9.2726      7.9796      6.7615      5.6734      4.6718      3.8700      3.2507    
  2.7906      2.4670      2.2615      2.1617      2.1618      2.2615      2.4670      2.7906      3.2506      3.8699    
  4.6717      5.6733      6.8781      8.2680      9.7957      11.380      12.909      14.242      15.236      15.768    
  15.768      15.236      14.242      12.909      11.380      9.7957      8.2681      6.8783      5.4920      4.4644    
  3.6631      3.0610      2.6282      2.3383      2.1720      2.1178      2.1720      2.3383      2.6281      3.0608    
  3.6630      4.4643      5.4919      6.7614      8.2680      9.9780      11.821      13.686      15.421      16.847    
  17.791      18.122      17.791      16.848      15.421      13.686      11.821      9.9781      8.2681      6.7615    
  5.1515      4.1464      3.3828      2.8254      2.4394      2.1973      2.0806      2.0806      2.1972      2.4393    
  2.8252      3.3827      4.1463      5.1514      6.4258      7.9795      9.7957      11.821      13.958      16.058    
  17.924      19.335      20.096      20.096      19.335      17.924      16.058      13.958      11.821      9.7957    
  7.9795      6.4258      4.6913      3.7527      3.0582      2.5663      2.2410      2.0559      1.9958      2.0559    
  2.2409      2.5662      3.0581      3.7527      4.6913      5.9119      7.4388      9.2726      11.380      13.686    
  16.058      18.303      20.173      21.414      21.849      21.414      20.173      18.304      16.058      13.686    
  11.380      9.2726      7.4388      5.9119      4.1602      3.3220      2.7178      2.3044      2.0473      1.9240    
  1.9240      2.0472      2.3043      2.7177      3.3219      4.1602      5.2775      6.7102      8.4748      10.558    
  12.909      15.421      17.924      20.173      21.877      22.798      22.798      21.877      20.173      17.924    
  15.421      12.909      10.558      8.4747      6.7101      5.2775      3.6068      2.8893      2.3861      2.0559    
  1.8691      1.8086      1.8690      2.0559      2.3860      2.8892      3.6067      4.5862      5.8723      7.4948    
  9.4583      11.733      14.242      16.847      19.335      21.414      22.798      23.284      22.798      21.414    
  19.335      16.847      14.242      11.733      9.4582      7.4947      5.8723      4.5862      3.0720      2.4821    
  2.0807      1.8321      1.7132      1.7132      1.8321      2.0806      2.4819      3.0719      3.8964      5.0035    
  6.4326      8.2027      10.303      12.682      15.236      17.791      20.096      21.849      22.798      22.798    
  21.849      20.096      17.791      15.236      12.682      10.303      8.2026      6.4325      5.0035      3.8964    
  2.5849      2.1179      1.8120      1.6390      1.5830      1.6390      1.8119      2.1178      2.5848      3.2531    
  4.1697      5.3787      6.9101      8.7684      10.924      13.301      15.768      18.122      20.096      21.414    
  21.877      21.414      20.096      18.122      15.768      13.301      10.924      8.7683      6.9100      5.3787    
  4.1697      3.2532      2.1618      1.8055      1.5845      1.4787      1.4786      1.5845      1.8054      2.1617    
  2.6853      3.4175      4.4028      5.6776      7.2588      9.1342      11.253      13.517      15.768      17.791    
  19.335      20.173      20.173      19.335      17.791      15.768      13.517      11.253      9.1341      7.2587    
  5.6775      4.4029      3.4177      2.6854      1.8083      1.5468      1.3985      1.3503      1.3984      1.5468    
  1.8082      2.2058      2.7729      3.5493      4.5733      5.8704      7.4430      9.2608      11.253      13.301    
  15.236      16.848      17.924      18.304      17.924      16.847      15.236      13.301      11.253      9.2607    
  7.4429      5.8704      4.5734      3.5495      2.7730      2.2059      1.5225      1.3395      1.2516      1.2516    
  1.3395      1.5224      1.8155      2.2431      2.8378      3.6347      4.6633      5.9371      7.4430      9.1342    
  10.924      12.682      14.242      15.421      16.058      16.058      15.421      14.242      12.682      10.924    
  9.1341      7.4429      5.9370      4.6634      3.6348      2.8380      2.2433      1.8155      1.2987      1.1792    
  1.1403      1.1793      1.2988      1.5079      1.8230      2.2680      2.8723      3.6642      4.6634      5.8705    
  7.2589      8.7684      10.303      11.733      12.909      13.686      13.958      13.686      12.909      11.733    
  10.303      8.7683      7.2587      5.8704      4.6634      3.6644      2.8725      2.2682      1.8231      1.5079    
  1.1302      1.0610      1.0610      1.1302      1.2733      1.5003      1.8275      2.2768      2.8723      3.6347    
  4.5733      5.6777      6.9101      8.2028      9.4582      10.558      11.380      11.821      11.821      11.380    
  10.558      9.4582      8.2026      6.9100      5.6775      4.5734      3.6348      2.8725      2.2770      1.8276    
  1.5003      1.2732      1.0102     0.98030      1.0103      1.1019      1.2610      1.4979      1.8275      2.2680    
  2.8378      3.5494      4.4029      5.3788      6.4327      7.4948      8.4748      9.2726      9.7957      9.9781    
  9.7957      9.2726      8.4747      7.4947      6.4325      5.3787      4.4029      3.5495      2.8380      2.2682    
  1.8276      1.4980      1.2610      1.1018     0.93343     0.93346     0.98553      1.0926      1.2610      1.5002    
  1.8229      2.2431      2.7729      3.4176      4.1697      5.0036      5.8724      6.7103      7.4389      7.9796    
  8.2681      8.2681      7.9795      7.4388      6.7101      5.8723      5.0035      4.1697      3.4177      2.7730    
  2.2433      1.8231      1.5003      1.2610      1.0926     0.98547     0.89604     0.91813     0.98553      1.1019    
  1.2732      1.5078      1.8154      2.2057      2.6853      3.2532      3.8964      4.5863      5.2776      5.9120    
  6.4259      6.7615      6.8783      6.7615      6.4258      5.9119      5.2775      4.5862      3.8964      3.2532    
  2.6854      2.2059      1.8155      1.5079      1.2732      1.1018     0.98547     0.91808     0.96227      1.0103    
  1.0929      1.2137      1.3774      1.5889      1.8529      2.1720      2.5442      2.9607      3.4035      3.8445    
  4.2474      4.5729      4.7851      4.8589      4.7851      4.5729      4.2474      3.8445      3.4036      2.9609    
  2.5443      2.1721      1.8530      1.5889      1.3773      1.2136      1.0928      1.0102     0.96225     0.94653    
  1.0103      1.0610      1.1404      1.2516      1.3985      1.5845      1.8120      2.0806      2.3860      2.7177    
  3.0581      3.3828      3.6631      3.8701      3.9802      3.9802      3.8700      3.6631      3.3828      3.0582    
  2.7178      2.3861      2.0807      1.8120      1.5845      1.3985      1.2516      1.1403      1.0610      1.0103    
 0.98553     0.98553      1.0929      1.1404      1.2107      1.3069      1.4322      1.5888      1.7774      1.9958    
  2.2382      2.4938      2.7466      2.9766      3.1619      3.2825      3.3244      3.2825      3.1618      2.9766    
  2.7466      2.4939      2.2383      1.9959      1.7774      1.5888      1.4321      1.3069      1.2107      1.1404    
  1.0929      1.0655      1.0566      1.0655      1.2137      1.2516      1.3069      1.3828      1.4819      1.6059    
  1.7544      1.9240      2.1085      2.2975      2.4774      2.6324      2.7467      2.8074      2.8074      2.7467    
  2.6324      2.4774      2.2975      2.1086      1.9241      1.7544      1.6059      1.4819      1.3827      1.3069    
  1.2516      1.2137      1.1902      1.1791      1.1790      1.1902      1.3774      1.3985      1.4322      1.4819    
  1.5505      1.6389      1.7463      1.8691      2.0008      2.1324      2.2528      2.3499      2.4132      2.4352    
  2.4132      2.3499      2.2528      2.1325      2.0009      1.8691      1.7463      1.6389      1.5504      1.4819    
  1.4322      1.3985      1.3774      1.3653      1.3593      1.3575      1.3592      1.3652      1.5889      1.5845    
  1.5888      1.6059      1.6389      1.6888      1.7544      1.8321      1.9161      1.9987      2.0712      2.1251    
  2.1539      2.1539      2.1251      2.0712      1.9987      1.9162      1.8321      1.7544      1.6887      1.6389    
  1.6059      1.5888      1.5845      1.5889      1.5975      1.6058      1.6109      1.6108      1.6058      1.5974    
  1.8529      1.8120      1.7774      1.7544      1.7463      1.7544      1.7774      1.8120      1.8529      1.8941    
  1.9291      1.9526      1.9609      1.9526      1.9292      1.8941      1.8530      1.8120      1.7774      1.7543    
  1.7463      1.7543      1.7774      1.8120      1.8530      1.8941      1.9292      1.9526      1.9609      1.9526    
  1.9291      1.8941      2.1720      2.0806      1.9958      1.9240      1.8691      1.8321      1.8120      1.8054    
  1.8082      1.8154      1.8229      1.8275      1.8275      1.8230      1.8155      1.8082      1.8054      1.8119    
  1.8321      1.8690      1.9240      1.9958      2.0806      2.1720      2.2615      2.3398      2.3979      2.4289    
  2.4289      2.3979      2.3398      2.2615      2.5442      2.3860      2.2382      2.1085      2.0008      1.9161    
  1.8529      1.8082      1.7781      1.7594      1.7492      1.7461      1.7493      1.7595      1.7782      1.8082    
  1.8529      1.9161      2.0008      2.1084      2.2382      2.3860      2.5442      2.7017      2.8451      2.9604    
  3.0352      3.0612      3.0353      2.9604      2.8451      2.7017      2.9607      2.7177      2.4938      2.2975    
  2.1324      1.9987      1.8941      1.8154      1.7594      1.7234      1.7059      1.7059      1.7235      1.7595    
  1.8155      1.8941      1.9986      2.1323      2.2974      2.4937      2.7177      2.9607      3.2092      3.4447    
  3.6466      3.7948      3.8732      3.8733      3.7948      3.6467      3.4447      3.2092      3.4035      3.0581    
  2.7466      2.4774      2.2528      2.0712      1.9291      1.8229      1.7492      1.7059      1.6916      1.7059    
  1.7493      1.8230      1.9292      2.0711      2.2526      2.4772      2.7465      3.0580      3.4035      3.7671    
  4.1255      4.4498      4.7094      4.8777      4.9359      4.8777      4.7095      4.4498      4.1255      3.7671    
  3.8445      3.3828      2.9766      2.6324      2.3499      2.1251      1.9526      1.8275      1.7461      1.7059    
  1.7059      1.7461      1.8276      1.9526      2.1250      2.3498      2.6322      2.9764      3.3827      3.8444    
  4.3451      4.8572      5.3432      5.7601      6.0661      6.2283      6.2283      6.0662      5.7601      5.3432    
  4.8572      4.3452      4.2474      3.6631      3.1619      2.7467      2.4132      2.1539      1.9609      1.8275    
  1.7493      1.7235      1.7493      1.8276      1.9609      2.1539      2.4131      2.7465      3.1616      3.6629    