   2   2   0   0
  0.2001288E+02  0.3839590E-09  0.3839590E-09  0.3839590E-09  0.5000000E-15
  1.000000000000000E-004
  CAR 
 unknown system                          
     15.90212178     -7.99234419  301      5.96351153      1.00000000
     -7.992  0.0000E+00  0.0000E+00
     -7.913  0.0000E+00  0.0000E+00
     -7.833  0.0000E+00  0.0000E+00
     -7.753  0.0000E+00  0.0000E+00
     -7.674  0.0000E+00  0.0000E+00
     -7.594  0.0000E+00  0.0000E+00
     -7.514  0.0000E+00  0.0000E+00
     -7.435  0.0000E+00  0.0000E+00
     -7.355  0.0000E+00  0.0000E+00
     -7.276  0.0000E+00  0.0000E+00
     -7.196  0.0000E+00  0.0000E+00
     -7.116  0.4937E-16  0.3932E-17
     -7.037  0.3976E-14  0.3206E-15
     -6.957  0.2332E-12  0.1889E-13
     -6.877  0.1000E-10  0.8157E-12
     -6.798  0.3140E-09  0.2583E-10
     -6.718  0.7216E-08  0.6005E-09
     -6.638  0.1214E-06  0.1027E-07
     -6.559  0.1496E-05  0.1294E-06
     -6.479  0.1351E-04  0.1206E-05
     -6.399  0.8948E-04  0.8333E-05
     -6.320  0.4346E-03  0.4295E-04
     -6.240  0.1548E-02  0.1663E-03
     -6.160  0.4049E-02  0.4888E-03
     -6.081  0.7772E-02  0.1108E-02
     -6.001  0.1096E-01  0.1981E-02
     -5.921  0.1142E-01  0.2890E-02
     -5.842  0.9106E-02  0.3615E-02
     -5.762  0.6955E-02  0.4169E-02
     -5.683  0.8815E-02  0.4871E-02
     -5.603  0.1658E-01  0.6192E-02
     -5.523  0.2754E-01  0.8385E-02
     -5.444  0.3455E-01  0.1114E-01
     -5.364  0.3218E-01  0.1370E-01
     -5.284  0.2311E-01  0.1554E-01
     -5.205  0.1593E-01  0.1681E-01
     -5.125  0.1705E-01  0.1817E-01
     -5.045  0.2550E-01  0.2020E-01
     -4.966  0.3368E-01  0.2288E-01
     -4.886  0.3393E-01  0.2558E-01
     -4.806  0.2630E-01  0.2768E-01
     -4.727  0.1866E-01  0.2917E-01
     -4.647  0.1885E-01  0.3067E-01
     -4.567  0.2804E-01  0.3290E-01
     -4.488  0.3983E-01  0.3607E-01
     -4.408  0.4516E-01  0.3967E-01
     -4.329  0.4104E-01  0.4294E-01
     -4.249  0.3542E-01  0.4576E-01
     -4.169  0.4022E-01  0.4896E-01
     -4.090  0.5828E-01  0.5361E-01
     -4.010  0.7867E-01  0.5987E-01
     -3.930  0.8702E-01  0.6680E-01
     -3.851  0.7883E-01  0.7308E-01
     -3.771  0.5990E-01  0.7785E-01
     -3.691  0.3867E-01  0.8093E-01
     -3.612  0.2240E-01  0.8272E-01
     -3.532  0.1613E-01  0.8400E-01
     -3.452  0.2045E-01  0.8563E-01
     -3.373  0.2995E-01  0.8801E-01
     -3.293  0.3605E-01  0.9089E-01
     -3.213  0.3499E-01  0.9367E-01
     -3.134  0.3268E-01  0.9628E-01
     -3.054  0.3865E-01  0.9935E-01
     -2.975  0.5570E-01  0.1038E+00
     -2.895  0.7684E-01  0.1099E+00
     -2.815  0.8979E-01  0.1171E+00
     -2.736  0.8481E-01  0.1238E+00
     -2.656  0.6276E-01  0.1288E+00
     -2.576  0.3551E-01  0.1316E+00
     -2.497  0.1510E-01  0.1328E+00
     -2.417  0.4775E-02  0.1332E+00
     -2.337  0.1116E-02  0.1333E+00
     -2.258  0.1920E-03  0.1333E+00
     -2.178  0.2427E-04  0.1333E+00
     -2.098  0.2251E-05  0.1333E+00
     -2.019  0.1602E-06  0.1333E+00
     -1.939  0.1540E-06  0.1333E+00
     -1.859  0.2178E-05  0.1333E+00
     -1.780  0.2379E-04  0.1333E+00
     -1.700  0.1913E-03  0.1334E+00
     -1.620  0.1134E-02  0.1334E+00
     -1.541  0.4975E-02  0.1338E+00
     -1.461  0.1623E-01  0.1351E+00
     -1.382  0.3973E-01  0.1383E+00
     -1.302  0.7393E-01  0.1442E+00
     -1.222  0.1072E+00  0.1527E+00
     -1.143  0.1256E+00  0.1627E+00
     -1.063  0.1248E+00  0.1727E+00
     -0.983  0.1091E+00  0.1814E+00
     -0.904  0.8356E-01  0.1880E+00
     -0.824  0.5404E-01  0.1923E+00
     -0.744  0.2821E-01  0.1946E+00
     -0.665  0.1157E-01  0.1955E+00
     -0.585  0.4222E-02  0.1958E+00
     -0.505  0.3860E-02  0.1961E+00
     -0.426  0.1049E-01  0.1970E+00
     -0.346  0.2658E-01  0.1991E+00
     -0.266  0.5111E-01  0.2031E+00
     -0.187  0.7349E-01  0.2090E+00
     -0.107  0.7871E-01  0.2153E+00
     -0.028  0.6260E-01  0.2203E+00
      0.052  0.3688E-01  0.2232E+00
      0.132  0.1605E-01  0.2245E+00
      0.211  0.5178E-02  0.2249E+00
      0.291  0.1389E-02  0.2250E+00
      0.371  0.1109E-02  0.2251E+00
      0.450  0.3486E-02  0.2254E+00
      0.530  0.9803E-02  0.2261E+00
      0.610  0.2045E-01  0.2278E+00
      0.689  0.3168E-01  0.2303E+00
      0.769  0.3750E-01  0.2333E+00
      0.849  0.3688E-01  0.2362E+00
      0.928  0.3552E-01  0.2390E+00
      1.008  0.3708E-01  0.2420E+00
      1.088  0.3728E-01  0.2450E+00
      1.167  0.3085E-01  0.2474E+00
      1.247  0.1986E-01  0.2490E+00
      1.326  0.1171E-01  0.2499E+00
      1.406  0.1331E-01  0.2510E+00
      1.486  0.2930E-01  0.2533E+00
      1.565  0.5905E-01  0.2580E+00
      1.645  0.9017E-01  0.2652E+00
      1.725  0.1024E+00  0.2734E+00
      1.804  0.8645E-01  0.2803E+00
      1.884  0.5466E-01  0.2846E+00
      1.964  0.2768E-01  0.2868E+00
      2.043  0.1772E-01  0.2882E+00
      2.123  0.2770E-01  0.2904E+00
      2.203  0.5615E-01  0.2949E+00
      2.282  0.9466E-01  0.3025E+00
      2.362  0.1250E+00  0.3124E+00
      2.442  0.1298E+00  0.3227E+00
      2.521  0.1112E+00  0.3316E+00
      2.601  0.9008E-01  0.3388E+00
      2.681  0.8313E-01  0.3454E+00
      2.760  0.8660E-01  0.3523E+00
      2.840  0.8941E-01  0.3594E+00
      2.919  0.8938E-01  0.3665E+00
      2.999  0.8762E-01  0.3735E+00
      3.079  0.8051E-01  0.3799E+00
      3.158  0.6961E-01  0.3855E+00
      3.238  0.6734E-01  0.3908E+00
      3.318  0.8115E-01  0.3973E+00
      3.397  0.1000E+00  0.4053E+00
      3.477  0.1071E+00  0.4138E+00
      3.557  0.1022E+00  0.4219E+00
      3.636  0.1008E+00  0.4300E+00
      3.716  0.1093E+00  0.4387E+00
      3.796  0.1139E+00  0.4477E+00
      3.875  0.1018E+00  0.4558E+00
      3.955  0.8077E-01  0.4623E+00
      4.035  0.6655E-01  0.4676E+00
      4.114  0.6296E-01  0.4726E+00
      4.194  0.6513E-01  0.4778E+00
      4.273  0.7130E-01  0.4835E+00
      4.353  0.7994E-01  0.4898E+00
      4.433  0.8371E-01  0.4965E+00
      4.512  0.7615E-01  0.5026E+00
      4.592  0.6014E-01  0.5073E+00
      4.672  0.4481E-01  0.5109E+00
      4.751  0.3737E-01  0.5139E+00
      4.831  0.3744E-01  0.5169E+00
      4.911  0.3762E-01  0.5199E+00
      4.990  0.3159E-01  0.5224E+00
      5.070  0.2141E-01  0.5241E+00
      5.150  0.1436E-01  0.5252E+00
      5.229  0.1467E-01  0.5264E+00
      5.309  0.1981E-01  0.5280E+00
      5.389  0.2329E-01  0.5298E+00
      5.468  0.2071E-01  0.5315E+00
      5.548  0.1359E-01  0.5326E+00
      5.628  0.6550E-02  0.5331E+00
      5.707  0.2318E-02  0.5333E+00
      5.787  0.6019E-03  0.5333E+00
      5.866  0.1147E-03  0.5333E+00
      5.946  0.1656E-04  0.5333E+00
      6.026  0.8048E-05  0.5333E+00
      6.105  0.5532E-04  0.5333E+00
      6.185  0.3486E-03  0.5334E+00
      6.265  0.1615E-02  0.5335E+00
      6.344  0.5488E-02  0.5339E+00
      6.424  0.1369E-01  0.5350E+00
      6.504  0.2508E-01  0.5370E+00
      6.583  0.3384E-01  0.5397E+00
      6.663  0.3403E-01  0.5424E+00
      6.743  0.2719E-01  0.5446E+00
      6.822  0.2185E-01  0.5463E+00
      6.902  0.2452E-01  0.5483E+00
      6.982  0.3281E-01  0.5509E+00
      7.061  0.3857E-01  0.5540E+00
      7.141  0.3709E-01  0.5569E+00
      7.220  0.3158E-01  0.5594E+00
      7.300  0.2899E-01  0.5617E+00
      7.380  0.3432E-01  0.5645E+00
      7.459  0.4826E-01  0.5683E+00
      7.539  0.6683E-01  0.5736E+00
      7.619  0.8449E-01  0.5804E+00
      7.698  0.9815E-01  0.5882E+00
      7.778  0.1066E+00  0.5967E+00
      7.858  0.1094E+00  0.6054E+00
      7.937  0.1092E+00  0.6141E+00
      8.017  0.1084E+00  0.6227E+00
      8.097  0.1038E+00  0.6310E+00
      8.176  0.9266E-01  0.6384E+00
      8.256  0.8218E-01  0.6449E+00
      8.336  0.8392E-01  0.6516E+00
      8.415  0.1014E+00  0.6597E+00
      8.495  0.1244E+00  0.6696E+00
      8.574  0.1330E+00  0.6802E+00
      8.654  0.1143E+00  0.6893E+00
      8.734  0.7672E-01  0.6954E+00
      8.813  0.4256E-01  0.6988E+00
      8.893  0.2959E-01  0.7011E+00
      8.973  0.4512E-01  0.7047E+00
      9.052  0.8686E-01  0.7116E+00
      9.132  0.1392E+00  0.7227E+00
      9.212  0.1758E+00  0.7367E+00
      9.291  0.1774E+00  0.7509E+00
      9.371  0.1487E+00  0.7627E+00
      9.451  0.1101E+00  0.7715E+00
      9.530  0.7912E-01  0.7778E+00
      9.610  0.6250E-01  0.7828E+00
      9.690  0.6105E-01  0.7876E+00
      9.769  0.7255E-01  0.7934E+00
      9.849  0.9047E-01  0.8006E+00
      9.929  0.1049E+00  0.8090E+00
     10.008  0.1072E+00  0.8175E+00
     10.088  0.9581E-01  0.8251E+00
     10.167  0.7711E-01  0.8313E+00
     10.247  0.6089E-01  0.8361E+00
     10.327  0.5386E-01  0.8404E+00
     10.406  0.5666E-01  0.8449E+00
     10.486  0.6646E-01  0.8502E+00
     10.566  0.8019E-01  0.8566E+00
     10.645  0.9347E-01  0.8641E+00
     10.725  0.1022E+00  0.8722E+00
     10.805  0.1070E+00  0.8807E+00
     10.884  0.1104E+00  0.8895E+00
     10.964  0.1116E+00  0.8984E+00
     11.044  0.1070E+00  0.9069E+00
     11.123  0.9312E-01  0.9143E+00
     11.203  0.7073E-01  0.9200E+00
     11.283  0.5006E-01  0.9239E+00
     11.362  0.4646E-01  0.9276E+00
     11.442  0.6577E-01  0.9329E+00
     11.521  0.9477E-01  0.9404E+00
     11.601  0.1109E+00  0.9493E+00
     11.681  0.1060E+00  0.9577E+00
     11.760  0.9345E-01  0.9652E+00
     11.840  0.8572E-01  0.9720E+00
     11.920  0.7753E-01  0.9782E+00
     11.999  0.5958E-01  0.9829E+00
     12.079  0.3549E-01  0.9857E+00
     12.159  0.1612E-01  0.9870E+00
     12.238  0.6940E-02  0.9876E+00
     12.318  0.7194E-02  0.9881E+00
     12.398  0.1473E-01  0.9893E+00
     12.477  0.2601E-01  0.9914E+00
     12.557  0.3443E-01  0.9941E+00
     12.637  0.3493E-01  0.9969E+00
     12.716  0.3164E-01  0.9994E+00
     12.796  0.3681E-01  0.1002E+01
     12.875  0.5838E-01  0.1007E+01
     12.955  0.8780E-01  0.1014E+01
     13.035  0.1033E+00  0.1022E+01
     13.114  0.9100E-01  0.1029E+01
     13.194  0.5997E-01  0.1034E+01
     13.274  0.3102E-01  0.1037E+01
     13.353  0.1590E-01  0.1038E+01
     13.433  0.1246E-01  0.1039E+01
     13.513  0.1366E-01  0.1040E+01
     13.592  0.1651E-01  0.1041E+01
     13.672  0.2422E-01  0.1043E+01
     13.752  0.4024E-01  0.1047E+01
     13.831  0.5942E-01  0.1051E+01
     13.911  0.6853E-01  0.1057E+01
     13.991  0.5945E-01  0.1061E+01
     14.070  0.3842E-01  0.1065E+01
     14.150  0.1845E-01  0.1066E+01
     14.230  0.6578E-02  0.1066E+01
     14.309  0.1739E-02  0.1067E+01
     14.389  0.3402E-03  0.1067E+01
     14.468  0.4922E-04  0.1067E+01
     14.548  0.5258E-05  0.1067E+01
     14.628  0.4142E-06  0.1067E+01
     14.707  0.2402E-07  0.1067E+01
     14.787  0.1025E-08  0.1067E+01
     14.867  0.3212E-10  0.1067E+01
     14.946  0.7389E-12  0.1067E+01
     15.026  0.1248E-13  0.1067E+01
     15.106  0.1394E-15  0.1067E+01
     15.185  0.0000E+00  0.1067E+01
     15.265  0.0000E+00  0.1067E+01
     15.345  0.0000E+00  0.1067E+01
     15.424  0.0000E+00  0.1067E+01
     15.504  0.0000E+00  0.1067E+01
     15.584  0.0000E+00  0.1067E+01
     15.663  0.0000E+00  0.1067E+01
     15.743  0.0000E+00  0.1067E+01
     15.822  0.0000E+00  0.1067E+01
     15.902  0.0000E+00  0.1067E+01
