unknown system                          
   1.00000000000000     
    -2.450000    2.450000    1.274000
     2.450000   -2.450000    1.274000
     2.450000    2.450000   -1.274000
   Si
     2
Direct
  0.250000  0.750000  0.500000
  0.000000  0.000000  0.000000
 
   36   36   36
 -5.2599     -4.3312     -1.7801      1.7699      5.5121      8.6974      10.820      11.704      11.480      10.502    
  9.2059      7.9017      6.7059      5.6864      4.8733      4.2680      3.8561      3.6187      3.5414      3.6187    
  3.8561      4.2680      4.8733      5.6864      6.7059      7.9017      9.2059      10.502      11.480      11.704    
  10.820      8.6974      5.5121      1.7699     -1.7801     -4.3313     -4.3313     -4.8136     -3.4861     -.68620    
  2.9071      6.4936      9.3817      11.150      11.705      11.242      10.141      8.8297      7.5497      6.3991    
  5.4355      4.6806      4.1305      3.7685      3.5763      3.5413      3.6606      3.9421      4.4016      5.0577    
  5.9221      6.9878      8.2166      9.5322      10.794      11.646      11.660      10.526      8.1779      4.8685    
  1.1653     -2.1593     -1.7801     -3.4861     -3.5248     -1.8909     0.99780      4.4435      7.6901      10.133    
  11.449      11.630      10.922      9.7229      8.4155      7.1727      6.0782      5.1784      4.4864      3.9936    
  3.6822      3.5348      3.5411      3.7007      4.0236      4.5265      5.2270      6.1338      7.2342      8.4831    
  9.7978      11.013      11.750      11.607      10.323      7.8979      4.6445      1.1653      1.7699     -.68621    
 -1.8909     -1.5367     0.27763      3.0837      6.2027      8.9560      10.846      11.655      11.452      10.524    
  9.2635      7.9768      6.7836      5.7543      4.9237      4.2969      3.8618      3.5999      3.4956      3.5408    
  3.7377      4.0978      4.6382      5.3751      6.3136      7.4361      8.6918      9.9938      11.158      11.807    
  11.573      10.251      7.8979      4.8685      5.5121      2.9071     0.99780     0.27763     0.93419      2.7856    
  5.3467      7.9917      10.144      11.424      11.717      11.159      10.058      8.7788      7.5274      6.3950    
  5.4379      4.6795      4.1181      3.7390      3.5242      3.4600      3.5407      3.7706      4.1623      4.7328    
  5.4964      6.4548      7.5859      8.8352      10.114      11.231      11.825      11.573      10.323      8.1779    
  8.6974      6.4936      4.4435      3.0837      2.7857      3.6290      5.3760      7.5575      9.6280      11.128    
  11.796      11.610      10.757      9.5507      8.2835      7.0817      6.0192      5.1385      4.4527      3.9548    
  3.6286      3.4572      3.4290      3.5407      3.7982      4.2149      4.8068      5.5863      6.5519      7.6781    
  8.9081      10.154      11.231      11.807      11.607      10.526      10.820      9.3817      7.6901      6.2027    
  5.3467      5.3760      6.2831      7.8043      9.5142      10.965      11.818      11.922      11.334      10.271    
  9.0282      7.7932      6.6533      5.6673      4.8643      4.2492      3.8111      3.5333      3.4006      3.4035    
  3.5409      3.8198      4.2537      4.8576      5.6416      6.6014      7.7092      8.9081      10.114      11.158    
  11.750      11.660      11.704      11.150      10.133      8.9560      7.9917      7.5575      7.8043      8.6629    
  9.8713      11.068      11.911      12.175      11.806      10.918      9.7436      8.5097      7.3236      6.2553    
  5.3488      4.6222      4.0736      3.6900      3.4551      3.3555      3.3840      3.5411      3.8347      4.2776    
  4.8835      5.6603      6.6014      7.6781      8.8352      9.9938      11.013      11.646      11.480      11.705    
  11.449      10.846      10.144      9.6280      9.5142      9.8713      10.595      11.446      12.139      12.435    
  12.209      11.486      10.416      9.2147      8.0139      6.8903      5.8993      5.0720      4.4176      3.9296    
  3.5939      3.3954      3.3229      3.3710      3.5414      3.8422      4.2856      4.8835      5.6416      6.5519    
  7.5859      8.6918      9.7978      10.794      10.502      11.242      11.630      11.655      11.424      11.128    
  10.965      11.068      11.446      11.981      12.476      12.720      12.566      11.977      11.031      9.8929    
  8.7089      7.5593      6.5073      5.5951      4.8434      4.2546      3.8196      3.5242      3.3552      3.3032    
  3.3644      3.5415      3.8422      4.2776      4.8576      5.5863      6.4548      7.4361      8.4831      9.5322    
  9.2059      10.141      10.922      11.452      11.717      11.796      11.818      11.911      12.139      12.476    
  12.808      12.983      12.865      12.386      11.569      10.527      9.3924      8.2488      7.1631      6.1866    
  5.3507      4.6679      4.1363      3.7453      3.4821      3.3350      3.2966      3.3644      3.5414      3.8347    
  4.2537      4.8068      5.4964      6.3136      7.2342      8.2166      7.9017      8.8297      9.7229      10.524    
  11.159      11.610      11.922      12.175      12.435      12.720      12.983      13.130      13.054      12.683    
  12.006      11.091      10.043      8.9420      7.8550      6.8400      5.9381      5.1722      4.5491      4.0645    
  3.7080      3.4680      3.3350      3.3032      3.3710      3.5411      3.8198      4.2149      4.7328      5.3751    
  6.1338      6.9878      6.7059      7.5497      8.4155      9.2635      10.058      10.757      11.334      11.806    
  12.209      12.566      12.865      13.054      13.060      12.818      12.304      11.552      10.633      9.6161    
  8.5660      7.5446      6.6012      5.7686      5.0635      4.4892      4.0405      3.7080      3.4821      3.3552    
  3.3229      3.3840      3.5409      3.7982      4.1623      4.6382      5.2270      5.9221      5.6864      6.3991    
  7.1727      7.9768      8.7788      9.5507      10.271      10.918      11.486      11.977      12.386      12.683    
  12.818      12.741      12.422      11.870      11.126      10.240      9.2715      8.2835      7.3307      6.4548    
  5.6828      5.0270      4.4892      4.0645      3.7453      3.5242      3.3954      3.3555      3.4035      3.5407    
  3.7706      4.0978      4.5265      5.0577      4.8733      5.4355      6.0782      6.7836      7.5274      8.2835    
  9.0282      9.7436      10.416      11.031      11.569      12.006      12.304      12.422      12.327      12.009    
  11.480      10.773      9.9375      9.0303      8.1086      7.2216      6.4055      5.6828      5.0635      4.5491    
  4.1363      3.8196      3.5939      3.4551      3.4006      3.4290      3.5407      3.7377      4.0236      4.4016    
  4.2680      4.6806      5.1784      5.7543      6.3950      7.0817      7.7932      8.5097      9.2146      9.8929    
  10.527      11.091      11.552      11.870      12.009      11.941      11.659      11.175      10.522      9.7480    
  8.9062      8.0494      7.2216      6.4548      5.7686      5.1722      4.6679      4.2546      3.9296      3.6900    
  3.5333      3.4572      3.4600      3.5408      3.7007      3.9421      3.8561      4.1305      4.4864      4.9237    
  5.4379      6.0192      6.6533      7.3236      8.0139      8.7089      9.3924      10.043      10.633      11.126    
  11.480      11.659      11.637      11.407      10.982      10.392      9.6835      8.9062      8.1086      7.3307    
  6.6012      5.9381      5.3507      4.8434      4.4176      4.0736      3.8111      3.6286      3.5242      3.4956    
  3.5411      3.6606      3.6187      3.7685      3.9936      4.2969      4.6795      5.1385      5.6673      6.2553    
  6.8903      7.5594      8.2488      8.9420      9.6161      10.240      10.773      11.175      11.407      11.444    
  11.276      10.915      10.392      9.7480      9.0303      8.2835      7.5446      6.8400      6.1866      5.5951    
  5.0720      4.6222      4.2492      3.9548      3.7390      3.5999      3.5348      3.5413      3.5414      3.5763    
  3.6822      3.8618      4.1181      4.4527      4.8643      5.3488      5.8993      6.5073      7.1632      7.8550    
  8.5660      9.2715      9.9375      10.522      10.982      11.276      11.377      11.276      10.982      10.522    
  9.9375      9.2715      8.5660      7.8550      7.1631      6.5073      5.8993      5.3488      4.8643      4.4527    
  4.1181      3.8618      3.6822      3.5763      3.6187      3.5413      3.5348      3.5999      3.7390      3.9548    
  4.2492      4.6222      5.0720      5.5951      6.1867      6.8400      7.5446      8.2835      9.0303      9.7480    
  10.392      10.915      11.276      11.444      11.407      11.175      10.773      10.240      9.6161      8.9420    
  8.2488      7.5593      6.8903      6.2553      5.6673      5.1385      4.6795      4.2969      3.9936      3.7685    
  3.8561      3.6606      3.5411      3.4956      3.5242      3.6286      3.8111      4.0736      4.4176      4.8434    
  5.3508      5.9381      6.6012      7.3307      8.1086      8.9062      9.6835      10.392      10.982      11.407    
  11.637      11.659      11.480      11.126      10.633      10.043      9.3924      8.7089      8.0139      7.3236    
  6.6533      6.0192      5.4379      4.9237      4.4864      4.1305      4.2680      3.9421      3.7007      3.5408    
  3.4600      3.4572      3.5333      3.6900      3.9296      4.2546      4.6680      5.1722      5.7686      6.4548    
  7.2216      8.0494      8.9062      9.7480      10.522      11.175      11.659      11.941      12.009      11.870    
  11.552      11.091      10.527      9.8929      9.2147      8.5097      7.7932      7.0817      6.3950      5.7543    
  5.1784      4.6806      4.8733      4.4016      4.0236      3.7377      3.5407      3.4290      3.4006      3.4551    
  3.5939      3.8196      4.1363      4.5492      5.0635      5.6828      6.4055      7.2216      8.1086      9.0303    
  9.9375      10.773      11.480      12.009      12.327      12.422      12.304      12.006      11.569      11.031    
  10.416      9.7436      9.0282      8.2835      7.5274      6.7836      6.0782      5.4355      5.6864      5.0577    
  4.5265      4.0978      3.7706      3.5407      3.4035      3.3555      3.3954      3.5243      3.7454      4.0645    
  4.4892      5.0270      5.6828      6.4548      7.3307      8.2835      9.2715      10.240      11.126      11.870    
  12.422      12.741      12.818      12.683      12.386      11.977      11.486      10.918      10.271      9.5507    
  8.7788      7.9768      7.1727      6.3991      6.7059      5.9221      5.2270      4.6382      4.1623      3.7982    
  3.5409      3.3840      3.3229      3.3552      3.4821      3.7080      4.0405      4.4892      5.0635      5.7686    
  6.6012      7.5446      8.5660      9.6161      10.633      11.552      12.304      12.818      13.060      13.054    
  12.865      12.566      12.209      11.806      11.334      10.757      10.058      9.2635      8.4155      7.5497    
  7.9017      6.9878      6.1338      5.3751      4.7328      4.2149      3.8198      3.5411      3.3710      3.3032    
  3.3350      3.4680      3.7080      4.0645      4.5492      5.1722      5.9381      6.8400      7.8550      8.9420    
  10.043      11.091      12.006      12.683      13.054      13.130      12.983      12.720      12.435      12.175    
  11.922      11.610      11.159      10.524      9.7229      8.8297      9.2059      8.2166      7.2342      6.3137    
  5.4964      4.8068      4.2537      3.8347      3.5414      3.3644      3.2966      3.3350      3.4821      3.7454    
  4.1363      4.6680      5.3508      6.1867      7.1632      8.2488      9.3924      10.527      11.569      12.386    
  12.865      12.983      12.808      12.476      12.139      11.911      11.818      11.796      11.717      11.452    
  10.922      10.141      10.502      9.5322      8.4831      7.4361      6.4548      5.5863      4.8577      4.2776    
  3.8422      3.5415      3.3644      3.3032      3.3552      3.5243      3.8196      4.2546      4.8434      5.5951    
  6.5073      7.5594      8.7089      9.8929      11.031      11.977      12.566      12.720      12.476      11.981    
  11.446      11.068      10.965      11.128      11.424      11.655      11.630      11.242      11.480      10.794    
  9.7978      8.6918      7.5860      6.5519      5.6416      4.8835      4.2856      3.8422      3.5414      3.3710    
  3.3229      3.3954      3.5939      3.9296      4.4176      5.0720      5.8993      6.8903      8.0139      9.2146    
  10.416      11.486      12.209      12.435      12.139      11.446      10.595      9.8713      9.5142      9.6280    
  10.144      10.846      11.449      11.705      11.704      11.646      11.013      9.9938      8.8352      7.6781    
  6.6014      5.6603      4.8835      4.2776      3.8347      3.5411      3.3840      3.3555      3.4551      3.6900    
  4.0736      4.6222      5.3488      6.2553      7.3236      8.5097      9.7436      10.918      11.806      12.175    
  11.911      11.068      9.8713      8.6629      7.8043      7.5575      7.9917      8.9560      10.133      11.150    
  10.820      11.660      11.750      11.158      10.114      8.9082      7.7092      6.6014      5.6416      4.8577    
  4.2537      3.8198      3.5409      3.4035      3.4006      3.5333      3.8111      4.2492      4.8643      5.6673    
  6.6533      7.7932      9.0282      10.271      11.334      11.922      11.818      10.965      9.5142      7.8043    
  6.2831      5.3760      5.3467      6.2027      7.6901      9.3817      8.6974      10.526      11.607      11.807    
  11.231      10.154      8.9082      7.6781      6.5519      5.5863      4.8068      4.2149      3.7982      3.5407    
  3.4290      3.4572      3.6286      3.9548      4.4527      5.1385      6.0192      7.0817      8.2835      9.5507    
  10.757      11.610      11.796      11.128      9.6280      7.5575      5.3760      3.6290      2.7856      3.0837    
  4.4435      6.4936      5.5121      8.1779      10.323      11.573      11.825      11.231      10.114      8.8352    
  7.5860      6.4548      5.4964      4.7328      4.1623      3.7706      3.5407      3.4600      3.5242      3.7390    
  4.1181      4.6795      5.4379      6.3950      7.5274      8.7788      10.058      11.159      11.717      11.424    
  10.144      7.9917      5.3467      2.7857     0.93419     0.27763     0.99780      2.9071      1.7699      4.8685    
  7.8979      10.251      11.573      11.807      11.158      9.9938      8.6918      7.4361      6.3137      5.3751    
  4.6382      4.0978      3.7377      3.5408      3.4956      3.5999      3.8618      4.2969      4.9237      5.7543    
  6.7836      7.9768      9.2635      10.524      11.452      11.655      10.846      8.9560      6.2027      3.0837    
 0.27763     -1.5367     -1.8909     -.68620     -1.7801      1.1653      4.6445      7.8979      10.323      11.607    
  11.750      11.013      9.7978      8.4831      7.2342      6.1338      5.2270      4.5265      4.0236      3.7007    
  3.5411      3.5348      3.6822      3.9936      4.4864      5.1784      6.0782      7.1727      8.4155      9.7229    
  10.922      11.630      11.449      10.133      7.6901      4.4435     0.99780     -1.8909     -3.5248     -3.4861    
 -4.3312     -2.1593      1.1653      4.8685      8.1779      10.526      11.660      11.646      10.794      9.5322    
  8.2166      6.9878      5.9221      5.0577      4.4016      3.9421      3.6606      3.5413      3.5763      3.7685    
  4.1305      4.6806      5.4355      6.3991      7.5497      8.8297      10.141      11.242      11.705      11.150    
  9.3817      6.4936      2.9071     -.68621     -3.4861     -4.8136     -4.3312     -3.6431     -1.3779      1.9072    
  5.4546      8.5343      10.631      11.539      11.359      10.415      9.1315      7.8274      6.6247      5.5937    
  4.7665      4.1458      3.7174      3.4621      3.3644      3.4175      3.6255      4.0021      4.5662      5.3342    
  6.3088      7.4659      8.7448      10.043      11.098      11.487      10.851      9.0292      6.1521      2.6680    
 -.72945     -3.2698     -3.6431     -4.3313     -3.2698     -.72945      2.6680      6.1521      9.0292      10.851    
  11.487      11.098      10.043      8.7448      7.4660      6.3088      5.3342      4.5662      4.0021      3.6255    
  3.4175      3.3644      3.4621      3.7174      4.1458      4.7664      5.5936      6.6247      7.8274      9.1315    
  10.415      11.359      11.539      10.631      8.5343      5.4546      1.9072     -1.3779     -1.3065     -3.1934    
 -3.4861     -2.1160     0.56314      3.8960      7.1353      9.6539      11.090      11.391      10.774      9.6212    
  8.3265      7.0846      5.9835      5.0732      4.3693      3.8643      3.5405      3.3798      3.3709      3.5124    
  3.8135      4.2909      4.9635      5.8428      6.9205      8.1569      9.4746      10.729      11.567      11.579    
  10.485      8.2485      5.1362      1.7068      2.0927     -.52290     -1.9715     -1.8909     -.31225      2.3510    
  5.4438      8.2756      10.311      11.284      11.222      10.387      9.1645      7.8890      6.6956      5.6594    
  4.8190      4.1818      3.7366      3.4650      3.3504      3.3840      3.5671      3.9108      4.4328      5.1507    
  6.0730      7.1859      8.4434      9.7630      10.981      11.729      11.631      10.455      8.2204      5.2415    
  5.7601      3.0200     0.88352     -.11436     0.27761      1.9416      4.4332      7.1310      9.4294      10.900    
  11.378      10.961      9.9410      8.6882      7.4452      6.3108      5.3465      4.5792      4.0093      3.6226    
  3.4011      3.3301      3.4035      3.6248      4.0067      4.5669      5.3217      6.2760      7.4112      8.6765    
  9.9868      11.165      11.853      11.710      10.557      8.4600      8.9381      6.6288      4.3805      2.7544    
  2.1745      2.7856      4.4046      6.5860      8.7715      10.460      11.337      11.333      10.603      9.4544    
  8.2053      7.0079      5.9417      5.0538      4.3604      3.8562      3.5254      3.3506      3.3198      3.4290    
  3.6839      4.0980      4.6887      5.4704      6.4444      7.5881      8.8477      10.138      11.280      11.939    
  11.818      10.784      11.101      9.5908      7.7411      6.0180      4.8850      4.6536      5.3760      6.8293    
  8.5954      10.200      11.257      11.563      11.132      10.163      8.9525      7.7291      6.5898      5.5986    
  4.7890      4.1681      3.7264      3.4472      3.3150      3.3198      3.4600      3.7427      4.1820      4.7942    
  5.5915      6.5718      7.7098      8.9501      10.209      11.320      11.981      11.939      12.047      11.457    
  10.329      8.9627      7.7506      7.0534      7.0778      7.8043      8.9966      10.286      11.297      11.754    
  11.558      10.790      9.6706      8.4545      7.2737      6.2027      5.2905      4.5585      4.0066      3.6225    
  3.3899      3.2950      3.3301      3.4956      3.7996      4.2559      4.8796      5.6803      6.6533      7.7711    
  8.9791      10.198      11.282      11.968      11.885      12.109      11.790      11.052      10.151      9.3967    
  9.0511      9.2318      9.8713      10.743      11.545      11.998      11.935      11.341      10.346      9.1683    
  7.9765      6.8529      5.8574      5.0250      4.3673      3.8790      3.5464      3.3543      3.2908      3.3504    
  3.5349      3.8527      4.3172      4.9417      5.7334      6.6852      7.7692      8.9327      10.102      11.159    
  10.950      11.718      12.089      12.037      11.665      11.176      10.800      10.711      10.957      11.446    
  11.979      12.326      12.302      11.832      10.964      9.8567      8.6830      7.5353      6.4800      5.5631    
  4.8081      4.2191      3.7875      3.4993      3.3408      3.3023      3.3799      3.5764      3.9003      4.3638    
  4.9782      5.7484      6.6660      7.7034      8.8116      9.9240      9.6695      10.656      11.457      11.961    
  12.145      12.087      11.937      11.850      11.926      12.167      12.476      12.691      12.654      12.263    
  11.515      10.503      9.3772      8.2356      7.1473      6.1666      5.3276      4.6446      4.1166      3.7333    
  3.4816      3.3493      3.3288      3.4175      3.6188      3.9406      4.3937      4.9873      5.7244      6.5958    
  7.5757      8.6198      8.3642      9.3469      10.284      11.101      11.708      12.081      12.273      12.378    
  12.492      12.659      12.852      12.983      12.934      12.610      11.978      11.083      10.039      8.9366    
  7.8463      6.8272      5.9224      5.1566      4.5377      4.0614      3.7173      3.4933      3.3794      3.3695    
  3.4621      3.6606      3.9722      4.4057      4.9685      5.6619      6.4771      7.3907      7.1556      8.0541    
  8.9676      9.8504      10.658      11.330      11.839      12.209      12.492      12.732      12.938      13.070    
  13.054      12.817      12.315      11.564      10.638      9.6152      8.5595      7.5333      6.5871      5.7550    
  5.0546      4.4897      4.0546      3.7395      3.5341      3.4302      3.4233      3.5124      3.7007      3.9940    
  4.3993      4.9222      5.5633      6.3144      6.1142      6.8795      7.7014      8.5447      9.3721      10.150    
  10.849      11.439      11.922      12.316      12.629      12.848      12.928      12.818      12.477      11.904    
  11.140      10.240      9.2619      8.2672      7.3110      6.4360      5.6696      5.0244      4.5018      4.0964    
  3.7995      3.6031      3.5007      3.4888      3.5671      3.7377      4.0051      4.3745      4.8501      5.4323    
  5.2741      5.8845      6.5732      7.3189      8.0932      8.8653      9.6078      10.300      10.926      11.471    
  11.927      12.283      12.509      12.567      12.422      12.062      11.501      10.771      9.9194      9.0022    
  8.0760      7.1898      6.3801      5.6692      5.0670      4.5742      4.1862      3.8965      3.6990      3.5893    
  3.5648      3.6248      3.7706      4.0051      4.3321      4.7550      4.6406      5.0951      5.6342      6.2483    
  6.9205      7.6285      8.3472      9.0539      9.7302      10.362      10.934      11.426      11.812      12.058    
  12.131      12.009      11.683      11.166      10.490      9.7018      8.8533      7.9967      7.1758      6.4222    
  5.7550      5.1825      4.7061      4.3228      4.0288      3.8203      3.6945      3.6493      3.6838      3.7982    
  3.9940      4.2739      4.2019      4.5114      4.9023      5.3729      5.9164      6.5200      7.1662      7.8354    
  8.5088      9.1702      9.8044      10.394      10.914      11.334      11.618      11.734      11.659      11.387    
  10.931      10.322      9.6036      8.8255      8.0349      7.2712      6.5624      5.9257      5.3691      4.8952    
  4.5040      4.1942      3.9647      3.8140      3.7405      3.7427      3.8198      3.9722      3.9406      4.1190    
  4.3724      4.7027      5.1097      5.5887      6.1304      6.7215      7.3472      7.9927      8.6437      9.2850    
  9.8965      10.451      10.914      11.249      11.421      11.407      11.202      10.816      10.280      9.6331    
  8.9223      8.1907      7.4741      6.7978      6.1779      5.6230      5.1382      4.7264      4.3897      4.1293    
  3.9451      3.8359      3.7996      3.8346      3.8422      3.9003      4.0282      4.2284      4.5033      4.8533    
  5.2755      5.7636      6.3083      6.8991      7.5248      8.1733      8.8293      9.4711      10.069      10.585    
  10.980      11.219      11.276      11.144      10.833      10.369      9.7907      9.1408      8.4591      7.7783    
  7.1219      6.5053      5.9388      5.4300      4.9856      4.6111      4.3103      4.0845      3.9328      3.8527    
  3.9003      3.8422      3.8527      3.9328      4.0845      4.3103      4.6111      4.9856      5.4300      5.9388    
  6.5053      7.1219      7.7783      8.4591      9.1408      9.7907      10.369      10.833      11.144      11.276    
  11.219      10.980      10.585      10.069      9.4711      8.8293      8.1733      7.5248      6.8991      6.3083    
  5.7636      5.2755      4.8533      4.5033      4.2284      4.0282      4.1190      3.9406      3.8347      3.7996    
  3.8359      3.9451      4.1293      4.3897      4.7264      5.1382      5.6230      6.1778      6.7978      7.4741    
  8.1907      8.9223      9.6331      10.280      10.816      11.202      11.407      11.421      11.249      10.914    
  10.451      9.8965      9.2850      8.6437      7.9927      7.3472      6.7216      6.1304      5.5887      5.1097    
  4.7027      4.3723      4.5114      4.2019      3.9723      3.8198      3.7427      3.7405      3.8140      3.9647    
  4.1942      4.5040      4.8952      5.3691      5.9257      6.5624      7.2712      8.0349      8.8255      9.6036    
  10.322      10.931      11.387      11.659      11.734      11.618      11.334      10.914      10.394      9.8044    
  9.1702      8.5088      7.8354      7.1662      6.5200      5.9164      5.3729      4.9023      5.0951      4.6406    
  4.2739      3.9940      3.7982      3.6839      3.6493      3.6945      3.8203      4.0288      4.3228      4.7061    
  5.1826      5.7550      6.4222      7.1758      7.9967      8.8533      9.7018      10.490      11.166      11.683    
  12.009      12.131      12.058      11.812      11.426      10.934      10.362      9.7302      9.0539      8.3472    
  7.6285      6.9205      6.2483      5.6342      5.8845      5.2741      4.7550      4.3321      4.0051      3.7706    
  3.6248      3.5648      3.5893      3.6990      3.8965      4.1862      4.5742      5.0671      5.6692      6.3801    
  7.1898      8.0760      9.0022      9.9194      10.771      11.501      12.062      12.422      12.567      12.509    
  12.283      11.927      11.471      10.926      10.300      9.6078      8.8653      8.0932      7.3189      6.5732    
  6.8795      6.1142      5.4323      4.8501      4.3745      4.0051      3.7378      3.5671      3.4889      3.5007    
  3.6031      3.7996      4.0964      4.5018      5.0244      5.6696      6.4360      7.3110      8.2672      9.2619    
  10.240      11.140      11.904      12.477      12.818      12.928      12.848      12.629      12.316      11.922    
  11.439      10.849      10.150      9.3721      8.5447      7.7013      8.0541      7.1556      6.3144      5.5633    
  4.9222      4.3993      3.9940      3.7007      3.5124      3.4233      3.4302      3.5341      3.7395      4.0546    
  4.4897      5.0547      5.7550      6.5871      7.5333      8.5595      9.6152      10.638      11.564      12.315    
  12.817      13.054      13.070      12.938      12.732      12.492      12.209      11.839      11.330      10.658    
  9.8504      8.9675      9.3469      8.3641      7.3907      6.4771      5.6619      4.9685      4.4057      3.9722    
  3.6607      3.4621      3.3695      3.3794      3.4933      3.7173      4.0614      4.5377      5.1566      5.9224    
  6.8272      7.8463      8.9366      10.039      11.083      11.978      12.610      12.934      12.983      12.852    
  12.659      12.492      12.378      12.273      12.081      11.708      11.101      10.284      10.656      9.6694    
  8.6198      7.5757      6.5958      5.7244      4.9873      4.3937      3.9406      3.6187      3.4175      3.3288    
  3.3493      3.4816      3.7334      4.1166      4.6446      5.3276      6.1666      7.1473      8.2356      9.3772    
  10.503      11.515      12.263      12.654      12.691      12.476      12.167      11.926      11.850      11.937    
  12.087      12.145      11.961      11.457      11.718      10.950      9.9240      8.8116      7.7034      6.6660    
  5.7484      4.9782      4.3638      3.9003      3.5763      3.3798      3.3022      3.3408      3.4993      3.7875    
  4.2191      4.8081      5.5631      6.4800      7.5353      8.6830      9.8567      10.964      11.832      12.302    
  12.326      11.979      11.446      10.957      10.711      10.800      11.176      11.665      12.037      12.089    
  12.108      11.885      11.159      10.102      8.9327      7.7692      6.6852      5.7334      4.9417      4.3172    
  3.8527      3.5348      3.3504      3.2908      3.3543      3.5464      3.8790      4.3673      5.0250      5.8574    
  6.8529      7.9765      9.1683      10.346      11.341      11.935      11.998      11.545      10.743      9.8713    
  9.2318      9.0511      9.3967      10.151      11.052      11.790      11.457      12.047      11.968      11.282    
  10.198      8.9791      7.7712      6.6533      5.6803      4.8796      4.2559      3.7996      3.4956      3.3301    
  3.2950      3.3899      3.6225      4.0066      4.5585      5.2905      6.2028      7.2737      8.4545      9.6706    
  10.790      11.558      11.754      11.297      10.286      8.9966      7.8043      7.0778      7.0534      7.7506    
  8.9627      10.329      9.5908      11.101      11.939      11.981      11.320      10.209      8.9501      7.7098    
  6.5718      5.5915      4.7942      4.1820      3.7427      3.4600      3.3198      3.3150      3.4472      3.7264    
  4.1681      4.7890      5.5986      6.5898      7.7291      8.9525      10.163      11.132      11.563      11.257    
  10.200      8.5954      6.8294      5.3760      4.6536      4.8850      6.0180      7.7411      6.6288      8.9381    