unknown system                          
   1.00000000000000     
    -2.450000    2.450000    1.274000
     2.450000   -2.450000    1.274000
     2.450000    2.450000   -1.274000
   Si
     2
Direct
  0.250000  0.750000  0.500000
  0.000000  0.000000  0.000000
 
   36   36   36
 -5.2548     -4.3265     -1.7765      1.7721      5.5129      8.6974      10.820      11.704      11.481      10.502    
  9.2067      7.9024      6.7063      5.6863      4.8728      4.2671      3.8548      3.6172      3.5399      3.6172    
  3.8548      4.2671      4.8728      5.6863      6.7063      7.9024      9.2067      10.502      11.481      11.704    
  10.820      8.6974      5.5129      1.7721     -1.7765     -4.3265     -4.3265     -4.8087     -3.4818     -.68312    
  2.9088      6.4940      9.3814      11.150      11.705      11.242      10.142      8.8304      7.5502      6.3993    
  5.4353      4.6800      4.1294      3.7671      3.5748      3.5398      3.6592      3.9409      4.4008      5.0573    
  5.9221      6.9883      8.2174      9.5330      10.795      11.646      11.659      10.526      8.1780      4.8697    
  1.1678     -2.1554     -1.7765     -3.4818     -3.5205     -1.8873      1.0001      4.4444      7.6901      10.132    
  11.449      11.630      10.923      9.7235      8.4161      7.1731      6.0783      5.1780      4.4856      3.9924    
  3.6808      3.5333      3.5395      3.6993      4.0224      4.5257      5.2267      6.1340      7.2348      8.4840    
  9.7987      11.014      11.751      11.607      10.323      7.8981      4.6457      1.1678      1.7721     -.68312    
 -1.8873     -1.5334     0.28009      3.0850      6.2029      8.9555      10.845      11.655      11.452      10.524    
  9.2641      7.9773      6.7839      5.7543      4.9232      4.2960      3.8605      3.5984      3.4940      3.5393    
  3.7364      4.0967      4.6376      5.3749      6.3139      7.4368      8.6927      9.9948      11.159      11.807    
  11.573      10.251      7.8981      4.8697      5.5129      2.9088      1.0001     0.28009     0.93629      2.7870    
  5.3470      7.9912      10.143      11.424      11.717      11.159      10.059      8.7794      7.5279      6.3952    
  5.4377      4.6788      4.1171      3.7377      3.5227      3.4583      3.5391      3.7692      4.1613      4.7322    
  5.4963      6.4552      7.5867      8.8361      10.115      11.231      11.825      11.573      10.323      8.1780    
  8.6974      6.4940      4.4444      3.0850      2.7870      3.6298      5.3762      7.5569      9.6269      11.127    
  11.795      11.610      10.757      9.5511      8.2840      7.0820      6.0193      5.1381      4.4519      3.9537    
  3.6272      3.4556      3.4273      3.5391      3.7969      4.2139      4.8063      5.5863      6.5524      7.6789    
  8.9092      10.155      11.231      11.807      11.607      10.526      10.820      9.3814      7.6901      6.2029    
  5.3470      5.3762      6.2829      7.8036      9.5130      10.964      11.817      11.922      11.334      10.272    
  9.0286      7.7936      6.6536      5.6672      4.8638      4.2483      3.8098      3.5318      3.3989      3.4018    
  3.5393      3.8185      4.2528      4.8572      5.6416      6.6019      7.7100      8.9092      10.115      11.159    
  11.751      11.659      11.704      11.150      10.132      8.9555      7.9912      7.5569      7.8036      8.6618    
  9.8698      11.067      11.909      12.174      11.805      10.918      9.7439      8.5102      7.3240      6.2554    
  5.3486      4.6216      4.0726      3.6887      3.4535      3.3538      3.3823      3.5396      3.8334      4.2767    
  4.8830      5.6603      6.6019      7.6789      8.8361      9.9948      11.014      11.646      11.481      11.705    
  11.449      10.845      10.143      9.6269      9.5130      9.8699      10.593      11.444      12.137      12.433    
  12.208      11.485      10.416      9.2150      8.0144      6.8906      5.8993      5.0717      4.4169      3.9285    
  3.5925      3.3938      3.3211      3.3692      3.5398      3.8409      4.2847      4.8830      5.6416      6.5524    
  7.5867      8.6927      9.7987      10.795      10.502      11.242      11.630      11.655      11.424      11.127    
  10.964      11.067      11.444      11.979      12.473      12.718      12.565      11.976      11.030      9.8929    
  8.7093      7.5598      6.5075      5.5951      4.8430      4.2539      3.8184      3.5228      3.3535      3.3013    
  3.3626      3.5399      3.8409      4.2767      4.8572      5.5863      6.4552      7.4368      8.4840      9.5330    
  9.2067      10.142      10.923      11.452      11.717      11.795      11.817      11.909      12.137      12.473    
  12.806      12.981      12.864      12.385      11.568      10.526      9.3925      8.2492      7.1635      6.1869    
  5.3507      4.6675      4.1355      3.7441      3.4806      3.3332      3.2947      3.3626      3.5398      3.8334    
  4.2528      4.8063      5.4963      6.3139      7.2348      8.2174      7.9024      8.8304      9.7235      10.524    
  11.159      11.610      11.922      12.174      12.433      12.718      12.981      13.128      13.052      12.681    
  12.005      11.090      10.043      8.9422      7.8553      6.8403      5.9383      5.1721      4.5487      4.0637    
  3.7068      3.4664      3.3332      3.3013      3.3692      3.5396      3.8185      4.2139      4.7322      5.3749    
  6.1340      6.9883      6.7063      7.5502      8.4161      9.2641      10.059      10.757      11.334      11.805    
  12.208      12.565      12.864      13.052      13.058      12.816      12.303      11.551      10.633      9.6159    
  8.5661      7.5449      6.6015      5.7688      5.0634      4.4888      4.0396      3.7068      3.4806      3.3535    
  3.3211      3.3823      3.5393      3.7969      4.1613      4.6376      5.2267      5.9221      5.6863      6.3993    
  7.1731      7.9773      8.7794      9.5511      10.272      10.918      11.485      11.976      12.385      12.681    
  12.816      12.740      12.421      11.869      11.125      10.239      9.2713      8.2837      7.3310      6.4552    
  5.6830      5.0269      4.4888      4.0637      3.7441      3.5228      3.3938      3.3538      3.4018      3.5391    
  3.7692      4.0967      4.5257      5.0573      4.8728      5.4353      6.0783      6.7839      7.5279      8.2840    
  9.0286      9.7439      10.416      11.030      11.568      12.005      12.303      12.421      12.325      12.007    
  11.479      10.772      9.9369      9.0301      8.1088      7.2219      6.4059      5.6830      5.0634      4.5487    
  4.1355      3.8184      3.5925      3.4535      3.3989      3.4273      3.5391      3.7364      4.0224      4.4008    
  4.2671      4.6800      5.1780      5.7543      6.3952      7.0820      7.7936      8.5102      9.2150      9.8929    
  10.526      11.090      11.551      11.869      12.007      11.940      11.658      11.174      10.521      9.7474    
  8.9061      8.0495      7.2219      6.4552      5.7688      5.1721      4.6675      4.2539      3.9285      3.6887    
  3.5318      3.4556      3.4583      3.5393      3.6993      3.9409      3.8548      4.1294      4.4856      4.9232    
  5.4377      6.0193      6.6536      7.3240      8.0144      8.7093      9.3925      10.043      10.633      11.125    
  11.479      11.658      11.636      11.406      10.980      10.391      9.6829      8.9061      8.1088      7.3310    
  6.6015      5.9383      5.3507      4.8430      4.4169      4.0726      3.8098      3.6272      3.5227      3.4940    
  3.5395      3.6592      3.6172      3.7671      3.9924      4.2960      4.6788      5.1381      5.6672      6.2554    
  6.8906      7.5598      8.2492      8.9422      9.6159      10.239      10.772      11.174      11.406      11.442    
  11.274      10.914      10.391      9.7474      9.0301      8.2837      7.5449      6.8403      6.1869      5.5951    
  5.0717      4.6216      4.2483      3.9537      3.7377      3.5984      3.5333      3.5398      3.5399      3.5748    
  3.6808      3.8605      4.1171      4.4519      4.8638      5.3486      5.8993      6.5075      7.1635      7.8553    
  8.5661      9.2713      9.9369      10.521      10.980      11.274      11.375      11.274      10.980      10.521    
  9.9369      9.2713      8.5661      7.8553      7.1635      6.5075      5.8993      5.3486      4.8638      4.4519    
  4.1171      3.8605      3.6808      3.5748      3.6172      3.5398      3.5333      3.5984      3.7376      3.9537    
  4.2483      4.6216      5.0717      5.5951      6.1869      6.8403      7.5449      8.2837      9.0301      9.7474    
  10.391      10.914      11.274      11.442      11.406      11.174      10.772      10.239      9.6159      8.9422    
  8.2492      7.5598      6.8906      6.2554      5.6672      5.1381      4.6788      4.2960      3.9924      3.7671    
  3.8548      3.6592      3.5395      3.4940      3.5226      3.6272      3.8098      4.0726      4.4169      4.8430    
  5.3507      5.9383      6.6015      7.3310      8.1088      8.9061      9.6829      10.391      10.980      11.406    
  11.636      11.658      11.479      11.125      10.633      10.043      9.3925      8.7093      8.0144      7.3240    
  6.6536      6.0193      5.4377      4.9232      4.4856      4.1294      4.2671      3.9409      3.6993      3.5393    
  3.4583      3.4556      3.5318      3.6887      3.9285      4.2539      4.6675      5.1721      5.7688      6.4552    
  7.2219      8.0495      8.9061      9.7474      10.521      11.174      11.658      11.940      12.007      11.869    
  11.551      11.090      10.526      9.8929      9.2150      8.5102      7.7936      7.0820      6.3952      5.7543    
  5.1780      4.6800      4.8728      4.4008      4.0224      3.7363      3.5391      3.4273      3.3989      3.4535    
  3.5924      3.8184      4.1355      4.5487      5.0634      5.6830      6.4059      7.2219      8.1088      9.0301    
  9.9369      10.772      11.479      12.007      12.325      12.421      12.303      12.005      11.568      11.030    
  10.416      9.7439      9.0286      8.2840      7.5279      6.7839      6.0783      5.4353      5.6863      5.0573    
  4.5257      4.0967      3.7692      3.5391      3.4018      3.3538      3.3938      3.5228      3.7441      4.0637    
  4.4888      5.0269      5.6830      6.4552      7.3310      8.2837      9.2713      10.239      11.125      11.869    
  12.421      12.740      12.816      12.681      12.385      11.976      11.485      10.918      10.272      9.5511    
  8.7794      7.9773      7.1731      6.3993      6.7063      5.9221      5.2267      4.6376      4.1613      3.7969    
  3.5393      3.3823      3.3211      3.3535      3.4806      3.7068      4.0396      4.4888      5.0634      5.7688    
  6.6015      7.5449      8.5661      9.6159      10.633      11.551      12.303      12.816      13.058      13.052    
  12.864      12.565      12.208      11.805      11.334      10.757      10.059      9.2641      8.4161      7.5502    
  7.9024      6.9883      6.1340      5.3749      4.7322      4.2139      3.8185      3.5396      3.3692      3.3014    
  3.3333      3.4665      3.7068      4.0637      4.5487      5.1721      5.9383      6.8403      7.8553      8.9422    
  10.043      11.090      12.005      12.681      13.052      13.128      12.981      12.718      12.433      12.174    
  11.922      11.610      11.159      10.524      9.7235      8.8304      9.2067      8.2174      7.2348      6.3139    
  5.4963      4.8063      4.2528      3.8334      3.5398      3.3627      3.2947      3.3333      3.4806      3.7441    
  4.1355      4.6675      5.3507      6.1869      7.1635      8.2492      9.3925      10.526      11.568      12.385    
  12.864      12.981      12.806      12.473      12.137      11.909      11.817      11.795      11.717      11.452    
  10.923      10.142      10.502      9.5331      8.4840      7.4368      6.4552      5.5863      4.8572      4.2767    
  3.8409      3.5399      3.3627      3.3014      3.3535      3.5228      3.8184      4.2539      4.8430      5.5951    
  6.5075      7.5598      8.7093      9.8929      11.030      11.976      12.565      12.718      12.473      11.979    
  11.444      11.067      10.964      11.127      11.424      11.655      11.630      11.242      11.481      10.795    
  9.7987      8.6927      7.5867      6.5524      5.6416      4.8831      4.2847      3.8409      3.5398      3.3692    
  3.3211      3.3938      3.5924      3.9285      4.4169      5.0717      5.8993      6.8906      8.0144      9.2150    
  10.416      11.485      12.208      12.433      12.137      11.444      10.593      9.8698      9.5130      9.6269    
  10.143      10.845      11.449      11.705      11.704      11.646      11.014      9.9948      8.8361      7.6789    
  6.6019      5.6603      4.8831      4.2767      3.8334      3.5396      3.3823      3.3538      3.4535      3.6887    
  4.0726      4.6216      5.3486      6.2554      7.3240      8.5102      9.7439      10.918      11.805      12.174    
  11.909      11.067      9.8699      8.6618      7.8036      7.5569      7.9912      8.9555      10.132      11.150    
  10.820      11.659      11.751      11.159      10.115      8.9092      7.7101      6.6019      5.6416      4.8572    
  4.2528      3.8185      3.5393      3.4018      3.3989      3.5318      3.8098      4.2483      4.8638      5.6672    
  6.6536      7.7936      9.0286      10.272      11.334      11.922      11.817      10.964      9.5130      7.8036    
  6.2829      5.3762      5.3470      6.2029      7.6901      9.3814      8.6974      10.526      11.607      11.807    
  11.231      10.155      8.9092      7.6789      6.5524      5.5863      4.8063      4.2139      3.7969      3.5391    
  3.4273      3.4556      3.6272      3.9537      4.4519      5.1381      6.0193      7.0820      8.2840      9.5511    
  10.757      11.610      11.795      11.127      9.6269      7.5569      5.3762      3.6298      2.7870      3.0850    
  4.4444      6.4940      5.5129      8.1780      10.323      11.573      11.825      11.231      10.115      8.8361    
  7.5867      6.4552      5.4963      4.7322      4.1613      3.7692      3.5391      3.4583      3.5226      3.7376    
  4.1171      4.6788      5.4377      6.3952      7.5279      8.7794      10.059      11.159      11.717      11.424    
  10.143      7.9912      5.3470      2.7870     0.93629     0.28009      1.0001      2.9088      1.7721      4.8697    
  7.8981      10.251      11.573      11.807      11.159      9.9948      8.6927      7.4368      6.3139      5.3749    
  4.6376      4.0967      3.7363      3.5393      3.4940      3.5984      3.8605      4.2960      4.9232      5.7543    
  6.7839      7.9773      9.2641      10.524      11.452      11.655      10.845      8.9555      6.2029      3.0850    
 0.28009     -1.5334     -1.8873     -.68312     -1.7765      1.1678      4.6457      7.8981      10.323      11.607    
  11.751      11.014      9.7987      8.4840      7.2348      6.1340      5.2267      4.5257      4.0224      3.6993    
  3.5395      3.5333      3.6808      3.9924      4.4856      5.1780      6.0783      7.1731      8.4161      9.7235    
  10.923      11.630      11.449      10.132      7.6901      4.4444      1.0001     -1.8873     -3.5205     -3.4818    
 -4.3265     -2.1554      1.1678      4.8697      8.1780      10.526      11.659      11.646      10.795      9.5331    
  8.2174      6.9883      5.9221      5.0573      4.4008      3.9409      3.6592      3.5398      3.5748      3.7671    
  4.1294      4.6800      5.4353      6.3993      7.5502      8.8304      10.142      11.242      11.705      11.150    
  9.3814      6.4940      2.9088     -.68312     -3.4818     -4.8087     -4.3265     -3.6386     -1.3744      1.9094    
  5.4556      8.5344      10.631      11.539      11.360      10.416      9.1323      7.8281      6.6251      5.5935    
  4.7658      4.1447      3.7160      3.4604      3.3626      3.4158      3.6240      4.0009      4.5654      5.3339    
  6.3090      7.4665      8.7456      10.043      11.098      11.487      10.851      9.0291      6.1528      2.6698    
 -.72627     -3.2655     -3.6386     -4.3265     -3.2655     -.72628      2.6698      6.1527      9.0291      10.851    
  11.487      11.098      10.043      8.7456      7.4665      6.3090      5.3339      4.5654      4.0009      3.6240    
  3.4158      3.3626      3.4604      3.7160      4.1447      4.7658      5.5935      6.6251      7.8281      9.1323    
  10.416      11.360      11.539      10.631      8.5344      5.4556      1.9094     -1.3744     -1.3030     -3.1892    
 -3.4818     -2.1124     0.56567      3.8973      7.1355      9.6537      11.089      11.391      10.775      9.6219    
  8.3271      7.0850      5.9835      5.0727      4.3684      3.8630      3.5389      3.3781      3.3692      3.5108    
  3.8121      4.2899      4.9630      5.8428      6.9210      8.1577      9.4755      10.730      11.567      11.579    
  10.485      8.2487      5.1373      1.7091      2.0948     -.51981     -1.9679     -1.8874     -.30947      2.3527    
  5.4444      8.2755      10.310      11.284      11.222      10.387      9.1651      7.8895      6.6958      5.6593    
  4.8184      4.1808      3.7352      3.4633      3.3486      3.3823      3.5656      3.9096      4.4320      5.1504    
  6.0731      7.1865      8.4443      9.7639      10.981      11.729      11.631      10.455      8.2205      5.2425    
  5.7609      3.0216     0.88590     -.11167     0.28007      1.9434      4.4340      7.1309      9.4289      10.900    
  11.378      10.961      9.9415      8.6888      7.4456      6.3109      5.3462      4.5784      4.0081      3.6211    
  3.3994      3.3283      3.4018      3.6233      4.0055      4.5662      5.3215      6.2763      7.4119      8.6775    
  9.9877      11.166      11.853      11.710      10.557      8.4601      8.9380      6.6292      4.3815      2.7559    
  2.1761      2.7869      4.4053      6.5859      8.7708      10.459      11.336      11.332      10.604      9.4548    
  8.2058      7.0082      5.9417      5.0533      4.3595      3.8550      3.5238      3.3489      3.3180      3.4273    
  3.6824      4.0969      4.6881      5.4703      6.4448      7.5889      8.8487      10.138      11.281      11.939    
  11.818      10.783      11.101      9.5904      7.7410      6.0182      4.8856      4.6541      5.3762      6.8290    
  8.5946      10.199      11.256      11.562      11.132      10.163      8.9530      7.7295      6.5900      5.5984    
  4.7884      4.1671      3.7250      3.4456      3.3132      3.3180      3.4583      3.7413      4.1810      4.7937    
  5.5914      6.5723      7.7106      8.9511      10.210      11.321      11.981      11.939      12.047      11.457    
  10.328      8.9621      7.7502      7.0531      7.0774      7.8035      8.9955      10.285      11.296      11.753    
  11.558      10.790      9.6709      8.4550      7.2740      6.2028      5.2902      4.5578      4.0055      3.6211    
  3.3882      3.2932      3.3283      3.4940      3.7983      4.2550      4.8791      5.6803      6.6538      7.7720    
  8.9801      10.199      11.282      11.968      11.885      12.108      11.790      11.052      10.150      9.3957    
  9.0500      9.2306      9.8698      10.742      11.543      11.996      11.934      11.341      10.346      9.1686    
  7.9769      6.8532      5.8574      5.0246      4.3665      3.8779      3.5449      3.3526      3.2890      3.3486    
  3.5333      3.8515      4.3164      4.9413      5.7334      6.6857      7.7700      8.9336      10.103      11.160    
  10.950      11.719      12.089      12.036      11.664      11.174      10.799      10.709      10.955      11.444    
  11.977      12.324      12.301      11.831      10.964      9.8567      8.6833      7.5357      6.4802      5.5630    
  4.8077      4.2183      3.7863      3.4978      3.3391      3.3004      3.3781      3.5748      3.8991      4.3629    
  4.9778      5.7484      6.6665      7.7042      8.8125      9.9248      9.6703      10.656      11.458      11.961    
  12.144      12.086      11.936      11.848      11.924      12.165      12.473      12.689      12.652      12.262    
  11.514      10.503      9.3773      8.2359      7.1476      6.1667      5.3274      4.6441      4.1157      3.7321    
  3.4801      3.3476      3.3270      3.4158      3.6173      3.9394      4.3929      4.9869      5.7244      6.5963    
  7.5764      8.6207      8.3650      9.3477      10.285      11.101      11.708      12.081      12.272      12.377    
  12.490      12.657      12.850      12.981      12.932      12.609      11.977      11.083      10.038      8.9368    
  7.8467      6.8275      5.9226      5.1565      4.5372      4.0606      3.7161      3.4918      3.3777      3.3677    
  3.4604      3.6592      3.9711      4.4049      4.9681      5.6619      6.4775      7.3914      7.1562      8.0549    
  8.9683      9.8510      10.658      11.330      11.839      12.208      12.490      12.730      12.936      13.068    
  13.052      12.815      12.313      11.563      10.638      9.6151      8.5597      7.5337      6.5874      5.7552    
  5.0545      4.4893      4.0538      3.7383      3.5326      3.4286      3.4216      3.5108      3.6993      3.9929    
  4.3985      4.9218      5.5632      6.3147      6.1144      6.8800      7.7020      8.5454      9.3727      10.151    
  10.849      11.439      11.922      12.315      12.628      12.846      12.927      12.816      12.476      11.902    
  11.139      10.239      9.2618      8.2674      7.3114      6.4364      5.6698      5.0243      4.5014      4.0956    
  3.7984      3.6017      3.4991      3.4872      3.5656      3.7363      4.0039      4.3737      4.8497      5.4322    
  5.2739      5.8846      6.5735      7.3194      8.0938      8.8659      9.6083      10.300      10.926      11.470    
  11.927      12.282      12.507      12.565      12.421      12.060      11.499      10.770      9.9189      9.0021    
  8.0762      7.1901      6.3804      5.6694      5.0670      4.5739      4.1855      3.8954      3.6977      3.5878    
  3.5632      3.6233      3.7692      4.0039      4.3313      4.7545      4.6400      5.0948      5.6342      6.2485    
  6.9209      7.6290      8.3478      9.0544      9.7306      10.362      10.933      11.425      11.811      12.057    
  12.130      12.007      11.681      11.165      10.490      9.7013      8.8532      7.9969      7.1761      6.4225    
  5.7552      5.1825      4.7057      4.3221      4.0278      3.8191      3.6931      3.6479      3.6824      3.7969    
  3.9929      4.2730      4.2010      4.5107      4.9019      5.3727      5.9164      6.5203      7.1667      7.8359    
  8.5093      9.1706      9.8045      10.393      10.913      11.333      11.617      11.733      11.658      11.386    
  10.930      10.321      9.6031      8.8253      8.0351      7.2715      6.5628      5.9260      5.3691      4.8950    
  4.5034      4.1934      3.9636      3.8127      3.7391      3.7413      3.8185      3.9711      3.9394      4.1180    
  4.3716      4.7022      5.1094      5.5886      6.1305      6.7219      7.3477      7.9932      8.6442      9.2852    
  9.8963      10.450      10.913      11.247      11.419      11.406      11.200      10.815      10.279      9.6326    
  8.9222      8.1909      7.4744      6.7982      6.1782      5.6231      5.1381      4.7260      4.3890      4.1283    
  3.9439      3.8346      3.7983      3.8334      3.8409      3.8991      4.0271      4.2275      4.5026      4.8528    
  5.2753      5.7636      6.3086      6.8995      7.5252      8.1737      8.8296      9.4710      10.068      10.584    
  10.979      11.217      11.274      11.142      10.831      10.368      9.7902      9.1407      8.4593      7.7787    
  7.1224      6.5057      5.9389      5.4299      4.9852      4.6105      4.3095      4.0835      3.9316      3.8515    
  3.8991      3.8409      3.8515      3.9316      4.0835      4.3095      4.6105      4.9852      5.4299      5.9389    
  6.5057      7.1224      7.7787      8.4593      9.1407      9.7902      10.368      10.831      11.142      11.274    
  11.217      10.979      10.584      10.068      9.4710      8.8295      8.1737      7.5252      6.8995      6.3086    
  5.7636      5.2753      4.8528      4.5026      4.2275      4.0271      4.1180      3.9395      3.8334      3.7983    
  3.8346      3.9439      4.1283      4.3890      4.7260      5.1381      5.6231      6.1782      6.7982      7.4744    
  8.1909      8.9222      9.6326      10.279      10.815      11.200      11.406      11.419      11.247      10.913    
  10.450      9.8963      9.2852      8.6442      7.9932      7.3477      6.7219      6.1305      5.5886      5.1094    
  4.7022      4.3715      4.5107      4.2010      3.9711      3.8185      3.7413      3.7391      3.8127      3.9636    
  4.1934      4.5034      4.8950      5.3691      5.9259      6.5628      7.2715      8.0351      8.8253      9.6031    
  10.321      10.930      11.386      11.658      11.733      11.617      11.333      10.913      10.393      9.8045    
  9.1706      8.5093      7.8359      7.1667      6.5203      5.9164      5.3727      4.9019      5.0948      4.6400    
  4.2730      3.9929      3.7969      3.6824      3.6479      3.6931      3.8191      4.0278      4.3221      4.7057    
  5.1825      5.7552      6.4225      7.1761      7.9969      8.8532      9.7013      10.490      11.165      11.681    
  12.007      12.130      12.056      11.811      11.425      10.933      10.362      9.7306      9.0544      8.3478    
  7.6290      6.9209      6.2485      5.6342      5.8846      5.2739      4.7545      4.3313      4.0040      3.7692    
  3.6233      3.5632      3.5879      3.6977      3.8954      4.1855      4.5739      5.0670      5.6694      6.3804    
  7.1901      8.0762      9.0021      9.9189      10.770      11.499      12.060      12.421      12.565      12.507    
  12.282      11.927      11.470      10.926      10.300      9.6083      8.8659      8.0938      7.3194      6.5735    
  6.8800      6.1144      5.4322      4.8497      4.3737      4.0040      3.7364      3.5656      3.4872      3.4991    
  3.6017      3.7984      4.0956      4.5014      5.0243      5.6698      6.4364      7.3114      8.2674      9.2618    
  10.239      11.139      11.902      12.476      12.816      12.927      12.846      12.628      12.315      11.922    
  11.439      10.849      10.151      9.3727      8.5454      7.7020      8.0548      7.1562      6.3147      5.5633    
  4.9218      4.3985      3.9929      3.6993      3.5108      3.4216      3.4286      3.5326      3.7383      4.0538    
  4.4893      5.0546      5.7552      6.5874      7.5337      8.5597      9.6151      10.638      11.563      12.313    
  12.815      13.052      13.068      12.936      12.730      12.490      12.208      11.839      11.330      10.658    
  9.8510      8.9683      9.3477      8.3650      7.3914      6.4775      5.6619      4.9681      4.4050      3.9711    
  3.6592      3.4605      3.3677      3.3777      3.4918      3.7161      4.0606      4.5372      5.1565      5.9226    
  6.8275      7.8467      8.9367      10.038      11.083      11.977      12.609      12.932      12.981      12.850    
  12.657      12.490      12.377      12.272      12.081      11.708      11.101      10.285      10.656      9.6703    
  8.6207      7.5764      6.5963      5.7244      4.9869      4.3929      3.9394      3.6173      3.4158      3.3270    
  3.3476      3.4801      3.7321      4.1157      4.6441      5.3274      6.1668      7.1476      8.2359      9.3773    
  10.503      11.514      12.262      12.652      12.689      12.473      12.165      11.924      11.848      11.936    
  12.086      12.144      11.961      11.458      11.719      10.950      9.9248      8.8125      7.7042      6.6665    
  5.7484      4.9778      4.3629      3.8991      3.5748      3.3781      3.3004      3.3391      3.4978      3.7863    
  4.2183      4.8077      5.5630      6.4802      7.5357      8.6833      9.8567      10.964      11.831      12.301    
  12.324      11.977      11.444      10.955      10.709      10.799      11.174      11.664      12.036      12.089    
  12.108      11.885      11.160      10.103      8.9336      7.7700      6.6857      5.7334      4.9413      4.3164    
  3.8515      3.5333      3.3486      3.2890      3.3525      3.5449      3.8779      4.3665      5.0246      5.8574    
  6.8532      7.9769      9.1686      10.346      11.341      11.934      11.996      11.543      10.742      9.8698    
  9.2306      9.0500      9.3957      10.150      11.052      11.790      11.457      12.047      11.968      11.282    
  10.199      8.9801      7.7720      6.6538      5.6803      4.8791      4.2550      3.7983      3.4940      3.3283    
  3.2931      3.3882      3.6211      4.0055      4.5578      5.2902      6.2028      7.2740      8.4550      9.6709    
  10.790      11.558      11.753      11.296      10.285      8.9955      7.8036      7.0774      7.0531      7.7502    
  8.9621      10.328      9.5904      11.101      11.939      11.981      11.321      10.210      8.9511      7.7106    
  6.5723      5.5914      4.7937      4.1810      3.7413      3.4583      3.3180      3.3132      3.4456      3.7250    
  4.1671      4.7884      5.5984      6.5900      7.7295      8.9530      10.163      11.132      11.562      11.256    
  10.199      8.5946      6.8290      5.3762      4.6541      4.8856      6.0183      7.7410      6.6292      8.9380    