unknown system                          
   1.00000000000000     
    -2.450000    2.450000    1.274000
     2.450000   -2.450000    1.274000
     2.450000    2.450000   -1.274000
   Si
     2
Direct
  0.250000  0.750000  0.500000
  0.000000  0.000000  0.000000
 
   36   36   36
 -.52599286685E+01 -.43312425046E+01 -.17801129797E+01 0.17698829912E+01 0.55121103338E+01
 0.86974117862E+01 0.10820392772E+02 0.11703691142E+02 0.11480298179E+02 0.10501813365E+02
 0.92059461102E+01 0.79017012896E+01 0.67059178479E+01 0.56863886411E+01 0.48732935394E+01
 0.42680222811E+01 0.38560748844E+01 0.36187379188E+01 0.35414312048E+01 0.36187346342E+01
 0.38560787677E+01 0.42680327403E+01 0.48732988194E+01 0.56863870823E+01 0.67059187018E+01
 0.79017043140E+01 0.92059415911E+01 0.10501802834E+02 0.11480293731E+02 0.11703694308E+02
 0.10820393667E+02 0.86974082628E+01 0.55121077660E+01 0.17698773869E+01 -.17801294864E+01
 -.43312604338E+01 -.43312604338E+01 -.48136253135E+01 -.34861023492E+01 -.68620309113E+00
 0.29071495258E+01 0.64935630060E+01 0.93816736398E+01 0.11150204161E+02 0.11705104009E+02
 0.11241581969E+02 0.10141239505E+02 0.88296508876E+01 0.75496509877E+01 0.63990786125E+01
 0.54355172156E+01 0.46806169597E+01 0.41304635332E+01 0.37684876435E+01 0.35763388121E+01
 0.35413370118E+01 0.36606389662E+01 0.39420669846E+01 0.44016026770E+01 0.50576651651E+01
 0.59220502369E+01 0.69877520380E+01 0.82165600902E+01 0.95321931883E+01 0.10794080118E+02
 0.11645851169E+02 0.11659556004E+02 0.10525797767E+02 0.81778639891E+01 0.48685438476E+01
 0.11652965913E+01 -.21592919943E+01 -.17801294864E+01 -.34861159582E+01 -.35247817362E+01
 -.18908580941E+01 0.99780179226E+00 0.44434834429E+01 0.76901237304E+01 0.10132976846E+02
 0.11449485996E+02 0.11629870471E+02 0.10922281879E+02 0.97229182813E+01 0.84154864683E+01
 0.71726720742E+01 0.60782182696E+01 0.51783896124E+01 0.44863607927E+01 0.39935786580E+01
 0.36821873489E+01 0.35348357527E+01 0.35411026840E+01 0.37007197756E+01 0.40235665862E+01
 0.45264916194E+01 0.52270270848E+01 0.61337931324E+01 0.72342147902E+01 0.84830806859E+01
 0.97977828323E+01 0.11013271132E+02 0.11750489157E+02 0.11606852191E+02 0.10323303598E+02
 0.78978585921E+01 0.46444958254E+01 0.11652965913E+01 0.17698773869E+01 -.68621332050E+00
 -.18908646855E+01 -.15366875011E+01 0.27762699873E+00 0.30837096519E+01 0.62027073472E+01
 0.89560100986E+01 0.10846019381E+02 0.11655023350E+02 0.11451758193E+02 0.10523693815E+02
 0.92634825919E+01 0.79767529037E+01 0.67835569248E+01 0.57543450367E+01 0.49237006762E+01
 0.42969291239E+01 0.38617763030E+01 0.35999373351E+01 0.34956152127E+01 0.35408402351E+01
 0.37377436248E+01 0.40978207314E+01 0.46382309228E+01 0.53751024242E+01 0.63136409778E+01
 0.74361252877E+01 0.86917621747E+01 0.99938319408E+01 0.11158477619E+02 0.11806945988E+02
 0.11572933535E+02 0.10251294944E+02 0.78978585921E+01 0.48685438476E+01 0.55121077660E+01
 0.29071470446E+01 0.99779918625E+00 0.27762767789E+00 0.93418719245E+00 0.27856464420E+01
 0.53466891197E+01 0.79916516649E+01 0.10144151663E+02 0.11424442540E+02 0.11717377122E+02
 0.11158671815E+02 0.10058391238E+02 0.87787892933E+01 0.75274274637E+01 0.63950387610E+01
 0.54379413981E+01 0.46794588842E+01 0.41180986298E+01 0.37390084475E+01 0.35242390341E+01
 0.34599628221E+01 0.35406726703E+01 0.37705854777E+01 0.41623142051E+01 0.47327999111E+01
 0.54963634226E+01 0.64547877287E+01 0.75859458991E+01 0.88351539883E+01 0.10113828434E+02
 0.11230605360E+02 0.11824618223E+02 0.11572933535E+02 0.10323303598E+02 0.81778639891E+01
 0.86974082628E+01 0.64935620295E+01 0.44434836008E+01 0.30837134072E+01 0.27856525312E+01
 0.36289506479E+01 0.53760162374E+01 0.75574629739E+01 0.96279638691E+01 0.11127780463E+02
 0.11795829017E+02 0.11609895351E+02 0.10756762590E+02 0.95506879644E+01 0.82835002026E+01
 0.70816730757E+01 0.60192484704E+01 0.51385194172E+01 0.44526727223E+01 0.39548118113E+01
 0.36286279135E+01 0.34572203243E+01 0.34289700043E+01 0.35406785474E+01 0.37982391022E+01
 0.42148688317E+01 0.48068116548E+01 0.55863032300E+01 0.65519159894E+01 0.76781085590E+01
 0.89081469587E+01 0.10154199205E+02 0.11230605360E+02 0.11806945988E+02 0.11606852191E+02
 0.10525797767E+02 0.10820393667E+02 0.93816747432E+01 0.76901236909E+01 0.62027088380E+01
 0.53466964490E+01 0.53760248777E+01 0.62831075347E+01 0.78043065718E+01 0.95141791494E+01
 0.10965211795E+02 0.11818074829E+02 0.11922468162E+02 0.11333803363E+02 0.10271259982E+02
 0.90281654032E+01 0.77931618287E+01 0.66533140321E+01 0.56672665637E+01 0.48643249068E+01
 0.42491837511E+01 0.38110841261E+01 0.35333217856E+01 0.34005693992E+01 0.34034717128E+01
 0.35408571874E+01 0.38198329243E+01 0.42537182486E+01 0.48576419050E+01 0.56416118898E+01
 0.66013976727E+01 0.77092105081E+01 0.89081469587E+01 0.10113828434E+02 0.11158477619E+02
 0.11750489157E+02 0.11659556004E+02 0.11703694308E+02 0.11150210313E+02 0.10132981375E+02
 0.89560104317E+01 0.79916533459E+01 0.75574710102E+01 0.78043150518E+01 0.86629196567E+01
 0.98713123274E+01 0.11068158393E+02 0.11910880607E+02 0.12174894405E+02 0.11806084583E+02
 0.10918411071E+02 0.97435871590E+01 0.85097169379E+01 0.73236315791E+01 0.62553086264E+01
 0.53488012803E+01 0.46222006306E+01 0.40736413767E+01 0.36900158980E+01 0.34551173449E+01
 0.33555204011E+01 0.33840284207E+01 0.35411284978E+01 0.38346576437E+01 0.42775608733E+01
 0.48835071442E+01 0.56602734822E+01 0.66013976727E+01 0.76781085590E+01 0.88351539883E+01
 0.99938319408E+01 0.11013271132E+02 0.11645851169E+02 0.11480293731E+02 0.11705107604E+02
 0.11449495097E+02 0.10846025784E+02 0.10144152340E+02 0.96279653022E+01 0.95141859091E+01
 0.98713188465E+01 0.10594592323E+02 0.11445973723E+02 0.12139294054E+02 0.12434637294E+02
 0.12209196319E+02 0.11485928944E+02 0.10416380329E+02 0.92146515821E+01 0.80139264916E+01
 0.68903018235E+01 0.58992709458E+01 0.50720020248E+01 0.44175872150E+01 0.39295829059E+01
 0.35938787233E+01 0.33954437889E+01 0.33228910332E+01 0.33709573639E+01 0.35413673895E+01
 0.38422042679E+01 0.42855983320E+01 0.48835071442E+01 0.56416118898E+01 0.65519159894E+01
 0.75859458991E+01 0.86917621747E+01 0.97977828323E+01 0.10794080118E+02 0.10501802834E+02
 0.11241575371E+02 0.11629873364E+02 0.11655032868E+02 0.11424449445E+02 0.11127781756E+02
 0.10965213082E+02 0.11068163000E+02 0.11445977610E+02 0.11981492160E+02 0.12475564865E+02
 0.12719536069E+02 0.12566449709E+02 0.11977372987E+02 0.11030826408E+02 0.98928585123E+01
 0.87089073124E+01 0.75593487438E+01 0.65072735264E+01 0.55950985591E+01 0.48433981071E+01
 0.42546196261E+01 0.38195707222E+01 0.35242403574E+01 0.33552271655E+01 0.33031596255E+01
 0.33643998388E+01 0.35414617371E+01 0.38422042679E+01 0.42775608733E+01 0.48576419050E+01
 0.55863032300E+01 0.64547877287E+01 0.74361252877E+01 0.84830806859E+01 0.95321931883E+01
 0.92059415911E+01 0.10141230723E+02 0.10922274695E+02 0.11451759615E+02 0.11717384948E+02
 0.11795835267E+02 0.11818076863E+02 0.11910882029E+02 0.12139296568E+02 0.12475566373E+02
 0.12807815156E+02 0.12983115732E+02 0.12865451818E+02 0.12385985309E+02 0.11569044870E+02
 0.10526525470E+02 0.93923573620E+01 0.82488121392E+01 0.71631470934E+01 0.61866494815E+01
 0.53507496432E+01 0.46679446864E+01 0.41362728913E+01 0.37453481043E+01 0.34820976562E+01
 0.33350000381E+01 0.32965601312E+01 0.33643998388E+01 0.35413673895E+01 0.38346576437E+01
 0.42537182486E+01 0.48068116548E+01 0.54963634226E+01 0.63136409778E+01 0.72342147902E+01
 0.82165600902E+01 0.79017043140E+01 0.88296513173E+01 0.97229126369E+01 0.10523687386E+02
 0.11158671361E+02 0.11609900060E+02 0.11922472822E+02 0.12174897026E+02 0.12434639100E+02
 0.12719537123E+02 0.12983115605E+02 0.13130125225E+02 0.13054417713E+02 0.12682502759E+02
 0.12005837954E+02 0.11090669491E+02 0.10043419959E+02 0.89420486824E+01 0.78549761441E+01
 0.68399555085E+01 0.59380817506E+01 0.51721912250E+01 0.45491468444E+01 0.40645212161E+01
 0.37079845227E+01 0.34679929279E+01 0.33350000381E+01 0.33031596255E+01 0.33709573639E+01
 0.35411284978E+01 0.38198329243E+01 0.42148688317E+01 0.47327999111E+01 0.53751024242E+01
 0.61337931324E+01 0.69877520380E+01 0.67059187018E+01 0.75496563548E+01 0.84154899733E+01
 0.92634801228E+01 0.10058386211E+02 0.10756760261E+02 0.11333804537E+02 0.11806087271E+02
 0.12209199276E+02 0.12566451957E+02 0.12865452115E+02 0.13054416737E+02 0.13059982538E+02
 0.12818079746E+02 0.12304324705E+02 0.11551600830E+02 0.10633441734E+02 0.96161110666E+01
 0.85659740666E+01 0.75446050415E+01 0.66011912712E+01 0.57686167766E+01 0.50634969622E+01
 0.44892160634E+01 0.40404836867E+01 0.37079845227E+01 0.34820976562E+01 0.33552271655E+01
 0.33228910332E+01 0.33840284207E+01 0.35408571874E+01 0.37982391022E+01 0.41623142051E+01
 0.46382309228E+01 0.52270270848E+01 0.59220502369E+01 0.56863870823E+01 0.63990789464E+01
 0.71726765815E+01 0.79767569315E+01 0.87787889684E+01 0.95506844171E+01 0.10271256378E+02
 0.10918409412E+02 0.11485929959E+02 0.11977375951E+02 0.12385987694E+02 0.12682502681E+02
 0.12818078531E+02 0.12741430362E+02 0.12422267020E+02 0.11870121048E+02 0.11125842753E+02
 0.10239553789E+02 0.92714819969E+01 0.82835316442E+01 0.73306515004E+01 0.64548356527E+01
 0.56827854569E+01 0.50270112554E+01 0.44892160634E+01 0.40645212161E+01 0.37453481043E+01
 0.35242403574E+01 0.33954437889E+01 0.33555204011E+01 0.34034717128E+01 0.35406785474E+01
 0.37705854777E+01 0.40978207314E+01 0.45264916194E+01 0.50576651651E+01 0.48732988194E+01
 0.54355160831E+01 0.60782169574E+01 0.67835584532E+01 0.75274299021E+01 0.82835009023E+01
 0.90281634524E+01 0.97435834333E+01 0.10416377198E+02 0.11030826277E+02 0.11569047280E+02
 0.12005839832E+02 0.12304324363E+02 0.12422266042E+02 0.12326932211E+02 0.12008895337E+02
 0.11480130008E+02 0.10773300860E+02 0.99375080469E+01 0.90302522140E+01 0.81086005910E+01
 0.72215974055E+01 0.64055432465E+01 0.56827854569E+01 0.50634969622E+01 0.45491468444E+01
 0.41362728913E+01 0.38195707222E+01 0.35938787233E+01 0.34551173449E+01 0.34005693992E+01
 0.34289700043E+01 0.35406726703E+01 0.37377436248E+01 0.40235665862E+01 0.44016026770E+01
 0.42680327403E+01 0.46806226702E+01 0.51783894242E+01 0.57543423351E+01 0.63950367863E+01
 0.70816732323E+01 0.77931631116E+01 0.85097168909E+01 0.92146488340E+01 0.98928551252E+01
 0.10526524449E+02 0.11090670680E+02 0.11551601651E+02 0.11870120688E+02 0.12008895064E+02
 0.11941396671E+02 0.11659189760E+02 0.11175217526E+02 0.10522365350E+02 0.97480208828E+01
 0.89062228656E+01 0.80493895461E+01 0.72215974055E+01 0.64548356527E+01 0.57686167766E+01
 0.51721912250E+01 0.46679446864E+01 0.42546196261E+01 0.39295829059E+01 0.36900158980E+01
 0.35333217856E+01 0.34572203243E+01 0.34599628221E+01 0.35408402351E+01 0.37007197756E+01
 0.39420669846E+01 0.38560787677E+01 0.41304708864E+01 0.44863667227E+01 0.49237020240E+01
 0.54379382553E+01 0.60192442999E+01 0.66533129200E+01 0.73236338470E+01 0.80139284341E+01
 0.87089059817E+01 0.93923542936E+01 0.10043418130E+02 0.10633441389E+02 0.11125842580E+02
 0.11480130181E+02 0.11659190622E+02 0.11637474612E+02 0.11407354229E+02 0.10981707770E+02
 0.10392137324E+02 0.96834897065E+01 0.89062228656E+01 0.81086005910E+01 0.73306515004E+01
 0.66011912712E+01 0.59380817506E+01 0.53507496432E+01 0.48433981071E+01 0.44175872150E+01
 0.40736413767E+01 0.38110841261E+01 0.36286279135E+01 0.35242390341E+01 0.34956152127E+01
 0.35411026840E+01 0.36606389662E+01 0.36187346342E+01 0.37684874804E+01 0.39935824555E+01
 0.42969343730E+01 0.46794613652E+01 0.51385170755E+01 0.56672626864E+01 0.62553084148E+01
 0.68903057810E+01 0.75593523224E+01 0.82488119740E+01 0.89420461152E+01 0.96161087194E+01
 0.10239552283E+02 0.10773300327E+02 0.11175218781E+02 0.11407356334E+02 0.11443667045E+02
 0.11275827268E+02 0.10915448307E+02 0.10392137324E+02 0.97480208828E+01 0.90302522140E+01
 0.82835316442E+01 0.75446050415E+01 0.68399555085E+01 0.61866494815E+01 0.55950985591E+01
 0.50720020248E+01 0.46222006306E+01 0.42491837511E+01 0.39548118113E+01 0.37390084475E+01
 0.35999373351E+01 0.35348357527E+01 0.35413370118E+01 0.35414312048E+01 0.35763358169E+01
 0.36821839319E+01 0.38617759298E+01 0.41181018073E+01 0.44526758424E+01 0.48643249768E+01
 0.53488006222E+01 0.58992739138E+01 0.65072796153E+01 0.71631516549E+01 0.78549766702E+01
 0.85659721589E+01 0.92714796853E+01 0.99375061475E+01 0.10522365106E+02 0.10981710153E+02
 0.11275830194E+02 0.11377158128E+02 0.11275827268E+02 0.10981707770E+02 0.10522365350E+02
 0.99375080469E+01 0.92714819969E+01 0.85659740666E+01 0.78549761441E+01 0.71631470934E+01
 0.65072735264E+01 0.58992709458E+01 0.53488012803E+01 0.48643249068E+01 0.44526727223E+01
 0.41180986298E+01 0.38617763030E+01 0.36821873489E+01 0.35763388121E+01 0.36187379188E+01
 0.35413390428E+01 0.35348325278E+01 0.35999301426E+01 0.37390032134E+01 0.39548123387E+01
 0.42491879183E+01 0.46222050305E+01 0.50720071186E+01 0.55951061568E+01 0.61866575737E+01
 0.68399603281E+01 0.75446058991E+01 0.82835305288E+01 0.90302503786E+01 0.97480191163E+01
 0.10392137489E+02 0.10915451173E+02 0.11275830194E+02 0.11443667045E+02 0.11407354229E+02
 0.11175217526E+02 0.10773300860E+02 0.10239553789E+02 0.96161110666E+01 0.89420486824E+01
 0.82488121392E+01 0.75593487438E+01 0.68903018235E+01 0.62553086264E+01 0.56672665637E+01
 0.51385194172E+01 0.46794588842E+01 0.42969291239E+01 0.39935786580E+01 0.37684876435E+01
 0.38560748844E+01 0.36606397812E+01 0.35411032055E+01 0.34956093930E+01 0.35242278054E+01
 0.36286191337E+01 0.38110835473E+01 0.40736480990E+01 0.44175974896E+01 0.48434100623E+01
 0.53507619006E+01 0.59380911205E+01 0.66011957522E+01 0.73306524696E+01 0.81086001654E+01
 0.89062214773E+01 0.96834880688E+01 0.10392137489E+02 0.10981710153E+02 0.11407356334E+02
 0.11637474612E+02 0.11659189760E+02 0.11480130008E+02 0.11125842753E+02 0.10633441734E+02
 0.10043419959E+02 0.93923573620E+01 0.87089073124E+01 0.80139264916E+01 0.73236315791E+01
 0.66533140321E+01 0.60192484704E+01 0.54379413981E+01 0.49237006762E+01 0.44863607927E+01
 0.41304635332E+01 0.42680222811E+01 0.39420574045E+01 0.37007144788E+01 0.35408356831E+01
 0.34599535792E+01 0.34572077819E+01 0.35333135789E+01 0.36900176551E+01 0.39295938856E+01
 0.42546359731E+01 0.46679626369E+01 0.51722068573E+01 0.57686265163E+01 0.64548395728E+01
 0.72215983735E+01 0.80493893983E+01 0.89062214773E+01 0.97480191163E+01 0.10522365106E+02
 0.11175218781E+02 0.11659190622E+02 0.11941396671E+02 0.12008895337E+02 0.11870121048E+02
 0.11551600830E+02 0.11090669491E+02 0.10526525470E+02 0.98928585123E+01 0.92146515821E+01
 0.85097169379E+01 0.77931618287E+01 0.70816730757E+01 0.63950387610E+01 0.57543450367E+01
 0.51783896124E+01 0.46806169597E+01 0.48732935394E+01 0.44015894846E+01 0.40235510645E+01
 0.37377315968E+01 0.35406633810E+01 0.34289600457E+01 0.34005602322E+01 0.34551146337E+01
 0.35938857480E+01 0.38195864475E+01 0.41362938745E+01 0.45491686047E+01 0.50635142585E+01
 0.56827951017E+01 0.64055468924E+01 0.72215983735E+01 0.81086001654E+01 0.90302503786E+01
 0.99375061475E+01 0.10773300327E+02 0.11480130181E+02 0.12008895064E+02 0.12326932211E+02
 0.12422267020E+02 0.12304324705E+02 0.12005837954E+02 0.11569044870E+02 0.11030826408E+02
 0.10416380329E+02 0.97435871590E+01 0.90281654032E+01 0.82835002026E+01 0.75274274637E+01
 0.67835569248E+01 0.60782182696E+01 0.54355172156E+01 0.56863886411E+01 0.50576608097E+01
 0.45264780125E+01 0.40978032779E+01 0.37705709704E+01 0.35406685026E+01 0.34034652184E+01
 0.33555186090E+01 0.33954490198E+01 0.35242531163E+01 0.37453673878E+01 0.40645446956E+01
 0.44892394270E+01 0.50270289815E+01 0.56827951017E+01 0.64548395728E+01 0.73306524696E+01
 0.82835305288E+01 0.92714796853E+01 0.10239552283E+02 0.11125842580E+02 0.11870120688E+02
 0.12422266042E+02 0.12741430362E+02 0.12818079746E+02 0.12682502759E+02 0.12385985309E+02
 0.11977372987E+02 0.11485928944E+02 0.10918411071E+02 0.10271259982E+02 0.95506879644E+01
 0.87787892933E+01 0.79767529037E+01 0.71726720742E+01 0.63990786125E+01 0.67059178479E+01
 0.59220528588E+01 0.52270255919E+01 0.46382218295E+01 0.41623015564E+01 0.37982284236E+01
 0.35408511570E+01 0.33840282096E+01 0.33228973930E+01 0.33552393523E+01 0.34821143368E+01
 0.37080054899E+01 0.40405078780E+01 0.44892394270E+01 0.50635142585E+01 0.57686265163E+01
 0.66011957522E+01 0.75446058991E+01 0.85659721589E+01 0.96161087194E+01 0.10633441389E+02
 0.11551601651E+02 0.12304324363E+02 0.12818078531E+02 0.13059982538E+02 0.13054417713E+02
 0.12865451818E+02 0.12566449709E+02 0.12209196319E+02 0.11806084583E+02 0.11333803363E+02
 0.10756762590E+02 0.10058391238E+02 0.92634825919E+01 0.84154864683E+01 0.75496509877E+01
 0.79017012896E+01 0.69877532955E+01 0.61337987757E+01 0.53751070063E+01 0.47328006688E+01
 0.42148668669E+01 0.38198306106E+01 0.35411286602E+01 0.33709631793E+01 0.33031718176E+01
 0.33350160145E+01 0.34680109216E+01 0.37080054899E+01 0.40645446956E+01 0.45491686047E+01
 0.51722068573E+01 0.59380911205E+01 0.68399603281E+01 0.78549766702E+01 0.89420461152E+01
 0.10043418130E+02 0.11090670680E+02 0.12005839832E+02 0.12682502681E+02 0.13054416737E+02
 0.13130125225E+02 0.12983115732E+02 0.12719536069E+02 0.12434637294E+02 0.12174894405E+02
 0.11922468162E+02 0.11609895351E+02 0.11158671815E+02 0.10523693815E+02 0.97229182813E+01
 0.88296508876E+01 0.92059461102E+01 0.82165628134E+01 0.72342212692E+01 0.63136518498E+01
 0.54963763469E+01 0.48068245363E+01 0.42537285469E+01 0.38346639680E+01 0.35413726121E+01
 0.33644090880E+01 0.32965743601E+01 0.33350160145E+01 0.34821143368E+01 0.37453673878E+01
 0.41362938745E+01 0.46679626369E+01 0.53507619006E+01 0.61866575737E+01 0.71631516549E+01
 0.82488119740E+01 0.93923542936E+01 0.10526524449E+02 0.11569047280E+02 0.12385987694E+02
 0.12865452115E+02 0.12983115605E+02 0.12807815156E+02 0.12475564865E+02 0.12139294054E+02
 0.11910880607E+02 0.11818074829E+02 0.11795829017E+02 0.11717377122E+02 0.11451758193E+02
 0.10922281879E+02 0.10141239505E+02 0.10501813365E+02 0.95322031994E+01 0.84830913753E+01
 0.74361388669E+01 0.64548046406E+01 0.55863240932E+01 0.48576650644E+01 0.42775803735E+01
 0.38422157860E+01 0.35414688361E+01 0.33644090880E+01 0.33031718176E+01 0.33552393523E+01
 0.35242531163E+01 0.38195864475E+01 0.42546359731E+01 0.48434100623E+01 0.55951061568E+01
 0.65072796153E+01 0.75593523224E+01 0.87089059817E+01 0.98928551252E+01 0.11030826277E+02
 0.11977375951E+02 0.12566451957E+02 0.12719537123E+02 0.12475566373E+02 0.11981492160E+02
 0.11445973723E+02 0.11068158393E+02 0.10965211795E+02 0.11127780463E+02 0.11424442540E+02
 0.11655023350E+02 0.11629870471E+02 0.11241581969E+02 0.11480298179E+02 0.10794090191E+02
 0.97977974173E+01 0.86917807918E+01 0.75859661565E+01 0.65519377003E+01 0.56416379721E+01
 0.48835359374E+01 0.42856211660E+01 0.38422157860E+01 0.35413726121E+01 0.33709631793E+01
 0.33228973930E+01 0.33954490198E+01 0.35938857480E+01 0.39295938856E+01 0.44175974896E+01
 0.50720071186E+01 0.58992739138E+01 0.68903057810E+01 0.80139284341E+01 0.92146488340E+01
 0.10416377198E+02 0.11485929959E+02 0.12209199276E+02 0.12434639100E+02 0.12139296568E+02
 0.11445977610E+02 0.10594592323E+02 0.98713123274E+01 0.95141791494E+01 0.96279638691E+01
 0.10144151663E+02 0.10846019381E+02 0.11449485996E+02 0.11705104009E+02 0.11703691142E+02
 0.11645852293E+02 0.11013278668E+02 0.99938492333E+01 0.88351784560E+01 0.76781332393E+01
 0.66014218272E+01 0.56603013020E+01 0.48835359374E+01 0.42775803735E+01 0.38346639680E+01
 0.35411286602E+01 0.33840282096E+01 0.33555186090E+01 0.34551146337E+01 0.36900176551E+01
 0.40736480990E+01 0.46222050305E+01 0.53488006222E+01 0.62553084148E+01 0.73236338470E+01
 0.85097168909E+01 0.97435834333E+01 0.10918409412E+02 0.11806087271E+02 0.12174897026E+02
 0.11910882029E+02 0.11068163000E+02 0.98713188465E+01 0.86629196567E+01 0.78043065718E+01
 0.75574629739E+01 0.79916516649E+01 0.89560100986E+01 0.10132976846E+02 0.11150204161E+02
 0.10820392772E+02 0.11659554345E+02 0.11750486625E+02 0.11158481731E+02 0.10113846683E+02
 0.89081743312E+01 0.77092366797E+01 0.66014218272E+01 0.56416379721E+01 0.48576650644E+01
 0.42537285469E+01 0.38198306106E+01 0.35408511570E+01 0.34034652184E+01 0.34005602322E+01
 0.35333135789E+01 0.38110835473E+01 0.42491879183E+01 0.48643249768E+01 0.56672626864E+01
 0.66533129200E+01 0.77931631116E+01 0.90281634524E+01 0.10271256378E+02 0.11333804537E+02
 0.11922472822E+02 0.11818076863E+02 0.10965213082E+02 0.95141859091E+01 0.78043150518E+01
 0.62831075347E+01 0.53760162374E+01 0.53466891197E+01 0.62027073472E+01 0.76901237304E+01
 0.93816736398E+01 0.86974117862E+01 0.10525803123E+02 0.11606852410E+02 0.11806940561E+02
 0.11230607033E+02 0.10154217589E+02 0.89081743312E+01 0.76781332393E+01 0.65519377003E+01
 0.55863240932E+01 0.48068245363E+01 0.42148668669E+01 0.37982284236E+01 0.35406685026E+01
 0.34289600457E+01 0.34572077819E+01 0.36286191337E+01 0.39548123387E+01 0.44526758424E+01
 0.51385170755E+01 0.60192442999E+01 0.70816732323E+01 0.82835009023E+01 0.95506844171E+01
 0.10756760261E+02 0.11609900060E+02 0.11795835267E+02 0.11127781756E+02 0.96279653022E+01
 0.75574710102E+01 0.53760248777E+01 0.36289506479E+01 0.27856464420E+01 0.30837096519E+01
 0.44434834429E+01 0.64935630060E+01 0.55121103338E+01 0.81778721187E+01 0.10323314063E+02
 0.11572935014E+02 0.11824611682E+02 0.11230607033E+02 0.10113846683E+02 0.88351784560E+01
 0.75859661565E+01 0.64548046406E+01 0.54963763469E+01 0.47328006688E+01 0.41623015564E+01
 0.37705709704E+01 0.35406633810E+01 0.34599535792E+01 0.35242278054E+01 0.37390032134E+01
 0.41181018073E+01 0.46794613652E+01 0.54379382553E+01 0.63950367863E+01 0.75274299021E+01
 0.87787889684E+01 0.10058386211E+02 0.11158671361E+02 0.11717384948E+02 0.11424449445E+02
 0.10144152340E+02 0.79916533459E+01 0.53466964490E+01 0.27856525312E+01 0.93418719245E+00
 0.27762699873E+00 0.99780179226E+00 0.29071495258E+01 0.17698829912E+01 0.48685479989E+01
 0.78978696272E+01 0.10251307381E+02 0.11572935014E+02 0.11806940561E+02 0.11158481731E+02
 0.99938492333E+01 0.86917807918E+01 0.74361388669E+01 0.63136518498E+01 0.53751070063E+01
 0.46382218295E+01 0.40978032779E+01 0.37377315968E+01 0.35408356831E+01 0.34956093930E+01
 0.35999301426E+01 0.38617759298E+01 0.42969343730E+01 0.49237020240E+01 0.57543423351E+01
 0.67835584532E+01 0.79767569315E+01 0.92634801228E+01 0.10523687386E+02 0.11451759615E+02
 0.11655032868E+02 0.10846025784E+02 0.89560104317E+01 0.62027088380E+01 0.30837134072E+01
 0.27762767789E+00 -.15366875011E+01 -.18908580941E+01 -.68620309113E+00 -.17801129797E+01
 0.11653043298E+01 0.46445006400E+01 0.78978696272E+01 0.10323314063E+02 0.11606852410E+02
 0.11750486625E+02 0.11013278668E+02 0.97977974173E+01 0.84830913753E+01 0.72342212692E+01
 0.61337987757E+01 0.52270255919E+01 0.45264780125E+01 0.40235510645E+01 0.37007144788E+01
 0.35411032055E+01 0.35348325278E+01 0.36821839319E+01 0.39935824555E+01 0.44863667227E+01
 0.51783894242E+01 0.60782169574E+01 0.71726765815E+01 0.84154899733E+01 0.97229126369E+01
 0.10922274695E+02 0.11629873364E+02 0.11449495097E+02 0.10132981375E+02 0.76901236909E+01
 0.44434836008E+01 0.99779918625E+00 -.18908646855E+01 -.35247817362E+01 -.34861023492E+01
 -.43312425046E+01 -.21592730519E+01 0.11653043298E+01 0.48685479989E+01 0.81778721187E+01
 0.10525803123E+02 0.11659554345E+02 0.11645852293E+02 0.10794090191E+02 0.95322031994E+01
 0.82165628134E+01 0.69877532955E+01 0.59220528588E+01 0.50576608097E+01 0.44015894846E+01
 0.39420574045E+01 0.36606397812E+01 0.35413390428E+01 0.35763358169E+01 0.37684874804E+01
 0.41304708864E+01 0.46806226702E+01 0.54355160831E+01 0.63990789464E+01 0.75496563548E+01
 0.88296513173E+01 0.10141230723E+02 0.11241575371E+02 0.11705107604E+02 0.11150210313E+02
 0.93816747432E+01 0.64935620295E+01 0.29071470446E+01 -.68621332050E+00 -.34861159582E+01
 -.48136253135E+01 -.43312488822E+01 -.36430708081E+01 -.13779068306E+01 0.19072272204E+01
 0.54546336924E+01 0.85342959330E+01 0.10631063011E+02 0.11539384044E+02 0.11359128478E+02
 0.10415038730E+02 0.91314885870E+01 0.78273816172E+01 0.66247451998E+01 0.55936588828E+01
 0.47664622690E+01 0.41457867046E+01 0.37173895278E+01 0.34621002365E+01 0.33643750658E+01
 0.34174791233E+01 0.36254913529E+01 0.40021021537E+01 0.45662100657E+01 0.53342229844E+01
 0.63088329342E+01 0.74659439823E+01 0.87447965086E+01 0.10042681811E+02 0.11097699871E+02
 0.11487097286E+02 0.10851282052E+02 0.90292050313E+01 0.61521167933E+01 0.26680174065E+01
 -.72945308446E+00 -.32697708490E+01 -.36430851143E+01 -.43312563976E+01 -.32697693114E+01
 -.72944998461E+00 0.26680150139E+01 0.61521124238E+01 0.90292090888E+01 0.10851299206E+02
 0.11487122404E+02 0.11097725033E+02 0.10042705067E+02 0.87448184077E+01 0.74659617043E+01
 0.63088436008E+01 0.53342301589E+01 0.45662193989E+01 0.40021121483E+01 0.36254956316E+01
 0.34174766356E+01 0.33643706860E+01 0.34620954939E+01 0.37173807576E+01 0.41457733438E+01
 0.47664489166E+01 0.55936465591E+01 0.66247282736E+01 0.78273570014E+01 0.91314610902E+01
 0.10415013470E+02 0.11359104501E+02 0.11539360548E+02 0.10631045623E+02 0.85342906006E+01
 0.54546367686E+01 0.19072265436E+01 -.13779174577E+01 -.13065160706E+01 -.31934033045E+01
 -.34861199482E+01 -.21160467516E+01 0.56314440932E+00 0.38960442208E+01 0.71352568218E+01
 0.96539265076E+01 0.11089720346E+02 0.11391045943E+02 0.10774447253E+02 0.96211936812E+01
 0.83264857241E+01 0.70846317400E+01 0.59835480664E+01 0.50732167964E+01 0.43693037614E+01
 0.38643409633E+01 0.35405077897E+01 0.33798419973E+01 0.33709318133E+01 0.35124283301E+01
 0.38134505044E+01 0.42908784254E+01 0.49635040051E+01 0.58427759963E+01 0.69205234091E+01
 0.81569121016E+01 0.94745578573E+01 0.10729351327E+02 0.11566549085E+02 0.11578738799E+02
 0.10485486814E+02 0.82485252562E+01 0.51362291527E+01 0.17068484149E+01 0.20926587967E+01
 -.52289540008E+00 -.19715372290E+01 -.18908759377E+01 -.31225169604E+00 0.23509908627E+01
 0.54437941849E+01 0.82756347162E+01 0.10310874639E+02 0.11284115517E+02 0.11222239210E+02
 0.10386746267E+02 0.91645102151E+01 0.78889904953E+01 0.66955928897E+01 0.56594399586E+01
 0.48189785479E+01 0.41818310000E+01 0.37366219681E+01 0.34649539670E+01 0.33503793213E+01
 0.33840130324E+01 0.35671341617E+01 0.39108477662E+01 0.44327883185E+01 0.51507481766E+01
 0.60729525613E+01 0.71858643288E+01 0.84433520220E+01 0.97630145537E+01 0.10980544499E+02
 0.11729064700E+02 0.11630901364E+02 0.10455110138E+02 0.82203567574E+01 0.52414852122E+01
 0.57600856234E+01 0.30199703083E+01 0.88351541992E+00 -.11436451698E+00 0.27761064389E+00
 0.19416453061E+01 0.44331836881E+01 0.71309920486E+01 0.94294459685E+01 0.10900290636E+02
 0.11378228783E+02 0.10961137282E+02 0.99409881465E+01 0.86882289797E+01 0.74451745247E+01
 0.63108445981E+01 0.53465117462E+01 0.45791545409E+01 0.40092633284E+01 0.36226170151E+01
 0.34010566885E+01 0.33301034789E+01 0.34034689082E+01 0.36247898723E+01 0.40066625368E+01
 0.45668899430E+01 0.53217285914E+01 0.62759620205E+01 0.74111931817E+01 0.86765160550E+01
 0.99867626649E+01 0.11165162632E+02 0.11852896795E+02 0.11710491936E+02 0.10557347032E+02
 0.84599844054E+01 0.89381352216E+01 0.66288242199E+01 0.43804857312E+01 0.27543938130E+01
 0.21744983407E+01 0.27856314129E+01 0.44046378559E+01 0.65860279257E+01 0.87714583264E+01
 0.10459729913E+02 0.11336735538E+02 0.11332587639E+02 0.10603359761E+02 0.94543673228E+01
 0.82052702815E+01 0.70079282933E+01 0.59417455564E+01 0.50537729629E+01 0.43603774975E+01
 0.38562207124E+01 0.35253727455E+01 0.33506307781E+01 0.33197668106E+01 0.34289782910E+01
 0.36838693806E+01 0.40979874606E+01 0.46887417487E+01 0.54704224500E+01 0.64443743469E+01
 0.75881296710E+01 0.88477186908E+01 0.10137502631E+02 0.11279828116E+02 0.11938790655E+02
 0.11817867114E+02 0.10783659539E+02 0.11101029545E+02 0.95907929051E+01 0.77411267494E+01
 0.60179616536E+01 0.48850381069E+01 0.46536011561E+01 0.53760017148E+01 0.68293452127E+01
 0.85954394197E+01 0.10200373370E+02 0.11256992588E+02 0.11562941349E+02 0.11132321344E+02
 0.10162709163E+02 0.89525115639E+01 0.77290869610E+01 0.65898306538E+01 0.55986299980E+01
 0.47889740718E+01 0.41681084323E+01 0.37263834341E+01 0.34472444542E+01 0.33150015432E+01
 0.33197712304E+01 0.34599791751E+01 0.37427304360E+01 0.41819748813E+01 0.47942097052E+01
 0.55914535007E+01 0.65718287182E+01 0.77098014922E+01 0.89501217773E+01 0.10209119227E+02
 0.11320304333E+02 0.11980983183E+02 0.11938770799E+02 0.12046848410E+02 0.11457405939E+02
 0.10329023382E+02 0.89626675339E+01 0.77505725660E+01 0.70534099490E+01 0.70778145406E+01
 0.78042932115E+01 0.89965538845E+01 0.10286472218E+02 0.11296841768E+02 0.11754432342E+02
 0.11558421343E+02 0.10790421354E+02 0.96705747230E+01 0.84545361552E+01 0.72736560278E+01
 0.62027423616E+01 0.52905258181E+01 0.45584775942E+01 0.40066056812E+01 0.36224908109E+01
 0.33898817440E+01 0.32949631472E+01 0.33301165484E+01 0.34956362748E+01 0.37996249167E+01
 0.42558993177E+01 0.48795880638E+01 0.56802774662E+01 0.66532799234E+01 0.77711472034E+01
 0.89791110429E+01 0.10197695438E+02 0.11281583471E+02 0.11968030256E+02 0.11885255808E+02
 0.12108507663E+02 0.11790228805E+02 0.11052481361E+02 0.10150904252E+02 0.93967141781E+01
 0.90510998778E+01 0.92318423336E+01 0.98713031284E+01 0.10743199555E+02 0.11544593369E+02
 0.11997866617E+02 0.11935279701E+02 0.11341442974E+02 0.10345828084E+02 0.91683163631E+01
 0.79765103206E+01 0.68529022987E+01 0.58574071738E+01 0.50250002060E+01 0.43672712276E+01
 0.38790059575E+01 0.35464153524E+01 0.33542665869E+01 0.32907826889E+01 0.33503992797E+01
 0.35348575773E+01 0.38527451653E+01 0.43172373369E+01 0.49417254093E+01 0.57333616744E+01
 0.66852340852E+01 0.77692078855E+01 0.89326569389E+01 0.10101949224E+02 0.11158953398E+02
 0.10949791222E+02 0.11718347297E+02 0.12089331060E+02 0.12036771765E+02 0.11664646338E+02
 0.11175581048E+02 0.10800058013E+02 0.10710842661E+02 0.10957060371E+02 0.11445971816E+02