   2   2   0   0
  0.1529437E+02  0.3691622E-09  0.3691622E-09  0.3691622E-09  0.5000000E-15
  1.000000000000000E-004
  CAR 
 unknown system                          
     23.00879847     -6.55574569  301      9.06587676      1.00000000
     -6.556  0.0000E+00  0.0000E+00
     -6.457  0.0000E+00  0.0000E+00
     -6.359  0.0000E+00  0.0000E+00
     -6.260  0.0000E+00  0.0000E+00
     -6.162  0.0000E+00  0.0000E+00
     -6.063  0.0000E+00  0.0000E+00
     -5.964  0.0000E+00  0.0000E+00
     -5.866  0.0000E+00  0.0000E+00
     -5.767  0.0000E+00  0.0000E+00
     -5.669  0.9613E-17  0.9474E-18
     -5.570  0.1966E-14  0.1947E-15
     -5.472  0.2515E-12  0.2498E-13
     -5.373  0.1996E-10  0.1992E-11
     -5.275  0.9848E-09  0.9905E-10
     -5.176  0.3024E-07  0.3079E-08
     -5.078  0.5790E-06  0.6014E-07
     -4.979  0.6938E-05  0.7439E-06
     -4.880  0.5236E-04  0.5904E-05
     -4.782  0.2526E-03  0.3080E-04
     -4.683  0.8082E-03  0.1104E-03
     -4.585  0.1863E-02  0.2940E-03
     -4.486  0.3522E-02  0.6411E-03
     -4.388  0.5911E-02  0.1224E-02
     -4.289  0.8408E-02  0.2052E-02
     -4.191  0.9617E-02  0.3000E-02
     -4.092  0.9403E-02  0.3927E-02
     -3.993  0.9639E-02  0.4877E-02
     -3.895  0.1171E-01  0.6031E-02
     -3.796  0.1417E-01  0.7427E-02
     -3.698  0.1480E-01  0.8885E-02
     -3.599  0.1420E-01  0.1028E-01
     -3.501  0.1454E-01  0.1172E-01
     -3.402  0.1624E-01  0.1332E-01
     -3.304  0.1813E-01  0.1510E-01
     -3.205  0.1930E-01  0.1701E-01
     -3.107  0.1930E-01  0.1891E-01
     -3.008  0.1889E-01  0.2077E-01
     -2.909  0.1923E-01  0.2267E-01
     -2.811  0.1899E-01  0.2454E-01
     -2.712  0.1706E-01  0.2622E-01
     -2.614  0.1571E-01  0.2777E-01
     -2.515  0.1790E-01  0.2953E-01
     -2.417  0.2315E-01  0.3181E-01
     -2.318  0.2814E-01  0.3458E-01
     -2.220  0.3085E-01  0.3762E-01
     -2.121  0.3170E-01  0.4075E-01
     -2.023  0.3022E-01  0.4373E-01
     -1.924  0.2449E-01  0.4614E-01
     -1.825  0.1682E-01  0.4780E-01
     -1.727  0.1388E-01  0.4917E-01
     -1.628  0.1872E-01  0.5101E-01
     -1.530  0.2761E-01  0.5373E-01
     -1.431  0.3342E-01  0.5702E-01
     -1.333  0.3231E-01  0.6021E-01
     -1.234  0.2797E-01  0.6297E-01
     -1.136  0.2683E-01  0.6561E-01
     -1.037  0.2932E-01  0.6850E-01
     -0.938  0.3115E-01  0.7157E-01
     -0.840  0.3163E-01  0.7469E-01
     -0.741  0.3260E-01  0.7790E-01
     -0.643  0.3323E-01  0.8117E-01
     -0.544  0.3202E-01  0.8433E-01
     -0.446  0.2991E-01  0.8728E-01
     -0.347  0.2909E-01  0.9014E-01
     -0.249  0.3042E-01  0.9314E-01
     -0.150  0.3314E-01  0.9641E-01
     -0.052  0.3519E-01  0.9988E-01
      0.047  0.3536E-01  0.1034E+00
      0.146  0.3637E-01  0.1069E+00
      0.244  0.4054E-01  0.1109E+00
      0.343  0.4422E-01  0.1153E+00
      0.441  0.4290E-01  0.1195E+00
      0.540  0.3786E-01  0.1233E+00
      0.638  0.3313E-01  0.1265E+00
      0.737  0.3017E-01  0.1295E+00
      0.835  0.2905E-01  0.1324E+00
      0.934  0.3051E-01  0.1354E+00
      1.032  0.3375E-01  0.1387E+00
      1.131  0.3687E-01  0.1423E+00
      1.230  0.4087E-01  0.1464E+00
      1.328  0.4605E-01  0.1509E+00
      1.427  0.4836E-01  0.1557E+00
      1.525  0.4609E-01  0.1602E+00
      1.624  0.4286E-01  0.1644E+00
      1.722  0.4164E-01  0.1685E+00
      1.821  0.4291E-01  0.1728E+00
      1.919  0.4466E-01  0.1772E+00
      2.018  0.4073E-01  0.1812E+00
      2.117  0.2919E-01  0.1840E+00
      2.215  0.1847E-01  0.1859E+00
      2.314  0.1707E-01  0.1875E+00
      2.412  0.2407E-01  0.1899E+00
      2.511  0.3267E-01  0.1931E+00
      2.609  0.3814E-01  0.1969E+00
      2.708  0.4014E-01  0.2009E+00
      2.806  0.4138E-01  0.2049E+00
      2.905  0.4493E-01  0.2094E+00
      3.003  0.4982E-01  0.2143E+00
      3.102  0.5160E-01  0.2194E+00
      3.201  0.4870E-01  0.2242E+00
      3.299  0.4300E-01  0.2284E+00
      3.398  0.3607E-01  0.2319E+00
      3.496  0.3138E-01  0.2350E+00
      3.595  0.3351E-01  0.2383E+00
      3.693  0.4030E-01  0.2423E+00
      3.792  0.4519E-01  0.2468E+00
      3.890  0.4645E-01  0.2513E+00
      3.989  0.4581E-01  0.2559E+00
      4.087  0.4335E-01  0.2601E+00
      4.186  0.3950E-01  0.2640E+00
      4.285  0.3826E-01  0.2678E+00
      4.383  0.4496E-01  0.2722E+00
      4.482  0.5758E-01  0.2779E+00
      4.580  0.6590E-01  0.2844E+00
      4.679  0.6359E-01  0.2907E+00
      4.777  0.5441E-01  0.2960E+00
      4.876  0.4578E-01  0.3005E+00
      4.974  0.4138E-01  0.3046E+00
      5.073  0.4073E-01  0.3086E+00
      5.172  0.4249E-01  0.3128E+00
      5.270  0.4475E-01  0.3172E+00
      5.369  0.4557E-01  0.3217E+00
      5.467  0.4620E-01  0.3263E+00
      5.566  0.4998E-01  0.3312E+00
      5.664  0.5515E-01  0.3366E+00
      5.763  0.5496E-01  0.3420E+00
      5.861  0.4985E-01  0.3470E+00
      5.960  0.4905E-01  0.3518E+00
      6.058  0.5632E-01  0.3573E+00
      6.157  0.6438E-01  0.3637E+00
      6.256  0.6583E-01  0.3702E+00
      6.354  0.6209E-01  0.3763E+00
      6.453  0.5942E-01  0.3821E+00
      6.551  0.6054E-01  0.3881E+00
      6.650  0.6195E-01  0.3942E+00
      6.748  0.6061E-01  0.4002E+00
      6.847  0.5891E-01  0.4060E+00
      6.945  0.5810E-01  0.4117E+00
      7.044  0.5673E-01  0.4173E+00
      7.142  0.5637E-01  0.4229E+00
      7.241  0.5879E-01  0.4287E+00
      7.340  0.6381E-01  0.4349E+00
      7.438  0.7137E-01  0.4420E+00
      7.537  0.7952E-01  0.4498E+00
      7.635  0.8297E-01  0.4580E+00
      7.734  0.7761E-01  0.4656E+00
      7.832  0.6627E-01  0.4722E+00
      7.931  0.5465E-01  0.4776E+00
      8.029  0.4507E-01  0.4820E+00
      8.128  0.3909E-01  0.4859E+00
      8.227  0.3788E-01  0.4896E+00
      8.325  0.4057E-01  0.4936E+00
      8.424  0.4583E-01  0.4981E+00
      8.522  0.5164E-01  0.5032E+00
      8.621  0.5640E-01  0.5087E+00
      8.719  0.5939E-01  0.5146E+00
      8.818  0.5839E-01  0.5204E+00
      8.916  0.5319E-01  0.5256E+00
      9.015  0.5067E-01  0.5306E+00
      9.113  0.5546E-01  0.5361E+00
      9.212  0.5869E-01  0.5418E+00
      9.311  0.5077E-01  0.5468E+00
      9.409  0.3643E-01  0.5504E+00
      9.508  0.2607E-01  0.5530E+00
      9.606  0.2531E-01  0.5555E+00
      9.705  0.3446E-01  0.5589E+00
      9.803  0.4735E-01  0.5636E+00
      9.902  0.5455E-01  0.5689E+00
     10.000  0.5239E-01  0.5741E+00
     10.099  0.4504E-01  0.5785E+00
     10.197  0.4084E-01  0.5826E+00
     10.296  0.4741E-01  0.5872E+00
     10.395  0.6349E-01  0.5935E+00
     10.493  0.7703E-01  0.6011E+00
     10.592  0.7658E-01  0.6086E+00
     10.690  0.6328E-01  0.6149E+00
     10.789  0.4897E-01  0.6197E+00
     10.887  0.4369E-01  0.6240E+00
     10.986  0.4760E-01  0.6287E+00
     11.084  0.5323E-01  0.6339E+00
     11.183  0.5356E-01  0.6392E+00
     11.282  0.4850E-01  0.6440E+00
     11.380  0.4542E-01  0.6485E+00
     11.479  0.5021E-01  0.6534E+00
     11.577  0.5974E-01  0.6593E+00
     11.676  0.6578E-01  0.6658E+00
     11.774  0.6430E-01  0.6721E+00
     11.873  0.6085E-01  0.6781E+00
     11.971  0.6290E-01  0.6843E+00
     12.070  0.6660E-01  0.6909E+00
     12.168  0.6324E-01  0.6971E+00
     12.267  0.5581E-01  0.7026E+00
     12.366  0.5383E-01  0.7079E+00
     12.464  0.5802E-01  0.7136E+00
     12.563  0.6326E-01  0.7199E+00
     12.661  0.6942E-01  0.7267E+00
     12.760  0.7821E-01  0.7344E+00
     12.858  0.8552E-01  0.7428E+00
     12.957  0.8577E-01  0.7513E+00
     13.055  0.7891E-01  0.7591E+00
     13.154  0.7043E-01  0.7660E+00
     13.252  0.6743E-01  0.7727E+00
     13.351  0.7160E-01  0.7797E+00
     13.450  0.7721E-01  0.7873E+00
     13.548  0.7902E-01  0.7951E+00
     13.647  0.7629E-01  0.8026E+00
     13.745  0.6863E-01  0.8094E+00
     13.844  0.5955E-01  0.8153E+00
     13.942  0.5828E-01  0.8210E+00
     14.041  0.6472E-01  0.8274E+00
     14.139  0.6818E-01  0.8341E+00
     14.238  0.6756E-01  0.8408E+00
     14.337  0.7131E-01  0.8478E+00
     14.435  0.7787E-01  0.8555E+00
     14.534  0.7632E-01  0.8630E+00
     14.632  0.6477E-01  0.8694E+00
     14.731  0.5253E-01  0.8745E+00
     14.829  0.4675E-01  0.8791E+00
     14.928  0.4750E-01  0.8838E+00
     15.026  0.5282E-01  0.8890E+00
     15.125  0.6172E-01  0.8951E+00
     15.223  0.7281E-01  0.9023E+00
     15.322  0.8056E-01  0.9102E+00
     15.421  0.7742E-01  0.9179E+00
     15.519  0.6474E-01  0.9242E+00
     15.618  0.5416E-01  0.9296E+00
     15.716  0.5345E-01  0.9348E+00
     15.815  0.5728E-01  0.9405E+00
     15.913  0.5660E-01  0.9461E+00
     16.012  0.5104E-01  0.9511E+00
     16.110  0.4662E-01  0.9557E+00
     16.209  0.4653E-01  0.9603E+00
     16.308  0.4841E-01  0.9650E+00
     16.406  0.4990E-01  0.9700E+00
     16.505  0.5148E-01  0.9750E+00
     16.603  0.5183E-01  0.9801E+00
     16.702  0.4870E-01  0.9849E+00
     16.800  0.4378E-01  0.9893E+00
     16.899  0.3922E-01  0.9931E+00
     16.997  0.3388E-01  0.9965E+00
     17.096  0.2775E-01  0.9992E+00
     17.194  0.2362E-01  0.1002E+01
     17.293  0.2239E-01  0.1004E+01
     17.392  0.2376E-01  0.1006E+01
     17.490  0.2848E-01  0.1009E+01
     17.589  0.3393E-01  0.1012E+01
     17.687  0.3521E-01  0.1016E+01
     17.786  0.3371E-01  0.1019E+01
     17.884  0.3443E-01  0.1022E+01
     17.983  0.3656E-01  0.1026E+01
     18.081  0.3565E-01  0.1030E+01
     18.180  0.3126E-01  0.1033E+01
     18.278  0.2697E-01  0.1035E+01
     18.377  0.2434E-01  0.1038E+01
     18.476  0.2181E-01  0.1040E+01
     18.574  0.1951E-01  0.1042E+01
     18.673  0.1857E-01  0.1044E+01
     18.771  0.1794E-01  0.1045E+01
     18.870  0.1754E-01  0.1047E+01
     18.968  0.1995E-01  0.1049E+01
     19.067  0.2466E-01  0.1051E+01
     19.165  0.2605E-01  0.1054E+01
     19.264  0.2126E-01  0.1056E+01
     19.363  0.1446E-01  0.1058E+01
     19.461  0.1019E-01  0.1059E+01
     19.560  0.8414E-02  0.1059E+01
     19.658  0.7140E-02  0.1060E+01
     19.757  0.6055E-02  0.1061E+01
     19.855  0.6030E-02  0.1061E+01
     19.954  0.7326E-02  0.1062E+01
     20.052  0.9353E-02  0.1063E+01
     20.151  0.1039E-01  0.1064E+01
     20.249  0.8742E-02  0.1065E+01
     20.348  0.5215E-02  0.1065E+01
     20.447  0.2202E-02  0.1066E+01
     20.545  0.8627E-03  0.1066E+01
     20.644  0.9072E-03  0.1066E+01
     20.742  0.1651E-02  0.1066E+01
     20.841  0.2326E-02  0.1066E+01
     20.939  0.2353E-02  0.1066E+01
     21.038  0.1773E-02  0.1067E+01
     21.136  0.1021E-02  0.1067E+01
     21.235  0.4388E-03  0.1067E+01
     21.333  0.1329E-03  0.1067E+01
     21.432  0.2689E-04  0.1067E+01
     21.531  0.3514E-05  0.1067E+01
     21.629  0.2913E-06  0.1067E+01
     21.728  0.1516E-07  0.1067E+01
     21.826  0.4930E-09  0.1067E+01
     21.925  0.9987E-11  0.1067E+01
     22.023  0.1258E-12  0.1067E+01
     22.122  0.9830E-15  0.1067E+01
     22.220  0.4807E-17  0.1067E+01
     22.319  0.0000E+00  0.1067E+01
     22.418  0.0000E+00  0.1067E+01
     22.516  0.0000E+00  0.1067E+01
     22.615  0.0000E+00  0.1067E+01
     22.713  0.0000E+00  0.1067E+01
     22.812  0.0000E+00  0.1067E+01
     22.910  0.0000E+00  0.1067E+01
     23.009  0.0000E+00  0.1067E+01
