       N       E                     dE             d eps       ncg     rms          rms(c)
DAV:   1     0.122064912371E+01    0.12206E+01   -0.27348E+03  1608   0.573E+02
DAV:   2    -0.101144287991E+02   -0.11335E+02   -0.10935E+02  2424   0.660E+01
DAV:   3    -0.102561161520E+02   -0.14169E+00   -0.14128E+00  2032   0.837E+00
DAV:   4    -0.102567396718E+02   -0.62352E-03   -0.62352E-03  2560   0.473E-01
DAV:   5    -0.102567400368E+02   -0.36500E-06   -0.36420E-06  2016   0.846E-03    0.150E+00
DAV:   6    -0.102524038343E+02    0.43362E-02   -0.17296E-03  2056   0.326E-01    0.939E-01
DAV:   7    -0.102487360066E+02    0.36678E-02   -0.51456E-03  1792   0.574E-01    0.330E-02
DAV:   8    -0.102487228715E+02    0.13135E-04   -0.75915E-05  1120   0.770E-02
   1 F= -.10248723E+02 E0= -.10240377E+02  d E =-.102487E+02
