<?xml version="1.0" encoding="ISO-8859-1"?>
<modeling>
 <generator>
  <i name="program" type="string">vasp </i>
  <i name="version" type="string">5.4.4.18Apr17-6-g9f103f2a35  </i>
  <i name="subversion" type="string">(build Dec 09 2018 21:25:21) complex            parallel </i>
  <i name="platform" type="string">IFC18.0.1.163_CrayMPICH7.7.0_MKL18.0.1.163 </i>
  <i name="date" type="string">2019 03 18 </i>
  <i name="time" type="string">04:42:33 </i>
 </generator>
 <incar>
  <i type="string" name="PREC">normal</i>
  <i type="int" name="IBRION">     2</i>
  <i name="EDIFF">      0.00040000</i>
  <i name="EDIFFG">     -0.01000000</i>
  <i type="int" name="NSW">    15</i>
  <i type="int" name="ISIF">     2</i>
  <i name="ENCUT">    350.00000000</i>
  <i type="int" name="NBANDS">     8</i>
  <i type="logical" name="LREAL"> F  </i>
  <i type="int" name="ISMEAR">     0</i>
  <i name="SIGMA">      0.20000000</i>
  <v type="int" name="KPOINT_BSE">    -1     0     0     0</v>
 </incar>
 <structure name="primitive_cell" >
  <crystal>
   <varray name="basis" >
    <v>      -2.45000000       2.45000000       1.27400000 </v>
    <v>       2.45000000      -2.45000000       1.27400000 </v>
    <v>       2.45000000       2.45000000      -1.27400000 </v>
   </varray>
   <i name="volume">     30.58874000 </i>
   <varray name="rec_basis" >
    <v>       0.00000000       0.20408163       0.39246468 </v>
    <v>       0.20408163       0.00000000       0.39246468 </v>
    <v>       0.20408163       0.20408163      -0.00000000 </v>
   </varray>
  </crystal>
  <varray name="positions" >
   <v>       0.25000000      -0.25000000      -0.50000000 </v>
   <v>       0.00000000       0.00000000       0.00000000 </v>
  </varray>
 </structure>
 <varray name="primitive_index" >
  <v type="int" >        1 </v>
  <v type="int" >        2 </v>
 </varray>
 <kpoints>
  <generation param="Monkhorst-Pack">
   <v type="int" name="divisions">      10       10       10 </v>
   <v name="usershift">      0.00000000       0.00000000       0.00000000 </v>
   <v name="genvec1">      0.10000000       0.00000000      -0.00000000 </v>
   <v name="genvec2">      0.00000000       0.10000000      -0.00000000 </v>
   <v name="genvec3">      0.00000000      -0.00000000       0.10000000 </v>
   <v name="shift">      0.50000000       0.50000000       0.50000000 </v>
  </generation>
  <varray name="kpointlist" >
   <v>       0.05000000       0.05000000       0.05000000 </v>
   <v>       0.15000000       0.05000000       0.05000000 </v>
   <v>       0.25000000       0.05000000       0.05000000 </v>
   <v>       0.35000000       0.05000000       0.05000000 </v>
   <v>       0.45000000       0.05000000       0.05000000 </v>
   <v>      -0.05000000       0.05000000       0.05000000 </v>
   <v>       0.15000000       0.15000000       0.05000000 </v>
   <v>       0.25000000       0.15000000       0.05000000 </v>
   <v>       0.35000000       0.15000000       0.05000000 </v>
   <v>       0.45000000       0.15000000       0.05000000 </v>
   <v>      -0.45000000       0.15000000       0.05000000 </v>
   <v>      -0.35000000       0.15000000       0.05000000 </v>
   <v>      -0.25000000       0.15000000       0.05000000 </v>
   <v>      -0.15000000       0.15000000       0.05000000 </v>
   <v>      -0.05000000       0.15000000       0.05000000 </v>
   <v>       0.25000000       0.25000000       0.05000000 </v>
   <v>       0.35000000       0.25000000       0.05000000 </v>
   <v>       0.45000000       0.25000000       0.05000000 </v>
   <v>      -0.45000000       0.25000000       0.05000000 </v>
   <v>      -0.35000000       0.25000000       0.05000000 </v>
   <v>      -0.25000000       0.25000000       0.05000000 </v>
   <v>      -0.15000000       0.25000000       0.05000000 </v>
   <v>      -0.05000000       0.25000000       0.05000000 </v>
   <v>       0.35000000       0.35000000       0.05000000 </v>
   <v>       0.45000000       0.35000000       0.05000000 </v>
   <v>      -0.45000000       0.35000000       0.05000000 </v>
   <v>      -0.35000000       0.35000000       0.05000000 </v>
   <v>      -0.25000000       0.35000000       0.05000000 </v>
   <v>      -0.15000000       0.35000000       0.05000000 </v>
   <v>      -0.05000000       0.35000000       0.05000000 </v>
   <v>       0.45000000       0.45000000       0.05000000 </v>
   <v>      -0.45000000       0.45000000       0.05000000 </v>
   <v>      -0.35000000       0.45000000       0.05000000 </v>
   <v>      -0.25000000       0.45000000       0.05000000 </v>
   <v>      -0.15000000       0.45000000       0.05000000 </v>
   <v>      -0.05000000       0.45000000       0.05000000 </v>
   <v>      -0.45000000      -0.45000000       0.05000000 </v>
   <v>      -0.35000000      -0.45000000       0.05000000 </v>
   <v>      -0.25000000      -0.45000000       0.05000000 </v>
   <v>      -0.15000000      -0.45000000       0.05000000 </v>
   <v>      -0.05000000      -0.45000000       0.05000000 </v>
   <v>      -0.35000000      -0.35000000       0.05000000 </v>
   <v>      -0.25000000      -0.35000000       0.05000000 </v>
   <v>      -0.15000000      -0.35000000       0.05000000 </v>
   <v>      -0.05000000      -0.35000000       0.05000000 </v>
   <v>      -0.25000000      -0.25000000       0.05000000 </v>
   <v>      -0.15000000      -0.25000000       0.05000000 </v>
   <v>      -0.05000000      -0.25000000       0.05000000 </v>
   <v>      -0.15000000      -0.15000000       0.05000000 </v>
   <v>      -0.05000000      -0.15000000       0.05000000 </v>
   <v>      -0.05000000      -0.05000000       0.05000000 </v>
   <v>       0.15000000       0.15000000       0.15000000 </v>
   <v>       0.25000000       0.15000000       0.15000000 </v>
   <v>       0.35000000       0.15000000       0.15000000 </v>
   <v>      -0.15000000       0.15000000       0.15000000 </v>
   <v>       0.25000000       0.25000000       0.15000000 </v>
   <v>       0.35000000       0.25000000       0.15000000 </v>
   <v>       0.45000000       0.25000000       0.15000000 </v>
   <v>      -0.25000000       0.25000000       0.15000000 </v>
   <v>      -0.15000000       0.25000000       0.15000000 </v>
   <v>       0.35000000       0.35000000       0.15000000 </v>
   <v>      -0.35000000       0.35000000       0.15000000 </v>
   <v>      -0.25000000       0.35000000       0.15000000 </v>
   <v>      -0.15000000       0.35000000       0.15000000 </v>
   <v>      -0.45000000       0.45000000       0.15000000 </v>
   <v>      -0.35000000       0.45000000       0.15000000 </v>
   <v>      -0.25000000       0.45000000       0.15000000 </v>
   <v>      -0.15000000       0.45000000       0.15000000 </v>
   <v>      -0.45000000      -0.45000000       0.15000000 </v>
   <v>      -0.35000000      -0.45000000       0.15000000 </v>
   <v>      -0.25000000      -0.45000000       0.15000000 </v>
   <v>      -0.15000000      -0.45000000       0.15000000 </v>
   <v>      -0.35000000      -0.35000000       0.15000000 </v>
   <v>      -0.25000000      -0.35000000       0.15000000 </v>
   <v>      -0.15000000      -0.35000000       0.15000000 </v>
   <v>      -0.25000000      -0.25000000       0.15000000 </v>
   <v>      -0.15000000      -0.25000000       0.15000000 </v>
   <v>      -0.15000000      -0.15000000       0.15000000 </v>
   <v>       0.25000000       0.25000000       0.25000000 </v>
   <v>      -0.25000000       0.25000000       0.25000000 </v>
   <v>      -0.35000000       0.35000000       0.25000000 </v>
   <v>      -0.25000000       0.35000000       0.25000000 </v>
   <v>      -0.45000000       0.45000000       0.25000000 </v>
   <v>      -0.35000000       0.45000000       0.25000000 </v>
   <v>      -0.25000000       0.45000000       0.25000000 </v>
   <v>      -0.45000000      -0.45000000       0.25000000 </v>
   <v>      -0.35000000      -0.45000000       0.25000000 </v>
   <v>      -0.25000000      -0.45000000       0.25000000 </v>
   <v>      -0.35000000      -0.35000000       0.25000000 </v>
   <v>      -0.25000000      -0.35000000       0.25000000 </v>
   <v>      -0.25000000      -0.25000000       0.25000000 </v>
   <v>      -0.35000000       0.35000000       0.35000000 </v>
   <v>      -0.45000000       0.45000000       0.35000000 </v>
   <v>      -0.35000000       0.45000000       0.35000000 </v>
   <v>      -0.45000000      -0.45000000       0.35000000 </v>
   <v>      -0.35000000      -0.45000000       0.35000000 </v>
   <v>      -0.35000000      -0.35000000       0.35000000 </v>
   <v>      -0.45000000       0.45000000       0.45000000 </v>
   <v>      -0.45000000      -0.45000000       0.45000000 </v>
  </varray>
  <varray name="weights" >
   <v>       0.00800000 </v>
   <v>       0.01600000 </v>
   <v>       0.01600000 </v>
   <v>       0.01600000 </v>
   <v>       0.00800000 </v>
   <v>       0.00400000 </v>
   <v>       0.00800000 </v>
   <v>       0.01600000 </v>
   <v>       0.01600000 </v>
   <v>       0.01600000 </v>
   <v>       0.01600000 </v>
   <v>       0.01600000 </v>
   <v>       0.00800000 </v>
   <v>       0.00800000 </v>
   <v>       0.00800000 </v>
   <v>       0.00800000 </v>
   <v>       0.01600000 </v>
   <v>       0.01600000 </v>
   <v>       0.01600000 </v>
   <v>       0.00800000 </v>
   <v>       0.00800000 </v>
   <v>       0.01600000 </v>
   <v>       0.00800000 </v>
   <v>       0.00800000 </v>
   <v>       0.01600000 </v>
   <v>       0.00800000 </v>
   <v>       0.00800000 </v>
   <v>       0.01600000 </v>
   <v>       0.01600000 </v>
   <v>       0.00800000 </v>
   <v>       0.00400000 </v>
   <v>       0.00800000 </v>
   <v>       0.01600000 </v>
   <v>       0.01600000 </v>
   <v>       0.01600000 </v>
   <v>       0.00800000 </v>
   <v>       0.00800000 </v>
   <v>       0.01600000 </v>
   <v>       0.01600000 </v>
   <v>       0.01600000 </v>
   <v>       0.00800000 </v>
   <v>       0.00800000 </v>
   <v>       0.01600000 </v>
   <v>       0.01600000 </v>
   <v>       0.00800000 </v>
   <v>       0.00800000 </v>
   <v>       0.01600000 </v>
   <v>       0.00800000 </v>
   <v>       0.00800000 </v>
   <v>       0.00800000 </v>
   <v>       0.00200000 </v>
   <v>       0.00800000 </v>
   <v>       0.01600000 </v>
   <v>       0.00800000 </v>
   <v>       0.00400000 </v>
   <v>       0.00800000 </v>
   <v>       0.01600000 </v>
   <v>       0.00800000 </v>
   <v>       0.00800000 </v>
   <v>       0.00800000 </v>
   <v>       0.00400000 </v>
   <v>       0.00800000 </v>
   <v>       0.01600000 </v>
   <v>       0.00800000 </v>
   <v>       0.00800000 </v>
   <v>       0.01600000 </v>
   <v>       0.01600000 </v>
   <v>       0.00800000 </v>
   <v>       0.00800000 </v>
   <v>       0.01600000 </v>
   <v>       0.01600000 </v>
   <v>       0.00800000 </v>
   <v>       0.00800000 </v>
   <v>       0.01600000 </v>
   <v>       0.00800000 </v>
   <v>       0.00800000 </v>
   <v>       0.00800000 </v>
   <v>       0.00200000 </v>
   <v>       0.00200000 </v>
   <v>       0.00400000 </v>
   <v>       0.00800000 </v>
   <v>       0.00800000 </v>
   <v>       0.00800000 </v>
   <v>       0.01600000 </v>
   <v>       0.00800000 </v>
   <v>       0.00800000 </v>
   <v>       0.01600000 </v>
   <v>       0.00800000 </v>
   <v>       0.00800000 </v>
   <v>       0.00800000 </v>
   <v>       0.00200000 </v>
   <v>       0.00400000 </v>
   <v>       0.00800000 </v>
   <v>       0.00800000 </v>
   <v>       0.00800000 </v>
   <v>       0.00800000 </v>
   <v>       0.00200000 </v>
   <v>       0.00400000 </v>
   <v>       0.00200000 </v>
  </varray>
 </kpoints>
 <parameters>
  <separator name="general" >
   <i type="string" name="SYSTEM">unknown system</i>
   <i type="logical" name="LCOMPAT"> F  </i>
  </separator>
  <separator name="electronic" >
   <i type="string" name="PREC">normal</i>
   <i name="ENMAX">    350.00000000</i>
   <i name="ENAUG">    322.06900000</i>
   <i name="EDIFF">      0.00040000</i>
   <i type="int" name="IALGO">    38</i>
   <i type="int" name="IWAVPR">    11</i>
   <i type="int" name="NBANDS">     8</i>
   <i name="NELECT">      8.00000000</i>
   <i type="int" name="TURBO">     0</i>
   <i type="int" name="IRESTART">     0</i>
   <i type="int" name="NREBOOT">     0</i>
   <i type="int" name="NMIN">     0</i>
   <i name="EREF">      0.00000000</i>
   <separator name="electronic smearing" >
    <i type="int" name="ISMEAR">     0</i>
    <i name="SIGMA">      0.20000000</i>
    <i name="KSPACING">      0.50000000</i>
    <i type="logical" name="KGAMMA"> T  </i>
   </separator>
   <separator name="electronic projectors" >
    <i type="logical" name="LREAL"> F  </i>
    <v name="ROPT">      0.00000000</v>
    <i type="int" name="LMAXPAW">  -100</i>
    <i type="int" name="LMAXMIX">     2</i>
    <i type="logical" name="NLSPLINE"> F  </i>
   </separator>
   <separator name="electronic startup" >
    <i type="int" name="ISTART">     0</i>
    <i type="int" name="ICHARG">     2</i>
    <i type="int" name="INIWAV">     1</i>
   </separator>
   <separator name="electronic spin" >
    <i type="int" name="ISPIN">     1</i>
    <i type="logical" name="LNONCOLLINEAR"> F  </i>
    <v name="MAGMOM">      1.00000000      1.00000000</v>
    <i name="NUPDOWN">     -1.00000000</i>
    <i type="logical" name="LSORBIT"> F  </i>
    <v name="SAXIS">      0.00000000      0.00000000      1.00000000</v>
    <i type="logical" name="LSPIRAL"> F  </i>
    <v name="QSPIRAL">      0.00000000      0.00000000      0.00000000</v>
    <i type="logical" name="LZEROZ"> F  </i>
   </separator>
   <separator name="electronic exchange-correlation" >
    <i type="logical" name="LASPH"> F  </i>
    <i type="logical" name="LMETAGGA"> F  </i>
   </separator>
   <separator name="electronic convergence" >
    <i type="int" name="NELM">    60</i>
    <i type="int" name="NELMDL">    -5</i>
    <i type="int" name="NELMIN">     2</i>
    <i name="ENINI">    350.00000000</i>
    <separator name="electronic convergence detail" >
     <i type="logical" name="LDIAG"> T  </i>
     <i type="logical" name="LSUBROT"> F  </i>
     <i name="WEIMIN">      0.00100000</i>
     <i name="EBREAK">      0.00001250</i>
     <i name="DEPER">      0.30000000</i>
     <i type="int" name="NRMM">     4</i>
     <i name="TIME">      0.40000000</i>
    </separator>
   </separator>
   <separator name="electronic mixer" >
    <i name="AMIX">      0.40000000</i>
    <i name="BMIX">      1.00000000</i>
    <i name="AMIN">      0.10000000</i>
    <i name="AMIX_MAG">      1.60000000</i>
    <i name="BMIX_MAG">      1.00000000</i>
    <separator name="electronic mixer details" >
     <i type="int" name="IMIX">     4</i>
     <i type="logical" name="MIXFIRST"> F  </i>
     <i type="int" name="MAXMIX">   -45</i>
     <i name="WC">    100.00000000</i>
     <i type="int" name="INIMIX">     1</i>
     <i type="int" name="MIXPRE">     1</i>
     <i type="int" name="MREMOVE">     5</i>
    </separator>
   </separator>
   <separator name="electronic dipolcorrection" >
    <i type="logical" name="LDIPOL"> F  </i>
    <i type="logical" name="LMONO"> F  </i>
    <i type="int" name="IDIPOL">     0</i>
    <i name="EPSILON">      1.00000000</i>
    <v name="DIPOL">   -100.00000000   -100.00000000   -100.00000000</v>
    <i name="EFIELD">      0.00000000</i>
   </separator>
  </separator>
  <separator name="grids" >
   <i type="int" name="NGX">    18</i>
   <i type="int" name="NGY">    18</i>
   <i type="int" name="NGZ">    18</i>
   <i type="int" name="NGXF">    36</i>
   <i type="int" name="NGYF">    36</i>
   <i type="int" name="NGZF">    36</i>
   <i type="logical" name="ADDGRID"> F  </i>
  </separator>
  <separator name="ionic" >
   <i type="int" name="NSW">    15</i>
   <i type="int" name="IBRION">     2</i>
   <i type="int" name="MDALGO">     0</i>
   <i type="int" name="ISIF">     2</i>
   <i name="PSTRESS">      0.00000000</i>
   <i name="EDIFFG">     -0.01000000</i>
   <i type="int" name="NFREE">     1</i>
   <i name="POTIM">      0.50000000</i>
   <i name="SMASS">     -3.00000000</i>
   <i name="SCALEE">      1.00000000</i>
  </separator>
  <separator name="ionic md" >
   <i name="TEBEG">      0.00010000</i>
   <i name="TEEND">      0.00010000</i>
   <i type="int" name="NBLOCK">     1</i>
   <i type="int" name="KBLOCK">    15</i>
   <i type="int" name="NPACO">   256</i>
   <i name="APACO">     16.00000000</i>
  </separator>
  <separator name="symmetry" >
   <i type="int" name="ISYM">     2</i>
   <i name="SYMPREC">      0.00001000</i>
  </separator>
  <separator name="dos" >
   <i type="int" name="LORBIT">     0</i>
   <v name="RWIGS">     -1.00000000</v>
   <i type="int" name="NEDOS">   301</i>
   <i name="EMIN">     10.00000000</i>
   <i name="EMAX">    -10.00000000</i>
   <i name="EFERMI">      0.00000000</i>
  </separator>
  <separator name="writing" >
   <i type="int" name="NWRITE">     2</i>
   <i type="logical" name="LWAVE"> T  </i>
   <i type="logical" name="LDOWNSAMPLE"> F  </i>
   <i type="logical" name="LCHARG"> T  </i>
   <i type="logical" name="LPARD"> F  </i>
   <i type="logical" name="LVTOT"> F  </i>
   <i type="logical" name="LVHAR"> F  </i>
   <i type="logical" name="LELF"> F  </i>
   <i type="logical" name="LOPTICS"> F  </i>
   <v name="STM">      0.00000000      0.00000000      0.00000000      0.00000000      0.00000000      0.00000000      0.00000000</v>
  </separator>
  <separator name="performance" >
   <i type="int" name="NPAR">     8</i>
   <i type="int" name="NSIM">     4</i>
   <i type="int" name="NBLK">    -1</i>
   <i type="logical" name="LPLANE"> T  </i>
   <i type="logical" name="LSCALAPACK"> T  </i>
   <i type="logical" name="LSCAAWARE"> F  </i>
   <i type="logical" name="LSCALU"> F  </i>
   <i type="logical" name="LASYNC"> F  </i>
   <i type="logical" name="LORBITALREAL"> F  </i>
  </separator>
  <separator name="miscellaneous" >
   <i type="int" name="IDIOT">     3</i>
   <i type="int" name="ISPECIAL">     0</i>
   <i type="logical" name="LMUSIC"> F  </i>
   <v name="POMASS">     28.08500000</v>
   <v name="DARWINR">      0.00000000</v>
   <v name="DARWINV">      1.00000000</v>
   <i type="logical" name="LCORR"> T  </i>
  </separator>
  <i type="logical" name="GGA_COMPAT"> T  </i>
  <i type="logical" name="LBERRY"> F  </i>
  <i type="int" name="ICORELEVEL">     0</i>
  <i type="logical" name="LDAU"> F  </i>
  <i type="int" name="I_CONSTRAINED_M">     0</i>
  <separator name="electronic exchange-correlation" >
   <i type="string" name="GGA">--</i>
   <i type="int" name="VOSKOWN">     0</i>
   <i type="logical" name="LHFCALC"> F  </i>
   <i type="string" name="PRECFOCK"></i>
   <i type="logical" name="LSYMGRAD"> F  </i>
   <i type="logical" name="LHFONE"> F  </i>
   <i type="logical" name="LRHFCALC"> F  </i>
   <i type="logical" name="LTHOMAS"> F  </i>
   <i type="logical" name="LMODELHF"> F  </i>
   <i name="ENCUT4O">     -1.00000000</i>
   <i type="int" name="EXXOEP">     0</i>
   <i type="int" name="FOURORBIT">     0</i>
   <i name="AEXX">      0.00000000</i>
   <i name="HFALPHA">      0.00000000</i>
   <i name="MCALPHA">      0.00000000</i>
   <i name="ALDAX">      1.00000000</i>
   <i name="AGGAX">      1.00000000</i>
   <i name="ALDAC">      1.00000000</i>
   <i name="AGGAC">      1.00000000</i>
   <i type="int" name="NKREDX">     1</i>
   <i type="int" name="NKREDY">     1</i>
   <i type="int" name="NKREDZ">     1</i>
   <i type="logical" name="SHIFTRED"> F  </i>
   <i type="logical" name="ODDONLY"> F  </i>
   <i type="logical" name="EVENONLY"> F  </i>
   <i type="int" name="LMAXFOCK">     0</i>
   <i type="int" name="NMAXFOCKAE">     0</i>
   <i type="logical" name="LFOCKAEDFT"> F  </i>
   <i name="HFSCREEN">      0.00000000</i>
   <i name="HFSCREENC">      0.00000000</i>
   <i type="int" name="NBANDSGWLOW">     0</i>
  </separator>
  <separator name="vdW DFT" >
   <i type="logical" name="LUSE_VDW"> F  </i>
   <i name="Zab_VDW">     -0.84910000</i>
   <i name="PARAM1">      0.12340000</i>
   <i name="PARAM2">      1.00000000</i>
   <i name="PARAM3">      0.00000000</i>
  </separator>
  <separator name="model GW" >
   <i type="int" name="MODEL_GW">     0</i>
   <i name="MODEL_EPS0">      9.17662200</i>
   <i name="MODEL_ALPHA">      1.00000000</i>
  </separator>
  <separator name="linear response parameters" >
   <i type="logical" name="LEPSILON"> F  </i>
   <i type="logical" name="LRPA"> F  </i>
   <i type="logical" name="LNABLA"> F  </i>
   <i type="logical" name="LVEL"> F  </i>
   <i type="int" name="KINTER">     0</i>
   <i name="CSHIFT">      0.10000000</i>
   <i name="OMEGAMAX">     -1.00000000</i>
   <i name="DEG_THRESHOLD">      0.00200000</i>
   <i name="RTIME">     -0.10000000</i>
   <i name="WPLASMAI">      0.00000000</i>
   <v name="DFIELD">      0.00000000      0.00000000      0.00000000</v>
   <v name="WPLASMA">      0.00000000      0.00000000      0.00000000      0.00000000      0.00000000      0.00000000      0.00000000      0.00000000      0.00000000</v>
  </separator>
  <separator name="orbital magnetization" >
   <i type="logical" name="NUCIND"> F  </i>
   <v name="MAGPOS">      0.00000000      0.00000000      0.00000000</v>
   <i type="logical" name="LNICSALL"> T  </i>
   <i type="logical" name="ORBITALMAG"> F  </i>
   <i type="logical" name="LMAGBLOCH"> F  </i>
   <i type="logical" name="LCHIMAG"> F  </i>
   <i type="logical" name="LGAUGE"> T  </i>
   <i type="int" name="MAGATOM">     0</i>
   <v name="MAGDIPOL">      0.00000000      0.00000000      0.00000000</v>
   <v name="AVECCONST">      0.00000000      0.00000000      0.00000000</v>
  </separator>
  <separator name="response functions" >
   <i type="logical" name="LADDER"> F  </i>
   <i type="logical" name="LRPAFORCE"> F  </i>
   <i type="logical" name="LFXC"> F  </i>
   <i type="logical" name="LHARTREE"> T  </i>
   <i type="int" name="IBSE">     0</i>
   <v type="int" name="KPOINT">    -1     0     0     0</v>
   <i type="logical" name="LTCTE"> F  </i>
   <i type="logical" name="LTETE"> F  </i>
   <i type="logical" name="LTRIPLET"> F  </i>
   <i type="logical" name="LFXCEPS"> F  </i>
   <i type="logical" name="LFXHEG"> F  </i>
   <i type="int" name="NATURALO">     2</i>
   <i type="logical" name="L2ORDER"> F  </i>
   <i type="logical" name="LMP2LT"> F  </i>
   <i type="logical" name="LUSEW"> F  </i>
   <i name="ENCUTGW">     -2.00000000</i>
   <i name="ENCUTGWSOFT">     -2.00000000</i>
   <i name="ENCUTLF">     -1.00000000</i>
   <i type="int" name="LMAXMP2">    -1</i>
   <i name="SCISSOR">      0.00000000</i>
   <i type="int" name="NOMEGA">     0</i>
   <i type="int" name="NOMEGAR">     0</i>
   <i type="int" name="NBANDSGW">    -1</i>
   <i type="int" name="NBANDSO">    -1</i>
   <i type="int" name="NBANDSV">    -1</i>
   <i type="int" name="NELM">     1</i>
   <i type="int" name="NELMHF">     1</i>
   <i type="int" name="DIM">     3</i>
   <i type="int" name="ANTIRES">     0</i>
   <i name="OMEGAMAX">    -30.00000000</i>
   <i name="OMEGAMIN">    -30.00000000</i>
   <i name="OMEGATL">   -200.00000000</i>
   <i type="int" name="OMEGAGRID">   140</i>
   <i name="CSHIFT">     -0.10000000</i>
   <i type="logical" name="SELFENERGY"> F  </i>
   <i type="logical" name="LSPECTRAL"> F  </i>
   <i type="logical" name="LSPECTRALGW"> F  </i>
   <i type="logical" name="LSINGLES"> F  </i>
   <i type="logical" name="LFERMIGW"> F  </i>
   <i type="logical" name="ODDONLYGW"> F  </i>
   <i type="logical" name="EVENONLYGW"> F  </i>
   <i type="int" name="NKREDLFX">     1</i>
   <i type="int" name="NKREDLFY">     1</i>
   <i type="int" name="NKREDLFZ">     1</i>
   <i type="int" name="MAXMEM">  2800</i>
   <i type="int" name="TELESCOPE">     0</i>
   <i type="int" name="TAUPAR">     1</i>
   <i type="int" name="OMEGAPAR">    -1</i>
   <i name="LAMBDA">      1.00000000</i>
  </separator>
  <separator name="External order field" >
   <i name="OFIELD_KAPPA">      0.00000000</i>
   <v name="OFIELD_K">      0.00000000      0.00000000      0.00000000</v>
   <i name="OFIELD_Q6_NEAR">      0.00000000</i>
   <i name="OFIELD_Q6_FAR">      0.00000000</i>
   <i name="OFIELD_A">      0.00000000</i>
  </separator>
 </parameters>
 <atominfo>
  <atoms>       2 </atoms>
  <types>       1 </types>
  <array name="atoms" >
   <dimension dim="1">ion</dimension>
   <field type="string">element</field>
   <field type="int">atomtype</field>
   <set>
    <rc><c>Si</c><c>   1</c></rc>
    <rc><c>Si</c><c>   1</c></rc>
   </set>
  </array>
  <array name="atomtypes" >
   <dimension dim="1">type</dimension>
   <field type="int">atomspertype</field>
   <field type="string">element</field>
   <field>mass</field>
   <field>valence</field>
   <field type="string">pseudopotential</field>
   <set>
    <rc><c>   2</c><c>Si</c><c>     28.08500000</c><c>      4.00000000</c><c> PAW_PBE Si 05Jan2001                   </c></rc>
   </set>
  </array>
 </atominfo>
 <structure name="initialpos" >
  <crystal>
   <varray name="basis" >
    <v>      -2.45000000       2.45000000       1.27400000 </v>
    <v>       2.45000000      -2.45000000       1.27400000 </v>
    <v>       2.45000000       2.45000000      -1.27400000 </v>
   </varray>
   <i name="volume">     30.58874000 </i>
   <varray name="rec_basis" >
    <v>       0.00000000       0.20408163       0.39246468 </v>
    <v>       0.20408163       0.00000000       0.39246468 </v>
    <v>       0.20408163       0.20408163      -0.00000000 </v>
   </varray>
  </crystal>
  <varray name="positions" >
   <v>       0.25000000       0.75000000       0.50000000 </v>
   <v>       0.00000000       0.00000000       0.00000000 </v>
  </varray>
 </structure>
 <calculation>
  <scstep>
   <time name="dav">    1.18    1.19</time>
   <time name="total">    1.23    1.25</time>
   <energy>
    <i name="alphaZ">      4.40202223 </i>
    <i name="ewald">   -265.18101312 </i>
    <i name="hartreedc">     -2.30415367 </i>
    <i name="XCdc">    -17.81549222 </i>
    <i name="pawpsdc">     65.95520812 </i>
    <i name="pawaedc">    -30.76852678 </i>
    <i name="eentropy">     -0.01492531 </i>
    <i name="bandstr">     40.81627573 </i>
    <i name="atom">    206.13125414 </i>
    <i name="e_fr_energy">      1.22064912 </i>
    <i name="e_wo_entrp">      1.23557443 </i>
    <i name="e_0_energy">      1.22811178 </i>
   </energy>
  </scstep>
  <scstep>
   <time name="dav">    1.76    1.77</time>
   <time name="total">    1.76    1.78</time>
   <energy>
    <i name="e_fr_energy">    -10.11442880 </i>
    <i name="e_wo_entrp">    -10.09701460 </i>
    <i name="e_0_energy">    -10.10572170 </i>
   </energy>
  </scstep>
  <scstep>
   <time name="dav">    1.49    1.50</time>
   <time name="total">    1.50    1.51</time>
   <energy>
    <i name="e_fr_energy">    -10.25611615 </i>
    <i name="e_wo_entrp">    -10.23936800 </i>
    <i name="e_0_energy">    -10.24774207 </i>
   </energy>
  </scstep>
  <scstep>
   <time name="dav">    1.88    1.89</time>
   <time name="total">    1.88    1.89</time>
   <energy>
    <i name="e_fr_energy">    -10.25673967 </i>
    <i name="e_wo_entrp">    -10.23999266 </i>
    <i name="e_0_energy">    -10.24836617 </i>
   </energy>
  </scstep>
  <scstep>
   <time name="dav">    1.48    1.50</time>
   <time name="total">    1.58    1.60</time>
   <energy>
    <i name="e_fr_energy">    -10.25674004 </i>
    <i name="e_wo_entrp">    -10.23999303 </i>
    <i name="e_0_energy">    -10.24836653 </i>
   </energy>
  </scstep>
  <scstep>
   <time name="dav">    1.51    1.51</time>
   <time name="total">    1.64    1.65</time>
   <energy>
    <i name="e_fr_energy">    -10.25240383 </i>
    <i name="e_wo_entrp">    -10.23568218 </i>
    <i name="e_0_energy">    -10.24404301 </i>
   </energy>
  </scstep>
  <scstep>
   <time name="dav">    1.31    1.32</time>
   <time name="total">    1.44    1.46</time>
   <energy>
    <i name="e_fr_energy">    -10.24873601 </i>
    <i name="e_wo_entrp">    -10.23205023 </i>
    <i name="e_0_energy">    -10.24039312 </i>
   </energy>
  </scstep>
  <scstep>
   <time name="dav">    0.93    0.93</time>
   <time name="total">    0.97    0.99</time>
   <energy>
    <i name="alphaZ">      4.40202223 </i>
    <i name="ewald">   -265.18101312 </i>
    <i name="hartreedc">     -2.49993330 </i>
    <i name="XCdc">    -17.58277206 </i>
    <i name="pawpsdc">     70.21086248 </i>
    <i name="pawaedc">    -35.12322053 </i>
    <i name="eentropy">     -0.01669174 </i>
    <i name="bandstr">     29.41076901 </i>
    <i name="atom">    206.13125414 </i>
    <i name="e_fr_energy">    -10.24872287 </i>
    <i name="e_wo_entrp">    -10.23203113 </i>
    <i name="e_0_energy">    -10.24037700 </i>
   </energy>
  </scstep>
  <structure>
   <crystal>
    <varray name="basis" >
     <v>      -2.45000000       2.45000000       1.27400000 </v>
     <v>       2.45000000      -2.45000000       1.27400000 </v>
     <v>       2.45000000       2.45000000      -1.27400000 </v>
    </varray>
    <i name="volume">     30.58874000 </i>
    <varray name="rec_basis" >
     <v>       0.00000000       0.20408163       0.39246468 </v>
     <v>       0.20408163       0.00000000       0.39246468 </v>
     <v>       0.20408163       0.20408163      -0.00000000 </v>
    </varray>
   </crystal>
   <varray name="positions" >
    <v>       0.25000000       0.75000000       0.50000000 </v>
    <v>       0.00000000       0.00000000       0.00000000 </v>
   </varray>
  </structure>
  <varray name="forces" >
   <v>      -0.00000000       0.00000000      -0.00000000 </v>
   <v>       0.00000000      -0.00000000       0.00000000 </v>
  </varray>
  <varray name="stress" >
   <v>     -10.41759793       0.00000000       0.00000000 </v>
   <v>      -0.00000000     -10.41759793       0.00000000 </v>
   <v>       0.00000000       0.00000000      30.62227941 </v>
  </varray>
  <energy>
   <i name="e_fr_energy">    -10.24872287 </i>
   <i name="e_wo_entrp">    -10.24037700 </i>
   <i name="e_0_energy">     -0.01669174 </i>
  </energy>
  <time name="totalsc">   13.88   14.84</time>
  <eigenvalues>
   <array>
    <dimension dim="1">band</dimension>
    <dimension dim="2">kpoint</dimension>
    <dimension dim="3">spin</dimension>
    <field>eigene</field>
    <field>occ</field>
    <set>
     <set comment="spin 1">
      <set comment="kpoint 1">
       <r>   -4.2734    1.0000 </r>
       <r>    4.7261    1.0000 </r>
       <r>    6.5985    1.0000 </r>
       <r>    7.7302    1.0000 </r>
       <r>   11.4661    0.0000 </r>
       <r>   15.0044    0.0000 </r>
       <r>   16.0504    0.0000 </r>
       <r>   16.9810    0.0000 </r>
      </set>
      <set comment="kpoint 2">
       <r>   -3.4293    1.0000 </r>
       <r>    4.4535    1.0000 </r>
       <r>    6.8533    1.0000 </r>
       <r>    9.1286    0.3287 </r>
       <r>   12.5778    0.0000 </r>
       <r>   13.0213    0.0000 </r>
       <r>   13.3948    0.0000 </r>
       <r>   15.3655    0.0000 </r>
      </set>
      <set comment="kpoint 3">
       <r>   -2.0323    1.0000 </r>
       <r>    4.6610    1.0000 </r>
       <r>    7.1676    1.0000 </r>
       <r>    8.5770    0.9997 </r>
       <r>   10.6835    0.0000 </r>
       <r>   11.9978    0.0000 </r>
       <r>   13.6673    0.0000 </r>
       <r>   14.4176    0.0000 </r>
      </set>
      <set comment="kpoint 4">
       <r>   -0.1008    1.0000 </r>
       <r>    5.1134    1.0000 </r>
       <r>    5.6012    1.0000 </r>
       <r>    7.5914    1.0000 </r>
       <r>    8.8804    0.9052 </r>
       <r>   11.7751    0.0000 </r>
       <r>   13.7295    0.0000 </r>
       <r>   14.1607    0.0000 </r>
      </set>
      <set comment="kpoint 5">
       <r>    2.0881    1.0000 </r>
       <r>    2.6411    1.0000 </r>
       <r>    6.5114    1.0000 </r>
       <r>    6.6615    1.0000 </r>
       <r>    8.8006    0.9696 </r>
       <r>   10.7566    0.0000 </r>
       <r>   13.5500    0.0000 </r>
       <r>   14.4925    0.0000 </r>
      </set>
      <set comment="kpoint 6">
       <r>   -4.5557    1.0000 </r>
       <r>    5.1658    1.0000 </r>
       <r>    6.0518    1.0000 </r>
       <r>    7.4137    1.0000 </r>
       <r>   10.8735    0.0000 </r>
       <r>   15.4533    0.0000 </r>
       <r>   17.4145    0.0000 </r>
       <r>   17.9840    0.0000 </r>
      </set>
      <set comment="kpoint 7">
       <r>   -2.1494    1.0000 </r>
       <r>    4.6229    1.0000 </r>
       <r>    8.1543    1.0000 </r>
       <r>    9.0557    0.5288 </r>
       <r>   10.1252    0.0000 </r>
       <r>   10.9805    0.0000 </r>
       <r>   14.4862    0.0000 </r>
       <r>   14.5012    0.0000 </r>
      </set>
      <set comment="kpoint 8">
       <r>   -0.3308    1.0000 </r>
       <r>    5.2191    1.0000 </r>
       <r>    6.1968    1.0000 </r>
       <r>    7.1244    1.0000 </r>
       <r>    9.7733    0.0000 </r>
       <r>   12.3653    0.0000 </r>
       <r>   12.8038    0.0000 </r>
       <r>   13.6675    0.0000 </r>
      </set>
      <set comment="kpoint 9">
       <r>    1.9578    1.0000 </r>
       <r>    3.2135    1.0000 </r>
       <r>    5.3372    1.0000 </r>
       <r>    6.3687    1.0000 </r>
       <r>    9.8622    0.0000 </r>
       <r>   11.7292    0.0000 </r>
       <r>   12.8042    0.0000 </r>
       <r>   15.2682    0.0000 </r>
      </set>
      <set comment="kpoint 10">
       <r>    0.5888    1.0000 </r>
       <r>    3.8984    1.0000 </r>
       <r>    4.9516    1.0000 </r>
       <r>    7.6362    1.0000 </r>
       <r>    9.1872    0.1955 </r>
       <r>   12.1591    0.0000 </r>
       <r>   13.4228    0.0000 </r>
       <r>   15.1724    0.0000 </r>
      </set>
      <set comment="kpoint 11">
       <r>   -1.4470    1.0000 </r>
       <r>    3.0925    1.0000 </r>
       <r>    7.5617    1.0000 </r>
       <r>    8.1901    1.0000 </r>
       <r>   10.3260    0.0000 </r>
       <r>   12.5345    0.0000 </r>
       <r>   12.8139    0.0000 </r>
       <r>   15.2883    0.0000 </r>
      </set>
      <set comment="kpoint 12">
       <r>   -2.9565    1.0000 </r>
       <r>    2.7650    1.0000 </r>
       <r>    7.2654    1.0000 </r>
       <r>    9.8015    0.0000 </r>
       <r>   11.9776    0.0000 </r>
       <r>   12.4713    0.0000 </r>
       <r>   14.0198    0.0000 </r>
       <r>   15.4926    0.0000 </r>
      </set>
      <set comment="kpoint 13">
       <r>   -3.9169    1.0000 </r>
       <r>    2.9546    1.0000 </r>
       <r>    6.9271    1.0000 </r>
       <r>    8.5441    0.9999 </r>
       <r>   13.1886    0.0000 </r>
       <r>   13.4677    0.0000 </r>
       <r>   14.9408    0.0000 </r>
       <r>   16.4664    0.0000 </r>
      </set>
      <set comment="kpoint 14">
       <r>   -4.3177    1.0000 </r>
       <r>    3.6185    1.0000 </r>
       <r>    6.0842    1.0000 </r>
       <r>    8.4593    1.0000 </r>
       <r>   12.1863    0.0000 </r>
       <r>   13.6774    0.0000 </r>
       <r>   16.2337    0.0000 </r>
       <r>   19.1012    0.0000 </r>
      </set>
      <set comment="kpoint 15">
       <r>   -4.1546    1.0000 </r>
       <r>    4.4043    1.0000 </r>
       <r>    5.6847    1.0000 </r>
       <r>    8.8512    0.9355 </r>
       <r>   11.9929    0.0000 </r>
       <r>   13.7987    0.0000 </r>
       <r>   15.8927    0.0000 </r>
       <r>   17.5135    0.0000 </r>
      </set>
      <set comment="kpoint 16">
       <r>    1.8642    1.0000 </r>
       <r>    4.1347    1.0000 </r>
       <r>    4.2179    1.0000 </r>
       <r>    6.2909    1.0000 </r>
       <r>   10.5078    0.0000 </r>
       <r>   11.6537    0.0000 </r>
       <r>   13.4949    0.0000 </r>
       <r>   14.1650    0.0000 </r>
      </set>
      <set comment="kpoint 17">
       <r>    1.4981    1.0000 </r>
       <r>    2.6147    1.0000 </r>
       <r>    4.7078    1.0000 </r>
       <r>    7.6111    1.0000 </r>
       <r>    9.7793    0.0000 </r>
       <r>   11.1506    0.0000 </r>
       <r>   14.8141    0.0000 </r>
       <r>   15.7336    0.0000 </r>
      </set>
      <set comment="kpoint 18">
       <r>   -0.6328    1.0000 </r>
       <r>    1.6534    1.0000 </r>
       <r>    7.7303    1.0000 </r>
       <r>    8.3454    1.0000 </r>
       <r>    9.9208    0.0000 </r>
       <r>   11.6443    0.0000 </r>
       <r>   13.4040    0.0000 </r>
       <r>   15.3923    0.0000 </r>
      </set>
      <set comment="kpoint 19">
       <r>   -2.2505    1.0000 </r>
       <r>    1.2090    1.0000 </r>
       <r>    7.9000    1.0000 </r>
       <r>   10.3080    0.0000 </r>
       <r>   11.0397    0.0000 </r>
       <r>   12.0771    0.0000 </r>
       <r>   13.4330    0.0000 </r>
       <r>   14.4454    0.0000 </r>
      </set>
      <set comment="kpoint 20">
       <r>   -3.3248    1.0000 </r>
       <r>    1.2992    1.0000 </r>
       <r>    7.4741    1.0000 </r>
       <r>    9.2737    0.0709 </r>
       <r>   11.7805    0.0000 </r>
       <r>   13.6060    0.0000 </r>
       <r>   15.3807    0.0000 </r>
       <r>   16.0607    0.0000 </r>
      </set>
      <set comment="kpoint 21">
       <r>   -3.8427    1.0000 </r>
       <r>    1.9127    1.0000 </r>
       <r>    6.5093    1.0000 </r>
       <r>    9.2204    0.1374 </r>
       <r>   11.9845    0.0000 </r>
       <r>   14.3687    0.0000 </r>
       <r>   14.7405    0.0000 </r>
       <r>   19.0693    0.0000 </r>
      </set>
      <set comment="kpoint 22">
       <r>   -3.7987    1.0000 </r>
       <r>    2.9930    1.0000 </r>
       <r>    5.6568    1.0000 </r>
       <r>    9.8978    0.0000 </r>
       <r>   12.1121    0.0000 </r>
       <r>   13.5860    0.0000 </r>
       <r>   15.2852    0.0000 </r>
       <r>   16.9398    0.0000 </r>
      </set>
      <set comment="kpoint 23">
       <r>   -3.1930    1.0000 </r>
       <r>    4.1721    1.0000 </r>
       <r>    5.6334    1.0000 </r>
       <r>   10.2969    0.0000 </r>
       <r>   12.3183    0.0000 </r>
       <r>   12.5659    0.0000 </r>
       <r>   13.7468    0.0000 </r>
       <r>   15.0521    0.0000 </r>
      </set>
      <set comment="kpoint 24">
       <r>    0.4003    1.0000 </r>
       <r>    0.4084    1.0000 </r>
       <r>    7.6706    1.0000 </r>
       <r>    8.7356    0.9902 </r>
       <r>    9.6167    0.0000 </r>
       <r>   11.2234    0.0000 </r>
       <r>   14.0188    0.0000 </r>
       <r>   14.7906    0.0000 </r>
      </set>
      <set comment="kpoint 25">
       <r>   -1.3156    1.0000 </r>
       <r>   -0.1586    1.0000 </r>
       <r>    8.7311    0.9910 </r>
       <r>    9.7186    0.0000 </r>
       <r>   10.9105    0.0000 </r>
       <r>   12.1122    0.0000 </r>
       <r>   13.1583    0.0000 </r>
       <r>   13.4853    0.0000 </r>
      </set>
      <set comment="kpoint 26">
       <r>   -2.5003    1.0000 </r>
       <r>   -0.1774    1.0000 </r>
       <r>    8.2375    1.0000 </r>
       <r>   10.1095    0.0000 </r>
       <r>   10.4114    0.0000 </r>
       <r>   12.3058    0.0000 </r>
       <r>   15.7907    0.0000 </r>
       <r>   15.8104    0.0000 </r>
      </set>
      <set comment="kpoint 27">
       <r>   -3.1334    1.0000 </r>
       <r>    0.3451    1.0000 </r>
       <r>    7.1710    1.0000 </r>
       <r>   10.0064    0.0000 </r>
       <r>   10.4705    0.0000 </r>
       <r>   13.3234    0.0000 </r>
       <r>   16.8707    0.0000 </r>
       <r>   18.8422    0.0000 </r>
      </set>
      <set comment="kpoint 28">
       <r>   -3.2076    1.0000 </r>
       <r>    1.3903    1.0000 </r>
       <r>    6.1578    1.0000 </r>
       <r>   10.5087    0.0000 </r>
       <r>   10.7148    0.0000 </r>
       <r>   14.4001    0.0000 </r>
       <r>   15.7107    0.0000 </r>
       <r>   16.1913    0.0000 </r>
      </set>
      <set comment="kpoint 29">
       <r>   -2.7219    1.0000 </r>
       <r>    2.8918    1.0000 </r>
       <r>    5.6325    1.0000 </r>
       <r>   10.4655    0.0000 </r>
       <r>   11.0688    0.0000 </r>
       <r>   12.6842    0.0000 </r>
       <r>   14.5750    0.0000 </r>
       <r>   15.7842    0.0000 </r>
      </set>
      <set comment="kpoint 30">
       <r>   -1.6816    1.0000 </r>
       <r>    4.4643    1.0000 </r>
       <r>    6.0030    1.0000 </r>
       <r>    7.9373    1.0000 </r>
       <r>   10.8956    0.0000 </r>
       <r>   12.9459    0.0000 </r>
       <r>   13.6847    0.0000 </r>
       <r>   13.8193    0.0000 </r>
      </set>
      <set comment="kpoint 31">
       <r>   -1.4484    1.0000 </r>
       <r>   -1.4484    1.0000 </r>
       <r>    9.2138    0.1479 </r>
       <r>    9.2138    0.1479 </r>
       <r>   11.1337    0.0000 </r>
       <r>   11.1337    0.0000 </r>
       <r>   15.7325    0.0000 </r>
       <r>   15.7325    0.0000 </r>
      </set>
      <set comment="kpoint 32">
       <r>   -2.1939    1.0000 </r>
       <r>   -1.0308    1.0000 </r>
       <r>    8.0557    1.0000 </r>
       <r>    9.1577    0.2580 </r>
       <r>   10.9398    0.0000 </r>
       <r>   12.0473    0.0000 </r>
       <r>   18.5563    0.0000 </r>
       <r>   18.6679    0.0000 </r>
      </set>
      <set comment="kpoint 33">
       <r>   -2.3849    1.0000 </r>
       <r>   -0.0713    1.0000 </r>
       <r>    6.9214    1.0000 </r>
       <r>    9.1191    0.3534 </r>
       <r>   11.5220    0.0000 </r>
       <r>   13.5091    0.0000 </r>
       <r>   15.3338    0.0000 </r>
       <r>   16.7546    0.0000 </r>
      </set>
      <set comment="kpoint 34">
       <r>   -2.0188    1.0000 </r>
       <r>    1.4052    1.0000 </r>
       <r>    6.2165    1.0000 </r>
       <r>    9.3987    0.0093 </r>
       <r>   10.5487    0.0000 </r>
       <r>   13.2809    0.0000 </r>
       <r>   14.3305    0.0000 </r>
       <r>   16.3189    0.0000 </r>
      </set>
      <set comment="kpoint 35">
       <r>   -1.0999    1.0000 </r>
       <r>    3.3189    1.0000 </r>
       <r>    6.0610    1.0000 </r>
       <r>    7.4416    1.0000 </r>
       <r>   10.0241    0.0000 </r>
       <r>   12.4183    0.0000 </r>
       <r>   14.3579    0.0000 </r>
       <r>   15.1705    0.0000 </r>
      </set>
      <set comment="kpoint 36">
       <r>    0.3572    1.0000 </r>
       <r>    4.5605    1.0000 </r>
       <r>    5.4338    1.0000 </r>
       <r>    6.7847    1.0000 </r>
       <r>    9.2552    0.0903 </r>
       <r>   11.7403    0.0000 </r>
       <r>   12.4015    0.0000 </r>
       <r>   15.5951    0.0000 </r>
      </set>
      <set comment="kpoint 37">
       <r>   -1.3370    1.0000 </r>
       <r>   -1.3354    1.0000 </r>
       <r>    7.9035    1.0000 </r>
       <r>    7.9224    1.0000 </r>
       <r>   12.2912    0.0000 </r>
       <r>   12.6731    0.0000 </r>
       <r>   15.1567    0.0000 </r>
       <r>   16.7308    0.0000 </r>
      </set>
      <set comment="kpoint 38">
       <r>   -1.0888    1.0000 </r>
       <r>    0.0589    1.0000 </r>
       <r>    7.0722    1.0000 </r>
       <r>    8.1477    1.0000 </r>
       <r>   10.3890    0.0000 </r>
       <r>   14.0204    0.0000 </r>
       <r>   14.1889    0.0000 </r>
       <r>   15.3267    0.0000 </r>
      </set>
      <set comment="kpoint 39">
       <r>   -0.2918    1.0000 </r>
       <r>    1.9578    1.0000 </r>
       <r>    6.6646    1.0000 </r>
       <r>    7.1813    1.0000 </r>
       <r>    8.8424    0.9429 </r>
       <r>   12.0643    0.0000 </r>
       <r>   15.3329    0.0000 </r>
       <r>   16.4487    0.0000 </r>
      </set>
      <set comment="kpoint 40">
       <r>    1.0375    1.0000 </r>
       <r>    3.9836    1.0000 </r>
       <r>    4.5528    1.0000 </r>
       <r>    6.9397    1.0000 </r>
       <r>    9.1328    0.3180 </r>
       <r>   11.1743    0.0000 </r>
       <r>   12.8424    0.0000 </r>
       <r>   16.6861    0.0000 </r>
      </set>
      <set comment="kpoint 41">
       <r>    1.7303    1.0000 </r>
       <r>    2.9941    1.0000 </r>
       <r>    6.5876    1.0000 </r>
       <r>    7.6968    1.0000 </r>
       <r>    7.8903    1.0000 </r>
       <r>   10.5278    0.0000 </r>
       <r>   12.4585    0.0000 </r>
       <r>   15.5297    0.0000 </r>
      </set>
      <set comment="kpoint 42">
       <r>    0.7256    1.0000 </r>
       <r>    0.7422    1.0000 </r>
       <r>    6.9114    1.0000 </r>
       <r>    7.6010    1.0000 </r>
       <r>    7.8856    1.0000 </r>
       <r>   11.9472    0.0000 </r>
       <r>   15.9233    0.0000 </r>
       <r>   16.9373    0.0000 </r>
      </set>
      <set comment="kpoint 43">
       <r>    1.9272    1.0000 </r>
       <r>    2.9942    1.0000 </r>
       <r>    4.0948    1.0000 </r>
       <r>    7.5852    1.0000 </r>
       <r>    8.5477    0.9999 </r>
       <r>   10.5538    0.0000 </r>
       <r>   14.4111    0.0000 </r>
       <r>   16.2148    0.0000 </r>
      </set>
      <set comment="kpoint 44">
       <r>    1.4153    1.0000 </r>
       <r>    3.7397    1.0000 </r>
       <r>    5.7837    1.0000 </r>
       <r>    7.4939    1.0000 </r>
       <r>    8.6791    0.9969 </r>
       <r>   10.9454    0.0000 </r>
       <r>   11.6901    0.0000 </r>
       <r>   15.0783    0.0000 </r>
      </set>
      <set comment="kpoint 45">
       <r>   -0.5634    1.0000 </r>
       <r>    5.8834    1.0000 </r>
       <r>    6.6496    1.0000 </r>
       <r>    7.7162    1.0000 </r>
       <r>    8.6530    0.9982 </r>
       <r>   11.1714    0.0000 </r>
       <r>   12.8000    0.0000 </r>
       <r>   14.0262    0.0000 </r>
      </set>
      <set comment="kpoint 46">
       <r>    1.3062    1.0000 </r>
       <r>    4.6714    1.0000 </r>
       <r>    4.7230    1.0000 </r>
       <r>    7.5018    1.0000 </r>
       <r>    9.1398    0.3005 </r>
       <r>   10.4207    0.0000 </r>
       <r>   12.7971    0.0000 </r>
       <r>   13.6629    0.0000 </r>
      </set>
      <set comment="kpoint 47">
       <r>   -0.7955    1.0000 </r>
       <r>    6.6491    1.0000 </r>
       <r>    6.9144    1.0000 </r>
       <r>    7.5971    1.0000 </r>
       <r>    9.1150    0.3641 </r>
       <r>   11.5666    0.0000 </r>
       <r>   11.6238    0.0000 </r>
       <r>   12.7436    0.0000 </r>
      </set>
      <set comment="kpoint 48">
       <r>   -2.3847    1.0000 </r>
       <r>    6.0249    1.0000 </r>
       <r>    7.1977    1.0000 </r>
       <r>    8.9882    0.7086 </r>
       <r>   10.6516    0.0000 </r>
       <r>   11.4905    0.0000 </r>
       <r>   12.9600    0.0000 </r>
       <r>   14.2747    0.0000 </r>
      </set>
      <set comment="kpoint 49">
       <r>   -2.5024    1.0000 </r>
       <r>    6.3293    1.0000 </r>
       <r>    7.9660    1.0000 </r>
       <r>    8.8566    0.9305 </r>
       <r>   10.4632    0.0000 </r>
       <r>   11.0377    0.0000 </r>
       <r>   13.0239    0.0000 </r>
       <r>   13.7410    0.0000 </r>
      </set>
      <set comment="kpoint 50">
       <r>   -3.6663    1.0000 </r>
       <r>    5.9778    1.0000 </r>
       <r>    6.8166    1.0000 </r>
       <r>    8.1459    1.0000 </r>
       <r>   11.7450    0.0000 </r>
       <r>   13.3331    0.0000 </r>
       <r>   13.6984    0.0000 </r>
       <r>   16.0575    0.0000 </r>
      </set>
      <set comment="kpoint 51">
       <r>   -4.3924    1.0000 </r>
       <r>    6.3921    1.0000 </r>
       <r>    6.4889    1.0000 </r>
       <r>    6.4889    1.0000 </r>
       <r>   10.7378    0.0000 </r>
       <r>   16.2500    0.0000 </r>
       <r>   16.4760    0.0000 </r>
       <r>   17.3151    0.0000 </r>
      </set>
      <set comment="kpoint 52">
       <r>   -1.5631    1.0000 </r>
       <r>    3.0026    1.0000 </r>
       <r>    8.3406    1.0000 </r>
       <r>    8.8560    0.9311 </r>
       <r>   10.0618    0.0000 </r>
       <r>   11.3216    0.0000 </r>
       <r>   13.9779    0.0000 </r>
       <r>   14.7125    0.0000 </r>
      </set>
      <set comment="kpoint 53">
       <r>    0.3624    1.0000 </r>
       <r>    3.7362    1.0000 </r>
       <r>    5.7720    1.0000 </r>
       <r>    6.7711    1.0000 </r>
       <r>   10.5129    0.0000 </r>
       <r>   13.1913    0.0000 </r>
       <r>   13.6366    0.0000 </r>
       <r>   14.4750    0.0000 </r>
      </set>
      <set comment="kpoint 54">
       <r>    2.5479    1.0000 </r>
       <r>    3.0670    1.0000 </r>
       <r>    4.8959    1.0000 </r>
       <r>    5.2160    1.0000 </r>
       <r>   11.1424    0.0000 </r>
       <r>   12.8685    0.0000 </r>
       <r>   14.0609    0.0000 </r>
       <r>   14.3156    0.0000 </r>
      </set>
      <set comment="kpoint 55">
       <r>   -4.0804    1.0000 </r>
       <r>    3.3303    1.0000 </r>
       <r>    4.8286    1.0000 </r>
       <r>   10.0211    0.0000 </r>
       <r>   11.9502    0.0000 </r>
       <r>   13.0083    0.0000 </r>
       <r>   17.8039    0.0000 </r>
       <r>   17.8894    0.0000 </r>
      </set>
      <set comment="kpoint 56">
       <r>    2.6175    1.0000 </r>
       <r>    3.7654    1.0000 </r>
       <r>    3.9403    1.0000 </r>
       <r>    5.0032    1.0000 </r>
       <r>   11.9055    0.0000 </r>
       <r>   13.2810    0.0000 </r>
       <r>   14.3722    0.0000 </r>
       <r>   14.4165    0.0000 </r>
      </set>
      <set comment="kpoint 57">
       <r>    1.2789    1.0000 </r>
       <r>    2.4093    1.0000 </r>
       <r>    5.5586    1.0000 </r>
       <r>    6.5838    1.0000 </r>
       <r>   11.3744    0.0000 </r>
       <r>   12.6425    0.0000 </r>
       <r>   13.9428    0.0000 </r>
       <r>   15.0075    0.0000 </r>
      </set>
      <set comment="kpoint 58">
       <r>   -0.7470    1.0000 </r>
       <r>    1.5486    1.0000 </r>
       <r>    8.4161    1.0000 </r>
       <r>    8.6167    0.9993 </r>
       <r>   10.4734    0.0000 </r>
       <r>   11.8308    0.0000 </r>
       <r>   12.7509    0.0000 </r>
       <r>   13.9812    0.0000 </r>
      </set>
      <set comment="kpoint 59">
       <r>   -3.6071    1.0000 </r>
       <r>    2.0389    1.0000 </r>
       <r>    4.8235    1.0000 </r>
       <r>   10.2522    0.0000 </r>
       <r>   11.1459    0.0000 </r>
       <r>   14.8305    0.0000 </r>
       <r>   16.5406    0.0000 </r>
       <r>   18.4597    0.0000 </r>
      </set>
      <set comment="kpoint 60">
       <r>   -3.4446    1.0000 </r>
       <r>    2.7884    1.0000 </r>
       <r>    4.3990    1.0000 </r>
       <r>   10.3819    0.0000 </r>
       <r>   11.5050    0.0000 </r>
       <r>   14.6212    0.0000 </r>
       <r>   14.8847    0.0000 </r>
       <r>   18.1015    0.0000 </r>
      </set>
      <set comment="kpoint 61">
       <r>    0.2933    1.0000 </r>
       <r>    0.2933    1.0000 </r>
       <r>    8.4720    1.0000 </r>
       <r>    8.4720    1.0000 </r>
       <r>   11.2692    0.0000 </r>
       <r>   11.2692    0.0000 </r>
       <r>   13.0498    0.0000 </r>
       <r>   13.0498    0.0000 </r>
      </set>
      <set comment="kpoint 62">
       <r>   -2.9007    1.0000 </r>
       <r>    0.5419    1.0000 </r>
       <r>    5.4160    1.0000 </r>
       <r>    8.7247    0.9921 </r>
       <r>   12.0377    0.0000 </r>
       <r>   15.2483    0.0000 </r>
       <r>   17.1387    0.0000 </r>
       <r>   18.2960    0.0000 </r>
      </set>
      <set comment="kpoint 63">
       <r>   -2.8570    1.0000 </r>
       <r>    1.6193    1.0000 </r>
       <r>    4.4618    1.0000 </r>
       <r>    8.7741    0.9804 </r>
       <r>   12.4827    0.0000 </r>
       <r>   14.5593    0.0000 </r>
       <r>   16.5799    0.0000 </r>
       <r>   17.6019    0.0000 </r>
      </set>
      <set comment="kpoint 64">
       <r>   -2.2544    1.0000 </r>
       <r>    2.7884    1.0000 </r>
       <r>    4.4524    1.0000 </r>
       <r>    9.2383    0.1114 </r>
       <r>   10.4015    0.0000 </r>
       <r>   14.1348    0.0000 </r>
       <r>   15.6233    0.0000 </r>
       <r>   16.2289    0.0000 </r>
      </set>
      <set comment="kpoint 65">
       <r>   -1.9662    1.0000 </r>
       <r>   -0.8125    1.0000 </r>
       <r>    6.2900    1.0000 </r>
       <r>    7.3985    1.0000 </r>
       <r>   12.9788    0.0000 </r>
       <r>   14.0484    0.0000 </r>
       <r>   18.0192    0.0000 </r>
       <r>   18.1109    0.0000 </r>
      </set>
      <set comment="kpoint 66">
       <r>   -2.0404    1.0000 </r>
       <r>    0.2367    1.0000 </r>
       <r>    5.1529    1.0000 </r>
       <r>    7.3478    1.0000 </r>
       <r>   12.9728    0.0000 </r>
       <r>   14.6316    0.0000 </r>
       <r>   16.5795    0.0000 </r>
       <r>   17.8865    0.0000 </r>
      </set>
      <set comment="kpoint 67">
       <r>   -1.5579    1.0000 </r>
       <r>    1.7430    1.0000 </r>
       <r>    4.6032    1.0000 </r>
       <r>    7.7703    1.0000 </r>
       <r>   10.0301    0.0000 </r>
       <r>   15.2193    0.0000 </r>
       <r>   15.7209    0.0000 </r>
       <r>   17.6364    0.0000 </r>
      </set>
      <set comment="kpoint 68">
       <r>   -0.5252    1.0000 </r>
       <r>    3.3204    1.0000 </r>
       <r>    5.0034    1.0000 </r>
       <r>    6.9055    1.0000 </r>
       <r>    8.6880    0.9962 </r>
       <r>   13.1774    0.0000 </r>
       <r>   14.7343    0.0000 </r>
       <r>   16.5508    0.0000 </r>
      </set>
      <set comment="kpoint 69">
       <r>   -1.0046    1.0000 </r>
       <r>   -1.0014    1.0000 </r>
       <r>    6.1311    1.0000 </r>
       <r>    6.1355    1.0000 </r>
       <r>   13.0969    0.0000 </r>
       <r>   14.9301    0.0000 </r>
       <r>   15.9567    0.0000 </r>
       <r>   17.9165    0.0000 </r>
      </set>
      <set comment="kpoint 70">
       <r>   -0.6404    1.0000 </r>
       <r>    0.4802    1.0000 </r>
       <r>    5.3931    1.0000 </r>
       <r>    6.4709    1.0000 </r>
       <r>    9.8362    0.0000 </r>
       <r>   15.4580    0.0000 </r>
       <r>   16.3026    0.0000 </r>
       <r>   17.5453    0.0000 </r>
      </set>
      <set comment="kpoint 71">
       <r>    0.2697    1.0000 </r>
       <r>    2.4035    1.0000 </r>
       <r>    5.2409    1.0000 </r>
       <r>    6.5622    1.0000 </r>
       <r>    7.3724    1.0000 </r>
       <r>   13.3502    0.0000 </r>
       <r>   15.8393    0.0000 </r>
       <r>   17.5831    0.0000 </r>
      </set>
      <set comment="kpoint 72">
       <r>    1.6974    1.0000 </r>
       <r>    3.6681    1.0000 </r>
       <r>    4.5695    1.0000 </r>
       <r>    6.0310    1.0000 </r>
       <r>    8.4471    1.0000 </r>
       <r>   11.5148    0.0000 </r>
       <r>   12.8379    0.0000 </r>
       <r>   17.0578    0.0000 </r>
      </set>
      <set comment="kpoint 73">
       <r>    1.2531    1.0000 </r>
       <r>    1.2800    1.0000 </r>
       <r>    6.0120    1.0000 </r>
       <r>    6.1243    1.0000 </r>
       <r>    6.6538    1.0000 </r>
       <r>   13.3228    0.0000 </r>
       <r>   17.2069    0.0000 </r>
       <r>   17.2488    0.0000 </r>
      </set>
      <set comment="kpoint 74">
       <r>    2.5235    1.0000 </r>
       <r>    3.3358    1.0000 </r>
       <r>    3.9187    1.0000 </r>
       <r>    6.3879    1.0000 </r>
       <r>    7.3405    1.0000 </r>
       <r>   11.6479    0.0000 </r>
       <r>   14.0243    0.0000 </r>
       <r>   15.8913    0.0000 </r>
      </set>
      <set comment="kpoint 75">
       <r>    1.0799    1.0000 </r>
       <r>    4.4790    1.0000 </r>
       <r>    6.0277    1.0000 </r>
       <r>    7.4045    1.0000 </r>
       <r>    8.4058    1.0000 </r>
       <r>   10.6569    0.0000 </r>
       <r>   11.4794    0.0000 </r>
       <r>   14.1671    0.0000 </r>
      </set>
      <set comment="kpoint 76">
       <r>    0.9672    1.0000 </r>
       <r>    5.3340    1.0000 </r>
       <r>    5.3884    1.0000 </r>
       <r>    7.6736    1.0000 </r>
       <r>    7.9285    1.0000 </r>
       <r>   10.5926    0.0000 </r>
       <r>   12.3832    0.0000 </r>
       <r>   13.0293    0.0000 </r>
      </set>
      <set comment="kpoint 77">
       <r>   -1.0286    1.0000 </r>
       <r>    7.4636    1.0000 </r>
       <r>    7.7586    1.0000 </r>
       <r>    8.3597    1.0000 </r>
       <r>    8.4597    1.0000 </r>
       <r>   10.5479    0.0000 </r>
       <r>   11.3915    0.0000 </r>
       <r>   11.9685    0.0000 </r>
      </set>
      <set comment="kpoint 78">
       <r>   -2.6203    1.0000 </r>
       <r>    7.8923    1.0000 </r>
       <r>    7.8923    1.0000 </r>
       <r>    7.8990    1.0000 </r>
       <r>   10.6791    0.0000 </r>
       <r>   11.1493    0.0000 </r>
       <r>   12.5171    0.0000 </r>
       <r>   13.3502    0.0000 </r>
      </set>
      <set comment="kpoint 79">
       <r>    3.3992    1.0000 </r>
       <r>    3.3992    1.0000 </r>
       <r>    4.0599    1.0000 </r>
       <r>    4.0599    1.0000 </r>
       <r>   13.2078    0.0000 </r>
       <r>   13.2078    0.0000 </r>
       <r>   15.0228    0.0000 </r>
       <r>   15.0228    0.0000 </r>
      </set>
      <set comment="kpoint 80">
       <r>   -3.1375    1.0000 </r>
       <r>    1.9306    1.0000 </r>
       <r>    3.6274    1.0000 </r>
       <r>    8.5379    0.9999 </r>
       <r>   12.8886    0.0000 </r>
       <r>   16.0156    0.0000 </r>
       <r>   17.2462    0.0000 </r>
       <r>   18.2750    0.0000 </r>
      </set>
      <set comment="kpoint 81">
       <r>   -2.4378    1.0000 </r>
       <r>    0.8796    1.0000 </r>
       <r>    3.7766    1.0000 </r>
       <r>    6.9981    1.0000 </r>
       <r>   14.0884    0.0000 </r>
       <r>   16.6630    0.0000 </r>
       <r>   17.7013    0.0000 </r>
       <r>   18.4157    0.0000 </r>
      </set>
      <set comment="kpoint 82">
       <r>   -2.2763    1.0000 </r>
       <r>    1.6176    1.0000 </r>
       <r>    3.3593    1.0000 </r>
       <r>    7.1452    1.0000 </r>
       <r>   13.0619    0.0000 </r>
       <r>   15.4503    0.0000 </r>
       <r>   17.8201    0.0000 </r>
       <r>   18.9410    0.0000 </r>
      </set>
      <set comment="kpoint 83">
       <r>   -1.5159    1.0000 </r>
       <r>   -0.3897    1.0000 </r>
       <r>    4.5743    1.0000 </r>
       <r>    5.6683    1.0000 </r>
       <r>   15.0299    0.0000 </r>
       <r>   15.8938    0.0000 </r>
       <r>   17.8404    0.0000 </r>
       <r>   18.0557    0.0000 </r>
      </set>
      <set comment="kpoint 84">
       <r>   -1.4729    1.0000 </r>
       <r>    0.6871    1.0000 </r>
       <r>    3.6063    1.0000 </r>
       <r>    5.7126    1.0000 </r>
       <r>   12.9770    0.0000 </r>
       <r>   16.5328    0.0000 </r>
       <r>   18.6802    0.0000 </r>
       <r>   19.0998    0.0000 </r>
      </set>
      <set comment="kpoint 85">
       <r>   -0.8747    1.0000 </r>
       <r>    1.8536    1.0000 </r>
       <r>    3.6082    1.0000 </r>
       <r>    6.2629    1.0000 </r>
       <r>    9.6383    0.0000 </r>
       <r>   16.4529    0.0000 </r>
       <r>   17.4675    0.0000 </r>
       <r>   17.9790    0.0000 </r>
      </set>
      <set comment="kpoint 86">
       <r>   -0.4668    1.0000 </r>
       <r>   -0.4619    1.0000 </r>
       <r>    4.5104    1.0000 </r>
       <r>    4.5114    1.0000 </r>
       <r>   12.9181    0.0000 </r>
       <r>   17.2315    0.0000 </r>
       <r>   18.0444    0.0000 </r>
       <r>   19.1428    0.0000 </r>
      </set>
      <set comment="kpoint 87">
       <r>    0.0134    1.0000 </r>
       <r>    1.0446    1.0000 </r>
       <r>    3.9585    1.0000 </r>
       <r>    4.9657    1.0000 </r>
       <r>    9.4354    0.0045 </r>
       <r>   16.8627    0.0000 </r>
       <r>   18.3514    0.0000 </r>
       <r>   19.0602    0.0000 </r>
      </set>
      <set comment="kpoint 88">
       <r>    1.0345    1.0000 </r>
       <r>    2.6250    1.0000 </r>
       <r>    4.3732    1.0000 </r>
       <r>    5.8536    1.0000 </r>
       <r>    6.3812    1.0000 </r>
       <r>   14.5328    0.0000 </r>
       <r>   16.0128    0.0000 </r>
       <r>   18.1289    0.0000 </r>
      </set>
      <set comment="kpoint 89">
       <r>    1.9200    1.0000 </r>
       <r>    1.9618    1.0000 </r>
       <r>    4.8054    1.0000 </r>
       <r>    4.8283    1.0000 </r>
       <r>    6.2168    1.0000 </r>
       <r>   14.8509    0.0000 </r>
       <r>   16.9162    0.0000 </r>
       <r>   17.3456    0.0000 </r>
      </set>
      <set comment="kpoint 90">
       <r>    2.9771    1.0000 </r>
       <r>    3.5758    1.0000 </r>
       <r>    4.1470    1.0000 </r>
       <r>    5.6302    1.0000 </r>
       <r>    6.1939    1.0000 </r>
       <r>   12.9352    0.0000 </r>
       <r>   14.0269    0.0000 </r>
       <r>   15.0587    0.0000 </r>
      </set>
      <set comment="kpoint 91">
       <r>    0.8536    1.0000 </r>
       <r>    5.7747    1.0000 </r>
       <r>    5.8671    1.0000 </r>
       <r>    7.2634    1.0000 </r>
       <r>    7.2634    1.0000 </r>
       <r>   11.5889    0.0000 </r>
       <r>   12.2468    0.0000 </r>
       <r>   12.2468    0.0000 </r>
      </set>
      <set comment="kpoint 92">
       <r>   -1.7516    1.0000 </r>
       <r>    0.9869    1.0000 </r>
       <r>    2.7740    1.0000 </r>
       <r>    5.4547    1.0000 </r>
       <r>   15.4968    0.0000 </r>
       <r>   16.6441    0.0000 </r>
       <r>   18.1787    0.0000 </r>
       <r>   19.5206    0.0000 </r>
      </set>
      <set comment="kpoint 93">
       <r>   -0.8595    1.0000 </r>
       <r>    0.1756    1.0000 </r>
       <r>    3.1240    1.0000 </r>
       <r>    4.1399    1.0000 </r>
       <r>   16.0918    0.0000 </r>
       <r>   16.3833    0.0000 </r>
       <r>   18.7448    0.0000 </r>
       <r>   19.4594    0.0000 </r>
      </set>
      <set comment="kpoint 94">
       <r>   -0.6994    1.0000 </r>
       <r>    0.9086    1.0000 </r>
       <r>    2.7119    1.0000 </r>
       <r>    4.2932    1.0000 </r>
       <r>   12.7701    0.0000 </r>
       <r>   18.3208    0.0000 </r>
       <r>   19.8436    0.0000 </r>
       <r>   20.1589    0.0000 </r>
      </set>
      <set comment="kpoint 95">
       <r>    0.2136    1.0000 </r>
       <r>    0.2207    1.0000 </r>
       <r>    3.1681    1.0000 </r>
       <r>    3.1697    1.0000 </r>
       <r>   12.6885    0.0000 </r>
       <r>   19.2165    0.0000 </r>
       <r>   20.0627    0.0000 </r>
       <r>   20.1040    0.0000 </r>
      </set>
      <set comment="kpoint 96">
       <r>    0.8103    1.0000 </r>
       <r>    1.3828    1.0000 </r>
       <r>    3.1760    1.0000 </r>
       <r>    3.7406    1.0000 </r>
       <r>    9.2290    0.1244 </r>
       <r>   17.9635    0.0000 </r>
       <r>   19.2867    0.0000 </r>
       <r>   19.6077    0.0000 </r>
      </set>
      <set comment="kpoint 97">
       <r>    2.3621    1.0000 </r>
       <r>    2.4212    1.0000 </r>
       <r>    4.1596    1.0000 </r>
       <r>    4.1596    1.0000 </r>
       <r>    6.0933    1.0000 </r>
       <r>   15.9429    0.0000 </r>
       <r>   16.8115    0.0000 </r>
       <r>   16.8115    0.0000 </r>
      </set>
      <set comment="kpoint 98">
       <r>   -0.0603    1.0000 </r>
       <r>    0.5119    1.0000 </r>
       <r>    2.3381    1.0000 </r>
       <r>    2.9038    1.0000 </r>
       <r>   16.2453    0.0000 </r>
       <r>   16.3084    0.0000 </r>
       <r>   20.2398    0.0000 </r>
       <r>   20.8405    0.0000 </r>
      </set>
      <set comment="kpoint 99">
       <r>    0.6665    1.0000 </r>
       <r>    0.6759    1.0000 </r>
       <r>    2.4934    1.0000 </r>
       <r>    2.4934    1.0000 </r>
       <r>   12.6024    0.0000 </r>
       <r>   19.9216    0.0000 </r>
       <r>   20.7423    0.0000 </r>
       <r>   21.0088    0.0000 </r>
      </set>
     </set>
    </set>
   </array>
  </eigenvalues>
  <separator name="orbital magnetization" >
   <v name="MAGDIPOLOUT">      0.00000000      0.00000000      0.00000000</v>
  </separator>
  <dos>
   <i name="efermi">      9.06587676 </i>
   <total>
    <array>
     <dimension dim="1">gridpoints</dimension>
     <dimension dim="2">spin</dimension>
     <field>energy</field>
     <field>total</field>
     <field>integrated</field>
     <set>
      <set comment="spin 1">
       <r>    -6.5557     0.0000     0.0000 </r>
       <r>    -6.4572     0.0000     0.0000 </r>
       <r>    -6.3586     0.0000     0.0000 </r>
       <r>    -6.2601     0.0000     0.0000 </r>
       <r>    -6.1616     0.0000     0.0000 </r>
       <r>    -6.0630     0.0000     0.0000 </r>
       <r>    -5.9645     0.0000     0.0000 </r>
       <r>    -5.8659     0.0000     0.0000 </r>
       <r>    -5.7674     0.0000     0.0000 </r>
       <r>    -5.6688     0.0000     0.0000 </r>
       <r>    -5.5703     0.0000     0.0000 </r>
       <r>    -5.4717     0.0000     0.0000 </r>
       <r>    -5.3732     0.0000     0.0000 </r>
       <r>    -5.2746     0.0000     0.0000 </r>
       <r>    -5.1761     0.0000     0.0000 </r>
       <r>    -5.0775     0.0000     0.0000 </r>
       <r>    -4.9790     0.0001     0.0000 </r>
       <r>    -4.8804     0.0008     0.0001 </r>
       <r>    -4.7819     0.0038     0.0005 </r>
       <r>    -4.6833     0.0121     0.0017 </r>
       <r>    -4.5848     0.0279     0.0044 </r>
       <r>    -4.4862     0.0528     0.0096 </r>
       <r>    -4.3877     0.0887     0.0184 </r>
       <r>    -4.2891     0.1261     0.0308 </r>
       <r>    -4.1906     0.1443     0.0450 </r>
       <r>    -4.0920     0.1410     0.0589 </r>
       <r>    -3.9935     0.1446     0.0731 </r>
       <r>    -3.8949     0.1757     0.0905 </r>
       <r>    -3.7964     0.2125     0.1114 </r>
       <r>    -3.6978     0.2220     0.1333 </r>
       <r>    -3.5993     0.2129     0.1543 </r>
       <r>    -3.5007     0.2181     0.1758 </r>
       <r>    -3.4022     0.2437     0.1998 </r>
       <r>    -3.3036     0.2720     0.2266 </r>
       <r>    -3.2051     0.2896     0.2551 </r>
       <r>    -3.1065     0.2894     0.2836 </r>
       <r>    -3.0080     0.2834     0.3116 </r>
       <r>    -2.9095     0.2884     0.3400 </r>
       <r>    -2.8109     0.2848     0.3680 </r>
       <r>    -2.7124     0.2559     0.3933 </r>
       <r>    -2.6138     0.2357     0.4165 </r>
       <r>    -2.5153     0.2685     0.4429 </r>
       <r>    -2.4167     0.3473     0.4772 </r>
       <r>    -2.3182     0.4221     0.5188 </r>
       <r>    -2.2196     0.4628     0.5644 </r>
       <r>    -2.1211     0.4755     0.6112 </r>
       <r>    -2.0225     0.4533     0.6559 </r>
       <r>    -1.9240     0.3674     0.6921 </r>
       <r>    -1.8254     0.2523     0.7170 </r>
       <r>    -1.7269     0.2081     0.7375 </r>
       <r>    -1.6283     0.2808     0.7652 </r>
       <r>    -1.5298     0.4141     0.8060 </r>
       <r>    -1.4312     0.5013     0.8554 </r>
       <r>    -1.3327     0.4847     0.9031 </r>
       <r>    -1.2341     0.4196     0.9445 </r>
       <r>    -1.1356     0.4024     0.9842 </r>
       <r>    -1.0370     0.4398     1.0275 </r>
       <r>    -0.9385     0.4672     1.0735 </r>
       <r>    -0.8399     0.4744     1.1203 </r>
       <r>    -0.7414     0.4890     1.1685 </r>
       <r>    -0.6428     0.4985     1.2176 </r>
       <r>    -0.5443     0.4803     1.2649 </r>
       <r>    -0.4457     0.4487     1.3092 </r>
       <r>    -0.3472     0.4363     1.3522 </r>
       <r>    -0.2486     0.4563     1.3971 </r>
       <r>    -0.1501     0.4972     1.4461 </r>
       <r>    -0.0515     0.5278     1.4981 </r>
       <r>     0.0470     0.5304     1.5504 </r>
       <r>     0.1456     0.5456     1.6042 </r>
       <r>     0.2441     0.6081     1.6641 </r>
       <r>     0.3426     0.6633     1.7295 </r>
       <r>     0.4412     0.6434     1.7929 </r>
       <r>     0.5397     0.5680     1.8488 </r>
       <r>     0.6383     0.4969     1.8978 </r>
       <r>     0.7368     0.4526     1.9424 </r>
       <r>     0.8354     0.4358     1.9853 </r>
       <r>     0.9339     0.4577     2.0305 </r>
       <r>     1.0325     0.5063     2.0803 </r>
       <r>     1.1310     0.5531     2.1349 </r>
       <r>     1.2296     0.6131     2.1953 </r>
       <r>     1.3281     0.6907     2.2633 </r>
       <r>     1.4267     0.7254     2.3348 </r>
       <r>     1.5252     0.6913     2.4030 </r>
       <r>     1.6238     0.6429     2.4663 </r>
       <r>     1.7223     0.6245     2.5279 </r>
       <r>     1.8209     0.6437     2.5913 </r>
       <r>     1.9194     0.6699     2.6573 </r>
       <r>     2.0180     0.6109     2.7175 </r>
       <r>     2.1165     0.4379     2.7607 </r>
       <r>     2.2151     0.2771     2.7880 </r>
       <r>     2.3136     0.2561     2.8132 </r>
       <r>     2.4122     0.3610     2.8488 </r>
       <r>     2.5107     0.4901     2.8971 </r>
       <r>     2.6093     0.5721     2.9535 </r>
       <r>     2.7078     0.6020     3.0128 </r>
       <r>     2.8064     0.6207     3.0740 </r>
       <r>     2.9049     0.6739     3.1404 </r>
       <r>     3.0035     0.7473     3.2140 </r>
       <r>     3.1020     0.7740     3.2903 </r>
       <r>     3.2006     0.7305     3.3623 </r>
       <r>     3.2991     0.6450     3.4259 </r>
       <r>     3.3977     0.5410     3.4792 </r>
       <r>     3.4962     0.4707     3.5256 </r>
       <r>     3.5947     0.5026     3.5751 </r>
       <r>     3.6933     0.6045     3.6347 </r>
       <r>     3.7918     0.6778     3.7015 </r>
       <r>     3.8904     0.6968     3.7701 </r>
       <r>     3.9889     0.6872     3.8378 </r>
       <r>     4.0875     0.6503     3.9019 </r>
       <r>     4.1860     0.5925     3.9603 </r>
       <r>     4.2846     0.5739     4.0169 </r>
       <r>     4.3831     0.6743     4.0833 </r>
       <r>     4.4817     0.8637     4.1684 </r>
       <r>     4.5802     0.9885     4.2659 </r>
       <r>     4.6788     0.9539     4.3599 </r>
       <r>     4.7773     0.8162     4.4403 </r>
       <r>     4.8759     0.6867     4.5080 </r>
       <r>     4.9744     0.6207     4.5691 </r>
       <r>     5.0730     0.6110     4.6294 </r>
       <r>     5.1715     0.6374     4.6922 </r>
       <r>     5.2701     0.6712     4.7583 </r>
       <r>     5.3686     0.6835     4.8257 </r>
       <r>     5.4672     0.6929     4.8940 </r>
       <r>     5.5657     0.7497     4.9678 </r>
       <r>     5.6643     0.8273     5.0494 </r>
       <r>     5.7628     0.8244     5.1306 </r>
       <r>     5.8614     0.7477     5.2043 </r>
       <r>     5.9599     0.7357     5.2768 </r>
       <r>     6.0585     0.8449     5.3601 </r>
       <r>     6.1570     0.9657     5.4552 </r>
       <r>     6.2556     0.9875     5.5525 </r>
       <r>     6.3541     0.9313     5.6443 </r>
       <r>     6.4527     0.8912     5.7322 </r>
       <r>     6.5512     0.9081     5.8216 </r>
       <r>     6.6498     0.9292     5.9132 </r>
       <r>     6.7483     0.9092     6.0028 </r>
       <r>     6.8468     0.8837     6.0899 </r>
       <r>     6.9454     0.8716     6.1758 </r>
       <r>     7.0439     0.8510     6.2596 </r>
       <r>     7.1425     0.8456     6.3430 </r>
       <r>     7.2410     0.8819     6.4299 </r>
       <r>     7.3396     0.9571     6.5242 </r>
       <r>     7.4381     1.0706     6.6297 </r>
       <r>     7.5367     1.1928     6.7473 </r>
       <r>     7.6352     1.2446     6.8699 </r>
       <r>     7.7338     1.1642     6.9846 </r>
       <r>     7.8323     0.9940     7.0826 </r>
       <r>     7.9309     0.8198     7.1634 </r>
       <r>     8.0294     0.6760     7.2300 </r>
       <r>     8.1280     0.5864     7.2878 </r>
       <r>     8.2265     0.5682     7.3438 </r>
       <r>     8.3251     0.6085     7.4038 </r>
       <r>     8.4236     0.6875     7.4715 </r>
       <r>     8.5222     0.7746     7.5478 </r>
       <r>     8.6207     0.8459     7.6312 </r>
       <r>     8.7193     0.8908     7.7190 </r>
       <r>     8.8178     0.8759     7.8053 </r>
       <r>     8.9164     0.7979     7.8839 </r>
       <r>     9.0149     0.7600     7.9588 </r>
       <r>     9.1135     0.8319     8.0408 </r>
       <r>     9.2120     0.8804     8.1276 </r>
       <r>     9.3106     0.7615     8.2026 </r>
       <r>     9.4091     0.5464     8.2565 </r>
       <r>     9.5077     0.3910     8.2950 </r>
       <r>     9.6062     0.3796     8.3324 </r>
       <r>     9.7048     0.5169     8.3834 </r>
       <r>     9.8033     0.7102     8.4533 </r>
       <r>     9.9019     0.8183     8.5340 </r>
       <r>    10.0004     0.7858     8.6114 </r>
       <r>    10.0989     0.6757     8.6780 </r>
       <r>    10.1975     0.6126     8.7384 </r>
       <r>    10.2960     0.7112     8.8085 </r>
       <r>    10.3946     0.9523     8.9023 </r>
       <r>    10.4931     1.1555     9.0162 </r>
       <r>    10.5917     1.1487     9.1294 </r>
       <r>    10.6902     0.9492     9.2229 </r>
       <r>    10.7888     0.7345     9.2953 </r>
       <r>    10.8873     0.6554     9.3599 </r>
       <r>    10.9859     0.7140     9.4303 </r>
       <r>    11.0844     0.7985     9.5089 </r>
       <r>    11.1830     0.8034     9.5881 </r>
       <r>    11.2815     0.7275     9.6598 </r>
       <r>    11.3801     0.6812     9.7269 </r>
       <r>    11.4786     0.7532     9.8012 </r>
       <r>    11.5772     0.8962     9.8895 </r>
       <r>    11.6757     0.9867     9.9867 </r>
       <r>    11.7743     0.9644    10.0818 </r>
       <r>    11.8728     0.9128    10.1717 </r>
       <r>    11.9714     0.9435    10.2647 </r>
       <r>    12.0699     0.9990    10.3631 </r>
       <r>    12.1685     0.9486    10.4566 </r>
       <r>    12.2670     0.8371    10.5391 </r>
       <r>    12.3656     0.8075    10.6187 </r>
       <r>    12.4641     0.8703    10.7045 </r>
       <r>    12.5627     0.9489    10.7980 </r>
       <r>    12.6612     1.0413    10.9006 </r>
       <r>    12.7598     1.1731    11.0162 </r>
       <r>    12.8583     1.2827    11.1426 </r>
       <r>    12.9569     1.2866    11.2694 </r>
       <r>    13.0554     1.1837    11.3861 </r>
       <r>    13.1540     1.0564    11.4902 </r>
       <r>    13.2525     1.0115    11.5899 </r>
       <r>    13.3510     1.0740    11.6957 </r>
       <r>    13.4496     1.1582    11.8098 </r>
       <r>    13.5481     1.1852    11.9266 </r>
       <r>    13.6467     1.1443    12.0394 </r>
       <r>    13.7452     1.0294    12.1409 </r>
       <r>    13.8438     0.8932    12.2289 </r>
       <r>    13.9423     0.8743    12.3150 </r>
       <r>    14.0409     0.9707    12.4107 </r>
       <r>    14.1394     1.0227    12.5115 </r>
       <r>    14.2380     1.0134    12.6114 </r>
       <r>    14.3365     1.0696    12.7168 </r>
       <r>    14.4351     1.1681    12.8319 </r>
       <r>    14.5336     1.1447    12.9447 </r>
       <r>    14.6322     0.9715    13.0404 </r>
       <r>    14.7307     0.7880    13.1181 </r>
       <r>    14.8293     0.7013    13.1872 </r>
       <r>    14.9278     0.7125    13.2574 </r>
       <r>    15.0264     0.7923    13.3355 </r>
       <r>    15.1249     0.9259    13.4267 </r>
       <r>    15.2235     1.0922    13.5344 </r>
       <r>    15.3220     1.2083    13.6535 </r>
       <r>    15.4206     1.1613    13.7679 </r>
       <r>    15.5191     0.9711    13.8636 </r>
       <r>    15.6177     0.8123    13.9437 </r>
       <r>    15.7162     0.8018    14.0227 </r>
       <r>    15.8148     0.8592    14.1073 </r>
       <r>    15.9133     0.8491    14.1910 </r>
       <r>    16.0119     0.7656    14.2665 </r>
       <r>    16.1104     0.6992    14.3354 </r>
       <r>    16.2090     0.6979    14.4042 </r>
       <r>    16.3075     0.7261    14.4757 </r>
       <r>    16.4061     0.7484    14.5495 </r>
       <r>    16.5046     0.7722    14.6256 </r>
       <r>    16.6031     0.7775    14.7022 </r>
       <r>    16.7017     0.7305    14.7742 </r>
       <r>    16.8002     0.6567    14.8389 </r>
       <r>    16.8988     0.5884    14.8969 </r>
       <r>    16.9973     0.5082    14.9470 </r>
       <r>    17.0959     0.4163    14.9880 </r>
       <r>    17.1944     0.3543    15.0229 </r>
       <r>    17.2930     0.3358    15.0560 </r>
       <r>    17.3915     0.3563    15.0911 </r>
       <r>    17.4901     0.4273    15.1332 </r>
       <r>    17.5886     0.5090    15.1834 </r>
       <r>    17.6872     0.5282    15.2354 </r>
       <r>    17.7857     0.5056    15.2853 </r>
       <r>    17.8843     0.5164    15.3361 </r>
       <r>    17.9828     0.5484    15.3902 </r>
       <r>    18.0814     0.5347    15.4429 </r>
       <r>    18.1799     0.4689    15.4891 </r>
       <r>    18.2785     0.4046    15.5290 </r>
       <r>    18.3770     0.3651    15.5650 </r>
       <r>    18.4756     0.3271    15.5972 </r>
       <r>    18.5741     0.2926    15.6260 </r>
       <r>    18.6727     0.2786    15.6535 </r>
       <r>    18.7712     0.2691    15.6800 </r>
       <r>    18.8698     0.2631    15.7059 </r>
       <r>    18.9683     0.2992    15.7354 </r>
       <r>    19.0669     0.3699    15.7719 </r>
       <r>    19.1654     0.3907    15.8104 </r>
       <r>    19.2640     0.3190    15.8418 </r>
       <r>    19.3625     0.2169    15.8632 </r>
       <r>    19.4611     0.1529    15.8782 </r>
       <r>    19.5596     0.1262    15.8907 </r>
       <r>    19.6582     0.1071    15.9012 </r>
       <r>    19.7567     0.0908    15.9102 </r>
       <r>    19.8552     0.0904    15.9191 </r>
       <r>    19.9538     0.1099    15.9299 </r>
       <r>    20.0523     0.1403    15.9438 </r>
       <r>    20.1509     0.1559    15.9591 </r>
       <r>    20.2494     0.1311    15.9720 </r>
       <r>    20.3480     0.0782    15.9798 </r>
       <r>    20.4465     0.0330    15.9830 </r>
       <r>    20.5451     0.0129    15.9843 </r>
       <r>    20.6436     0.0136    15.9856 </r>
       <r>    20.7422     0.0248    15.9881 </r>
       <r>    20.8407     0.0349    15.9915 </r>
       <r>    20.9393     0.0353    15.9950 </r>
       <r>    21.0378     0.0266    15.9976 </r>
       <r>    21.1364     0.0153    15.9991 </r>
       <r>    21.2349     0.0066    15.9998 </r>
       <r>    21.3335     0.0020    16.0000 </r>
       <r>    21.4320     0.0004    16.0000 </r>
       <r>    21.5306     0.0001    16.0000 </r>
       <r>    21.6291     0.0000    16.0000 </r>
       <r>    21.7277     0.0000    16.0000 </r>
       <r>    21.8262     0.0000    16.0000 </r>
       <r>    21.9248     0.0000    16.0000 </r>
       <r>    22.0233     0.0000    16.0000 </r>
       <r>    22.1219     0.0000    16.0000 </r>
       <r>    22.2204     0.0000    16.0000 </r>
       <r>    22.3190     0.0000    16.0000 </r>
       <r>    22.4175     0.0000    16.0000 </r>
       <r>    22.5161     0.0000    16.0000 </r>
       <r>    22.6146     0.0000    16.0000 </r>
       <r>    22.7132     0.0000    16.0000 </r>
       <r>    22.8117     0.0000    16.0000 </r>
       <r>    22.9102     0.0000    16.0000 </r>
       <r>    23.0088     0.0000    16.0000 </r>
      </set>
     </set>
    </array>
   </total>
  </dos>
 </calculation>
 <structure name="finalpos" >
  <crystal>
   <varray name="basis" >
    <v>      -2.45000000       2.45000000       1.27400000 </v>
    <v>       2.45000000      -2.45000000       1.27400000 </v>
    <v>       2.45000000       2.45000000      -1.27400000 </v>
   </varray>
   <i name="volume">     30.58874000 </i>
   <varray name="rec_basis" >
    <v>       0.00000000       0.20408163       0.39246468 </v>
    <v>       0.20408163       0.00000000       0.39246468 </v>
    <v>       0.20408163       0.20408163      -0.00000000 </v>
   </varray>
  </crystal>
  <varray name="positions" >
   <v>       0.25000000       0.75000000       0.50000000 </v>
   <v>       0.00000000       0.00000000       0.00000000 </v>
  </varray>
 </structure>
</modeling>
