unknown system                          
   1.00000000000000     
     0.000000    2.715000    2.715000
     2.715000    0.000000    2.715000
     2.715000    2.715000    0.000000
   Si
     2
Direct
  0.500000  0.500000  0.500000
  0.750000  0.750000  0.750000
 
   24   24   24
 0.87201030353E+00 0.90935545101E+00 0.10265061890E+01 0.12378447167E+01 0.15646195669E+01
 0.20296080659E+01 0.26481811019E+01 0.34156213275E+01 0.42924363343E+01 0.51938299737E+01
 0.59936406533E+01 0.65503493712E+01 0.67504965082E+01 0.65504519566E+01 0.59937615259E+01
 0.51938575397E+01 0.42923040926E+01 0.34153480965E+01 0.26478607130E+01 0.20293571780E+01
 0.15645132869E+01 0.12378792716E+01 0.10266100565E+01 0.90943738358E+00 0.90935545101E+00
 0.97017293915E+00 0.10996325583E+01 0.13116990601E+01 0.16230761099E+01 0.20474099334E+01
 0.25871865835E+01 0.32239454305E+01 0.39093549716E+01 0.45629018632E+01 0.50829675087E+01
 0.53728224898E+01 0.53728535435E+01 0.50830488791E+01 0.45629890492E+01 0.39093717818E+01
 0.32238299174E+01 0.25869536917E+01 0.20471609079E+01 0.16229334176E+01 0.13117213501E+01
 0.10997782735E+01 0.97033313912E+00 0.90942333030E+00 0.10265061890E+01 0.10996325583E+01
 0.12314574614E+01 0.14340389111E+01 0.17186900157E+01 0.20906465225E+01 0.25427237068E+01
 0.30488565553E+01 0.35601174986E+01 0.40077165379E+01 0.43165320966E+01 0.44270709729E+01
 0.43165637285E+01 0.40077433776E+01 0.35600972300E+01 0.30487761279E+01 0.25426109385E+01
 0.20905524649E+01 0.17186614717E+01 0.14340982556E+01 0.12315910897E+01 0.10997885929E+01
 0.10266115641E+01 0.10032421136E+01 0.12378447167E+01 0.13116990601E+01 0.14340389111E+01
 0.16144112728E+01 0.18592111210E+01 0.21674710307E+01 0.25264955981E+01 0.29082095278E+01
 0.32685945945E+01 0.35534559609E+01 0.37116340181E+01 0.37116371888E+01 0.35534400910E+01
 0.32685190674E+01 0.29080818099E+01 0.25263853231E+01 0.21674555643E+01 0.18593113793E+01
 0.16145808996E+01 0.14342078317E+01 0.13118214085E+01 0.12379112323E+01 0.12035888214E+01
 0.12035686794E+01 0.15646195669E+01 0.16230761099E+01 0.17186900157E+01 0.18592111210E+01
 0.20479117636E+01 0.22805645363E+01 0.25427301891E+01 0.28082379445E+01 0.30409181110E+01
 0.32015127546E+01 0.32589682528E+01 0.32014181784E+01 0.30407738617E+01 0.28081109233E+01
 0.25426778333E+01 0.22806097560E+01 0.20480335759E+01 0.18593561938E+01 0.17188033223E+01
 0.16231317280E+01 0.15646285689E+01 0.15343089301E+01 0.15250992782E+01 0.15343161637E+01
 0.20296080659E+01 0.20474099334E+01 0.20906465225E+01 0.21674710307E+01 0.22805645363E+01
 0.24250274058E+01 0.25871840604E+01 0.27450996912E+01 0.28720186543E+01 0.29430179936E+01
 0.29429311016E+01 0.28718125529E+01 0.27448999976E+01 0.25871040729E+01 0.24250986797E+01
 0.22807205487E+01 0.21675927965E+01 0.20906475913E+01 0.20472971233E+01 0.20294609001E+01
 0.20263434987E+01 0.20278452257E+01 0.20278809343E+01 0.20264490246E+01 0.26481811019E+01
 0.25871865835E+01 0.25427237068E+01 0.25264955981E+01 0.25427301891E+01 0.25871840604E+01
 0.26481674477E+01 0.27094327350E+01 0.27544269856E+01 0.27708717641E+01 0.27542750015E+01
 0.27092141421E+01 0.26479880727E+01 0.25871101991E+01 0.25427652633E+01 0.25265750595E+01
 0.25427385401E+01 0.25870571648E+01 0.26479293299E+01 0.27091797895E+01 0.27542701555E+01
 0.27708771389E+01 0.27544325720E+01 0.27094441312E+01 0.34156213275E+01 0.32239454305E+01
 0.30488565553E+01 0.29082095278E+01 0.28082379445E+01 0.27450996912E+01 0.27094327350E+01
 0.26914049097E+01 0.26840036810E+01 0.26839242928E+01 0.26912172518E+01 0.27092317377E+01
 0.27449417223E+01 0.28081384369E+01 0.29081718189E+01 0.30488516724E+01 0.32238959217E+01
 0.34154644680E+01 0.35969174431E+01 0.37389739709E+01 0.38170153801E+01 0.38170972410E+01
 0.37391821686E+01 0.35971525708E+01 0.42924363343E+01 0.39093549716E+01 0.35601174986E+01
 0.32685945945E+01 0.30409181110E+01 0.28720186543E+01 0.27544269856E+01 0.26840036810E+01
 0.26603229532E+01 0.26838503717E+01 0.27542190417E+01 0.28718528604E+01 0.30408309231E+01
 0.32685851918E+01 0.35601585706E+01 0.39093801019E+01 0.42923841892E+01 0.46680633418E+01
 0.49861142650E+01 0.51991884023E+01 0.52741621492E+01 0.51992411364E+01 0.49862212867E+01
 0.46681790006E+01 0.51938299737E+01 0.45629018632E+01 0.40077165379E+01 0.35534559609E+01
 0.32015127546E+01 0.29430179936E+01 0.27708717641E+01 0.26839242928E+01 0.26838503717E+01
 0.27707095551E+01 0.29428781936E+01 0.32014581628E+01 0.35534958371E+01 0.40078391051E+01
 0.45630605196E+01 0.51939447480E+01 0.58456374120E+01 0.64405312570E+01 0.68955290912E+01
 0.71421358396E+01 0.71421378129E+01 0.68955450528E+01 0.64405528362E+01 0.58456092736E+01
 0.59936406533E+01 0.50829675087E+01 0.43165320966E+01 0.37116340181E+01 0.32589682528E+01
 0.29429311016E+01 0.27542750015E+01 0.26912172518E+01 0.27542190417E+01 0.29428781936E+01
 0.32589607304E+01 0.37116729183E+01 0.43166214761E+01 0.50831224963E+01 0.59938395378E+01
 0.69886468932E+01 0.79641695964E+01 0.87919131775E+01 0.93481377708E+01 0.95442195303E+01
 0.93480945649E+01 0.87918326579E+01 0.79640413332E+01 0.69884643081E+01 0.65503493712E+01
 0.53728224898E+01 0.44270709729E+01 0.37116371888E+01 0.32014181784E+01 0.28718125529E+01
 0.27092141421E+01 0.27092317377E+01 0.28718528604E+01 0.32014581628E+01 0.37116729183E+01
 0.44271249807E+01 0.53729162322E+01 0.65504761680E+01 0.79102200376E+01 0.93371739808E+01
 0.10660625934E+02 0.11687601290E+02 0.12249999897E+02 0.12249921413E+02 0.11687416087E+02
 0.10660426934E+02 0.93370072338E+01 0.79100769656E+01 0.67504965082E+01 0.53728535435E+01
 0.43165637285E+01 0.35534400910E+01 0.30407738617E+01 0.27448999976E+01 0.26479880727E+01
 0.27449417223E+01 0.30408309231E+01 0.35534958371E+01 0.43166214761E+01 0.53729162322E+01
 0.67505652316E+01 0.84280362845E+01 0.10303405743E+02 0.12185774750E+02 0.13818891312E+02
 0.14936050090E+02 0.15332908178E+02 0.14935982338E+02 0.13818764236E+02 0.12185623251E+02
 0.10303276583E+02 0.84279461701E+01 0.65504519566E+01 0.50830488791E+01 0.40077433776E+01
 0.32685190674E+01 0.28081109233E+01 0.25871040729E+01 0.25871101991E+01 0.28081384369E+01
 0.32685851918E+01 0.40078391051E+01 0.50831224963E+01 0.65504761680E+01 0.84280362845E+01
 0.10652771114E+02 0.13049574433E+02 0.15331069794E+02 0.17124643271E+02 0.18099505247E+02
 0.18099581672E+02 0.17124755858E+02 0.15331042748E+02 0.13049420278E+02 0.10652643020E+02
 0.84279975526E+01 0.59937615259E+01 0.45629890492E+01 0.35600972300E+01 0.29080818099E+01
 0.25426778333E+01 0.24250986797E+01 0.25427652633E+01 0.29081718189E+01 0.35601585706E+01
 0.45630605196E+01 0.59938395378E+01 0.79102200376E+01 0.10303405743E+02 0.13049574433E+02
 0.15879285600E+02 0.18346750923E+02 0.19993763518E+02 0.20567201700E+02 0.19993823201E+02
 0.18346769561E+02 0.15879234747E+02 0.13049526842E+02 0.10303390683E+02 0.79101818355E+01
 0.51938575397E+01 0.39093717818E+01 0.30487761279E+01 0.25263853231E+01 0.22806097560E+01
 0.22807205487E+01 0.25265750595E+01 0.30488516724E+01 0.39093801019E+01 0.51939447480E+01
 0.69886468932E+01 0.93371739808E+01 0.12185774750E+02 0.15331069794E+02 0.18346750923E+02
 0.20663662048E+02 0.21902311240E+02 0.21902256556E+02 0.20663533931E+02 0.18346655342E+02
 0.15331093542E+02 0.12185852928E+02 0.93371545787E+01 0.69885197212E+01 0.42923040926E+01
 0.32238299174E+01 0.25426109385E+01 0.21674555643E+01 0.20480335759E+01 0.21675927965E+01
 0.25427385401E+01 0.32238959217E+01 0.42923841892E+01 0.58456374120E+01 0.79641695964E+01
 0.10660625934E+02 0.13818891312E+02 0.17124643271E+02 0.19993763518E+02 0.21902311240E+02
 0.22566181608E+02 0.21902289052E+02 0.19993644586E+02 0.17124471685E+02 0.13818801415E+02
 0.10660623175E+02 0.79641334608E+01 0.58455390992E+01 0.34153480965E+01 0.25869536917E+01
 0.20905524649E+01 0.18593113793E+01 0.18593561938E+01 0.20906475913E+01 0.25870571648E+01
 0.34154644680E+01 0.46680633418E+01 0.64405312570E+01 0.87919131775E+01 0.11687601290E+02
 0.14936050090E+02 0.18099505247E+02 0.20567201700E+02 0.21902256556E+02 0.21902289052E+02
 0.20567156771E+02 0.18099228722E+02 0.14935695649E+02 0.11687430378E+02 0.87919282259E+01
 0.64405343923E+01 0.46679726467E+01 0.26478607130E+01 0.20471609079E+01 0.17186614717E+01
 0.16145808996E+01 0.17188033223E+01 0.20472971233E+01 0.26479293299E+01 0.35969174431E+01
 0.49861142650E+01 0.68955290912E+01 0.93481377708E+01 0.12249999897E+02 0.15332908178E+02
 0.18099581672E+02 0.19993823201E+02 0.20663533931E+02 0.19993644586E+02 0.18099228722E+02
 0.15332529588E+02 0.12249799689E+02 0.93481282186E+01 0.68955417244E+01 0.49860648330E+01
 0.35968581341E+01 0.20293571780E+01 0.16229334176E+01 0.14340982556E+01 0.14342078317E+01
 0.16231317280E+01 0.20294609001E+01 0.27091797895E+01 0.37389739709E+01 0.51991884023E+01
 0.71421358396E+01 0.95442195303E+01 0.12249921413E+02 0.14935982338E+02 0.17124755858E+02
 0.18346769561E+02 0.18346655342E+02 0.17124471685E+02 0.14935695649E+02 0.12249799689E+02
 0.95442550164E+01 0.71421620329E+01 0.51991248374E+01 0.37389077958E+01 0.27091479099E+01
 0.15645132869E+01 0.13117213501E+01 0.12315910897E+01 0.13118214085E+01 0.15646285689E+01
 0.20263434987E+01 0.27542701555E+01 0.38170153801E+01 0.52741621492E+01 0.71421378129E+01
 0.93480945649E+01 0.11687416087E+02 0.13818764236E+02 0.15331042748E+02 0.15879234747E+02
 0.15331093542E+02 0.13818801415E+02 0.11687430378E+02 0.93481282186E+01 0.71421620329E+01
 0.52740974336E+01 0.38168714311E+01 0.27541341824E+01 0.20262388350E+01 0.12378792716E+01
 0.10997782735E+01 0.10997885929E+01 0.12379112323E+01 0.15343089301E+01 0.20278452257E+01
 0.27708771389E+01 0.38170972410E+01 0.51992411364E+01 0.68955450528E+01 0.87918326579E+01
 0.10660426934E+02 0.12185623251E+02 0.13049420278E+02 0.13049526842E+02 0.12185852928E+02
 0.10660623175E+02 0.87919282259E+01 0.68955417244E+01 0.51991248374E+01 0.38168714311E+01
 0.27706263659E+01 0.20276713277E+01 0.15342288842E+01 0.10266100565E+01 0.97033313912E+00
 0.10266115641E+01 0.12035888214E+01 0.15250992782E+01 0.20278809343E+01 0.27544325720E+01
 0.37391821686E+01 0.49862212867E+01 0.64405528362E+01 0.79640413332E+01 0.93370072338E+01
 0.10303276583E+02 0.10652643020E+02 0.10303390683E+02 0.93371545787E+01 0.79641334608E+01
 0.64405343923E+01 0.49860648330E+01 0.37389077958E+01 0.27541341824E+01 0.20276713277E+01
 0.15250117700E+01 0.12035713541E+01 0.90943738358E+00 0.90942333030E+00 0.10032421136E+01
 0.12035686794E+01 0.15343161637E+01 0.20264490246E+01 0.27094441312E+01 0.35971525708E+01
 0.46681790006E+01 0.58456092736E+01 0.69884643081E+01 0.79100769656E+01 0.84279461701E+01
 0.84279975526E+01 0.79101818355E+01 0.69885197212E+01 0.58455390992E+01 0.46679726467E+01
 0.35968581341E+01 0.27091479099E+01 0.20262388350E+01 0.15342288842E+01 0.12035713541E+01
 0.10032719699E+01 0.90934949695E+00 0.97017058789E+00 0.10996341577E+01 0.13116993443E+01
 0.16230739435E+01 0.20474102018E+01 0.25871917883E+01 0.32239536831E+01 0.39093664878E+01
 0.45629178008E+01 0.50829808932E+01 0.53728198869E+01 0.53728290065E+01 0.50830097941E+01
 0.45629479103E+01 0.39093398726E+01 0.32238179395E+01 0.25869671992E+01 0.20471918570E+01
 0.16229645284E+01 0.13117416377E+01 0.10997882979E+01 0.97033597169E+00 0.90941989298E+00
 0.97017058789E+00 0.10384444079E+01 0.11626578376E+01 0.13554237341E+01 0.16285337355E+01
 0.19874571868E+01 0.24250273964E+01 0.29153191177E+01 0.34102274444E+01 0.38428815310E+01
 0.41409435891E+01 0.42475256657E+01 0.41409602527E+01 0.38429279205E+01 0.34102784725E+01
 0.29153064194E+01 0.24249128516E+01 0.19872933793E+01 0.16284288805E+01 0.13554495090E+01
 0.11627975287E+01 0.10386161391E+01 0.97028391828E+00 0.94857748466E+00 0.10996341577E+01
 0.11626578376E+01 0.12701695300E+01 0.14328309436E+01 0.16578417988E+01 0.19445914341E+01
 0.22805594264E+01 0.26383471890E+01 0.29758469322E+01 0.32421322581E+01 0.33897549368E+01
 0.33897497838E+01 0.32421192156E+01 0.29758274788E+01 0.26383167767E+01 0.22805170371E+01
 0.19445529105E+01 0.16578361691E+01 0.14328797724E+01 0.12702694666E+01 0.11627793089E+01
 0.10997334530E+01 0.10711545574E+01 0.10711162727E+01 0.13116993443E+01 0.13554237341E+01
 0.14328309436E+01 0.15529031921E+01 0.17196227765E+01 0.19291176058E+01 0.21674711853E+01
 0.24098449983E+01 0.26225106580E+01 0.27693132842E+01 0.28218463999E+01 0.27692693791E+01
 0.26224222942E+01 0.24097301574E+01 0.21673763306E+01 0.19290966266E+01 0.17196974177E+01
 0.15530421080E+01 0.14329704672E+01 0.13555130479E+01 0.13117307534E+01 0.12911237038E+01
 0.12853216470E+01 0.12911223804E+01 0.16230739435E+01 0.16285337355E+01 0.16578417988E+01
 0.17196227765E+01 0.18167041586E+01 0.19445942041E+01 0.20906506641E+01 0.22345041506E+01
 0.23510392260E+01 0.24165656093E+01 0.24165174272E+01 0.23509183637E+01 0.22343660890E+01
 0.20905527081E+01 0.19445755175E+01 0.18167753195E+01 0.17197560728E+01 0.16579746512E+01
 0.16286020056E+01 0.16230588639E+01 0.16294723599E+01 0.16362878761E+01 0.16363170881E+01
 0.16295280925E+01 0.20474102018E+01 0.19874571868E+01 0.19445914341E+01 0.19291176058E+01
 0.19445942041E+01 0.19874571310E+01 0.20474073042E+01 0.21089912789E+01 0.21551072691E+01
 0.21721714535E+01 0.21550048816E+01 0.21088475023E+01 0.20473029294E+01 0.19874469018E+01
 0.19446810776E+01 0.19292492320E+01 0.19446840084E+01 0.19874471568E+01 0.20473004714E+01
 0.21088478711E+01 0.21550080322E+01 0.21721717643E+01 0.21551047190E+01 0.21089914485E+01
 0.25871917883E+01 0.24250273964E+01 0.22805594264E+01 0.21674711853E+01 0.20906506641E+01
 0.20474073042E+01 0.20295991492E+01 0.20264454406E+01 0.20278863296E+01 0.20278550689E+01
 0.20263610242E+01 0.20294921751E+01 0.20473310352E+01 0.20906613593E+01 0.21675784756E+01
 0.22806891317E+01 0.24250606835E+01 0.25870652484E+01 0.27448729376E+01 0.28718101141E+01
 0.29429472098E+01 0.29430337499E+01 0.28720272475E+01 0.27451077971E+01 0.32239536831E+01
 0.29153191177E+01 0.26383471890E+01 0.24098449983E+01 0.22345041506E+01 0.21089912789E+01
 0.20264454406E+01 0.19800435680E+01 0.19651129661E+01 0.19800197724E+01 0.20263861274E+01
 0.21089041235E+01 0.22344408076E+01 0.24098721838E+01 0.26384719442E+01 0.29154526562E+01
 0.32239762535E+01 0.35335050382E+01 0.38025810695E+01 0.39871898120E+01 0.40531100387E+01
 0.39873384192E+01 0.38027856021E+01 0.35336343042E+01 0.39093664878E+01 0.34102274444E+01
 0.29758469322E+01 0.26225106580E+01 0.23510392260E+01 0.21551072691E+01 0.20278863296E+01
 0.19651129661E+01 0.19651023086E+01 0.20278484443E+01 0.21550479268E+01 0.23510067193E+01
 0.26225713238E+01 0.29760149801E+01 0.34104337901E+01 0.39095134476E+01 0.44352516057E+01
 0.49278065566E+01 0.53146167624E+01 0.55284412194E+01 0.55284562236E+01 0.53146537642E+01
 0.49278316719E+01 0.44352071195E+01 0.45629178008E+01 0.38428815310E+01 0.32421322581E+01
 0.27693132842E+01 0.24165656093E+01 0.21721714535E+01 0.20278550689E+01 0.19800197724E+01
 0.20278484443E+01 0.21721446302E+01 0.24165635997E+01 0.27694342789E+01 0.32424102411E+01
 0.38432200279E+01 0.45631813694E+01 0.53638571536E+01 0.61696191599E+01 0.68731462412E+01
 0.73575580935E+01 0.75307129677E+01 0.73574855925E+01 0.68730525809E+01 0.61695259295E+01
 0.53637092457E+01 0.50829808932E+01 0.41409435891E+01 0.33897549368E+01 0.28218463999E+01
 0.24165174272E+01 0.21550048816E+01 0.20263610242E+01 0.20263861274E+01 0.21550479268E+01
 0.24165635997E+01 0.28219811202E+01 0.33900586676E+01 0.41413473710E+01 0.50833222202E+01
 0.61895265936E+01 0.73806425595E+01 0.85188971237E+01 0.94269791590E+01 0.99340369369E+01
 0.99339736132E+01 0.94268312355E+01 0.85187438994E+01 0.73805013453E+01 0.61893192179E+01
 0.53728198869E+01 0.42475256657E+01 0.33897497838E+01 0.27692693791E+01 0.23509183637E+01
 0.21088475023E+01 0.20294921751E+01 0.21089041235E+01 0.23510067193E+01 0.27694342789E+01
 0.33900586676E+01 0.42479143945E+01 0.53731207754E+01 0.67651497658E+01 0.83613868602E+01
 0.10013320729E+02 0.11489851081E+02 0.12523894579E+02 0.12896837044E+02 0.12523752103E+02
 0.11489633319E+02 0.10013135295E+02 0.83612697284E+01 0.67649965885E+01 0.53728290065E+01
 0.41409602527E+01 0.32421192156E+01 0.26224222942E+01 0.22343660890E+01 0.20473029294E+01
 0.20473310352E+01 0.22344408076E+01 0.26225713238E+01 0.32424102411E+01 0.41413473710E+01
 0.53731207754E+01 0.69722162383E+01 0.89140107967E+01 0.11071070363E+02 0.13189222041E+02
 0.14915247833E+02 0.15892122360E+02 0.15892062725E+02 0.14915067100E+02 0.13188984829E+02
 0.11070917858E+02 0.89139714945E+01 0.69721200679E+01 0.50830097941E+01 0.38429279205E+01
 0.29758274788E+01 0.24097301574E+01 0.20905527081E+01 0.19874469018E+01 0.20906613593E+01
 0.24098721838E+01 0.29760149801E+01 0.38432200279E+01 0.50833222202E+01 0.67651497658E+01
 0.89140107967E+01 0.11454619303E+02 0.14157241934E+02 0.16628080011E+02 0.18386335867E+02
 0.19025795003E+02 0.18386262440E+02 0.16627897380E+02 0.14157032176E+02 0.11454513594E+02
 0.89139603922E+01 0.67649785875E+01 0.45629479103E+01 0.34102784725E+01 0.26383167767E+01
 0.21673763306E+01 0.19445755175E+01 0.19446810776E+01 0.21675784756E+01 0.26384719442E+01
 0.34104337901E+01 0.45631813694E+01 0.61895265936E+01 0.83613868602E+01 0.11071070363E+02
 0.14157241934E+02 0.17253028628E+02 0.19816598130E+02 0.21278387055E+02 0.21278362041E+02
 0.19816475417E+02 0.17252796824E+02 0.14157031734E+02 0.11070959966E+02 0.83612654224E+01
 0.61893027328E+01 0.39093398726E+01 0.29153064194E+01 0.22805170371E+01 0.19290966266E+01
 0.18167753195E+01 0.19292492320E+01 0.22806891317E+01 0.29154526562E+01 0.39095134476E+01
 0.53638571536E+01 0.73806425595E+01 0.10013320729E+02 0.13189222041E+02 0.16628080011E+02
 0.19816598130E+02 0.22098710267E+02 0.22927233270E+02 0.22098689192E+02 0.19816401342E+02
 0.16627726595E+02 0.13188935861E+02 0.10013192563E+02 0.73805361542E+01 0.53636844604E+01
 0.32238179395E+01 0.24249128516E+01 0.19445529105E+01 0.17196974177E+01 0.17197560728E+01
 0.19446840084E+01 0.24250606835E+01 0.32239762535E+01 0.44352516057E+01 0.61696191599E+01
 0.85188971237E+01 0.11489851081E+02 0.14915247833E+02 0.18386335867E+02 0.21278387055E+02
 0.22927233270E+02 0.22927295575E+02 0.21278372189E+02 0.18385989275E+02 0.14914714892E+02
 0.11489484638E+02 0.85187770287E+01 0.61695527846E+01 0.44351194782E+01 0.25869671992E+01
 0.19872933793E+01 0.16578361691E+01 0.15530421080E+01 0.16579746512E+01 0.19874471568E+01
 0.25870652484E+01 0.35335050382E+01 0.49278065566E+01 0.68731462412E+01 0.94269791590E+01
 0.12523894579E+02 0.15892122360E+02 0.19025795003E+02 0.21278362041E+02 0.22098689192E+02
 0.21278372189E+02 0.19025557076E+02 0.15891573549E+02 0.12523318967E+02 0.94266382830E+01
 0.68730146746E+01 0.49277417069E+01 0.35334390653E+01 0.20471918570E+01 0.16284288805E+01
 0.14328797724E+01 0.14329704672E+01 0.16286020056E+01 0.20473004714E+01 0.27448729376E+01
 0.38025810695E+01 0.53146167624E+01 0.73575580935E+01 0.99340369369E+01 0.12896837044E+02
 0.15892062725E+02 0.18386262440E+02 0.19816475417E+02 0.19816401342E+02 0.18385989275E+02
 0.15891573549E+02 0.12896294773E+02 0.99336385042E+01 0.73573354021E+01 0.53144971908E+01
 0.38025222754E+01 0.27448310873E+01 0.16229645284E+01 0.13554495090E+01 0.12702694666E+01
 0.13555130479E+01 0.16230588639E+01 0.21088478711E+01 0.28718101141E+01 0.39871898120E+01
 0.55284412194E+01 0.75307129677E+01 0.99339736132E+01 0.12523752103E+02 0.14915067100E+02
 0.16627897380E+02 0.17252796824E+02 0.16627726595E+02 0.14914714892E+02 0.12523318967E+02
 0.99336385042E+01 0.75305390422E+01 0.55283331999E+01 0.39870575648E+01 0.28716666880E+01
 0.21087301527E+01 0.13117416377E+01 0.11627975287E+01 0.11627793089E+01 0.13117307534E+01
 0.16294723599E+01 0.21550080322E+01 0.29429472098E+01 0.40531100387E+01 0.55284562236E+01
 0.73574855925E+01 0.94268312355E+01 0.11489633319E+02 0.13188984829E+02 0.14157032176E+02
 0.14157031734E+02 0.13188935861E+02 0.11489484638E+02 0.94266382830E+01 0.73573354021E+01
 0.55283331999E+01 0.40529304952E+01 0.29427063367E+01 0.21548063188E+01 0.16293902713E+01
 0.10997882979E+01 0.10386161391E+01 0.10997334530E+01 0.12911237038E+01 0.16362878761E+01
 0.21721717643E+01 0.29430337499E+01 0.39873384192E+01 0.53146537642E+01 0.68730525809E+01
 0.85187438994E+01 0.10013135295E+02 0.11070917858E+02 0.11454513594E+02 0.11070959966E+02
 0.10013192563E+02 0.85187770287E+01 0.68730146746E+01 0.53144971908E+01 0.39870575648E+01
 0.29427063367E+01 0.21719242297E+01 0.16361956951E+01 0.12911545876E+01 0.97033597169E+00
 0.97028391828E+00 0.10711545574E+01 0.12853216470E+01 0.16363170881E+01 0.21551047190E+01
 0.28720272475E+01 0.38027856021E+01 0.49278316719E+01 0.61695259295E+01 0.73805013453E+01
 0.83612697284E+01 0.89139714945E+01 0.89139603922E+01 0.83612654224E+01 0.73805361542E+01
 0.61695527846E+01 0.49277417069E+01 0.38025222754E+01 0.28716666880E+01 0.21548063188E+01
 0.16361956951E+01 0.12853682622E+01 0.10712622590E+01 0.90941989298E+00 0.94857748466E+00
 0.10711162727E+01 0.12911223804E+01 0.16295280925E+01 0.21089914485E+01 0.27451077971E+01
 0.35336343042E+01 0.44352071195E+01 0.53637092457E+01 0.61893192179E+01 0.67649965885E+01
 0.69721200679E+01 0.67649785875E+01 0.61893027328E+01 0.53636844604E+01 0.44351194782E+01
 0.35334390653E+01 0.27448310873E+01 0.21087301527E+01 0.16293902713E+01 0.12911545876E+01
 0.10712622590E+01 0.94870598371E+00 0.10264963650E+01 0.10996303994E+01 0.12314603621E+01
 0.14340388306E+01 0.17186874425E+01 0.20906495137E+01 0.25427339114E+01 0.30488680119E+01
 0.35601271063E+01 0.40077224179E+01 0.43165237222E+01 0.44270364631E+01 0.43165086551E+01
 0.40076903969E+01 0.35600664856E+01 0.30487755090E+01 0.25426409704E+01 0.20906053456E+01
 0.17187161644E+01 0.14341321300E+01 0.12315995172E+01 0.10997834123E+01 0.10266022882E+01
 0.10032305600E+01 0.10996303994E+01 0.11626581928E+01 0.12701709981E+01 0.14328307270E+01
 0.16578415478E+01 0.19445943324E+01 0.22805645935E+01 0.26383505411E+01 0.29758451788E+01
 0.32421223632E+01 0.33897333009E+01 0.33897179290E+01 0.32420886727E+01 0.29758135181E+01
 0.26383270160E+01 0.22805480812E+01 0.19445946363E+01 0.16578752625E+01 0.14329032435E+01
 0.12702719842E+01 0.11627672822E+01 0.10997181832E+01 0.10711424543E+01 0.10711082087E+01
 0.12314603621E+01 0.12701709981E+01 0.13413868275E+01 0.14546452314E+01 0.16143230460E+01
 0.18167025984E+01 0.20479077928E+01 0.22833233438E+01 0.24898605436E+01 0.26323470690E+01
 0.26833044559E+01 0.26322901587E+01 0.24897831278E+01 0.22832721814E+01 0.20479108002E+01
 0.18167574124E+01 0.16144052250E+01 0.14547262428E+01 0.13414502279E+01 0.12702160586E+01
 0.12314919214E+01 0.12141868384E+01 0.12095228226E+01 0.12141690200E+01 0.14340388306E+01
 0.14328307270E+01 0.14546452314E+01 0.15088182037E+01 0.15986072647E+01 0.17196223794E+01
 0.18592107801E+01 0.19972268291E+01 0.21091667830E+01 0.21721272800E+01 0.21720862618E+01
 0.21090624392E+01 0.19971093445E+01 0.18591418210E+01 0.17196431247E+01 0.15987115790E+01
 0.15089542087E+01 0.14547491622E+01 0.14328675873E+01 0.14340186040E+01 0.14454988543E+01
 0.14550414951E+01 0.14550593207E+01 0.14455370720E+01 0.17186874425E+01 0.16578415478E+01
 0.16143230460E+01 0.15986072647E+01 0.16143242125E+01 0.16578441748E+01 0.17186936590E+01
 0.17811940716E+01 0.18280041384E+01 0.18453337302E+01 0.18279166606E+01 0.17810746901E+01
 0.17186133890E+01 0.16578466018E+01 0.16144091281E+01 0.15987379932E+01 0.16144433392E+01
 0.16578994290E+01 0.17186642542E+01 0.17811087217E+01 0.18279287745E+01 0.18453280444E+01
 0.18279906832E+01 0.17811824576E+01 0.20906495137E+01 0.19445943324E+01 0.18167025984E+01
 0.17196223794E+01 0.16578441748E+01 0.16285364068E+01 0.16230760631E+01 0.16295312469E+01
 0.16363179822E+01 0.16362778510E+01 0.16294478772E+01 0.16230271223E+01 0.16285745102E+01
 0.16579610020E+01 0.17197638843E+01 0.18168068048E+01 0.19446204708E+01 0.20905921130E+01
 0.22343869523E+01 0.23509209944E+01 0.24165082089E+01 0.24165502093E+01 0.23510241152E+01
 0.22344958888E+01 0.25427339114E+01 0.22805645935E+01 0.20479077928E+01 0.18592107801E+01
 0.17186936590E+01 0.16230760631E+01 0.15646154640E+01 0.15343156819E+01 0.15251028094E+01
 0.15343088463E+01 0.15646245449E+01 0.16231314638E+01 0.17188072053E+01 0.18593565617E+01
 0.20480300446E+01 0.22806099535E+01 0.25426820771E+01 0.28081114983E+01 0.30407703593E+01
 0.32014182351E+01 0.32589722237E+01 0.32015129818E+01 0.30409142480E+01 0.28082376804E+01
 0.30488680119E+01 0.26383505411E+01 0.22833233438E+01 0.19972268291E+01 0.17811940716E+01
 0.16295312469E+01 0.15343156819E+01 0.14886668551E+01 0.14886992138E+01 0.15343988725E+01
 0.16296389164E+01 0.17813081612E+01 0.19973355269E+01 0.22834144967E+01 0.26384179613E+01
 0.30489095349E+01 0.34842008178E+01 0.38950754854E+01 0.42200779622E+01 0.44006931473E+01
 0.44007273332E+01 0.42201476323E+01 0.38951212457E+01 0.34841972840E+01 0.35601271063E+01
 0.29758451788E+01 0.24898605436E+01 0.21091667830E+01 0.18280041384E+01 0.16363179822E+01
 0.15251028094E+01 0.14886992138E+01 0.15252126880E+01 0.16364803491E+01 0.18281660047E+01
 0.21093057847E+01 0.24899640367E+01 0.29759170027E+01 0.35602093350E+01 0.42130959239E+01
 0.48746060618E+01 0.54565915326E+01 0.58599305636E+01 0.60046520131E+01 0.58598722339E+01
 0.54564640960E+01 0.48744421887E+01 0.42129618501E+01 0.40077224179E+01 0.32421223632E+01
 0.26323470690E+01 0.21721272800E+01 0.18453337302E+01 0.16362778510E+01 0.15343088463E+01
 0.15343988725E+01 0.16364803491E+01 0.18455395234E+01 0.21723066967E+01 0.26325173032E+01
 0.32422724070E+01 0.40078514277E+01 0.49102329193E+01 0.58883606459E+01 0.68308190213E+01
 0.75885339450E+01 0.80139149621E+01 0.80138443922E+01 0.75883306971E+01 0.68305394147E+01
 0.58881092578E+01 0.49100653552E+01 0.43165237222E+01 0.33897333009E+01 0.26833044559E+01
 0.21720862618E+01 0.18279166606E+01 0.16294478772E+01 0.15646245449E+01 0.16296389164E+01
 0.18281660047E+01 0.21723066967E+01 0.26835081046E+01 0.33899238684E+01 0.43166790073E+01
 0.54668565125E+01 0.67947869407E+01 0.81815314132E+01 0.94322327149E+01 0.10314279618E+02
 0.10633625246E+02 0.10314184367E+02 0.94320067399E+01 0.81812302469E+01 0.67945366323E+01
 0.54666916948E+01 0.44270364631E+01 0.33897179290E+01 0.26322901587E+01 0.21090624392E+01
 0.17810746901E+01 0.16230271223E+01 0.16231314638E+01 0.17813081612E+01 0.21093057847E+01
 0.26325173032E+01 0.33899238684E+01 0.44271696333E+01 0.57777770060E+01 0.74296953086E+01
 0.92830786247E+01 0.11121778889E+02 0.12632823466E+02 0.13492706025E+02 0.13492694777E+02
 0.12632720755E+02 0.11121531758E+02 0.92828096381E+01 0.74295440145E+01 0.57776988707E+01
 0.43165086551E+01 0.32420886727E+01 0.24897831278E+01 0.19971093445E+01 0.17186133890E+01
 0.16285745102E+01 0.17188072053E+01 0.19973355269E+01 0.24899640367E+01 0.32422724070E+01
 0.43166790073E+01 0.57777770060E+01 0.76586781720E+01 0.99066861628E+01 0.12325791464E+02
 0.14559472464E+02 0.16160080977E+02 0.16744262158E+02 0.16160001374E+02 0.14559274528E+02
 0.12325557060E+02 0.99065630821E+01 0.76586542208E+01 0.57777028267E+01 0.40076903969E+01
 0.29758135181E+01 0.22832721814E+01 0.18591418210E+01 0.16578466018E+01 0.16579610020E+01
 0.18593565617E+01 0.22834144967E+01 0.29759170027E+01 0.40078514277E+01 0.54668565125E+01
 0.74296953086E+01 0.99066861628E+01 0.12763911181E+02 0.15662868880E+02 0.18084156952E+02
 0.19475400907E+02 0.19475351234E+02 0.18083996038E+02 0.15662643127E+02 0.12763755289E+02
 0.99066409025E+01 0.74296337732E+01 0.54666993360E+01 0.35600664856E+01 0.26383270160E+01
 0.20479108002E+01 0.17196431247E+01 0.16144091281E+01 0.17197638843E+01 0.20480300446E+01
 0.26384179613E+01 0.35602093350E+01 0.49102329193E+01 0.67947869407E+01 0.92830786247E+01
 0.12325791464E+02 0.15662868880E+02 0.18788615820E+02 0.21049697281E+02 0.21878792457E+02
 0.21049636922E+02 0.18788437018E+02 0.15662631485E+02 0.12325635450E+02 0.92830035557E+01
 0.67946682699E+01 0.49100515593E+01 0.30487755090E+01 0.22805480812E+01 0.18167574124E+01
 0.15987115790E+01 0.15987379932E+01 0.18168068048E+01 0.22806099535E+01 0.30489095349E+01
 0.42130959239E+01 0.58883606459E+01 0.81815314132E+01 0.11121778889E+02 0.14559472464E+02
 0.18084156952E+02 0.21049697281E+02 0.22760975211E+02 0.22760965426E+02 0.21049601695E+02
 0.18083925920E+02 0.14559221256E+02 0.11121626369E+02 0.81814188618E+01 0.58881802085E+01
 0.42128863629E+01 0.25426409704E+01 0.19445946363E+01 0.16144052250E+01 0.15089542087E+01
 0.16144433392E+01 0.19446204708E+01 0.25426820771E+01 0.34842008178E+01 0.48746060618E+01
 0.68308190213E+01 0.94322327149E+01 0.12632823466E+02 0.16160080977E+02 0.19475400907E+02
 0.21878792457E+02 0.22760965426E+02 0.21878729510E+02 0.19475232600E+02 0.16159837224E+02
 0.12632588143E+02 0.94320143571E+01 0.68305704187E+01 0.48743609339E+01 0.34840557319E+01
 0.20906053456E+01 0.16578752625E+01 0.14547262428E+01 0.14547491622E+01 0.16578994290E+01
 0.20905921130E+01 0.28081114983E+01 0.38950754854E+01 0.54565915326E+01 0.75885339450E+01
 0.10314279618E+02 0.13492706025E+02 0.16744262158E+02 0.19475351234E+02 0.21049636922E+02
 0.21049601695E+02 0.19475232600E+02 0.16744052667E+02 0.13492429315E+02 0.10313956649E+02
 0.75881823463E+01 0.54562808103E+01 0.38949035608E+01 0.28080855199E+01 0.17187161644E+01
 0.14329032435E+01 0.13414502279E+01 0.14328675873E+01 0.17186642542E+01 0.22343869523E+01
 0.30407703593E+01 0.42200779622E+01 0.58599305636E+01 0.80139149621E+01 0.10633625246E+02
 0.13492694777E+02 0.16160001374E+02 0.18083996038E+02 0.18788437018E+02 0.18083925920E+02
 0.16159837224E+02 0.13492429315E+02 0.10633287614E+02 0.80135544235E+01 0.58596061941E+01
 0.42198513393E+01 0.30406763461E+01 0.22344000650E+01 0.14341321300E+01 0.12702719842E+01
 0.12702160586E+01 0.14340186040E+01 0.17811087217E+01 0.23509209944E+01 0.32014182351E+01
 0.44006931473E+01 0.60046520131E+01 0.80138443922E+01 0.10314184367E+02 0.12632720755E+02
 0.14559274528E+02 0.15662643127E+02 0.15662631485E+02 0.14559221256E+02 0.12632588143E+02
 0.10313956649E+02 0.80135544235E+01 0.60043634080E+01 0.44004574325E+01 0.32012656189E+01