   2   2   0   0
  0.2001288E+02  0.3839590E-09  0.3839590E-09  0.3839590E-09  0.5000000E-15
  1.000000000000000E-004
  CAR 
 unknown system                          
     17.12579504     -8.04391509  301      6.19515118      1.00000000
     -8.044  0.0000E+00  0.0000E+00
     -7.960  0.0000E+00  0.0000E+00
     -7.876  0.0000E+00  0.0000E+00
     -7.792  0.0000E+00  0.0000E+00
     -7.708  0.0000E+00  0.0000E+00
     -7.624  0.0000E+00  0.0000E+00
     -7.541  0.0000E+00  0.0000E+00
     -7.457  0.0000E+00  0.0000E+00
     -7.373  0.0000E+00  0.0000E+00
     -7.289  0.0000E+00  0.0000E+00
     -7.205  0.1634E-17  0.1371E-18
     -7.121  0.1903E-15  0.1611E-16
     -7.037  0.1578E-13  0.1340E-14
     -6.953  0.9241E-12  0.7887E-13
     -6.869  0.3827E-10  0.3290E-11
     -6.785  0.1121E-08  0.9737E-10
     -6.702  0.2326E-07  0.2049E-08
     -6.618  0.3418E-06  0.3073E-07
     -6.534  0.3561E-05  0.3295E-06
     -6.450  0.2635E-04  0.2540E-05
     -6.366  0.1388E-03  0.1419E-04
     -6.282  0.5247E-03  0.5821E-04
     -6.198  0.1446E-02  0.1795E-03
     -6.114  0.3019E-02  0.4328E-03
     -6.030  0.5134E-02  0.8636E-03
     -5.946  0.7750E-02  0.1514E-02
     -5.863  0.1075E-01  0.2416E-02
     -5.779  0.1337E-01  0.3538E-02
     -5.695  0.1488E-01  0.4786E-02
     -5.611  0.1564E-01  0.6099E-02
     -5.527  0.1640E-01  0.7475E-02
     -5.443  0.1763E-01  0.8954E-02
     -5.359  0.1967E-01  0.1060E-01
     -5.275  0.2241E-01  0.1248E-01
     -5.191  0.2540E-01  0.1461E-01
     -5.107  0.2765E-01  0.1693E-01
     -5.024  0.2756E-01  0.1925E-01
     -4.940  0.2497E-01  0.2134E-01
     -4.856  0.2231E-01  0.2321E-01
     -4.772  0.2249E-01  0.2510E-01
     -4.688  0.2657E-01  0.2733E-01
     -4.604  0.3315E-01  0.3011E-01
     -4.520  0.3943E-01  0.3342E-01
     -4.436  0.4268E-01  0.3700E-01
     -4.352  0.4129E-01  0.4046E-01
     -4.268  0.3671E-01  0.4354E-01
     -4.185  0.3349E-01  0.4635E-01
     -4.101  0.3534E-01  0.4932E-01
     -4.017  0.4145E-01  0.5280E-01
     -3.933  0.4722E-01  0.5676E-01
     -3.849  0.4885E-01  0.6086E-01
     -3.765  0.4742E-01  0.6483E-01
     -3.681  0.4768E-01  0.6884E-01
     -3.597  0.5291E-01  0.7327E-01
     -3.513  0.6095E-01  0.7839E-01
     -3.429  0.6630E-01  0.8395E-01
     -3.346  0.6614E-01  0.8950E-01
     -3.262  0.6079E-01  0.9460E-01
     -3.178  0.5021E-01  0.9881E-01
     -3.094  0.3637E-01  0.1019E+00
     -3.010  0.2574E-01  0.1040E+00
     -2.926  0.2284E-01  0.1059E+00
     -2.842  0.2507E-01  0.1080E+00
     -2.758  0.2827E-01  0.1104E+00
     -2.674  0.3331E-01  0.1132E+00
     -2.590  0.4215E-01  0.1167E+00
     -2.507  0.5094E-01  0.1210E+00
     -2.423  0.5243E-01  0.1254E+00
     -2.339  0.4366E-01  0.1291E+00
     -2.255  0.2868E-01  0.1315E+00
     -2.171  0.1452E-01  0.1327E+00
     -2.087  0.5541E-02  0.1332E+00
     -2.003  0.1564E-02  0.1333E+00
     -1.919  0.3235E-03  0.1333E+00
     -1.835  0.6942E-04  0.1333E+00
     -1.751  0.1898E-03  0.1334E+00
     -1.668  0.1123E-02  0.1334E+00
     -1.584  0.4860E-02  0.1339E+00
     -1.500  0.1504E-01  0.1351E+00
     -1.416  0.3340E-01  0.1379E+00
     -1.332  0.5384E-01  0.1424E+00
     -1.248  0.6497E-01  0.1479E+00
     -1.164  0.6392E-01  0.1532E+00
     -1.080  0.6073E-01  0.1583E+00
     -0.996  0.6278E-01  0.1636E+00
     -0.912  0.6404E-01  0.1690E+00
     -0.829  0.5743E-01  0.1738E+00
     -0.745  0.4902E-01  0.1779E+00
     -0.661  0.5028E-01  0.1821E+00
     -0.577  0.6017E-01  0.1872E+00
     -0.493  0.6479E-01  0.1926E+00
     -0.409  0.5590E-01  0.1973E+00
     -0.325  0.4097E-01  0.2007E+00
     -0.241  0.3140E-01  0.2034E+00
     -0.157  0.2948E-01  0.2059E+00
     -0.074  0.3203E-01  0.2085E+00
      0.010  0.3836E-01  0.2118E+00
      0.094  0.4693E-01  0.2157E+00
      0.178  0.5038E-01  0.2199E+00
      0.262  0.4239E-01  0.2235E+00
      0.346  0.2658E-01  0.2257E+00
      0.430  0.1223E-01  0.2267E+00
      0.514  0.4476E-02  0.2271E+00
      0.598  0.3036E-02  0.2274E+00
      0.682  0.6974E-02  0.2280E+00
      0.765  0.1630E-01  0.2293E+00
      0.849  0.2867E-01  0.2317E+00
      0.933  0.3747E-01  0.2349E+00
      1.017  0.3655E-01  0.2379E+00
      1.101  0.2691E-01  0.2402E+00
      1.185  0.1601E-01  0.2415E+00
      1.269  0.1077E-01  0.2424E+00
      1.353  0.1308E-01  0.2435E+00
      1.437  0.2142E-01  0.2453E+00
      1.521  0.3378E-01  0.2482E+00
      1.604  0.4813E-01  0.2522E+00
      1.688  0.6216E-01  0.2574E+00
      1.772  0.7393E-01  0.2636E+00
      1.856  0.8077E-01  0.2704E+00
      1.940  0.7907E-01  0.2770E+00
      2.024  0.6907E-01  0.2828E+00
      2.108  0.5809E-01  0.2877E+00
      2.192  0.5569E-01  0.2924E+00
      2.276  0.6543E-01  0.2979E+00
      2.360  0.7961E-01  0.3045E+00
      2.443  0.8528E-01  0.3117E+00
      2.527  0.7817E-01  0.3183E+00
      2.611  0.6662E-01  0.3238E+00
      2.695  0.6191E-01  0.3290E+00
      2.779  0.6927E-01  0.3349E+00
      2.863  0.8455E-01  0.3419E+00
      2.947  0.9655E-01  0.3500E+00
      3.031  0.9825E-01  0.3583E+00
      3.115  0.9554E-01  0.3663E+00
      3.199  0.9777E-01  0.3745E+00
      3.282  0.1035E+00  0.3832E+00
      3.366  0.1044E+00  0.3920E+00
      3.450  0.9804E-01  0.4002E+00
      3.534  0.8971E-01  0.4077E+00
      3.618  0.8526E-01  0.4149E+00
      3.702  0.8366E-01  0.4219E+00
      3.786  0.8042E-01  0.4286E+00
      3.870  0.7718E-01  0.4351E+00
      3.954  0.7876E-01  0.4417E+00
      4.038  0.8416E-01  0.4488E+00
      4.121  0.8966E-01  0.4563E+00
      4.205  0.9405E-01  0.4642E+00
      4.289  0.9526E-01  0.4722E+00
      4.373  0.8996E-01  0.4797E+00
      4.457  0.7872E-01  0.4863E+00
      4.541  0.6540E-01  0.4918E+00
      4.625  0.5325E-01  0.4963E+00
      4.709  0.4593E-01  0.5001E+00
      4.793  0.4660E-01  0.5040E+00
      4.877  0.5243E-01  0.5084E+00
      4.960  0.5536E-01  0.5131E+00
      5.044  0.5081E-01  0.5173E+00
      5.128  0.4124E-01  0.5208E+00
      5.212  0.3124E-01  0.5234E+00
      5.296  0.2330E-01  0.5254E+00
      5.380  0.1821E-01  0.5269E+00
      5.464  0.1586E-01  0.5282E+00
      5.548  0.1505E-01  0.5295E+00
      5.632  0.1408E-01  0.5307E+00
      5.716  0.1214E-01  0.5317E+00
      5.799  0.9249E-02  0.5325E+00
      5.883  0.5867E-02  0.5330E+00
      5.967  0.2899E-02  0.5332E+00
      6.051  0.1065E-02  0.5333E+00
      6.135  0.2860E-03  0.5333E+00
      6.219  0.7851E-04  0.5333E+00
      6.303  0.1704E-03  0.5333E+00
      6.387  0.7811E-03  0.5334E+00
      6.471  0.2706E-02  0.5336E+00
      6.555  0.6859E-02  0.5342E+00
      6.638  0.1285E-01  0.5353E+00
      6.722  0.1805E-01  0.5368E+00
      6.806  0.1958E-01  0.5385E+00
      6.890  0.1805E-01  0.5400E+00
      6.974  0.1787E-01  0.5415E+00
      7.058  0.2247E-01  0.5434E+00
      7.142  0.3018E-01  0.5459E+00
      7.226  0.3723E-01  0.5490E+00
      7.310  0.4301E-01  0.5526E+00
      7.394  0.4885E-01  0.5567E+00
      7.477  0.5385E-01  0.5612E+00
      7.561  0.5608E-01  0.5659E+00
      7.645  0.5556E-01  0.5706E+00
      7.729  0.5484E-01  0.5752E+00
      7.813  0.5915E-01  0.5802E+00
      7.897  0.7254E-01  0.5862E+00
      7.981  0.9083E-01  0.5939E+00
      8.065  0.1029E+00  0.6025E+00
      8.149  0.1011E+00  0.6110E+00
      8.232  0.8875E-01  0.6184E+00
      8.316  0.7641E-01  0.6248E+00
      8.400  0.7461E-01  0.6311E+00
      8.484  0.8490E-01  0.6382E+00
      8.568  0.9618E-01  0.6463E+00
      8.652  0.9637E-01  0.6544E+00
      8.736  0.8766E-01  0.6617E+00
      8.820  0.8298E-01  0.6687E+00
      8.904  0.8898E-01  0.6762E+00
      8.988  0.1001E+00  0.6846E+00
      9.071  0.1083E+00  0.6937E+00
      9.155  0.1092E+00  0.7028E+00
      9.239  0.1029E+00  0.7114E+00
      9.323  0.9677E-01  0.7196E+00
      9.407  0.9972E-01  0.7279E+00
      9.491  0.1104E+00  0.7372E+00
      9.575  0.1186E+00  0.7471E+00
      9.659  0.1179E+00  0.7570E+00
      9.743  0.1095E+00  0.7662E+00
      9.827  0.9875E-01  0.7745E+00
      9.910  0.8996E-01  0.7820E+00
      9.994  0.8433E-01  0.7891E+00
     10.078  0.8094E-01  0.7959E+00
     10.162  0.7845E-01  0.8025E+00
     10.246  0.7715E-01  0.8090E+00
     10.330  0.8021E-01  0.8157E+00
     10.414  0.8900E-01  0.8232E+00
     10.498  0.9747E-01  0.8313E+00
     10.582  0.9798E-01  0.8396E+00
     10.666  0.9231E-01  0.8473E+00
     10.749  0.8904E-01  0.8548E+00
     10.833  0.9161E-01  0.8625E+00
     10.917  0.9510E-01  0.8704E+00
     11.001  0.9292E-01  0.8782E+00
     11.085  0.8327E-01  0.8852E+00
     11.169  0.7005E-01  0.8911E+00
     11.253  0.5772E-01  0.8959E+00
     11.337  0.4680E-01  0.8999E+00
     11.421  0.3796E-01  0.9031E+00
     11.505  0.3665E-01  0.9061E+00
     11.588  0.4801E-01  0.9102E+00
     11.672  0.6884E-01  0.9159E+00
     11.756  0.8968E-01  0.9235E+00
     11.840  0.1047E+00  0.9322E+00
     11.924  0.1130E+00  0.9417E+00
     12.008  0.1117E+00  0.9511E+00
     12.092  0.9831E-01  0.9593E+00
     12.176  0.7824E-01  0.9659E+00
     12.260  0.6011E-01  0.9709E+00
     12.344  0.4778E-01  0.9750E+00
     12.427  0.4111E-01  0.9784E+00
     12.511  0.3969E-01  0.9817E+00
     12.595  0.4298E-01  0.9853E+00
     12.679  0.4765E-01  0.9893E+00
     12.763  0.4768E-01  0.9933E+00
     12.847  0.4202E-01  0.9969E+00
     12.931  0.3820E-01  0.1000E+01
     13.015  0.4207E-01  0.1004E+01
     13.099  0.4862E-01  0.1008E+01
     13.183  0.4961E-01  0.1012E+01
     13.266  0.4640E-01  0.1016E+01
     13.350  0.4804E-01  0.1020E+01
     13.434  0.5823E-01  0.1025E+01
     13.518  0.6909E-01  0.1030E+01
     13.602  0.6938E-01  0.1036E+01
     13.686  0.5747E-01  0.1041E+01
     13.770  0.4212E-01  0.1045E+01
     13.854  0.3089E-01  0.1047E+01
     13.938  0.2346E-01  0.1049E+01
     14.022  0.1647E-01  0.1051E+01
     14.105  0.9528E-02  0.1051E+01
     14.189  0.4589E-02  0.1052E+01
     14.273  0.3212E-02  0.1052E+01
     14.357  0.5971E-02  0.1053E+01
     14.441  0.1225E-01  0.1054E+01
     14.525  0.1871E-01  0.1055E+01
     14.609  0.2042E-01  0.1057E+01
     14.693  0.1606E-01  0.1058E+01
     14.777  0.9950E-02  0.1059E+01
     14.861  0.7462E-02  0.1060E+01
     14.944  0.1038E-01  0.1061E+01
     15.028  0.1613E-01  0.1062E+01
     15.112  0.1969E-01  0.1064E+01
     15.196  0.1773E-01  0.1065E+01
     15.280  0.1167E-01  0.1066E+01
     15.364  0.5600E-02  0.1066E+01
     15.448  0.1953E-02  0.1067E+01
     15.532  0.4930E-03  0.1067E+01
     15.616  0.8972E-04  0.1067E+01
     15.700  0.1173E-04  0.1067E+01
     15.783  0.1097E-05  0.1067E+01
     15.867  0.7327E-07  0.1067E+01
     15.951  0.3484E-08  0.1067E+01
     16.035  0.1177E-09  0.1067E+01
     16.119  0.2822E-11  0.1067E+01
     16.203  0.4793E-13  0.1067E+01
     16.287  0.5783E-15  0.1067E+01
     16.371  0.4901E-17  0.1067E+01
     16.455  0.0000E+00  0.1067E+01
     16.539  0.0000E+00  0.1067E+01
     16.622  0.0000E+00  0.1067E+01
     16.706  0.0000E+00  0.1067E+01
     16.790  0.0000E+00  0.1067E+01
     16.874  0.0000E+00  0.1067E+01
     16.958  0.0000E+00  0.1067E+01
     17.042  0.0000E+00  0.1067E+01
     17.126  0.0000E+00  0.1067E+01
