   2   2   0   0
  0.2001288E+02  0.3839590E-09  0.3839590E-09  0.3839590E-09  0.5000000E-15
  1.000000000000000E-004
  CAR 
 unknown system                          
     17.12456286     -8.04509168  301      6.19339386      1.00000000
     -8.045  0.0000E+00  0.0000E+00
     -7.961  0.0000E+00  0.0000E+00
     -7.877  0.0000E+00  0.0000E+00
     -7.793  0.0000E+00  0.0000E+00
     -7.709  0.0000E+00  0.0000E+00
     -7.626  0.0000E+00  0.0000E+00
     -7.542  0.0000E+00  0.0000E+00
     -7.458  0.0000E+00  0.0000E+00
     -7.374  0.0000E+00  0.0000E+00
     -7.290  0.0000E+00  0.0000E+00
     -7.206  0.1634E-17  0.1371E-18
     -7.122  0.1903E-15  0.1611E-16
     -7.038  0.1578E-13  0.1340E-14
     -6.954  0.9239E-12  0.7886E-13
     -6.871  0.3827E-10  0.3289E-11
     -6.787  0.1121E-08  0.9736E-10
     -6.703  0.2326E-07  0.2049E-08
     -6.619  0.3418E-06  0.3072E-07
     -6.535  0.3561E-05  0.3295E-06
     -6.451  0.2635E-04  0.2540E-05
     -6.367  0.1388E-03  0.1419E-04
     -6.283  0.5246E-03  0.5820E-04
     -6.199  0.1446E-02  0.1795E-03
     -6.115  0.3019E-02  0.4328E-03
     -6.032  0.5134E-02  0.8635E-03
     -5.948  0.7749E-02  0.1514E-02
     -5.864  0.1075E-01  0.2416E-02
     -5.780  0.1337E-01  0.3538E-02
     -5.696  0.1488E-01  0.4786E-02
     -5.612  0.1564E-01  0.6098E-02
     -5.528  0.1640E-01  0.7474E-02
     -5.444  0.1763E-01  0.8953E-02
     -5.360  0.1966E-01  0.1060E-01
     -5.276  0.2241E-01  0.1248E-01
     -5.193  0.2539E-01  0.1461E-01
     -5.109  0.2764E-01  0.1693E-01
     -5.025  0.2756E-01  0.1924E-01
     -4.941  0.2497E-01  0.2134E-01
     -4.857  0.2231E-01  0.2321E-01
     -4.773  0.2248E-01  0.2510E-01
     -4.689  0.2656E-01  0.2733E-01
     -4.605  0.3315E-01  0.3011E-01
     -4.521  0.3943E-01  0.3342E-01
     -4.437  0.4268E-01  0.3700E-01
     -4.354  0.4130E-01  0.4046E-01
     -4.270  0.3671E-01  0.4354E-01
     -4.186  0.3349E-01  0.4635E-01
     -4.102  0.3533E-01  0.4931E-01
     -4.018  0.4144E-01  0.5279E-01
     -3.934  0.4721E-01  0.5675E-01
     -3.850  0.4885E-01  0.6085E-01
     -3.766  0.4742E-01  0.6483E-01
     -3.682  0.4768E-01  0.6883E-01
     -3.598  0.5290E-01  0.7327E-01
     -3.515  0.6094E-01  0.7838E-01
     -3.431  0.6629E-01  0.8394E-01
     -3.347  0.6614E-01  0.8949E-01
     -3.263  0.6081E-01  0.9459E-01
     -3.179  0.5024E-01  0.9881E-01
     -3.095  0.3640E-01  0.1019E+00
     -3.011  0.2575E-01  0.1040E+00
     -2.927  0.2284E-01  0.1059E+00
     -2.843  0.2507E-01  0.1080E+00
     -2.759  0.2826E-01  0.1104E+00
     -2.676  0.3330E-01  0.1132E+00
     -2.592  0.4214E-01  0.1167E+00
     -2.508  0.5093E-01  0.1210E+00
     -2.424  0.5243E-01  0.1254E+00
     -2.340  0.4368E-01  0.1291E+00
     -2.256  0.2871E-01  0.1315E+00
     -2.172  0.1454E-01  0.1327E+00
     -2.088  0.5554E-02  0.1332E+00
     -2.004  0.1569E-02  0.1333E+00
     -1.920  0.3248E-03  0.1333E+00
     -1.837  0.6955E-04  0.1333E+00
     -1.753  0.1891E-03  0.1334E+00
     -1.669  0.1119E-02  0.1334E+00
     -1.585  0.4848E-02  0.1339E+00
     -1.501  0.1501E-01  0.1351E+00
     -1.417  0.3336E-01  0.1379E+00
     -1.333  0.5382E-01  0.1424E+00
     -1.249  0.6498E-01  0.1479E+00
     -1.165  0.6395E-01  0.1532E+00
     -1.081  0.6077E-01  0.1583E+00
     -0.998  0.6280E-01  0.1636E+00
     -0.914  0.6405E-01  0.1690E+00
     -0.830  0.5743E-01  0.1738E+00
     -0.746  0.4902E-01  0.1779E+00
     -0.662  0.5027E-01  0.1821E+00
     -0.578  0.6016E-01  0.1872E+00
     -0.494  0.6479E-01  0.1926E+00
     -0.410  0.5590E-01  0.1973E+00
     -0.326  0.4097E-01  0.2007E+00
     -0.242  0.3139E-01  0.2034E+00
     -0.159  0.2948E-01  0.2058E+00
     -0.075  0.3203E-01  0.2085E+00
      0.009  0.3836E-01  0.2118E+00
      0.093  0.4694E-01  0.2157E+00
      0.177  0.5039E-01  0.2199E+00
      0.261  0.4241E-01  0.2235E+00
      0.345  0.2659E-01  0.2257E+00
      0.429  0.1223E-01  0.2267E+00
      0.513  0.4479E-02  0.2271E+00
      0.596  0.3034E-02  0.2274E+00
      0.680  0.6966E-02  0.2279E+00
      0.764  0.1629E-01  0.2293E+00
      0.848  0.2866E-01  0.2317E+00
      0.932  0.3747E-01  0.2349E+00
      1.016  0.3656E-01  0.2379E+00
      1.100  0.2692E-01  0.2402E+00
      1.184  0.1602E-01  0.2415E+00
      1.268  0.1077E-01  0.2424E+00
      1.352  0.1308E-01  0.2435E+00
      1.435  0.2143E-01  0.2453E+00
      1.519  0.3381E-01  0.2482E+00
      1.603  0.4815E-01  0.2522E+00
      1.687  0.6216E-01  0.2574E+00
      1.771  0.7392E-01  0.2636E+00
      1.855  0.8075E-01  0.2704E+00
      1.939  0.7905E-01  0.2770E+00
      2.023  0.6906E-01  0.2828E+00
      2.107  0.5808E-01  0.2877E+00
      2.191  0.5569E-01  0.2924E+00
      2.274  0.6543E-01  0.2979E+00
      2.358  0.7960E-01  0.3045E+00
      2.442  0.8526E-01  0.3117E+00
      2.526  0.7815E-01  0.3183E+00
      2.610  0.6660E-01  0.3238E+00
      2.694  0.6188E-01  0.3290E+00
      2.778  0.6924E-01  0.3348E+00
      2.862  0.8451E-01  0.3419E+00
      2.946  0.9653E-01  0.3500E+00
      3.030  0.9824E-01  0.3583E+00
      3.113  0.9552E-01  0.3663E+00
      3.197  0.9774E-01  0.3745E+00
      3.281  0.1035E+00  0.3832E+00
      3.365  0.1044E+00  0.3919E+00
      3.449  0.9804E-01  0.4002E+00
      3.533  0.8971E-01  0.4077E+00
      3.617  0.8526E-01  0.4148E+00
      3.701  0.8366E-01  0.4219E+00
      3.785  0.8044E-01  0.4286E+00
      3.869  0.7719E-01  0.4351E+00
      3.952  0.7875E-01  0.4417E+00
      4.036  0.8414E-01  0.4487E+00
      4.120  0.8963E-01  0.4563E+00
      4.204  0.9403E-01  0.4642E+00
      4.288  0.9527E-01  0.4721E+00
      4.372  0.8999E-01  0.4797E+00
      4.456  0.7877E-01  0.4863E+00
      4.540  0.6545E-01  0.4918E+00
      4.624  0.5329E-01  0.4963E+00
      4.708  0.4594E-01  0.5001E+00
      4.791  0.4659E-01  0.5040E+00
      4.875  0.5241E-01  0.5084E+00
      4.959  0.5536E-01  0.5131E+00
      5.043  0.5083E-01  0.5173E+00
      5.127  0.4128E-01  0.5208E+00
      5.211  0.3126E-01  0.5234E+00
      5.295  0.2332E-01  0.5254E+00
      5.379  0.1822E-01  0.5269E+00
      5.463  0.1587E-01  0.5282E+00
      5.547  0.1506E-01  0.5295E+00
      5.630  0.1409E-01  0.5307E+00
      5.714  0.1214E-01  0.5317E+00
      5.798  0.9254E-02  0.5325E+00
      5.882  0.5870E-02  0.5330E+00
      5.966  0.2901E-02  0.5332E+00
      6.050  0.1066E-02  0.5333E+00
      6.134  0.2864E-03  0.5333E+00
      6.218  0.7928E-04  0.5333E+00
      6.302  0.1742E-03  0.5333E+00
      6.386  0.7960E-03  0.5334E+00
      6.469  0.2745E-02  0.5336E+00
      6.553  0.6929E-02  0.5342E+00
      6.637  0.1293E-01  0.5353E+00
      6.721  0.1809E-01  0.5368E+00
      6.805  0.1957E-01  0.5385E+00
      6.889  0.1802E-01  0.5400E+00
      6.973  0.1788E-01  0.5415E+00
      7.057  0.2254E-01  0.5434E+00
      7.141  0.3027E-01  0.5459E+00
      7.224  0.3730E-01  0.5490E+00
      7.308  0.4306E-01  0.5527E+00
      7.392  0.4889E-01  0.5568E+00
      7.476  0.5386E-01  0.5613E+00
      7.560  0.5605E-01  0.5660E+00
      7.644  0.5553E-01  0.5706E+00
      7.728  0.5483E-01  0.5752E+00
      7.812  0.5919E-01  0.5802E+00
      7.896  0.7263E-01  0.5863E+00
      7.980  0.9090E-01  0.5939E+00
      8.063  0.1028E+00  0.6026E+00
      8.147  0.1010E+00  0.6110E+00
      8.231  0.8863E-01  0.6185E+00
      8.315  0.7633E-01  0.6249E+00
      8.399  0.7461E-01  0.6311E+00
      8.483  0.8493E-01  0.6383E+00
      8.567  0.9618E-01  0.6463E+00
      8.651  0.9632E-01  0.6544E+00
      8.735  0.8764E-01  0.6618E+00
      8.819  0.8303E-01  0.6687E+00
      8.902  0.8902E-01  0.6762E+00
      8.986  0.1001E+00  0.6846E+00
      9.070  0.1082E+00  0.6937E+00
      9.154  0.1090E+00  0.7028E+00
      9.238  0.1027E+00  0.7114E+00
      9.322  0.9664E-01  0.7195E+00
      9.406  0.9967E-01  0.7279E+00
      9.490  0.1104E+00  0.7372E+00
      9.574  0.1188E+00  0.7471E+00
      9.658  0.1181E+00  0.7570E+00
      9.741  0.1096E+00  0.7662E+00
      9.825  0.9877E-01  0.7745E+00
      9.909  0.8995E-01  0.7821E+00
      9.993  0.8438E-01  0.7891E+00
     10.077  0.8104E-01  0.7959E+00
     10.161  0.7851E-01  0.8025E+00
     10.245  0.7709E-01  0.8090E+00
     10.329  0.8004E-01  0.8157E+00
     10.413  0.8882E-01  0.8232E+00
     10.497  0.9738E-01  0.8313E+00
     10.580  0.9801E-01  0.8396E+00
     10.664  0.9241E-01  0.8473E+00
     10.748  0.8914E-01  0.8548E+00
     10.832  0.9168E-01  0.8625E+00
     10.916  0.9514E-01  0.8705E+00
     11.000  0.9292E-01  0.8783E+00
     11.084  0.8322E-01  0.8852E+00
     11.168  0.6999E-01  0.8911E+00
     11.252  0.5770E-01  0.8960E+00
     11.336  0.4682E-01  0.8999E+00
     11.419  0.3799E-01  0.9031E+00
     11.503  0.3666E-01  0.9061E+00
     11.587  0.4801E-01  0.9102E+00
     11.671  0.6881E-01  0.9159E+00
     11.755  0.8962E-01  0.9235E+00
     11.839  0.1047E+00  0.9322E+00
     11.923  0.1130E+00  0.9417E+00
     12.007  0.1117E+00  0.9511E+00
     12.091  0.9834E-01  0.9594E+00
     12.175  0.7823E-01  0.9659E+00
     12.258  0.6008E-01  0.9710E+00
     12.342  0.4775E-01  0.9750E+00
     12.426  0.4110E-01  0.9784E+00
     12.510  0.3970E-01  0.9817E+00
     12.594  0.4303E-01  0.9854E+00
     12.678  0.4771E-01  0.9894E+00
     12.762  0.4770E-01  0.9934E+00
     12.846  0.4197E-01  0.9969E+00
     12.930  0.3814E-01  0.1000E+01
     13.014  0.4206E-01  0.1004E+01
     13.097  0.4865E-01  0.1008E+01
     13.181  0.4967E-01  0.1012E+01
     13.265  0.4645E-01  0.1016E+01
     13.349  0.4805E-01  0.1020E+01
     13.433  0.5820E-01  0.1025E+01
     13.517  0.6906E-01  0.1030E+01
     13.601  0.6943E-01  0.1036E+01
     13.685  0.5762E-01  0.1041E+01
     13.769  0.4226E-01  0.1045E+01
     13.853  0.3090E-01  0.1047E+01
     13.936  0.2333E-01  0.1049E+01
     14.020  0.1630E-01  0.1051E+01
     14.104  0.9394E-02  0.1051E+01
     14.188  0.4519E-02  0.1052E+01
     14.272  0.3183E-02  0.1052E+01
     14.356  0.5956E-02  0.1053E+01
     14.440  0.1224E-01  0.1054E+01
     14.524  0.1871E-01  0.1055E+01
     14.608  0.2043E-01  0.1057E+01
     14.691  0.1607E-01  0.1058E+01
     14.775  0.9954E-02  0.1059E+01
     14.859  0.7452E-02  0.1060E+01
     14.943  0.1037E-01  0.1061E+01
     15.027  0.1612E-01  0.1062E+01
     15.111  0.1970E-01  0.1064E+01
     15.195  0.1775E-01  0.1065E+01
     15.279  0.1169E-01  0.1066E+01
     15.363  0.5610E-02  0.1066E+01
     15.447  0.1956E-02  0.1067E+01
     15.530  0.4938E-03  0.1067E+01
     15.614  0.8985E-04  0.1067E+01
     15.698  0.1174E-04  0.1067E+01
     15.782  0.1098E-05  0.1067E+01
     15.866  0.7333E-07  0.1067E+01
     15.950  0.3486E-08  0.1067E+01
     16.034  0.1178E-09  0.1067E+01
     16.118  0.2823E-11  0.1067E+01
     16.202  0.4795E-13  0.1067E+01
     16.286  0.5783E-15  0.1067E+01
     16.369  0.4901E-17  0.1067E+01
     16.453  0.0000E+00  0.1067E+01
     16.537  0.0000E+00  0.1067E+01
     16.621  0.0000E+00  0.1067E+01
     16.705  0.0000E+00  0.1067E+01
     16.789  0.0000E+00  0.1067E+01
     16.873  0.0000E+00  0.1067E+01
     16.957  0.0000E+00  0.1067E+01
     17.041  0.0000E+00  0.1067E+01
     17.125  0.0000E+00  0.1067E+01
