    2    2   15    1
  0.2001288E+02  0.3839590E-09  0.3839590E-09  0.3839590E-09  0.5000000E-15
  1.000000000000000E-004
  CAR 
 unknown system                          
      8     28      8
 
  0.8333333E-01  0.8333333E-01  0.8333333E-01  0.9259259E-02
    1       -6.043915   1.000000
    2        5.007652   1.000000
    3        5.730194   0.999495
    4        5.730194   0.999495
    5        8.493961   0.000000
    6        8.669432   0.000000
    7        8.669432   0.000000
    8        9.876503   0.000000
 
  0.2500000E+00  0.8333333E-01  0.8333333E-01  0.2777778E-01
    1       -5.564828   1.000000
    2        2.909879   1.000000
    3        4.472894   1.000000
    4        5.515318   0.999999
    5        8.608775   0.000000
    6        9.069805   0.000000
    7        9.446722   0.000000
    8       11.634252   0.000000
 
  0.4166667E+00  0.8333333E-01  0.8333333E-01  0.2777778E-01
    1       -4.465960   1.000000
    2        0.121727   1.000000
    3        4.003545   1.000000
    4        4.863574   1.000000
    5        8.102769   0.000000
    6        9.487053   0.000000
    7        9.526623   0.000000
    8       13.406597   0.000000
 
 -0.4166667E+00  0.8333333E-01  0.8333333E-01  0.2777778E-01
    1       -3.761538   1.000000
    2       -1.033908   1.000000
    3        4.070586   1.000000
    4        4.476871   1.000000
    5        7.931346   0.000000
    6        9.202200   0.000000
    7        9.642645   0.000000
    8       13.819349   0.000000
 
 -0.2500000E+00  0.8333333E-01  0.8333333E-01  0.2777778E-01
    1       -4.880493   1.000000
    2        0.975825   1.000000
    3        4.538032   1.000000
    4        4.579522   1.000000
    5        8.193569   0.000000
    6        9.215883   0.000000
    7       10.026721   0.000000
    8       11.950424   0.000000
 
 -0.8333333E-01  0.8333333E-01  0.8333333E-01  0.2777778E-01
    1       -5.802071   1.000000
    2        3.931200   1.000000
    3        5.071809   1.000000
    4        5.264685   1.000000
    5        8.206066   0.000000
    6        9.116835   0.000000
    7        9.593581   0.000000
    8       10.783236   0.000000
 
  0.2500000E+00  0.2500000E+00  0.8333333E-01  0.2777778E-01
    1       -5.322408   1.000000
    2        2.725099   1.000000
    3        4.316718   1.000000
    4        4.327966   1.000000
    5        7.619339   0.000000
    6        9.817224   0.000000
    7       10.624502   0.000000
    8       10.840999   0.000000
 
  0.4166667E+00  0.2500000E+00  0.8333333E-01  0.5555556E-01
    1       -4.406755   1.000000
    2        0.871802   1.000000
    3        2.981457   1.000000
    4        3.935417   1.000000
    5        8.030722   0.000000
    6        9.681627   0.000000
    7       10.493620   0.000000
    8       11.978239   0.000000
 
 -0.4166667E+00  0.2500000E+00  0.8333333E-01  0.5555556E-01
    1       -3.281866   1.000000
    2       -0.898644   1.000000
    3        2.375305   1.000000
    4        3.702931   1.000000
    5        8.282389   0.000000
    6        9.859920   0.000000
    7       11.851914   0.000000
    8       12.231591   0.000000
 
 -0.2500000E+00  0.2500000E+00  0.8333333E-01  0.5555556E-01
    1       -4.009573   1.000000
    2        0.171163   1.000000
    3        2.331557   1.000000
    4        4.198187   1.000000
    5        8.895699   0.000000
    6        9.532076   0.000000
    7       11.225667   0.000000
    8       11.738725   0.000000
 
 -0.8333333E-01  0.2500000E+00  0.8333333E-01  0.5555556E-01
    1       -5.095649   1.000000
    2        1.878615   1.000000
    3        3.686853   1.000000
    4        4.879703   1.000000
    5        8.524860   0.000000
    6        9.418104   0.000000
    7       10.494866   0.000000
    8       10.862405   0.000000
 
  0.4166667E+00  0.4166667E+00  0.8333333E-01  0.2777778E-01
    1       -3.691583   1.000000
    2        0.043138   1.000000
    3        2.939424   1.000000
    4        3.281444   1.000000
    5        6.792791   0.000012
    6        7.767485   0.000000
    7       13.552802   0.000000
    8       13.607715   0.000000
 
 -0.4166667E+00  0.4166667E+00  0.8333333E-01  0.5555556E-01
    1       -2.487790   1.000000
    2       -1.306077   1.000000
    3        2.089421   1.000000
    4        2.871050   1.000000
    5        7.418387   0.000000
    6        8.551575   0.000000
    7       13.070990   0.000000
    8       14.545978   0.000000
 
 -0.2500000E+00  0.4166667E+00  0.8333333E-01  0.5555556E-01
    1       -2.859642   1.000000
    2       -0.973422   1.000000
    3        1.603369   1.000000
    4        3.423094   1.000000
    5        8.047368   0.000000
    6       11.002783   0.000000
    7       12.002912   0.000000
    8       12.663983   0.000000
 
 -0.8333333E-01  0.4166667E+00  0.8333333E-01  0.5555556E-01
    1       -3.896189   1.000000
    2       -0.525278   1.000000
    3        3.285999   1.000000
    4        4.298016   1.000000
    5        8.502519   0.000000
    6        9.129713   0.000000
    7       10.482718   0.000000
    8       12.731072   0.000000
 
 -0.4166667E+00 -0.4166667E+00  0.8333333E-01  0.2777778E-01
    1       -2.580826   1.000000
    2       -1.314420   1.000000
    3        2.665907   1.000000
    4        3.062727   1.000000
    5        6.677315   0.000326
    6        7.244496   0.000000
    7       15.042971   0.000000
    8       15.125795   0.000000
 
 -0.2500000E+00 -0.4166667E+00  0.8333333E-01  0.5555556E-01
    1       -3.521610   1.000000
    2       -0.182886   1.000000
    3        2.415783   1.000000
    4        3.215545   1.000000
    5        7.631103   0.000000
    6        8.925545   0.000000
    7       11.700882   0.000000
    8       13.546457   0.000000
 
 -0.2500000E+00 -0.2500000E+00  0.8333333E-01  0.2777778E-01
    1       -4.613900   1.000000
    2        1.417474   1.000000
    3        3.492284   1.000000
    4        3.709484   1.000000
    5        7.111006   0.000000
    6        8.697246   0.000000
    7       11.992070   0.000000
    8       12.190922   0.000000
 
  0.2500000E+00  0.2500000E+00  0.2500000E+00  0.9259259E-02
    1       -5.334084   1.000000
    2        1.919520   1.000000
    3        5.101620   1.000000
    4        5.101620   1.000000
    5        7.920060   0.000000
    6        9.424252   0.000000
    7        9.424252   0.000000
    8       12.791138   0.000000
 
  0.4166667E+00  0.2500000E+00  0.2500000E+00  0.2777778E-01
    1       -4.650988   1.000000
    2        0.983065   1.000000
    3        2.945685   1.000000
    4        4.930618   1.000000
    5        8.688736   0.000000
    6        9.922370   0.000000
    7       10.112636   0.000000
    8       12.041397   0.000000
 
 -0.4166667E+00  0.2500000E+00  0.2500000E+00  0.2777778E-01
    1       -3.464353   1.000000
    2       -0.467578   1.000000
    3        1.825288   1.000000
    4        4.128659   1.000000
    5        7.932532   0.000000
    6       11.264901   0.000000
    7       11.378290   0.000000
    8       13.106032   0.000000
 
 -0.2500000E+00  0.2500000E+00  0.2500000E+00  0.2777778E-01
    1       -3.411914   1.000000
    2       -0.546654   1.000000
    3        2.309639   1.000000
    4        3.638170   1.000000
    5        7.425957   0.000000
    6       10.380943   0.000000
    7       11.657276   0.000000
    8       11.883431   0.000000
 
  0.4166667E+00  0.4166667E+00  0.2500000E+00  0.2777778E-01
    1       -4.224265   1.000000
    2        0.167010   1.000000
    3        3.420771   1.000000
    4        4.018913   1.000000
    5        7.917212   0.000000
    6       10.168626   0.000000
    7       10.846838   0.000000
    8       10.993711   0.000000
 
 -0.4166667E+00  0.4166667E+00  0.2500000E+00  0.5555556E-01
    1       -3.215286   1.000000
    2       -0.577407   1.000000
    3        1.926609   1.000000
    4        3.214830   1.000000
    5        9.151065   0.000000
    6        9.694037   0.000000
    7       10.683596   0.000000
    8       13.476127   0.000000
 
 -0.2500000E+00  0.4166667E+00  0.2500000E+00  0.5555556E-01
    1       -2.379168   1.000000
    2       -1.314303   1.000000
    3        1.757458   1.000000
    4        2.540391   1.000000
    5        8.943442   0.000000
    6       10.222900   0.000000
    7       11.034173   0.000000
    8       12.439833   0.000000
 
 -0.4166667E+00 -0.4166667E+00  0.2500000E+00  0.2777778E-01
    1       -2.591461   1.000000
    2       -1.221980   1.000000
    3        1.629447   1.000000
    4        3.440471   1.000000
    5        7.142274   0.000000
    6       10.085807   0.000000
    7       13.060671   0.000000
    8       13.240271   0.000000
 
  0.4166667E+00  0.4166667E+00  0.4166667E+00  0.9259259E-02
    1       -4.134132   1.000000
    2       -0.629760   1.000000
    3        4.706359   1.000000
    4        4.706359   1.000000
    5        7.470735   0.000000
    6        9.338911   0.000000
    7        9.338911   0.000000
    8       13.688394   0.000000
 
 -0.4166667E+00  0.4166667E+00  0.4166667E+00  0.2777778E-01
    1       -3.524463   1.000000
    2       -0.931905   1.000000
    3        2.855636   1.000000
    4        4.260326   1.000000
    5        8.090688   0.000000
    6        9.985761   0.000000
    7       10.348002   0.000000
    8       13.932771   0.000000
