    2    2   15    1
  0.2001288E+02  0.3839590E-09  0.3839590E-09  0.3839590E-09  0.5000000E-15
  1.000000000000000E-004
  CAR 
 unknown system                          
      8     28      8
 
  0.8333333E-01  0.8333333E-01  0.8333333E-01  0.9259259E-02
    1       -6.113935   1.000000
    2        4.793761   1.000000
    3        5.520004   0.999683
    4        5.520004   0.999683
    5        8.230541   0.000000
    6        8.442506   0.000000
    7        8.442507   0.000000
    8        9.466306   0.000000
 
  0.2500000E+00  0.8333333E-01  0.8333333E-01  0.2777778E-01
    1       -5.643702   1.000000
    2        2.713932   1.000000
    3        4.287886   1.000000
    4        5.305908   1.000000
    5        8.321701   0.000000
    6        8.839121   0.000000
    7        9.200939   0.000000
    8       11.289736   0.000000
 
  0.4166667E+00  0.8333333E-01  0.8333333E-01  0.2777778E-01
    1       -4.567751   1.000000
    2       -0.024523   1.000000
    3        3.819753   1.000000
    4        4.665732   1.000000
    5        7.815475   0.000000
    6        9.270529   0.000000
    7        9.310413   0.000000
    8       13.108161   0.000000
 
 -0.4166667E+00  0.8333333E-01  0.8333333E-01  0.2777778E-01
    1       -3.883152   1.000000
    2       -1.153256   1.000000
    3        3.881366   1.000000
    4        4.287532   1.000000
    5        7.650216   0.000000
    6        8.994350   0.000000
    7        9.430202   0.000000
    8       13.553620   0.000000
 
 -0.2500000E+00  0.8333333E-01  0.8333333E-01  0.2777778E-01
    1       -4.972959   1.000000
    2        0.813421   1.000000
    3        4.350635   1.000000
    4        4.381064   1.000000
    5        7.922058   0.000000
    6        8.981955   0.000000
    7        9.792462   0.000000
    8       11.701546   0.000000
 
 -0.8333333E-01  0.8333333E-01  0.8333333E-01  0.2777778E-01
    1       -5.876489   1.000000
    2        3.719977   1.000000
    3        4.877075   1.000000
    4        5.057106   1.000000
    5        7.985655   0.000000
    6        8.832124   0.000000
    7        9.347517   0.000000
    8       10.425687   0.000000
 
  0.2500000E+00  0.2500000E+00  0.8333333E-01  0.2777778E-01
    1       -5.405626   1.000000
    2        2.514938   1.000000
    3        4.129842   1.000000
    4        4.147557   1.000000
    5        7.413404   0.000000
    6        9.543585   0.000000
    7       10.378904   0.000000
    8       10.574547   0.000000
 
  0.4166667E+00  0.2500000E+00  0.8333333E-01  0.5555556E-01
    1       -4.507824   1.000000
    2        0.688053   1.000000
    3        2.825563   1.000000
    4        3.760741   1.000000
    5        7.820459   0.000000
    6        9.452280   0.000000
    7       10.227503   0.000000
    8       11.696535   0.000000
 
 -0.4166667E+00  0.2500000E+00  0.8333333E-01  0.5555556E-01
    1       -3.411494   1.000000
    2       -1.037999   1.000000
    3        2.223967   1.000000
    4        3.535060   1.000000
    5        8.067062   0.000000
    6        9.615956   0.000000
    7       11.570974   0.000000
    8       11.963001   0.000000
 
 -0.2500000E+00  0.2500000E+00  0.8333333E-01  0.5555556E-01
    1       -4.119921   1.000000
    2        0.003725   1.000000
    3        2.189213   1.000000
    4        4.017725   1.000000
    5        8.653172   0.000000
    6        9.301233   0.000000
    7       10.957024   0.000000
    8       11.477676   0.000000
 
 -0.8333333E-01  0.2500000E+00  0.8333333E-01  0.5555556E-01
    1       -5.183419   1.000000
    2        1.690692   1.000000
    3        3.516405   1.000000
    4        4.681419   1.000000
    5        8.293804   0.000000
    6        9.132927   0.000000
    7       10.239132   0.000000
    8       10.634849   0.000000
 
  0.4166667E+00  0.4166667E+00  0.8333333E-01  0.2777778E-01
    1       -3.805298   1.000000
    2       -0.139269   1.000000
    3        2.787679   1.000000
    4        3.119123   1.000000
    5        6.610223   0.000009
    6        7.581901   0.000000
    7       13.226671   0.000000
    8       13.303687   0.000000
 
 -0.4166667E+00  0.4166667E+00  0.8333333E-01  0.5555556E-01
    1       -2.627043   1.000000
    2       -1.465979   1.000000
    3        1.960865   1.000000
    4        2.721031   1.000000
    5        7.228837   0.000000
    6        8.343348   0.000000
    7       12.769561   0.000000
    8       14.203454   0.000000
 
 -0.2500000E+00  0.4166667E+00  0.8333333E-01  0.5555556E-01
    1       -2.996952   1.000000
    2       -1.129036   1.000000
    3        1.483135   1.000000
    4        3.261157   1.000000
    5        7.842404   0.000000
    6       10.754123   0.000000
    7       11.731866   0.000000
    8       12.362352   0.000000
 
 -0.8333333E-01  0.4166667E+00  0.8333333E-01  0.5555556E-01
    1       -4.011313   1.000000
    2       -0.662733   1.000000
    3        3.112304   1.000000
    4        4.114196   1.000000
    5        8.235570   0.000000
    6        8.921892   0.000000
    7       10.237146   0.000000
    8       12.461549   0.000000
 
 -0.4166667E+00 -0.4166667E+00  0.8333333E-01  0.2777778E-01
    1       -2.715606   1.000000
    2       -1.472923   1.000000
    3        2.519897   1.000000
    4        2.903975   1.000000
    5        6.503291   0.000203
    6        7.061125   0.000000
    7       14.705584   0.000000
    8       14.767533   0.000000
 
 -0.2500000E+00 -0.4166667E+00  0.8333333E-01  0.5555556E-01
    1       -3.640087   1.000000
    2       -0.359224   1.000000
    3        2.275998   1.000000
    4        3.059051   1.000000
    5        7.434039   0.000000
    6        8.715188   0.000000
    7       11.414968   0.000000
    8       13.234632   0.000000
 
 -0.2500000E+00 -0.2500000E+00  0.8333333E-01  0.2777778E-01
    1       -4.710278   1.000000
    2        1.215925   1.000000
    3        3.327303   1.000000
    4        3.539971   1.000000
    5        6.917618   0.000000
    6        8.495663   0.000000
    7       11.692040   0.000000
    8       11.905997   0.000000
 
  0.2500000E+00  0.2500000E+00  0.2500000E+00  0.9259259E-02
    1       -5.417494   1.000000
    2        1.744698   1.000000
    3        4.902078   1.000000
    4        4.902079   1.000000
    5        7.631661   0.000000
    6        9.193211   0.000000
    7        9.193211   0.000000
    8       12.406056   0.000000
 
  0.4166667E+00  0.2500000E+00  0.2500000E+00  0.2777778E-01
    1       -4.747878   1.000000
    2        0.808657   1.000000
    3        2.789932   1.000000
    4        4.732361   1.000000
    5        8.426703   0.000000
    6        9.683305   0.000000
    7        9.862724   0.000000
    8       11.736937   0.000000
 
 -0.4166667E+00  0.2500000E+00  0.2500000E+00  0.2777778E-01
    1       -3.587760   1.000000
    2       -0.625346   1.000000
    3        1.695813   1.000000
    4        3.948096   1.000000
    5        7.723094   0.000000
    6       11.008239   0.000000
    7       11.099221   0.000000
    8       12.787290   0.000000
 
 -0.2500000E+00  0.2500000E+00  0.2500000E+00  0.2777778E-01
    1       -3.535177   1.000000
    2       -0.703530   1.000000
    3        2.166203   1.000000
    4        3.468302   1.000000
    5        7.234149   0.000000
    6       10.150292   0.000000
    7       11.342422   0.000000
    8       11.626120   0.000000
 
  0.4166667E+00  0.4166667E+00  0.2500000E+00  0.2777778E-01
    1       -4.330202   1.000000
    2        0.010320   1.000000
    3        3.244482   1.000000
    4        3.841865   1.000000
    5        7.704536   0.000000
    6        9.882033   0.000000
    7       10.604511   0.000000
    8       10.756368   0.000000
 
 -0.4166667E+00  0.4166667E+00  0.2500000E+00  0.5555556E-01
    1       -3.342598   1.000000
    2       -0.742065   1.000000
    3        1.796507   1.000000
    4        3.060819   1.000000
    5        8.930484   0.000000
    6        9.458176   0.000000
    7       10.424231   0.000000
    8       13.168593   0.000000
 
 -0.2500000E+00  0.4166667E+00  0.2500000E+00  0.5555556E-01
    1       -2.524188   1.000000
    2       -1.474102   1.000000
    3        1.637558   1.000000
    4        2.402992   1.000000
    5        8.727997   0.000000
    6       10.001643   0.000000
    7       10.753297   0.000000
    8       12.151638   0.000000
 
 -0.4166667E+00 -0.4166667E+00  0.2500000E+00  0.2777778E-01
    1       -2.733115   1.000000
    2       -1.377396   1.000000
    3        1.512000   1.000000
    4        3.274230   1.000000
    5        6.958460   0.000000
    6        9.855853   0.000000
    7       12.774102   0.000000
    8       12.908766   0.000000
 
  0.4166667E+00  0.4166667E+00  0.4166667E+00  0.9259259E-02
    1       -4.245158   1.000000
    2       -0.757617   1.000000
    3        4.511399   1.000000
    4        4.511399   1.000000
    5        7.181931   0.000000
    6        9.131067   0.000000
    7        9.131067   0.000000
    8       13.443962   0.000000
 
 -0.4166667E+00  0.4166667E+00  0.4166667E+00  0.2777778E-01
    1       -3.650061   1.000000
    2       -1.061023   1.000000
    3        2.691539   1.000000
    4        4.076498   1.000000
    5        7.862691   0.000000
    6        9.724227   0.000000
    7       10.120434   0.000000
    8       13.633267   0.000000
