       N       E                     dE             d eps       ncg     rms          rms(c)
DAV:   1    -0.420146482282E+01   -0.42015E+01   -0.17073E+03   488   0.296E+02
DAV:   2    -0.108748010619E+02   -0.66733E+01   -0.61789E+01   712   0.451E+01
DAV:   3    -0.109241198704E+02   -0.49319E-01   -0.49319E-01   560   0.467E+00
DAV:   4    -0.109241880616E+02   -0.68191E-04   -0.68191E-04   720   0.166E-01
DAV:   5    -0.109241880696E+02   -0.80799E-08   -0.79781E-08   512   0.177E-03    0.296E+00
DAV:   6    -0.108002408609E+02    0.12395E+00   -0.76770E-02   528   0.141E+00    0.175E+00
DAV:   7    -0.107422263842E+02    0.58014E-01   -0.14367E-01   584   0.202E+00    0.146E-01
DAV:   8    -0.107434477875E+02   -0.12214E-02   -0.33552E-03   480   0.400E-01    0.247E-02
DAV:   9    -0.107435410954E+02   -0.93308E-04   -0.87204E-05   384   0.722E-02
   1 F= -.10743541E+02 E0= -.10743531E+02  d E =-.107435E+02
