unknown system                          
   1.00000000000000     
     0.000000    2.715000    2.715000
     2.715000    0.000000    2.715000
     2.715000    2.715000    0.000000
   Si
     2
Direct
  0.500000  0.500000  0.500000
  0.750000  0.750000  0.750000
 
   24   24   24
 0.84117     0.87841     0.99535      1.2068      1.5346      2.0018      2.6235      3.3950      4.2767      5.1843    
  5.9913      6.5541      6.7567      6.5541      5.9913      5.1843      4.2767      3.3950      2.6235      2.0018    
  1.5346      1.2068     0.99534     0.87841     0.87841     0.93905      1.0684      1.2810      1.5940      2.0209    
  2.5640      3.2046      3.8946      4.5537      5.0793      5.3728      5.3728      5.0793      4.5538      3.8948    
  3.2047      2.5639      2.0208      1.5939      1.2810      1.0684     0.93905     0.87841     0.99535      1.0684    
  1.2006      1.4044      1.6912      2.0659      2.5210      3.0303      3.5453      3.9970      4.3094      4.4214    
  4.3094      3.9971      3.5453      3.0303      2.5210      2.0659      1.6912      1.4044      1.2006      1.0684    
 0.99536     0.97213      1.2068      1.2810      1.4044      1.5867      1.8338      2.1444      2.5054      2.8891    
  3.2520      3.5395      3.6995      3.6996      3.5395      3.2520      2.8890      2.5053      2.1443      1.8339    
  1.5868      1.4045      1.2810      1.2068      1.1726      1.1726      1.5346      1.5940      1.6912      1.8338    
  2.0244      2.2582      2.5210      2.7873      3.0213      3.1834      3.2415      3.1834      3.0213      2.7873    
  2.5210      2.2582      2.0244      1.8339      1.6913      1.5940      1.5346      1.5041      1.4949      1.5041    
  2.0018      2.0209      2.0659      2.1444      2.2582      2.4024      2.5639      2.7218      2.8492      2.9209    
  2.9208      2.8492      2.7218      2.5640      2.4025      2.2582      2.1444      2.0659      2.0208      2.0017    
  1.9981      1.9995      1.9995      1.9981      2.6235      2.5640      2.5210      2.5054      2.5210      2.5639    
  2.6235      2.6840      2.7290      2.7456      2.7290      2.6841      2.6235      2.5640      2.5210      2.5054    
  2.5210      2.5639      2.6235      2.6840      2.7290      2.7456      2.7290      2.6841      3.3950      3.2046    
  3.0303      2.8891      2.7873      2.7218      2.6840      2.6648      2.6570      2.6570      2.6648      2.6841    
  2.7218      2.7872      2.8890      3.0302      3.2046      3.3950      3.5756      3.7175      3.7958      3.7958    
  3.7176      3.5756      4.2767      3.8946      3.5453      3.2520      3.0213      2.8492      2.7290      2.6570    
  2.6329      2.6570      2.7290      2.8492      3.0213      3.2519      3.5452      3.8947      4.2767      4.6513    
  4.9690      5.1823      5.2575      5.1823      4.9690      4.6513      5.1843      4.5537      3.9970      3.5395    
  3.1834      2.9209      2.7456      2.6570      2.6570      2.7456      2.9208      3.1834      3.5395      3.9971    
  4.5538      5.1843      5.8348      6.4287      6.8837      7.1307      7.1307      6.8837      6.4288      5.8348    
  5.9913      5.0793      4.3094      3.6995      3.2415      2.9208      2.7290      2.6648      2.7290      2.9208    
  3.2416      3.6995      4.3094      5.0794      5.9913      6.9855      7.9598      8.7870      9.3436      9.5400    
  9.3436      8.7871      7.9598      6.9855      6.5541      5.3728      4.4214      3.6996      3.1834      2.8492    
  2.6841      2.6841      2.8492      3.1834      3.6995      4.4213      5.3728      6.5541      7.9153      9.3422    
  10.666      11.694      12.257      12.257      11.694      10.666      9.3423      7.9153      6.7567      5.3728    
  4.3094      3.5395      3.0213      2.7218      2.6235      2.7218      3.0213      3.5395      4.3094      5.3728    
  6.7567      8.4387      10.317      12.202      13.839      14.960      15.359      14.960      13.839      12.202    
  10.317      8.4387      6.5541      5.0793      3.9971      3.2520      2.7873      2.5640      2.5640      2.7872    
  3.2519      3.9971      5.0794      6.5541      8.4387      10.670      13.074      15.364      17.168      18.150    
  18.150      17.168      15.364      13.074      10.670      8.4387      5.9913      4.5538      3.5453      2.8890    
  2.5210      2.4025      2.5210      2.8890      3.5452      4.5538      5.9913      7.9153      10.317      13.074    
  15.918      18.403      20.066      20.646      20.066      18.403      15.918      13.074      10.317      7.9153    
  5.1843      3.8948      3.0303      2.5053      2.2582      2.2582      2.5054      3.0302      3.8947      5.1843    
  6.9855      9.3422      12.202      15.364      18.403      20.745      22.001      22.001      20.745      18.403    
  15.364      12.202      9.3422      6.9854      4.2767      3.2047      2.5210      2.1443      2.0244      2.1444    
  2.5210      3.2046      4.2767      5.8348      7.9598      10.666      13.839      17.168      20.066      22.001    
  22.676      22.001      20.066      17.168      13.839      10.666      7.9598      5.8347      3.3950      2.5639    
  2.0659      1.8339      1.8339      2.0659      2.5639      3.3950      4.6513      6.4287      8.7870      11.694    
  14.960      18.150      20.646      22.001      22.001      20.647      18.150      14.960      11.694      8.7871    
  6.4287      4.6513      2.6235      2.0208      1.6912      1.5868      1.6913      2.0208      2.6235      3.5756    
  4.9690      6.8837      9.3436      12.257      15.359      18.150      20.066      20.745      20.066      18.150    
  15.359      12.257      9.3436      6.8837      4.9690      3.5757      2.0018      1.5939      1.4044      1.4045    
  1.5940      2.0017      2.6840      3.7175      5.1823      7.1307      9.5400      12.257      14.960      17.168    
  18.403      18.403      17.168      14.960      12.257      9.5401      7.1307      5.1823      3.7176      2.6841    
  1.5346      1.2810      1.2006      1.2810      1.5346      1.9981      2.7290      3.7958      5.2575      7.1307    
  9.3436      11.694      13.839      15.364      15.918      15.364      13.839      11.694      9.3436      7.1307    
  5.2575      3.7958      2.7290      1.9981      1.2068      1.0684      1.0684      1.2068      1.5041      1.9995    
  2.7456      3.7958      5.1823      6.8837      8.7871      10.666      12.202      13.074      13.074      12.202    
  10.666      8.7871      6.8837      5.1823      3.7958      2.7456      1.9995      1.5041     0.99534     0.93905    
 0.99536      1.1726      1.4949      1.9995      2.7290      3.7176      4.9690      6.4288      7.9598      9.3423    
  10.317      10.670      10.317      9.3422      7.9598      6.4287      4.9690      3.7176      2.7290      1.9995    
  1.4949      1.1726     0.87841     0.87841     0.97213      1.1726      1.5041      1.9981      2.6841      3.5756    
  4.6513      5.8348      6.9855      7.9153      8.4387      8.4387      7.9153      6.9854      5.8347      4.6513    
  3.5757      2.6841      1.9981      1.5041      1.1726     0.97213     0.87841     0.93904      1.0684      1.2810    
  1.5939      2.0209      2.5640      3.2046      3.8946      4.5537      5.0794      5.3728      5.3728      5.0793    
  4.5538      3.8947      3.2047      2.5640      2.0208      1.5939      1.2810      1.0684     0.93906     0.87841    
 0.93904      1.0072      1.1316      1.3254      1.6005      1.9620      2.4024      2.8957      3.3942      3.8310    
  4.1326      4.2405      4.1326      3.8311      3.3944      2.8958      2.4024      1.9619      1.6004      1.3254    
  1.1316      1.0072     0.93904     0.91751      1.0684      1.1316      1.2400      1.4043      1.6315      1.9203    
  2.2582      2.6179      2.9577      3.2265      3.3759      3.3759      3.2266      2.9578      2.6179      2.2581    
  1.9203      1.6314      1.4043      1.2400      1.1316      1.0684      1.0400      1.0400      1.2810      1.3254    
  1.4043      1.5263      1.6948      1.9054      2.1444      2.3875      2.6014      2.7495      2.8027      2.7495    
  2.6014      2.3875      2.1443      1.9053      1.6947      1.5263      1.4044      1.3254      1.2810      1.2603    
  1.2546      1.2603      1.5939      1.6005      1.6315      1.6948      1.7926      1.9203      2.0659      2.2098    
  2.3268      2.3930      2.3929      2.3268      2.2098      2.0659      1.9203      1.7925      1.6948      1.6315    
  1.6005      1.5940      1.6001      1.6069      1.6069      1.6001      2.0209      1.9620      1.9203      1.9054    
  1.9203      1.9620      2.0209      2.0821      2.1284      2.1456      2.1284      2.0821      2.0209      1.9620    
  1.9203      1.9054      1.9203      1.9620      2.0209      2.0821      2.1284      2.1456      2.1284      2.0821    
  2.5640      2.4024      2.2582      2.1444      2.0659      2.0209      2.0017      1.9981      1.9995      1.9995    
  1.9981      2.0018      2.0208      2.0659      2.1444      2.2582      2.4024      2.5640      2.7217      2.8492    
  2.9208      2.9209      2.8492      2.7218      3.2046      2.8957      2.6179      2.3875      2.2098      2.0821    
  1.9981      1.9510      1.9360      1.9511      1.9981      2.0820      2.2096      2.3874      2.6179      2.8958    
  3.2047      3.5147      3.7848      3.9707      4.0372      3.9708      3.7849      3.5147      3.8946      3.3942    
  2.9577      2.6014      2.3268      2.1284      1.9995      1.9360      1.9360      1.9995      2.1283      2.3267    
  2.6013      2.9578      3.3944      3.8947      4.4215      4.9156      5.3045      5.5199      5.5199      5.3045    
  4.9156      4.4215      4.5537      3.8310      3.2265      2.7495      2.3930      2.1456      1.9995      1.9511    
  1.9995      2.1455      2.3928      2.7495      3.2266      3.8312      4.5538      5.3564      6.1642      6.8705    
  7.3577      7.5321      7.3577      6.8705      6.1643      5.3564      5.0794      4.1326      3.3759      2.8027    
  2.3929      2.1284      1.9981      1.9981      2.1283      2.3928      2.8026      3.3760      4.1328      5.0795    
  6.1893      7.3835      8.5256      9.4378      9.9479      9.9479      9.4378      8.5256      7.3837      6.1893    
  5.3728      4.2405      3.3759      2.7495      2.3268      2.0821      2.0018      2.0820      2.3267      2.7495    
  3.3760      4.2407      5.3729      6.7711      8.3729      10.031      11.514      12.554      12.929      12.554    
  11.514      10.031      8.3731      6.7712      5.3728      4.1326      3.2266      2.6014      2.2098      2.0209    
  2.0208      2.2096      2.6013      3.2266      4.1328      5.3729      6.9807      8.9312      11.098      13.226    
  14.963      15.947      15.947      14.963      13.226      11.098      8.9314      6.9808      5.0793      3.8311    
  2.9578      2.3875      2.0659      1.9620      2.0659      2.3874      2.9578      3.8312      5.0795      6.7711    
  8.9312      11.485      14.203      16.691      18.463      19.109      18.463      16.691      14.203      11.485    
  8.9313      6.7711      4.5538      3.3944      2.6179      2.1443      1.9203      1.9203      2.1444      2.6179    
  3.3944      4.5538      6.1893      8.3729      11.098      14.203      17.322      19.908      21.385      21.385    
  19.908      17.322      14.203      11.098      8.3729      6.1892      3.8947      2.8958      2.2581      1.9053    
  1.7925      1.9054      2.2582      2.8958      3.8947      5.3564      7.3835      10.031      13.226      16.691    
  19.908      22.215      23.053      22.215      19.908      16.691      13.226      10.031      7.3836      5.3564    
  3.2047      2.4024      1.9203      1.6947      1.6948      1.9203      2.4024      3.2047      4.4215      6.1642    
  8.5256      11.514      14.963      18.463      21.385      23.053      23.053      21.385      18.463      14.963    
  11.514      8.5257      6.1644      4.4215      2.5640      1.9619      1.6314      1.5263      1.6315      1.9620    
  2.5640      3.5147      4.9156      6.8705      9.4378      12.554      15.947      19.109      21.385      22.215    
  21.385      19.109      15.946      12.553      9.4378      6.8706      4.9158      3.5148      2.0208      1.6004    
  1.4043      1.4044      1.6005      2.0209      2.7217      3.7848      5.3045      7.3577      9.9479      12.929    
  15.947      18.463      19.908      19.908      18.463      15.946      12.929      9.9478      7.3578      5.3046    
  3.7849      2.7218      1.5939      1.3254      1.2400      1.3254      1.5940      2.0821      2.8492      3.9707    
  5.5199      7.5321      9.9479      12.554      14.963      16.691      17.322      16.691      14.963      12.553    
  9.9478      7.5322      5.5201      3.9708      2.8492      2.0820      1.2810      1.1316      1.1316      1.2810    
  1.6001      2.1284      2.9208      4.0372      5.5199      7.3577      9.4378      11.514      13.226      14.203    
  14.203      13.226      11.514      9.4378      7.3578      5.5201      4.0373      2.9208      2.1283      1.6000    
  1.0684      1.0072      1.0684      1.2603      1.6069      2.1456      2.9209      3.9708      5.3045      6.8705    
  8.5256      10.031      11.098      11.485      11.098      10.031      8.5257      6.8706      5.3046      3.9708    
  2.9208      2.1456      1.6069      1.2603     0.93906     0.93904      1.0400      1.2546      1.6069      2.1284    
  2.8492      3.7849      4.9156      6.1643      7.3837      8.3731      8.9314      8.9313      8.3729      7.3836    
  6.1644      4.9158      3.7849      2.8492      2.1283      1.6069      1.2546      1.0400     0.87841     0.91751    
  1.0400      1.2603      1.6001      2.0821      2.7218      3.5147      4.4215      5.3564      6.1893      6.7712    
  6.9808      6.7711      6.1892      5.3564      4.4215      3.5148      2.7218      2.0820      1.6000      1.2603    
  1.0400     0.91756     0.99534      1.0684      1.2006      1.4044      1.6912      2.0659      2.5210      3.0303    
  3.5453      3.9970      4.3094      4.4213      4.3094      3.9970      3.5453      3.0303      2.5210      2.0659    
  1.6912      1.4044      1.2006      1.0684     0.99535     0.97212      1.0684      1.1316      1.2400      1.4043    
  1.6315      1.9203      2.2582      2.6179      2.9577      3.2265      3.3759      3.3759      3.2265      2.9578    
  2.6179      2.2582      1.9203      1.6314      1.4043      1.2400      1.1316      1.0684      1.0400      1.0400    
  1.2006      1.2400      1.3126      1.4277      1.5891      1.7926      2.0244      2.2605      2.4681      2.6118    
  2.6634      2.6119      2.4682      2.2605      2.0244      1.7926      1.5891      1.4277      1.3126      1.2400    
  1.2006      1.1832      1.1786      1.1832      1.4044      1.4043      1.4277      1.4834      1.5739      1.6948    
  1.8338      1.9717      2.0840      2.1475      2.1475      2.0840      1.9717      1.8338      1.6947      1.5739    
  1.4835      1.4278      1.4043      1.4044      1.4156      1.4251      1.4251      1.4156      1.6912      1.6315    
  1.5891      1.5739      1.5891      1.6315      1.6912      1.7533      1.8003      1.8178      1.8002      1.7533    
  1.6912      1.6314      1.5891      1.5739      1.5892      1.6315      1.6912      1.7533      1.8003      1.8178    
  1.8002      1.7533      2.0659      1.9203      1.7926      1.6948      1.6315      1.6005      1.5939      1.6001    
  1.6069      1.6069      1.6000      1.5939      1.6005      1.6315      1.6948      1.7926      1.9203      2.0659    
  2.2098      2.3268      2.3929      2.3929      2.3268      2.2098      2.5210      2.2582      2.0244      1.8338    
  1.6912      1.5939      1.5346      1.5041      1.4949      1.5041      1.5346      1.5940      1.6913      1.8339    
  2.0244      2.2582      2.5210      2.7873      3.0213      3.1834      3.2415      3.1834      3.0213      2.7873    
  3.0303      2.6179      2.2605      1.9717      1.7533      1.6001      1.5041      1.4582      1.4582      1.5041    
  1.6001      1.7533      1.9717      2.2605      2.6179      3.0303      3.4675      3.8808      4.2085      4.3911    
  4.3911      4.2086      3.8808      3.4675      3.5453      2.9577      2.4681      2.0840      1.8003      1.6069    
  1.4949      1.4582      1.4949      1.6069      1.8002      2.0840      2.4681      2.9577      3.5452      4.2012    
  4.8662      5.4523      5.8593      6.0056      5.8593      5.4523      4.8662      4.2012      3.9970      3.2265    
  2.6118      2.1475      1.8178      1.6069      1.5041      1.5041      1.6069      1.8177      2.1475      2.6119    
  3.2265      3.9970      4.9040      5.8869      6.8348      7.5981      8.0273      8.0273      7.5981      6.8347    
  5.8869      4.9040      4.3094      3.3759      2.6634      2.1475      1.8002      1.6000      1.5346      1.6001    
  1.8002      2.1475      2.6634      3.3759      4.3094      5.4663      6.8010      8.1950      9.4536      10.342    
  10.664      10.342      9.4535      8.1950      6.8010      5.4663      4.4213      3.3759      2.6119      2.0840    
  1.7533      1.5939      1.5940      1.7533      2.0840      2.6119      3.3759      4.4213      5.7810      7.4424    
  9.3058      11.156      12.677      13.544      13.544      12.677      11.155      9.3058      7.4424      5.7810    
  4.3094      3.2265      2.4682      1.9717      1.6912      1.6005      1.6913      1.9717      2.4681      3.2265    
  4.3094      5.7810      7.6739      9.9354      12.370      14.619      16.232      16.822      16.232      14.619    
  12.370      9.9354      7.6740      5.7810      3.9970      2.9578      2.2605      1.8338      1.6314      1.6315    
  1.8339      2.2605      2.9577      3.9970      5.4663      7.4424      9.9354      12.812      15.732      18.174    
  19.578      19.578      18.174      15.732      12.812      9.9354      7.4424      5.4663      3.5453      2.6179    
  2.0244      1.6947      1.5891      1.6948      2.0244      2.6179      3.5452      4.9040      6.8010      9.3058    
  12.370      15.732      18.885      21.168      22.005      21.168      18.885      15.732      12.370      9.3059    
  6.8010      4.9040      3.0303      2.2582      1.7926      1.5739      1.5739      1.7926      2.2582      3.0303    
  4.2012      5.8869      8.1950      11.156      14.619      18.174      21.168      22.897      22.897      21.168    
  18.174      14.619      11.156      8.1951      5.8869      4.2012      2.5210      1.9203      1.5891      1.4835    
  1.5892      1.9203      2.5210      3.4675      4.8662      6.8348      9.4536      12.677      16.232      19.578    
  22.005      22.897      22.005      19.578      16.232      12.677      9.4536      6.8348      4.8662      3.4675    
  2.0659      1.6314      1.4277      1.4278      1.6315      2.0659      2.7873      3.8808      5.4523      7.5981    
  10.342      13.544      16.822      19.578      21.168      21.168      19.578      16.822      13.544      10.342    
  7.5981      5.4523      3.8808      2.7873      1.6912      1.4043      1.3126      1.4043      1.6912      2.2098    
  3.0213      4.2085      5.8593      8.0273      10.664      13.544      16.232      18.174      18.885      18.174    
  16.232      13.544      10.664      8.0273      5.8593      4.2085      3.0213      2.2098      1.4044      1.2400    
  1.2400      1.4044      1.7533      2.3268      3.1834      4.3911      6.0056      8.0273      10.342      12.677    
  14.619      15.732      15.732      14.619      12.677      10.342      8.0273      6.0056      4.3911      3.1834    
  2.3268      1.7533      1.2006      1.1316      1.2006      1.4156      1.8003      2.3929      3.2415      4.3911    
  5.8593      7.5981      9.4535      11.155      12.370      12.812      12.370      11.156      9.4536      7.5981    
  5.8593      4.3911      3.2415      2.3929      1.8002      1.4156      1.0684      1.0684      1.1832      1.4251    
  1.8178      2.3929      3.1834      4.2086      5.4523      6.8347      8.1950      9.3058      9.9354      9.9354    
  9.3059      8.1951      6.8348      5.4523      4.2085      3.1834      2.3929      1.8177      1.4251      1.1832    
 0.99535      1.0400      1.1786      1.4251      1.8002      2.3268      3.0213      3.8808      4.8662      5.8869    
  6.8010      7.4424      7.6740      7.4424      6.8010      5.8869      4.8662      3.8808      3.0213      2.3268    
  1.8002      1.4251      1.1786      1.0400     0.97212      1.0400      1.1832      1.4156      1.7533      2.2098    
  2.7873      3.4675      4.2012      4.9040      5.4663      5.7810      5.7810      5.4663      4.9040      4.2012    
  3.4675      2.7873      2.2098      1.7533      1.4156      1.1832      1.0400     0.97214      1.2068      1.2810    
  1.4044      1.5867      1.8338      2.1444      2.5054      2.8891      3.2520      3.5395      3.6995      3.6995    
  3.5395      3.2519      2.8890      2.5053      2.1444      1.8339      1.5868      1.4045      1.2810      1.2068    
  1.1725      1.1726      1.2810      1.3254      1.4043      1.5263      1.6948      1.9054      2.1444      2.3875    
  2.6014      2.7495      2.8026      2.7495      2.6014      2.3875      2.1443      1.9054      1.6948      1.5264    
  1.4044      1.3254      1.2810      1.2603      1.2546      1.2603      1.4044      1.4043      1.4278      1.4834    
  1.5739      1.6948      1.8338      1.9717      2.0840      2.1475      2.1475      2.0840      1.9717      1.8338    
  1.6948      1.5740      1.4835      1.4278      1.4043      1.4044      1.4155      1.4251      1.4251      1.4156    
  1.5867      1.5263      1.4834      1.4680      1.4834      1.5263      1.5867      1.6492      1.6965      1.7141    
  1.6965      1.6492      1.5866      1.5263      1.4835      1.4681      1.4835      1.5263      1.5866      1.6492    
  1.6965      1.7141      1.6965      1.6492      1.8338      1.6948      1.5739      1.4834      1.4278      1.4043    
  1.4044      1.4156      1.4251      1.4251      1.4155      1.4044      1.4043      1.4278      1.4835      1.5740    
  1.6948      1.8338      1.9717      2.0840      2.1475      2.1475      2.0840      1.9717      2.1444      1.9054    
  1.6948      1.5263      1.4043      1.3254      1.2810      1.2603      1.2546      1.2603      1.2810      1.3254    
  1.4044      1.5264      1.6948      1.9054      2.1443      2.3875      2.6014      2.7495      2.8026      2.7495    
  2.6014      2.3875      2.5054      2.1444      1.8338      1.5867      1.4044      1.2810      1.2068      1.1726    
  1.1725      1.2068      1.2810      1.4045      1.5868      1.8339      2.1444      2.5053      2.8890      3.2519    
  3.5395      3.6995      3.6995      3.5395      3.2520      2.8891      2.8891      2.3875      1.9717      1.6492    
  1.4156      1.2603      1.1726      1.1442      1.1725      1.2603      1.4156      1.6493      1.9718      2.3875    
  2.8890      3.4496      4.0176      4.5174      4.8641      4.9886      4.8641      4.5174      4.0176      3.4497    
  3.2520      2.6014      2.0840      1.6965      1.4251      1.2546      1.1725      1.1725      1.2546      1.4252    
  1.6966      2.0841      2.6013      3.2518      4.0175      4.8459      5.6432      6.2840      6.6438      6.6438    
  6.2839      5.6431      4.8459      4.0176      3.5395      2.7495      2.1475      1.7141      1.4251      1.2603    
  1.2068      1.2603      1.4252      1.7141      2.1476      2.7495      3.5394      4.5173      5.6431      6.8164    
  7.8735      8.6187      8.8885      8.6186      7.8733      6.8162      5.6431      4.5174      3.6995      2.8026    
  2.1475      1.6965      1.4155      1.2810      1.2810      1.4156      1.6966      2.1476      2.8026      3.6994    
  4.8640      6.2840      7.8735      9.4485      10.742      11.479      11.479      10.742      9.4483      7.8733    
  6.2839      4.8641      3.6995      2.7495      2.0840      1.6492      1.4044      1.3254      1.4045      1.6493    
  2.0841      2.7495      3.6994      4.9884      6.6438      8.6188      10.742      12.703      14.109      14.622    
  14.109      12.703      10.742      8.6186      6.6438      4.9886      3.5395      2.6014      1.9717      1.5866    
  1.4043      1.4044      1.5868      1.9718      2.6013      3.5394      4.8640      6.6438      8.8886      11.479    
  14.109      16.307      17.572      17.572      16.307      14.109      11.479      8.8885      6.6438      4.8641    
  3.2519      2.3875      1.8338      1.5263      1.4278      1.5264      1.8339      2.3875      3.2518      4.5173    
  6.2840      8.6188      11.479      14.622      17.572      19.709      20.493      19.709      17.572      14.622    
  11.479      8.6187      6.2840      4.5174      2.8890      2.1443      1.6948      1.4835      1.4835      1.6948    
  2.1444      2.8890      4.0175      5.6431      7.8735      10.742      14.109      17.572      20.493      22.182    
  22.182      20.493      17.572      14.109      10.742      7.8735      5.6432      4.0176      2.5053      1.9054    
  1.5740      1.4681      1.5740      1.9054      2.5053      3.4496      4.8459      6.8164      9.4485      12.703    
  16.307      19.709      22.182      23.092      22.182      19.709      16.307      12.703      9.4485      6.8164    
  4.8459      3.4496      2.1444      1.6948      1.4835      1.4835      1.6948      2.1443      2.8890      4.0176    
  5.6432      7.8735      10.742      14.109      17.572      20.493      22.182      22.182      20.493      17.572    
  14.109      10.742      7.8735      5.6431      4.0175      2.8890      1.8339      1.5264      1.4278      1.5263    
  1.8338      2.3875      3.2519      4.5174      6.2840      8.6187      11.479      14.622      17.572      19.709    
  20.493      19.709      17.572      14.622      11.479      8.6188      6.2840      4.5173      3.2518      2.3875    
  1.5868      1.4044      1.4043      1.5866      1.9717      2.6014      3.5395      4.8641      6.6438      8.8885    
  11.479      14.109      16.307      17.572      17.572      16.307      14.109      11.479      8.8886      6.6438    
  4.8640      3.5394      2.6013      1.9718      1.4045      1.3254      1.4044      1.6492      2.0840      2.7495    
  3.6995      4.9886      6.6438      8.6186      10.742      12.703      14.109      14.622      14.109      12.703    
  10.742      8.6188      6.6438      4.9884      3.6994      2.7495      2.0841      1.6493      1.2810      1.2810    
  1.4155      1.6965      2.1475      2.8026      3.6995      4.8641      6.2839      7.8733      9.4483      10.742    
  11.479      11.479      10.742      9.4485      7.8735      6.2840      4.8640      3.6994      2.8026      2.1476    
  1.6966      1.4156      1.2068      1.2603      1.4251      1.7141      2.1475      2.7495      3.5395      4.5174    
  5.6431      6.8162      7.8733      8.6186      8.8885      8.6187      7.8735      6.8164      5.6431      4.5173    
  3.5394      2.7495      2.1476      1.7141      1.4252      1.2603      1.1725      1.2546      1.4251      1.6965    
  2.0840      2.6014      3.2520      4.0176      4.8459      5.6431      6.2839      6.6438      6.6438      6.2840    
  5.6432      4.8459      4.0175      3.2518      2.6013      2.0841      1.6966      1.4252      1.2546      1.1725    
  1.1726      1.2603      1.4156      1.6492      1.9717      2.3875      2.8891      3.4497      4.0176      4.5174    
  4.8641      4.9886      4.8641      4.5174      4.0176      3.4496      2.8890      2.3875      1.9718      1.6493    
  1.4156      1.2603      1.1725      1.1442      1.5346      1.5939      1.6912      1.8338      2.0244      2.2582    
  2.5210      2.7873      3.0213      3.1834      3.2415      3.1834      3.0213      2.7873      2.5210      2.2582    
  2.0244      1.8339      1.6913      1.5940      1.5346      1.5041      1.4949      1.5041      1.5939      1.6005    
  1.6315      1.6948      1.7926      1.9203      2.0659      2.2098      2.3268      2.3929      2.3929      2.3268    
  2.2098      2.0659      1.9203      1.7926      1.6948      1.6315      1.6005      1.5939      1.6000      1.6069    
  1.6069      1.6001      1.6912      1.6315      1.5891      1.5739      1.5891      1.6315      1.6912      1.7533    
  1.8002      1.8178      1.8003      1.7533      1.6912      1.6315      1.5892      1.5739      1.5891      1.6314    
  1.6912      1.7533      1.8002      1.8178      1.8003      1.7533      1.8338      1.6948      1.5739      1.4834    
  1.4277      1.4043      1.4044      1.4156      1.4251      1.4251      1.4156      1.4044      1.4043      1.4278    
  1.4835      1.5739      1.6947      1.8338      1.9717      2.0840      2.1475      2.1475      2.0840      1.9717    
  2.0244      1.7926      1.5891      1.4277      1.3126      1.2400      1.2006      1.1832      1.1786      1.1832    
  1.2006      1.2400      1.3126      1.4277      1.5891      1.7926      2.0244      2.2605      2.4682      2.6119    
  2.6634      2.6118      2.4681      2.2605      2.2582      1.9203      1.6315      1.4043      1.2400      1.1316    
  1.0684      1.0400      1.0400      1.0684      1.1316      1.2400      1.4043      1.6314      1.9203      2.2582    
  2.6179      2.9578      3.2265      3.3759      3.3759      3.2265      2.9577      2.6179      2.5210      2.0659    