   2   2   0   0
  0.2001288E+02  0.3839590E-09  0.3839590E-09  0.3839590E-09  0.5000000E-15
  1.000000000000000E-004
  CAR 
 unknown system                          
     16.63725506     -8.12055159  301      6.17530781      1.00000000
     -8.121  0.0000E+00  0.0000E+00
     -8.038  0.0000E+00  0.0000E+00
     -7.955  0.0000E+00  0.0000E+00
     -7.873  0.0000E+00  0.0000E+00
     -7.790  0.0000E+00  0.0000E+00
     -7.708  0.0000E+00  0.0000E+00
     -7.625  0.0000E+00  0.0000E+00
     -7.543  0.0000E+00  0.0000E+00
     -7.460  0.0000E+00  0.0000E+00
     -7.378  0.0000E+00  0.0000E+00
     -7.295  0.7175E-18  0.5921E-19
     -7.213  0.7247E-16  0.6040E-17
     -7.130  0.5977E-14  0.4993E-15
     -7.048  0.3511E-12  0.2947E-13
     -6.965  0.1474E-10  0.1246E-11
     -6.883  0.4430E-09  0.3780E-10
     -6.800  0.9524E-08  0.8238E-09
     -6.718  0.1466E-06  0.1292E-07
     -6.635  0.1617E-05  0.1464E-06
     -6.553  0.1278E-04  0.1201E-05
     -6.470  0.7247E-04  0.7182E-05
     -6.388  0.2947E-03  0.3151E-04
     -6.305  0.8604E-03  0.1025E-03
     -6.222  0.1804E-02  0.2513E-03
     -6.140  0.2720E-02  0.4758E-03
     -6.057  0.2992E-02  0.7227E-03
     -5.975  0.2648E-02  0.9413E-03
     -5.892  0.2944E-02  0.1184E-02
     -5.810  0.5983E-02  0.1678E-02
     -5.727  0.1325E-01  0.2771E-02
     -5.645  0.2338E-01  0.4701E-02
     -5.562  0.3186E-01  0.7330E-02
     -5.480  0.3437E-01  0.1017E-01
     -5.397  0.3008E-01  0.1265E-01
     -5.315  0.2136E-01  0.1441E-01
     -5.232  0.1207E-01  0.1541E-01
     -5.150  0.5623E-02  0.1587E-01
     -5.067  0.3816E-02  0.1619E-01
     -4.985  0.7554E-02  0.1681E-01
     -4.902  0.1709E-01  0.1822E-01
     -4.820  0.2905E-01  0.2062E-01
     -4.737  0.3572E-01  0.2356E-01
     -4.654  0.3245E-01  0.2624E-01
     -4.572  0.2528E-01  0.2833E-01
     -4.489  0.2732E-01  0.3058E-01
     -4.407  0.4674E-01  0.3444E-01
     -4.324  0.7611E-01  0.4072E-01
     -4.242  0.9382E-01  0.4847E-01
     -4.159  0.8408E-01  0.5540E-01
     -4.077  0.5450E-01  0.5990E-01
     -3.994  0.2554E-01  0.6201E-01
     -3.912  0.8695E-02  0.6273E-01
     -3.829  0.2481E-02  0.6293E-01
     -3.747  0.2449E-02  0.6313E-01
     -3.664  0.8564E-02  0.6384E-01
     -3.582  0.2510E-01  0.6591E-01
     -3.499  0.5314E-01  0.7030E-01
     -3.417  0.8092E-01  0.7698E-01
     -3.334  0.8927E-01  0.8434E-01
     -3.252  0.7408E-01  0.9046E-01
     -3.169  0.5473E-01  0.9497E-01
     -3.086  0.5204E-01  0.9927E-01
     -3.004  0.6455E-01  0.1046E+00
     -2.921  0.7216E-01  0.1105E+00
     -2.839  0.6087E-01  0.1156E+00
     -2.756  0.3721E-01  0.1186E+00
     -2.674  0.1641E-01  0.1200E+00
     -2.591  0.5493E-02  0.1205E+00
     -2.509  0.2793E-02  0.1207E+00
     -2.426  0.5940E-02  0.1212E+00
     -2.344  0.1464E-01  0.1224E+00
     -2.261  0.2670E-01  0.1246E+00
     -2.179  0.3501E-01  0.1275E+00
     -2.096  0.3299E-01  0.1302E+00
     -2.014  0.2248E-01  0.1321E+00
     -1.931  0.1181E-01  0.1330E+00
     -1.849  0.7648E-02  0.1337E+00
     -1.766  0.1197E-01  0.1346E+00
     -1.684  0.2272E-01  0.1365E+00
     -1.601  0.3314E-01  0.1393E+00
     -1.518  0.3493E-01  0.1421E+00
     -1.436  0.2647E-01  0.1443E+00
     -1.353  0.1445E-01  0.1455E+00
     -1.271  0.6055E-02  0.1460E+00
     -1.188  0.3931E-02  0.1463E+00
     -1.106  0.9652E-02  0.1471E+00
     -1.023  0.2722E-01  0.1494E+00
     -0.941  0.5889E-01  0.1542E+00
     -0.858  0.9670E-01  0.1622E+00
     -0.776  0.1228E+00  0.1724E+00
     -0.693  0.1231E+00  0.1825E+00
     -0.611  0.1006E+00  0.1908E+00
     -0.528  0.7302E-01  0.1968E+00
     -0.446  0.5532E-01  0.2014E+00
     -0.363  0.4691E-01  0.2053E+00
     -0.281  0.3837E-01  0.2084E+00
     -0.198  0.2586E-01  0.2106E+00
     -0.116  0.1338E-01  0.2117E+00
     -0.033  0.5191E-02  0.2121E+00
      0.050  0.1548E-02  0.2122E+00
      0.132  0.7600E-03  0.2123E+00
      0.215  0.2417E-02  0.2125E+00
      0.297  0.9016E-02  0.2132E+00
      0.380  0.2461E-01  0.2153E+00
      0.462  0.4824E-01  0.2193E+00
      0.545  0.6793E-01  0.2249E+00
      0.627  0.6869E-01  0.2305E+00
      0.710  0.4989E-01  0.2347E+00
      0.792  0.2602E-01  0.2368E+00
      0.875  0.9766E-02  0.2376E+00
      0.957  0.2796E-02  0.2378E+00
      1.040  0.1483E-02  0.2380E+00
      1.122  0.3948E-02  0.2383E+00
      1.205  0.1105E-01  0.2392E+00
      1.287  0.2260E-01  0.2411E+00
      1.370  0.3338E-01  0.2438E+00
      1.452  0.3641E-01  0.2468E+00
      1.535  0.3277E-01  0.2495E+00
      1.618  0.3426E-01  0.2524E+00
      1.700  0.5181E-01  0.2566E+00
      1.783  0.8104E-01  0.2633E+00
      1.865  0.1015E+00  0.2717E+00
      1.948  0.9523E-01  0.2796E+00
      2.030  0.6644E-01  0.2850E+00
      2.113  0.3667E-01  0.2881E+00
      2.195  0.2412E-01  0.2900E+00
      2.278  0.3310E-01  0.2928E+00
      2.360  0.5469E-01  0.2973E+00
      2.443  0.7101E-01  0.3032E+00
      2.525  0.6957E-01  0.3089E+00
      2.608  0.5943E-01  0.3138E+00
      2.690  0.6418E-01  0.3191E+00
      2.773  0.9367E-01  0.3268E+00
      2.855  0.1281E+00  0.3374E+00
      2.938  0.1399E+00  0.3489E+00
      3.020  0.1310E+00  0.3598E+00
      3.103  0.1302E+00  0.3705E+00
      3.186  0.1482E+00  0.3827E+00
      3.268  0.1590E+00  0.3959E+00
      3.351  0.1361E+00  0.4071E+00
      3.433  0.8754E-01  0.4143E+00
      3.516  0.4284E-01  0.4179E+00
      3.598  0.2124E-01  0.4196E+00
      3.681  0.2434E-01  0.4216E+00
      3.763  0.4474E-01  0.4253E+00
      3.846  0.6894E-01  0.4310E+00
      3.928  0.8314E-01  0.4379E+00
      4.011  0.8645E-01  0.4450E+00
      4.093  0.8844E-01  0.4523E+00
      4.176  0.9094E-01  0.4598E+00
      4.258  0.8668E-01  0.4670E+00
      4.341  0.7384E-01  0.4730E+00
      4.423  0.5762E-01  0.4778E+00
      4.506  0.4380E-01  0.4814E+00
      4.588  0.3824E-01  0.4846E+00
      4.671  0.4326E-01  0.4881E+00
      4.754  0.5180E-01  0.4924E+00
      4.836  0.5460E-01  0.4969E+00
      4.919  0.5188E-01  0.5012E+00
      5.001  0.4983E-01  0.5053E+00
      5.084  0.5034E-01  0.5095E+00
      5.166  0.5238E-01  0.5138E+00
      5.249  0.5522E-01  0.5183E+00
      5.331  0.5427E-01  0.5228E+00
      5.414  0.4402E-01  0.5265E+00
      5.496  0.2721E-01  0.5287E+00
      5.579  0.1267E-01  0.5298E+00
      5.661  0.5431E-02  0.5302E+00
      5.744  0.4571E-02  0.5306E+00
      5.826  0.6805E-02  0.5311E+00
      5.909  0.8763E-02  0.5319E+00
      5.991  0.8275E-02  0.5325E+00
      6.074  0.5703E-02  0.5330E+00
      6.156  0.3262E-02  0.5333E+00
      6.239  0.3022E-02  0.5335E+00
      6.322  0.6022E-02  0.5340E+00
      6.404  0.1166E-01  0.5350E+00
      6.487  0.1684E-01  0.5364E+00
      6.569  0.1787E-01  0.5379E+00
      6.652  0.1527E-01  0.5391E+00
      6.734  0.1455E-01  0.5403E+00
      6.817  0.2054E-01  0.5420E+00
      6.899  0.3111E-01  0.5446E+00
      6.982  0.3849E-01  0.5478E+00
      7.064  0.3847E-01  0.5509E+00
      7.147  0.3556E-01  0.5539E+00
      7.229  0.3606E-01  0.5568E+00
      7.312  0.4078E-01  0.5602E+00
      7.394  0.4786E-01  0.5642E+00
      7.477  0.5780E-01  0.5689E+00
      7.559  0.7185E-01  0.5749E+00
      7.642  0.8636E-01  0.5820E+00
      7.724  0.9345E-01  0.5897E+00
      7.807  0.9202E-01  0.5973E+00
      7.889  0.9120E-01  0.6048E+00
      7.972  0.9457E-01  0.6126E+00
      8.055  0.9195E-01  0.6202E+00
      8.137  0.7506E-01  0.6264E+00
      8.220  0.4981E-01  0.6305E+00
      8.302  0.2823E-01  0.6328E+00
      8.385  0.1643E-01  0.6342E+00
      8.467  0.1269E-01  0.6352E+00
      8.550  0.1321E-01  0.6363E+00
      8.632  0.1753E-01  0.6378E+00
      8.715  0.2657E-01  0.6400E+00
      8.797  0.3726E-01  0.6430E+00
      8.880  0.4446E-01  0.6467E+00
      8.962  0.4932E-01  0.6508E+00
      9.045  0.6005E-01  0.6557E+00
      9.127  0.8442E-01  0.6627E+00
      9.210  0.1230E+00  0.6729E+00
      9.292  0.1614E+00  0.6862E+00
      9.375  0.1732E+00  0.7005E+00
      9.457  0.1471E+00  0.7126E+00
      9.540  0.1073E+00  0.7215E+00
      9.623  0.8813E-01  0.7287E+00
      9.705  0.9730E-01  0.7368E+00
      9.788  0.1171E+00  0.7464E+00
      9.870  0.1315E+00  0.7573E+00
      9.953  0.1364E+00  0.7685E+00
     10.035  0.1311E+00  0.7794E+00
     10.118  0.1188E+00  0.7892E+00
     10.200  0.1117E+00  0.7984E+00
     10.283  0.1189E+00  0.8082E+00
     10.365  0.1329E+00  0.8192E+00
     10.448  0.1405E+00  0.8308E+00
     10.530  0.1395E+00  0.8423E+00
     10.613  0.1399E+00  0.8538E+00
     10.695  0.1528E+00  0.8664E+00
     10.778  0.1743E+00  0.8808E+00
     10.860  0.1802E+00  0.8957E+00
     10.943  0.1508E+00  0.9081E+00
     11.025  0.9722E-01  0.9162E+00
     11.108  0.5028E-01  0.9203E+00
     11.191  0.3069E-01  0.9228E+00
     11.273  0.3890E-01  0.9261E+00
     11.356  0.6116E-01  0.9311E+00
     11.438  0.7826E-01  0.9376E+00
     11.521  0.7927E-01  0.9441E+00
     11.603  0.6879E-01  0.9498E+00
     11.686  0.5608E-01  0.9544E+00
     11.768  0.4506E-01  0.9581E+00
     11.851  0.3701E-01  0.9612E+00
     11.933  0.3178E-01  0.9638E+00
     12.016  0.2604E-01  0.9659E+00
     12.098  0.1766E-01  0.9674E+00
     12.181  0.9086E-02  0.9682E+00
     12.263  0.3419E-02  0.9684E+00
     12.346  0.9291E-03  0.9685E+00
     12.428  0.1815E-03  0.9685E+00
     12.511  0.2544E-04  0.9685E+00
     12.593  0.2558E-05  0.9685E+00
     12.676  0.1843E-06  0.9685E+00
     12.759  0.1232E-07  0.9685E+00
     12.841  0.6975E-07  0.9685E+00
     12.924  0.1222E-05  0.9685E+00
     13.006  0.1542E-04  0.9685E+00
     13.089  0.1396E-03  0.9685E+00
     13.171  0.9084E-03  0.9686E+00
     13.254  0.4260E-02  0.9690E+00
     13.336  0.1449E-01  0.9702E+00
     13.419  0.3621E-01  0.9732E+00
     13.501  0.6818E-01  0.9788E+00
     13.584  0.1009E+00  0.9871E+00
     13.666  0.1235E+00  0.9973E+00
     13.749  0.1297E+00  0.1008E+01
     13.831  0.1172E+00  0.1018E+01
     13.914  0.9205E-01  0.1025E+01
     13.996  0.6783E-01  0.1031E+01
     14.079  0.5100E-01  0.1035E+01
     14.161  0.3769E-01  0.1038E+01
     14.244  0.2657E-01  0.1040E+01
     14.327  0.2363E-01  0.1042E+01
     14.409  0.3304E-01  0.1045E+01
     14.492  0.4973E-01  0.1049E+01
     14.574  0.6201E-01  0.1054E+01
     14.657  0.6066E-01  0.1059E+01
     14.739  0.4602E-01  0.1063E+01
     14.822  0.2675E-01  0.1065E+01
     14.904  0.1172E-01  0.1066E+01
     14.987  0.3809E-02  0.1067E+01
     15.069  0.9079E-03  0.1067E+01
     15.152  0.1572E-03  0.1067E+01
     15.234  0.1968E-04  0.1067E+01
     15.317  0.1774E-05  0.1067E+01
     15.399  0.1148E-06  0.1067E+01
     15.482  0.5329E-08  0.1067E+01
     15.564  0.1772E-09  0.1067E+01
     15.647  0.4217E-11  0.1067E+01
     15.729  0.7176E-13  0.1067E+01
     15.812  0.8782E-15  0.1067E+01
     15.895  0.0000E+00  0.1067E+01
     15.977  0.0000E+00  0.1067E+01
     16.060  0.0000E+00  0.1067E+01
     16.142  0.0000E+00  0.1067E+01
     16.225  0.0000E+00  0.1067E+01
     16.307  0.0000E+00  0.1067E+01
     16.390  0.0000E+00  0.1067E+01
     16.472  0.0000E+00  0.1067E+01
     16.555  0.0000E+00  0.1067E+01
     16.637  0.0000E+00  0.1067E+01
