unknown system                          
   1.00000000000000     
    -2.450000    2.450000    1.274000
     2.450000   -2.450000    1.274000
     2.450000    2.450000   -1.274000
   Si
     2
Direct
  0.250000  0.750000  0.500000
  0.000000  0.000000  0.000000
 
   32   32   32
 -.53469461148E+01 -.41708018896E+01 -.10121622896E+01 0.31748370723E+01 0.72321987431E+01
 0.10210980576E+02 0.11641163942E+02 0.11586037849E+02 0.10510284582E+02 0.90389484995E+01
 0.75889716691E+01 0.63053454849E+01 0.52610332617E+01 0.44773337524E+01 0.39431968986E+01
 0.36358151195E+01 0.35358181622E+01 0.36358208040E+01 0.39431769344E+01 0.44772921048E+01
 0.52610092142E+01 0.63053457477E+01 0.75889662836E+01 0.90389331959E+01 0.10510283376E+02
 0.11586047086E+02 0.11641158747E+02 0.10210971490E+02 0.72322150079E+01 0.31748610363E+01
 -.10121730588E+01 -.41708338913E+01 -.41708338913E+01 -.47795679853E+01 -.31113278606E+01
 0.30664261886E+00 0.44513153355E+01 0.82044636704E+01 0.10736039862E+02 0.11718876803E+02
 0.11331636408E+02 0.10095919428E+02 0.86144523571E+01 0.72048364866E+01 0.59853169958E+01
 0.50136911534E+01 0.43009072207E+01 0.38313624755E+01 0.35820837407E+01 0.35360159375E+01
 0.36891845645E+01 0.40522812503E+01 0.46465748275E+01 0.54936885826E+01 0.65989645776E+01
 0.79307202493E+01 0.94029011604E+01 0.10838465543E+02 0.11748466085E+02 0.11525270615E+02
 0.97823458781E+01 0.65730299526E+01 0.24831639207E+01 -.14743406167E+01 -.10121730588E+01
 -.31113539246E+01 -.31577345799E+01 -.11432937077E+01 0.22900396770E+01 0.61177533330E+01
 0.93258616272E+01 0.11244093222E+02 0.11699156582E+02 0.10971414965E+02 0.96110903460E+01
 0.81466970183E+01 0.67947580219E+01 0.56524604207E+01 0.47619503471E+01 0.41246907206E+01
 0.37215362169E+01 0.35301287201E+01 0.35363445545E+01 0.37398505957E+01 0.41541983815E+01
 0.48015055900E+01 0.57012416619E+01 0.68528019167E+01 0.82150247563E+01 0.96913188216E+01
 0.11073487400E+02 0.11839555338E+02 0.11428246987E+02 0.95424549131E+01 0.63400057132E+01
 0.24831639207E+01 0.31748610363E+01 0.30663696294E+00 -.11433090229E+01 -.70927007572E+00
 0.14576821821E+01 0.46569446667E+01 0.79283460198E+01 0.10413173199E+02 0.11623884409E+02
 0.11535997484E+02 0.10506904786E+02 0.90799236759E+01 0.76540892246E+01 0.63753384799E+01
 0.53203621894E+01 0.45160042073E+01 0.39555168710E+01 0.36176500121E+01 0.34816880376E+01
 0.35367289150E+01 0.37857018043E+01 0.42443445657E+01 0.49349213331E+01 0.58740933600E+01
 0.70551319245E+01 0.84287100446E+01 0.98912883372E+01 0.11213849384E+02 0.11879264304E+02
 0.11391074259E+02 0.95424549131E+01 0.65730299526E+01 0.72322150079E+01 0.44513320068E+01
 0.22900385384E+01 0.14576770626E+01 0.22317243494E+01 0.43415866678E+01 0.70880778016E+01
 0.96311420215E+01 0.11299486237E+02 0.11791165871E+02 0.11210306119E+02 0.99592682680E+01
 0.85238816985E+01 0.71560784610E+01 0.59633562862E+01 0.50018601618E+01 0.42848172135E+01
 0.37993433993E+01 0.35234233302E+01 0.34384725293E+01 0.35368624125E+01 0.38245456412E+01
 0.43187569545E+01 0.50408698969E+01 0.60040288014E+01 0.71959078414E+01 0.85613144414E+01
 0.99936778001E+01 0.11260523529E+02 0.11879264304E+02 0.11428246987E+02 0.97823458781E+01
 0.10210971490E+02 0.82044663165E+01 0.61177577850E+01 0.46569471582E+01 0.43415907880E+01
 0.52845247214E+01 0.71459077507E+01 0.92833134808E+01 0.11014833394E+02 0.11866461212E+02
 0.11706382472E+02 0.10736655743E+02 0.93689049174E+01 0.79649954391E+01 0.66724115543E+01
 0.55743949358E+01 0.47083847654E+01 0.40764624306E+01 0.36614982496E+01 0.34418510858E+01
 0.34016874709E+01 0.35366477191E+01 0.38549606490E+01 0.43742724521E+01 0.51142966655E+01
 0.60845994149E+01 0.72681781150E+01 0.86063442737E+01 0.99936778001E+01 0.11213849384E+02
 0.11839555338E+02 0.11525270615E+02 0.11641158747E+02 0.10736026395E+02 0.93258523896E+01
 0.79283439215E+01 0.70880832510E+01 0.71459160102E+01 0.80890391293E+01 0.95596176083E+01
 0.11013613959E+02 0.11944067954E+02 0.12064097337E+02 0.11382819382E+02 0.10163316578E+02
 0.87743405198E+01 0.74262068772E+01 0.62219348215E+01 0.52226980258E+01 0.44499802586E+01
 0.38975352990E+01 0.35460899347E+01 0.33754750660E+01 0.33727405573E+01 0.35362517556E+01
 0.38757231959E+01 0.44084571679E+01 0.51519004714E+01 0.61119617332E+01 0.72681781150E+01
 0.85613144414E+01 0.98912883372E+01 0.11073487400E+02 0.11748466085E+02 0.11586047086E+02
 0.11718875861E+02 0.11244083913E+02 0.10413160256E+02 0.96311333520E+01 0.92833165593E+01
 0.95596265429E+01 0.10366564415E+02 0.11371872013E+02 0.12153939400E+02 0.12377412536E+02
 0.11916275774E+02 0.10882701038E+02 0.95607836863E+01 0.82032887037E+01 0.69302775121E+01
 0.58218842603E+01 0.49202098175E+01 0.42345224792E+01 0.37532617139E+01 0.34566282931E+01
 0.33264623562E+01 0.33526517139E+01 0.35358081371E+01 0.38862651985E+01 0.44200494968E+01
 0.51519004714E+01 0.60845994149E+01 0.71959078414E+01 0.84287100446E+01 0.96913188216E+01
 0.10838465543E+02 0.10510283376E+02 0.11331646306E+02 0.11699162525E+02 0.11623876799E+02
 0.11299469414E+02 0.11014822017E+02 0.11013617070E+02 0.11371880814E+02 0.11958384298E+02
 0.12496872365E+02 0.12693584620E+02 0.12364870839E+02 0.11509513821E+02 0.10302324077E+02
 0.89819446084E+01 0.76830853419E+01 0.64977056105E+01 0.54863973110E+01 0.46763083459E+01
 0.40681945554E+01 0.36476131640E+01 0.33955463207E+01 0.32963252753E+01 0.33423726042E+01
 0.35356660597E+01 0.38862651985E+01 0.44084571679E+01 0.51142966655E+01 0.60040288014E+01
 0.70551319245E+01 0.82150247563E+01 0.94029011604E+01 0.90389331959E+01 0.10095914772E+02
 0.10971417295E+02 0.11535999389E+02 0.11791162207E+02 0.11866451470E+02 0.11944059438E+02
 0.12153940663E+02 0.12496879453E+02 0.12837899574E+02 0.12971601161E+02 0.12722139035E+02
 0.12027375629E+02 0.10970835882E+02 0.97363922408E+01 0.84599904447E+01 0.72381270656E+01
 0.61453336152E+01 0.52264517878E+01 0.44978369098E+01 0.39551358540E+01 0.35831653238E+01
 0.33645923437E+01 0.32861952806E+01 0.33423726042E+01 0.35358081371E+01 0.38757231959E+01
 0.43742724521E+01 0.50408698969E+01 0.58740933600E+01 0.68528019167E+01 0.79307202493E+01
 0.75889662836E+01 0.86144372870E+01 0.96110743951E+01 0.10506899070E+02 0.11210312172E+02
 0.11706388095E+02 0.12064091646E+02 0.12377402813E+02 0.12693585424E+02 0.12971609587E+02
 0.13094977464E+02 0.12930433457E+02 0.12399437020E+02 0.11526030423E+02 0.10431455250E+02
 0.92326051363E+01 0.80239756713E+01 0.68883180124E+01 0.58857019902E+01 0.50494444208E+01
 0.43891208275E+01 0.38980056565E+01 0.35615481547E+01 0.33645923437E+01 0.32963252753E+01
 0.33526517139E+01 0.35362517556E+01 0.38549606490E+01 0.43187569545E+01 0.49349213331E+01
 0.57012416619E+01 0.65989645776E+01 0.63053457477E+01 0.72048328418E+01 0.81466863946E+01
 0.90799112147E+01 0.99592627775E+01 0.10736660414E+02 0.11382825009E+02 0.11916272619E+02
 0.12364865005E+02 0.12722142909E+02 0.12930443002E+02 0.12902213391E+02 0.12566952558E+02
 0.11916968828E+02 0.11020199506E+02 0.99609013375E+01 0.88249040035E+01 0.76968952445E+01
 0.66478170420E+01 0.57269241825E+01 0.49599230099E+01 0.43526601360E+01 0.38980056565E+01
 0.35831653238E+01 0.33955463207E+01 0.33264623562E+01 0.33727405573E+01 0.35366477191E+01
 0.38245456412E+01 0.42443445657E+01 0.48015055900E+01 0.54936885826E+01 0.52610092142E+01
 0.59853161249E+01 0.67947698880E+01 0.76540929117E+01 0.85238691940E+01 0.93688926273E+01
 0.10163320729E+02 0.10882712488E+02 0.11509514847E+02 0.12027370020E+02 0.12399440503E+02
 0.12566962360E+02 0.12472002501E+02 0.12091057264E+02 0.11448263798E+02 0.10593506312E+02
 0.95972585436E+01 0.85390423186E+01 0.74945793175E+01 0.65255135378E+01 0.56735609859E+01
 0.49599230099E+01 0.43891208275E+01 0.39551358540E+01 0.36476131640E+01 0.34566282931E+01
 0.33754750660E+01 0.34016874709E+01 0.35368624125E+01 0.37857018043E+01 0.41541983815E+01
 0.46465748275E+01 0.44772921048E+01 0.50136729377E+01 0.56524695283E+01 0.63753571533E+01
 0.71560831765E+01 0.79649847690E+01 0.87743350324E+01 0.95607935437E+01 0.10302334113E+02
 0.10970832534E+02 0.11526024063E+02 0.11916973642E+02 0.12091066414E+02 0.12010624962E+02
 0.11664743223E+02 0.11073931972E+02 0.10286295950E+02 0.93680720787E+01 0.83920013123E+01
 0.74261964192E+01 0.65255135378E+01 0.57269241825E+01 0.50494444208E+01 0.44978369098E+01
 0.40681945554E+01 0.37532617139E+01 0.35460899347E+01 0.34418510858E+01 0.34384725293E+01
 0.35367289150E+01 0.37398505957E+01 0.40522812503E+01 0.39431769344E+01 0.43008879675E+01
 0.47619382698E+01 0.53203693472E+01 0.59633772935E+01 0.66724253524E+01 0.74262050865E+01
 0.82032850766E+01 0.89819501943E+01 0.97363989547E+01 0.10431453530E+02 0.11020195454E+02
 0.11448266343E+02 0.11664748172E+02 0.11635234727E+02 0.11351346340E+02 0.10833312565E+02
 0.10125880767E+02 0.92898931239E+01 0.83920013123E+01 0.74945793175E+01 0.66478170420E+01
 0.58857019902E+01 0.52264517878E+01 0.46763083459E+01 0.42345224792E+01 0.38975352990E+01
 0.36614982496E+01 0.35234233302E+01 0.34816880376E+01 0.35363445545E+01 0.36891845645E+01
 0.36358208040E+01 0.38313708174E+01 0.41246871472E+01 0.45160024262E+01 0.50018764779E+01
 0.55744196947E+01 0.62219457390E+01 0.69302725173E+01 0.76830826268E+01 0.84599986783E+01
 0.92326131360E+01 0.99608994974E+01 0.10593500588E+02 0.11073930676E+02 0.11351347605E+02
 0.11391801500E+02 0.11185830597E+02 0.10750460564E+02 0.10125880767E+02 0.93680720787E+01
 0.85390423186E+01 0.76968952445E+01 0.68883180124E+01 0.61453336152E+01 0.54863973110E+01
 0.49202098175E+01 0.44499802586E+01 0.40764624306E+01 0.37993433993E+01 0.36176500121E+01
 0.35301287201E+01 0.35360159375E+01 0.35358181622E+01 0.35821105251E+01 0.37215699711E+01
 0.39555408246E+01 0.42848317652E+01 0.47083974794E+01 0.52227095515E+01 0.58218903316E+01
 0.64977067344E+01 0.72381285274E+01 0.80239796638E+01 0.88249073355E+01 0.95972580753E+01
 0.10286292529E+02 0.10833309081E+02 0.11185828757E+02 0.11307636712E+02 0.11185830597E+02
 0.10833312565E+02 0.10286295950E+02 0.95972585436E+01 0.88249040035E+01 0.80239756713E+01
 0.72381270656E+01 0.64977056105E+01 0.58218842603E+01 0.52226980258E+01 0.47083847654E+01
 0.42848172135E+01 0.39555168710E+01 0.37215362169E+01 0.35820837407E+01 0.36358151195E+01
 0.35360383004E+01 0.35301803932E+01 0.36177047040E+01 0.37993767565E+01 0.40764742191E+01
 0.44499859896E+01 0.49202187735E+01 0.54864047471E+01 0.61453326016E+01 0.68883121557E+01
 0.76968944415E+01 0.85390482816E+01 0.93680760029E+01 0.10125877081E+02 0.10750454687E+02
 0.11185828757E+02 0.11391801500E+02 0.11351346340E+02 0.11073931972E+02 0.10593506312E+02
 0.99609013375E+01 0.92326051363E+01 0.84599904447E+01 0.76830853419E+01 0.69302775121E+01
 0.62219348215E+01 0.55743949358E+01 0.50018601618E+01 0.45160042073E+01 0.41246907206E+01
 0.38313624755E+01 0.39431968986E+01 0.36892126417E+01 0.35363869155E+01 0.34817387448E+01
 0.35234699367E+01 0.36615305317E+01 0.38975496376E+01 0.42345240722E+01 0.46763070371E+01
 0.52264516148E+01 0.58856993876E+01 0.66478117731E+01 0.74945781191E+01 0.83920060385E+01
 0.92898958324E+01 0.10125877081E+02 0.10833309081E+02 0.11351347605E+02 0.11635234727E+02
 0.11664743223E+02 0.11448263798E+02 0.11020199506E+02 0.10431455250E+02 0.97363922408E+01
 0.89819446084E+01 0.82032887037E+01 0.74262068772E+01 0.66724115543E+01 0.59633562862E+01
 0.53203621894E+01 0.47619503471E+01 0.43009072207E+01 0.44773337524E+01 0.40523294314E+01
 0.37398917960E+01 0.35367629095E+01 0.34385083627E+01 0.34418897921E+01 0.35461157509E+01
 0.37532611867E+01 0.40681792282E+01 0.44978303835E+01 0.50494498233E+01 0.57269245327E+01
 0.65255035470E+01 0.74261903970E+01 0.83920060385E+01 0.93680760029E+01 0.10286292529E+02
 0.11073930676E+02 0.11664748172E+02 0.12010624962E+02 0.12091057264E+02 0.11916968828E+02
 0.11526030423E+02 0.10970835882E+02 0.10302324077E+02 0.95607836863E+01 0.87743405198E+01
 0.79649954391E+01 0.71560784610E+01 0.63753384799E+01 0.56524604207E+01 0.50136911534E+01
 0.52610332617E+01 0.46466173541E+01 0.41542467478E+01 0.37857420434E+01 0.35368879977E+01
 0.34017034157E+01 0.33754861461E+01 0.34566285118E+01 0.36475984648E+01 0.39551190056E+01
 0.43891166772E+01 0.49599259439E+01 0.56735561427E+01 0.65255035470E+01 0.74945781191E+01
 0.85390482816E+01 0.95972580753E+01 0.10593500588E+02 0.11448266343E+02 0.12091066414E+02
 0.12472002501E+02 0.12566952558E+02 0.12399437020E+02 0.12027375629E+02 0.11509513821E+02
 0.10882701038E+02 0.10163316578E+02 0.93689049174E+01 0.85238816985E+01 0.76540892246E+01
 0.67947580219E+01 0.59853169958E+01 0.63053454849E+01 0.54936979202E+01 0.48015378193E+01
 0.42443907485E+01 0.38245753037E+01 0.35366439186E+01 0.33727206778E+01 0.33264495153E+01
 0.33955367476E+01 0.35831443746E+01 0.38979802907E+01 0.43526493020E+01 0.49599259439E+01
 0.57269245327E+01 0.66478117731E+01 0.76968944415E+01 0.88249073355E+01 0.99608994974E+01
 0.11020195454E+02 0.11916973642E+02 0.12566962360E+02 0.12902213391E+02 0.12930433457E+02
 0.12722139035E+02 0.12364870839E+02 0.11916275774E+02 0.11382819382E+02 0.10736655743E+02
 0.99592682680E+01 0.90799236759E+01 0.81466970183E+01 0.72048364866E+01 0.75889716691E+01
 0.65989624792E+01 0.57012452751E+01 0.49349395398E+01 0.43187768416E+01 0.38549577809E+01
 0.35362220931E+01 0.33526170189E+01 0.32963003693E+01 0.33645675643E+01 0.35615156405E+01
 0.38979802907E+01 0.43891166772E+01 0.50494498233E+01 0.58856993876E+01 0.68883121557E+01
 0.80239796638E+01 0.92326131360E+01 0.10431453530E+02 0.11526024063E+02 0.12399440503E+02
 0.12930443002E+02 0.13094977464E+02 0.12971601161E+02 0.12693584620E+02 0.12377412536E+02
 0.12064097337E+02 0.11706382472E+02 0.11210306119E+02 0.10506904786E+02 0.96110903460E+01
 0.86144523571E+01 0.90389484995E+01 0.79307366928E+01 0.68528036756E+01 0.58740801040E+01
 0.50408577652E+01 0.43742661218E+01 0.38757045924E+01 0.35357648209E+01 0.33423201167E+01
 0.32861560321E+01 0.33645675643E+01 0.35831443746E+01 0.39551190056E+01 0.44978303835E+01
 0.52264516148E+01 0.61453326016E+01 0.72381285274E+01 0.84599986783E+01 0.97363989547E+01
 0.10970832534E+02 0.12027370020E+02 0.12722142909E+02 0.12971609587E+02 0.12837899574E+02
 0.12496872365E+02 0.12153939400E+02 0.11944067954E+02 0.11866461212E+02 0.11791165871E+02
 0.11535997484E+02 0.10971414965E+02 0.10095919428E+02 0.10510284582E+02 0.94029175537E+01
 0.82150401613E+01 0.70551263892E+01 0.60040046063E+01 0.51142725794E+01 0.44084354849E+01
 0.38862270565E+01 0.35356074746E+01 0.33423201167E+01 0.32963003693E+01 0.33955367476E+01
 0.36475984648E+01 0.40681792282E+01 0.46763070371E+01 0.54864047471E+01 0.64977067344E+01
 0.76830826268E+01 0.89819501943E+01 0.10302334113E+02 0.11509514847E+02 0.12364865005E+02
 0.12693585424E+02 0.12496879453E+02 0.11958384298E+02 0.11371872013E+02 0.11013613959E+02
 0.11014833394E+02 0.11299486237E+02 0.11623884409E+02 0.11699156582E+02 0.11331636408E+02
 0.11586037849E+02 0.10838454978E+02 0.96913220180E+01 0.84287246324E+01 0.71959096232E+01
 0.60845736486E+01 0.51518605279E+01 0.44200119793E+01 0.38862270565E+01 0.35357648209E+01
 0.33526170189E+01 0.33264495153E+01 0.34566285118E+01 0.37532611867E+01 0.42345240722E+01
 0.49202187735E+01 0.58218903316E+01 0.69302725173E+01 0.82032850766E+01 0.95607935437E+01
 0.10882712488E+02 0.11916272619E+02 0.12377402813E+02 0.12153940663E+02 0.11371880814E+02
 0.10366564415E+02 0.95596176083E+01 0.92833134808E+01 0.96311420215E+01 0.10413173199E+02
 0.11244093222E+02 0.11718876803E+02 0.11641163942E+02 0.11748451512E+02 0.11073467055E+02
 0.98912893923E+01 0.85613325909E+01 0.72681766781E+01 0.61119265151E+01 0.51518605279E+01
 0.44084354849E+01 0.38757045924E+01 0.35362220931E+01 0.33727206778E+01 0.33754861461E+01
 0.35461157509E+01 0.38975496376E+01 0.44499859896E+01 0.52227095515E+01 0.62219457390E+01
 0.74262050865E+01 0.87743350324E+01 0.10163320729E+02 0.11382825009E+02 0.12064091646E+02
 0.11944059438E+02 0.11013617070E+02 0.95596265429E+01 0.80890391293E+01 0.71459077507E+01
 0.70880778016E+01 0.79283460198E+01 0.93258616272E+01 0.10736039862E+02 0.10210980576E+02
 0.11525281574E+02 0.11839546285E+02 0.11213826503E+02 0.99936709472E+01 0.86063558115E+01
 0.72681766781E+01 0.60845736486E+01 0.51142725794E+01 0.43742661218E+01 0.38549577809E+01
 0.35366439186E+01 0.34017034157E+01 0.34418897921E+01 0.36615305317E+01 0.40764742191E+01
 0.47083974794E+01 0.55744196947E+01 0.66724253524E+01 0.79649847690E+01 0.93688926273E+01
 0.10736660414E+02 0.11706388095E+02 0.11866451470E+02 0.11014822017E+02 0.92833165593E+01
 0.71459160102E+01 0.52845247214E+01 0.43415866678E+01 0.46569446667E+01 0.61177533330E+01
 0.82044636704E+01 0.72321987431E+01 0.97823562976E+01 0.11428266319E+02 0.11879254414E+02
 0.11260493512E+02 0.99936709472E+01 0.85613325909E+01 0.71959096232E+01 0.60040046063E+01
 0.50408577652E+01 0.43187768416E+01 0.38245753037E+01 0.35368879977E+01 0.34385083627E+01
 0.35234699367E+01 0.37993767565E+01 0.42848317652E+01 0.50018764779E+01 0.59633772935E+01
 0.71560831765E+01 0.85238691940E+01 0.99592627775E+01 0.11210312172E+02 0.11791162207E+02
 0.11299469414E+02 0.96311333520E+01 0.70880832510E+01 0.43415907880E+01 0.22317243494E+01
 0.14576821821E+01 0.22900396770E+01 0.44513153355E+01 0.31748370723E+01 0.65730054943E+01
 0.95424628280E+01 0.11391092160E+02 0.11879254414E+02 0.11213826503E+02 0.98912893923E+01
 0.84287246324E+01 0.70551263892E+01 0.58740801040E+01 0.49349395398E+01 0.42443907485E+01
 0.37857420434E+01 0.35367629095E+01 0.34817387448E+01 0.36177047040E+01 0.39555408246E+01
 0.45160024262E+01 0.53203693472E+01 0.63753571533E+01 0.76540929117E+01 0.90799112147E+01
 0.10506899070E+02 0.11535999389E+02 0.11623876799E+02 0.10413160256E+02 0.79283439215E+01
 0.46569471582E+01 0.14576770626E+01 -.70927007572E+00 -.11432937077E+01 0.30664261886E+00
 -.10121622896E+01 0.24831339385E+01 0.63399751229E+01 0.95424628280E+01 0.11428266319E+02
 0.11839546285E+02 0.11073467055E+02 0.96913220180E+01 0.82150401613E+01 0.68528036756E+01
 0.57012452751E+01 0.48015378193E+01 0.41542467478E+01 0.37398917960E+01 0.35363869155E+01
 0.35301803932E+01 0.37215699711E+01 0.41246871472E+01 0.47619382698E+01 0.56524695283E+01
 0.67947698880E+01 0.81466863946E+01 0.96110743951E+01 0.10971417295E+02 0.11699162525E+02
 0.11244083913E+02 0.93258523896E+01 0.61177577850E+01 0.22900385384E+01 -.11433090229E+01
 -.31577345799E+01 -.31113278606E+01 -.41708018896E+01 -.14743293563E+01 0.24831339385E+01
 0.65730054943E+01 0.97823562976E+01 0.11525281574E+02 0.11748451512E+02 0.10838454978E+02
 0.94029175537E+01 0.79307366928E+01 0.65989624792E+01 0.54936979202E+01 0.46466173541E+01
 0.40523294314E+01 0.36892126417E+01 0.35360383004E+01 0.35821105251E+01 0.38313708174E+01
 0.43008879675E+01 0.50136729377E+01 0.59853161249E+01 0.72048328418E+01 0.86144372870E+01
 0.10095914772E+02 0.11331646306E+02 0.11718875861E+02 0.10736026395E+02 0.82044663165E+01
 0.44513320068E+01 0.30663696294E+00 -.31113539246E+01 -.47795679853E+01 -.41707036640E+01
 -.33073300206E+01 -.52533445738E+00 0.33264669466E+01 0.71597969560E+01 0.10041303574E+02
 0.11470593141E+02 0.11459040709E+02 0.10423781226E+02 0.89652471106E+01 0.75122215623E+01
 0.62165846279E+01 0.51553092859E+01 0.43525270674E+01 0.37980430846E+01 0.34683387984E+01
 0.33424667087E+01 0.34111136789E+01 0.36798465871E+01 0.41671979073E+01 0.48971319820E+01
 0.58847977138E+01 0.71162806801E+01 0.85284657264E+01 0.99956001110E+01 0.11173837010E+02
 0.11466530697E+02 0.10392629762E+02 0.78322620110E+01 0.41665864031E+01 0.24590045220E+00
 -.28457196275E+01 -.33073576479E+01 -.41708103572E+01 -.28457822127E+01 0.24592279488E+00
 0.41666097719E+01 0.78322232007E+01 0.10392584633E+02 0.11466557834E+02 0.11173906513E+02
 0.99956154426E+01 0.85284115517E+01 0.71162447300E+01 0.58848335612E+01 0.48971789008E+01
 0.41671822392E+01 0.36798000845E+01 0.34111179202E+01 0.33425152002E+01 0.34683450172E+01
 0.37979849061E+01 0.43524895783E+01 0.51553503507E+01 0.62166413264E+01 0.75122123631E+01
 0.89652015738E+01 0.10423782699E+02 0.11459080121E+02 0.11470582990E+02 0.10041233382E+02
 0.71597682046E+01 0.33265363869E+01 -.52525665068E+00 -.43146479729E+00 -.27439302325E+01
 -.31112580533E+01 -.14269191082E+01 0.17650769012E+01 0.54962752083E+01 0.87494475036E+01
 0.10803650517E+02 0.11416701597E+02 0.10811226389E+02 0.95089197681E+01 0.80570418172E+01
 0.67016359511E+01 0.55473694279E+01 0.46420991030E+01 0.39899391076E+01 0.35719381199E+01
 0.33647104058E+01 0.33527200179E+01 0.35342752087E+01 0.39221179272E+01 0.45388334039E+01
 0.54064157546E+01 0.65292943655E+01 0.78735124535E+01 0.93506321903E+01 0.10780303297E+02
 0.11680635907E+02 0.11481107435E+02 0.98433826309E+01 0.68582038082E+01 0.31127126876E+01
 0.35637714273E+01 0.51619377368E+00 -.12355588032E+01 -.11433496678E+01 0.74490294669E+00
 0.38073790324E+01 0.71061502347E+01 0.97457355885E+01 0.11166656788E+02 0.11270614481E+02
 0.10365727899E+02 0.89841688645E+01 0.75680282041E+01 0.62839876980E+01 0.52170938552E+01
 0.43996783373E+01 0.38270972840E+01 0.34779841140E+01 0.33305846235E+01 0.33727697396E+01
 0.36064969837E+01 0.40472907083E+01 0.47185264109E+01 0.56398096737E+01 0.68093974741E+01
 0.81844800578E+01 0.96682794785E+01 0.11056916943E+02 0.11852787649E+02 0.11537969416E+02
 0.98580622275E+01 0.69888934099E+01 0.75375023910E+01 0.46137770998E+01 0.21802625578E+01
 0.10038354500E+01 0.14576769437E+01 0.33658605946E+01 0.60812246765E+01 0.87533481479E+01
 0.10649167091E+02 0.11384785101E+02 0.10995130184E+02 0.98472290422E+01 0.84413807002E+01
 0.70786595352E+01 0.58786492528E+01 0.49058037416E+01 0.41780657665E+01 0.36839573868E+01
 0.34010667153E+01 0.33098339058E+01 0.34016823211E+01 0.36820541412E+01 0.41685457965E+01
 0.48841460919E+01 0.58451333585E+01 0.70438033912E+01 0.84303876786E+01 0.99033161120E+01
 0.11247455433E+02 0.11982705739E+02 0.11657394029E+02 0.10097155056E+02 0.10522789671E+02
 0.84162258053E+01 0.61044875809E+01 0.43227549145E+01 0.36655496983E+01 0.43415434827E+01
 0.60868762070E+01 0.82820862489E+01 0.10208564595E+02 0.11316751074E+02 0.11393986717E+02
 0.10585265605E+02 0.92843743554E+01 0.78988550558E+01 0.66062924657E+01 0.54997031989E+01
 0.46238839651E+01 0.39844600491E+01 0.35650113227E+01 0.33433466803E+01 0.33027990000E+01
 0.34383693371E+01 0.37582505517E+01 0.42809864681E+01 0.50282554132E+01 0.60126616109E+01
 0.72210885925E+01 0.85987994186E+01 0.10043176012E+02 0.11345100232E+02 0.12066879244E+02
 0.11828205091E+02 0.12013133214E+02 0.11054811472E+02 0.94814772195E+01 0.78152707152E+01
 0.66477800112E+01 0.64006749192E+01 0.71458338775E+01 0.85773055707E+01 0.10148070626E+02
 0.11297777066E+02 0.11661611345E+02 0.11177895932E+02 0.10069352728E+02 0.87149076718E+01
 0.73760683084E+01 0.61678103026E+01 0.51601617476E+01 0.43803886531E+01 0.38245379103E+01
 0.34734856878E+01 0.33064416992E+01 0.33097936005E+01 0.34816272679E+01 0.38321116450E+01
 0.43798644106E+01 0.51444047766E+01 0.61342930459E+01 0.73319090108E+01 0.86801890547E+01
 0.10079378279E+02 0.11342522308E+02 0.12090700916E+02 0.12031623230E+02 0.12157798251E+02
 0.11587716581E+02 0.10560921811E+02 0.95028726957E+01 0.88548096349E+01 0.88827540031E+01
 0.95595849096E+01 0.10580835948E+02 0.11502965280E+02 0.11930911780E+02 0.11667804951E+02
 0.10770940331E+02 0.95044131682E+01 0.81645866754E+01 0.68934071062E+01 0.57791582124E+01
 0.48710767579E+01 0.41824033211E+01 0.37027325707E+01 0.34120069964E+01 0.32914600659E+01
 0.33305472729E+01 0.35299832088E+01 0.39009719551E+01 0.44610993508E+01 0.52270564261E+01
 0.62036249527E+01 0.73700951776E+01 0.86695794305E+01 0.10008378108E+02 0.11232286899E+02
 0.11010103962E+02 0.11866009300E+02 0.12202924594E+02 0.12011600863E+02 0.11486440943E+02
 0.10946490575E+02 0.10691622816E+02 0.10861865313E+02 0.11371797342E+02 0.11953042205E+02
 0.12279499258E+02 0.12110568485E+02 0.11387728783E+02 0.10249441454E+02 0.89503862201E+01
 0.76581909670E+01 0.64702720714E+01 0.54539454027E+01 0.46413682857E+01 0.40355411576E+01
 0.36222979249E+01 0.33821267583E+01 0.32988253124E+01 0.33646325701E+01 0.35819895661E+01
 0.39621315038E+01 0.45209529108E+01 0.52721128890E+01 0.62170044264E+01 0.73332102780E+01
 0.85664987233E+01 0.98320344827E+01 0.95578635939E+01 0.10677820777E+02 0.11576234198E+02
 0.12098896431E+02 0.12235908100E+02 0.12126278600E+02 0.11985681972E+02 0.11993932244E+02
 0.12200281177E+02 0.12496861963E+02 0.12672704026E+02 0.12517280550E+02 0.11920767925E+02
 0.10926159794E+02 0.97104592128E+01 0.84415208412E+01 0.72195589745E+01 0.61235935663E+01
 0.52032181615E+01 0.44776983779E+01 0.39435286618E+01 0.35852000085E+01 0.33847598645E+01
 0.33285592799E+01 0.34110642406E+01 0.36357082746E+01 0.40130376176E+01 0.45566907315E+01
 0.52771953773E+01 0.61733258882E+01 0.72226455239E+01 0.83756208096E+01 0.81059678481E+01
 0.91977709608E+01 0.10246829246E+02 0.11159003072E+02 0.11819290207E+02 0.12208076060E+02
 0.12408137189E+02 0.12544956238E+02 0.12705666964E+02 0.12882418847E+02 0.12971577007E+02
 0.12827598999E+02 0.12341140719E+02 0.11501485928E+02 0.10413402420E+02 0.92165705610E+01
 0.80072421846E+01 0.68695408677E+01 0.58667108573E+01 0.50347550303E+01 0.43843884026E+01
 0.39087261230E+01 0.35925122806E+01 0.34199119795E+01 0.33797890118E+01 0.34683216699E+01
 0.36891304382E+01 0.40513963166E+01 0.45663264607E+01 0.52417270819E+01 0.60746532310E+01
 0.70439017573E+01 0.68056314162E+01 0.77703183302E+01 0.87678847446E+01 0.97397699386E+01
 0.10630098064E+02 0.11369094869E+02 0.11924870005E+02 0.12330298036E+02 0.12639492501E+02
 0.12875088029E+02 0.12999968108E+02 0.12930455860E+02 0.12582750151E+02 0.11926212766E+02
 0.11014426512E+02 0.99454895883E+01 0.88037393425E+01 0.76726067361E+01 0.66240233302E+01
 0.57088170788E+01 0.49535719566E+01 0.43639755006E+01 0.39320732622E+01 0.36441030397E+01
 0.34867398051E+01 0.34510681971E+01 0.35343503723E+01 0.37398736515E+01 0.40752348755E+01
 0.45492483486E+01 0.51673602874E+01 0.59257577584E+01 0.57339721757E+01 0.65195661074E+01
 0.73844189465E+01 0.82870751816E+01 0.91814497584E+01 0.10026027709E+02 0.10787213338E+02
 0.11432724052E+02 0.11956630082E+02 0.12362313780E+02 0.12632502529E+02 0.12720106904E+02
 0.12566963849E+02 0.12139371414E+02 0.11457790140E+02 0.10577885636E+02 0.95666351660E+01
 0.85011282388E+01 0.74562668095E+01 0.64937864647E+01 0.56554951607E+01 0.49621293551E+01
 0.44171697901E+01 0.40133009045E+01 0.37389826365E+01 0.35835119566E+01 0.35400209748E+01
 0.36065610981E+01 0.37857453480E+01 0.40833696715E+01 0.45060365916E+01 0.50575084855E+01
 0.49176661139E+01 0.55086780702E+01 0.61990933550E+01 0.69656433582E+01 0.77764408665E+01
 0.85962103121E+01 0.93926074977E+01 0.10139968161E+02 0.10817174411E+02 0.11399614587E+02
 0.11858618605E+02 0.12155669984E+02 0.12244803723E+02 0.12091084135E+02 0.11687933772E+02
 0.11056017263E+02 0.10241714527E+02 0.93092574304E+01 0.83297762736E+01 0.73702665969E+01
 0.64846885947E+01 0.57089854912E+01 0.50608175328E+01 0.45433149274E+01 0.41508940606E+01
 0.38748850826E+01 0.37074844000E+01 0.36437553927E+01 0.36822226366E+01 0.38246600316E+01
 0.40752290445E+01 0.44387188301E+01 0.43506125483E+01 0.47544277502E+01 0.52603212229E+01
 0.58588163580E+01 0.65325858052E+01 0.72581760176E+01 0.80097357906E+01 0.87626204337E+01
 0.94942903563E+01 0.10181257055E+02 0.10793728263E+02 0.11292241734E+02 0.11630418999E+02
 0.11764361333E+02 0.11664758726E+02 0.11326118055E+02 0.10769608775E+02 0.10039506847E+02
 0.91953322907E+01 0.83020325171E+01 0.74202235444E+01 0.65984120861E+01 0.58688925668E+01
 0.52480118406E+01 0.47399282823E+01 0.43418164190E+01 0.40484480352E+01 0.38550743734E+01
 0.37586905803E+01 0.37583441740E+01 0.38550488158E+01 0.40514076081E+01 0.40130507644E+01
 0.42458240750E+01 0.45754435486E+01 0.50001975119E+01 0.55135001814E+01 0.61034659423E+01
 0.67542056918E+01 0.74479434445E+01 0.81662750547E+01 0.88890416618E+01 0.95907162541E+01
 0.10236469441E+02 0.10781516448E+02 0.11176196877E+02 0.11375826890E+02 0.11351352821E+02
 0.11096598599E+02 0.10630083347E+02 0.99917293007E+01 0.92358550491E+01 0.84220940489E+01
 0.76061673867E+01 0.68326934426E+01 0.61317624629E+01 0.55196709502E+01 0.50026372452E+01
 0.45813976818E+01 0.42547958946E+01 0.40215867071E+01 0.38808854246E+01 0.38322273913E+01
 0.38758543695E+01 0.38863404688E+01 0.39621624330E+01 0.41293252163E+01 0.43886077282E+01
 0.47391653231E+01 0.51771881049E+01 0.56956624784E+01 0.62851976017E+01 0.69348106853E+01
 0.76312525216E+01 0.83562532096E+01 0.90826534505E+01 0.97718602143E+01 0.10375252957E+02
 0.10840494924E+02 0.11121088127E+02 0.11185843010E+02 0.11025270735E+02 0.10653489485E+02
 0.10105623408E+02 0.94313985484E+01 0.86862656734E+01 0.79222132887E+01 0.71808737552E+01
 0.64907932432E+01 0.58689123307E+01 0.53244586712E+01 0.48627976611E+01 0.44876468918E+01
 0.42016077542E+01 0.40060033098E+01 0.39010047256E+01 0.39621278215E+01 0.38863748514E+01
 0.39010503146E+01 0.40059879961E+01 0.42015582749E+01 0.44876431161E+01 0.48628448856E+01
 0.53244873153E+01 0.58688946642E+01 0.64907777141E+01 0.71808930660E+01 0.79222335856E+01
 0.86862538294E+01 0.94313788228E+01 0.10105630714E+02 0.10653510370E+02 0.11025269701E+02
 0.11185819782E+02 0.11121073096E+02 0.10840501440E+02 0.10375263037E+02 0.97718555777E+01
 0.90826416204E+01 0.83562548196E+01 0.76312676908E+01 0.69348118604E+01 0.62851688665E+01
 0.56956335063E+01 0.51771975701E+01 0.47391939889E+01 0.43885950666E+01 0.41292654720E+01
 0.42458490311E+01 0.40130234812E+01 0.38757953562E+01 0.38321909108E+01 0.38808878022E+01
 0.40215996402E+01 0.42547936339E+01 0.45813868882E+01 0.50026400202E+01 0.55196898830E+01
 0.61317739193E+01 0.68326817838E+01 0.76061528637E+01 0.84221044097E+01 0.92358779050E+01
 0.99917274112E+01 0.10630056229E+02 0.11096584635E+02 0.11351361472E+02 0.11375820491E+02
 0.11176161392E+02 0.10781495753E+02 0.10236493097E+02 0.95907445004E+01 0.88890306728E+01
 0.81662517665E+01 0.74479557136E+01 0.67542330875E+01 0.61034500332E+01 0.55134456296E+01