 vasp.5.4.4.18Apr17-6-g9f103f2a35 (build Dec 09 2018 21:25:21) complex          
  
 executed on IFC18.0.1.163_CrayMP date 2019.03.19  13:19:48
 running on    8 total cores
 distrk:  each k-point on    8 cores,    1 groups
 distr:  one band on NCORES_PER_BAND=   1 cores,    8 groups


--------------------------------------------------------------------------------------------------------


 INCAR:
 POTCAR:   PAW_PBE Si 05Jan2001                   

 ----------------------------------------------------------------------------- 
|                                                                             |
|           W    W    AA    RRRRR   N    N  II  N    N   GGGG   !!!           |
|           W    W   A  A   R    R  NN   N  II  NN   N  G    G  !!!           |
|           W    W  A    A  R    R  N N  N  II  N N  N  G       !!!           |
|           W WW W  AAAAAA  RRRRR   N  N N  II  N  N N  G  GGG   !            |
|           WW  WW  A    A  R   R   N   NN  II  N   NN  G    G                |
|           W    W  A    A  R    R  N    N  II  N    N   GGGG   !!!           |
|                                                                             |
|      For optimal performance we recommend to set                            |
|        NCORE= 4 - approx SQRT( number of cores)                             |
|      NCORE specifies how many cores store one orbital (NPAR=cpu/NCORE).     |
|      This setting can  greatly improve the performance of VASP for DFT.     |
|      The default,   NCORE=1            might be grossly inefficient         |
|      on modern multi-core architectures or massively parallel machines.     |
|      Do your own testing !!!!                                               |
|      Unfortunately you need to use the default for GW and RPA calculations. |
|      (for HF NCORE is supported but not extensively tested yet)             |
|                                                                             |
 ----------------------------------------------------------------------------- 

 POTCAR:   PAW_PBE Si 05Jan2001                   
   VRHFIN =Si: s2p2                                                             
   LEXCH  = PE                                                                  
   EATOM  =   103.0669 eV,    7.5752 Ry                                         
                                                                                
   TITEL  = PAW_PBE Si 05Jan2001                                                
   LULTRA =        F    use ultrasoft PP ?                                      
   IUNSCR =        1    unscreen: 0-lin 1-nonlin 2-no                           
   RPACOR =    1.500    partial core radius                                     
   POMASS =   28.085; ZVAL   =    4.000    mass and valenz                      
   RCORE  =    1.900    outmost cutoff radius                                   
   RWIGS  =    2.480; RWIGS  =    1.312    wigner-seitz radius (au A)           
   ENMAX  =  245.345; ENMIN  =  184.009 eV                                      
   ICORE  =        2    local potential                                         
   LCOR   =        T    correct aug charges                                     
   LPAW   =        T    paw PP                                                  
   EAUG   =  322.069                                                            
   DEXC   =    -.007                                                            
   RMAX   =    2.944    core radius for proj-oper                               
   RAUG   =    1.300    factor for augmentation sphere                          
   RDEP   =    1.993    radius for radial grids                                 
   QCUT   =   -4.246; QGAM   =    8.493    optimization parameters              
                                                                                
   Description                                                                  
     l     E      TYP  RCUT    TYP  RCUT                                        
     0   .000     23  1.900                                                     
     0   .000     23  1.900                                                     
     1   .000     23  1.900                                                     
     1   .000     23  1.900                                                     
     2   .000      7  1.900                                                     
  local pseudopotential read in
  partial core-charges read in
  atomic valenz-charges read in
  non local Contribution for L=           0  read in
    real space projection operators read in
  non local Contribution for L=           0  read in
    real space projection operators read in
  non local Contribution for L=           1  read in
    real space projection operators read in
  non local Contribution for L=           1  read in
    real space projection operators read in
    PAW grid and wavefunctions read in
 
   number of l-projection  operators is LMAX  =           4
   number of lm-projection operators is LMMAX =           8
 
 PAW_PBE Si 05Jan2001                   :
 energy of atom  1       EATOM= -103.0669
 kinetic energy error for atom=    0.0021 (will be added to EATOM!!)
 
 
 POSCAR: Si2                                     
  positions in direct lattice
  No initial velocities read in
 exchange correlation table for  LEXCH =        8
   RHO(1)=    0.500       N(1)  =     2000
   RHO(2)=  100.500       N(2)  =     4000
 


--------------------------------------------------------------------------------------------------------


 ion  position               nearest neighbor table
   1  0.250  0.750  0.500-   2 2.53   2 2.53   2 2.53   2 2.53   2 3.11   2 3.11   2 3.11   2 3.11

   2  0.000  0.000  0.000-   1 2.53   1 2.53   1 2.53   1 2.53   1 3.11   1 3.11   1 3.11   1 3.11

 
  LATTYP: Found a body centered tetragonal cell.
 ALAT       =     4.9000000000
 C/A-ratio  =     0.5200000000
  
  Lattice vectors:
  
 A1 = (  -2.4500000000,   2.4500000000,   1.2740000000)
 A2 = (   2.4500000000,  -2.4500000000,   1.2740000000)
 A3 = (   2.4500000000,   2.4500000000,  -1.2740000000)


Analysis of symmetry for initial positions (statically):
=====================================================================
 Subroutine PRICEL returns:
 Original cell was already a primitive cell.
 

 Routine SETGRP: Setting up the symmetry group for a 
 body centered tetragonal supercell.


 Subroutine GETGRP returns: Found 16 space group operations
 (whereof  8 operations were pure point group operations)
 out of a pool of 16 trial point group operations.


The static configuration has the point symmetry D_2d.
 The point group associated with its full space group is D_4h.


Analysis of symmetry for dynamics (positions and initial velocities):
=====================================================================
 Subroutine PRICEL returns:
 Original cell was already a primitive cell.
 

 Routine SETGRP: Setting up the symmetry group for a 
 body centered tetragonal supercell.


 Subroutine GETGRP returns: Found 16 space group operations
 (whereof  8 operations were pure point group operations)
 out of a pool of 16 trial point group operations.


The dynamic configuration has the point symmetry D_2d.
 The point group associated with its full space group is D_4h.


 Subroutine INISYM returns: Found 16 space group operations
 (whereof  8 operations are pure point group operations),
 and found     1 'primitive' translations

 
 
 KPOINTS: Automatic kpoint scheme                 

Automatic generation of k-mesh.
Space group operators:
 irot       det(A)        alpha          n_x          n_y          n_z        tau_x        tau_y        tau_z
    1     1.000000     0.000000     1.000000     0.000000     0.000000     0.000000     0.000000     0.000000
    2    -1.000000    90.000000    -0.000000    -0.000000    -1.000000     0.000000     0.000000     0.000000
    3     1.000000   180.000000    -0.000000    -0.000000    -1.000000     0.000000     0.000000     0.000000
    4    -1.000000    90.000000    -0.000000     0.000000     1.000000     0.000000     0.000000     0.000000
    5    -1.000000   180.000000     0.000000    -1.000000     0.000000     0.000000     0.000000     0.000000
    6     1.000000   180.000000     0.707107     0.707107    -0.000000     0.000000     0.000000     0.000000
    7    -1.000000   180.000000     1.000000     0.000000     0.000000     0.000000     0.000000     0.000000
    8     1.000000   180.000000     0.707107    -0.707107     0.000000     0.000000     0.000000     0.000000
    9    -1.000000     0.000000     1.000000     0.000000     0.000000     0.250000     0.750000     0.500000
   10     1.000000    90.000000    -0.000000    -0.000000    -1.000000     0.250000     0.750000     0.500000
   11    -1.000000   180.000000    -0.000000    -0.000000    -1.000000     0.250000     0.750000     0.500000
   12     1.000000    90.000000    -0.000000     0.000000     1.000000     0.250000     0.750000     0.500000
   13     1.000000   180.000000     0.000000    -1.000000     0.000000     0.250000     0.750000     0.500000
   14    -1.000000   180.000000     0.707107     0.707107    -0.000000     0.250000     0.750000     0.500000
   15     1.000000   180.000000     1.000000     0.000000     0.000000     0.250000     0.750000     0.500000
   16    -1.000000   180.000000     0.707107    -0.707107     0.000000     0.250000     0.750000     0.500000
 
 Subroutine IBZKPT returns following result:
 ===========================================
 
 Found     75 irreducible k-points:
 
 Following reciprocal coordinates:
            Coordinates               Weight
  0.000000  0.000000  0.000000      1.000000
  0.111111 -0.000000  0.000000      8.000000
  0.222222  0.000000 -0.000000      8.000000
  0.333333 -0.000000  0.000000      8.000000
  0.444444  0.000000 -0.000000      8.000000
  0.111111  0.111111  0.000000      8.000000
  0.222222  0.111111 -0.000000     16.000000
  0.333333  0.111111  0.000000     16.000000
  0.444444  0.111111  0.000000     16.000000
 -0.444444  0.111111  0.000000     16.000000
 -0.333333  0.111111 -0.000000     16.000000
 -0.222222  0.111111  0.000000     16.000000
 -0.111111  0.111111  0.000000      4.000000
  0.222222  0.222222 -0.000000      8.000000
  0.333333  0.222222  0.000000     16.000000
  0.444444  0.222222  0.000000     16.000000
 -0.444444  0.222222  0.000000     16.000000
 -0.333333  0.222222 -0.000000     16.000000
 -0.222222  0.222222  0.000000      4.000000
  0.333333  0.333333  0.000000      8.000000
  0.444444  0.333333  0.000000     16.000000
 -0.444444  0.333333  0.000000     16.000000
 -0.333333  0.333333  0.000000      4.000000
  0.444444  0.444444 -0.000000      8.000000
 -0.444444  0.444444  0.000000      4.000000
  0.111111  0.111111  0.111111      8.000000
  0.222222  0.111111  0.111111     16.000000
  0.333333  0.111111  0.111111     16.000000
 -0.111111  0.111111  0.111111      4.000000
  0.222222  0.222222  0.111111      8.000000
  0.333333  0.222222  0.111111     16.000000
  0.444444  0.222222  0.111111     16.000000
 -0.444444  0.222222  0.111111      8.000000
 -0.222222  0.222222  0.111111      8.000000
 -0.111111  0.222222  0.111111      8.000000
  0.333333  0.333333  0.111111      8.000000
  0.444444  0.333333  0.111111      8.000000
 -0.333333  0.333333  0.111111      8.000000
 -0.222222  0.333333  0.111111     16.000000
 -0.111111  0.333333  0.111111      8.000000
 -0.444444  0.444444  0.111111      8.000000
 -0.333333  0.444444  0.111111     16.000000
 -0.222222  0.444444  0.111111     16.000000
 -0.111111  0.444444  0.111111      8.000000
 -0.444444 -0.444444  0.111111      8.000000
 -0.333333 -0.444444  0.111111     16.000000
 -0.222222 -0.444444  0.111111     16.000000
 -0.111111 -0.444444  0.111111      8.000000
 -0.333333 -0.333333  0.111111      8.000000
 -0.222222 -0.333333  0.111111     16.000000
 -0.111111 -0.333333  0.111111      8.000000
 -0.222222 -0.222222  0.111111      8.000000
 -0.111111 -0.222222  0.111111      8.000000
 -0.111111 -0.111111  0.111111      2.000000
  0.222222  0.222222  0.222222      8.000000
 -0.222222  0.222222  0.222222      4.000000
 -0.333333  0.333333  0.222222      8.000000
 -0.222222  0.333333  0.222222      8.000000
 -0.444444  0.444444  0.222222      8.000000
 -0.333333  0.444444  0.222222     16.000000
 -0.222222  0.444444  0.222222      8.000000
 -0.444444 -0.444444  0.222222      8.000000
 -0.333333 -0.444444  0.222222     16.000000
 -0.222222 -0.444444  0.222222      8.000000
 -0.333333 -0.333333  0.222222      8.000000
 -0.222222 -0.333333  0.222222      8.000000
 -0.222222 -0.222222  0.222222      2.000000
 -0.333333  0.333333  0.333333      4.000000
 -0.444444  0.444444  0.333333      8.000000
 -0.333333  0.444444  0.333333      8.000000
 -0.444444 -0.444444  0.333333      8.000000
 -0.333333 -0.444444  0.333333      8.000000
 -0.333333 -0.333333  0.333333      2.000000
 -0.444444  0.444444  0.444444      4.000000
 -0.444444 -0.444444  0.444444      2.000000
 
 Following cartesian coordinates:
            Coordinates               Weight
  0.000000  0.000000  0.000000      1.000000
  0.000000  0.022676  0.043607      8.000000
  0.000000  0.045351  0.087214      8.000000
  0.000000  0.068027  0.130822      8.000000
  0.000000  0.090703  0.174429      8.000000
  0.022676  0.022676  0.087214      8.000000
  0.022676  0.045351  0.130822     16.000000
  0.022676  0.068027  0.174429     16.000000
  0.022676  0.090703  0.218036     16.000000
  0.022676 -0.090703 -0.130822     16.000000
  0.022676 -0.068027 -0.087214     16.000000
  0.022676 -0.045351 -0.043607     16.000000
  0.022676 -0.022676 -0.000000      4.000000
  0.045351  0.045351  0.174429      8.000000
  0.045351  0.068027  0.218036     16.000000
  0.045351  0.090703  0.261643     16.000000
  0.045351 -0.090703 -0.087214     16.000000
  0.045351 -0.068027 -0.043607     16.000000
  0.045351 -0.045351  0.000000      4.000000
  0.068027  0.068027  0.261643      8.000000
  0.068027  0.090703  0.305250     16.000000
  0.068027 -0.090703 -0.043607     16.000000
  0.068027 -0.068027  0.000000      4.000000
  0.090703  0.090703  0.348857      8.000000
  0.090703 -0.090703  0.000000      4.000000
  0.045351  0.045351  0.087214      8.000000
  0.045351  0.068027  0.130822     16.000000
  0.045351  0.090703  0.174429     16.000000
  0.045351  0.000000  0.000000      4.000000
  0.068027  0.068027  0.174429      8.000000
  0.068027  0.090703  0.218036     16.000000
  0.068027  0.113379  0.261643     16.000000
  0.068027 -0.068027 -0.087214      8.000000
  0.068027 -0.022676  0.000000      8.000000
  0.068027  0.000000  0.043607      8.000000
  0.090703  0.090703  0.261643      8.000000
  0.090703  0.113379  0.305250      8.000000
  0.090703 -0.045351  0.000000      8.000000
  0.090703 -0.022676  0.043607     16.000000
  0.090703  0.000000  0.087214      8.000000
  0.113379 -0.068027  0.000000      8.000000
  0.113379 -0.045351  0.043607     16.000000
  0.113379 -0.022676  0.087214     16.000000
  0.113379  0.000000  0.130822      8.000000
 -0.068027 -0.068027 -0.348857      8.000000
 -0.068027 -0.045351 -0.305250     16.000000
 -0.068027 -0.022676 -0.261643     16.000000
 -0.068027  0.000000 -0.218036      8.000000
 -0.045351 -0.045351 -0.261643      8.000000
 -0.045351 -0.022676 -0.218036     16.000000
 -0.045351 -0.000000 -0.174429      8.000000
 -0.022676 -0.022676 -0.174429      8.000000
 -0.022676  0.000000 -0.130822      8.000000
  0.000000  0.000000 -0.087214      2.000000
  0.090703  0.090703  0.174429      8.000000
  0.090703  0.000000  0.000000      4.000000
  0.113379 -0.022676  0.000000      8.000000
  0.113379  0.000000  0.043607      8.000000
  0.136054 -0.045351  0.000000      8.000000
  0.136054 -0.022676  0.043607     16.000000
  0.136054  0.000000  0.087214      8.000000
 -0.045351 -0.045351 -0.348857      8.000000
 -0.045351 -0.022676 -0.305250     16.000000
 -0.045351  0.000000 -0.261643      8.000000
 -0.022676 -0.022676 -0.261643      8.000000
 -0.022676  0.000000 -0.218036      8.000000
  0.000000  0.000000 -0.174429      2.000000
  0.136054  0.000000  0.000000      4.000000
  0.158730 -0.022676  0.000000      8.000000
  0.158730  0.000000  0.043607      8.000000
 -0.022676 -0.022676 -0.348857      8.000000
 -0.022676 -0.000000 -0.305250      8.000000
 -0.000000  0.000000 -0.261643      2.000000
  0.181406  0.000000  0.000000      4.000000
  0.000000  0.000000 -0.348857      2.000000
 


--------------------------------------------------------------------------------------------------------




 Dimension of arrays:
   k-points           NKPTS =     75   k-points in BZ     NKDIM =     75   number of bands    NBANDS=      8
   number of dos      NEDOS =    301   number of ions     NIONS =      2
   non local maximal  LDIM  =      4   non local SUM 2l+1 LMDIM =      8
   total plane-waves  NPLWV =   4096
   max r-space proj   IRMAX =      1   max aug-charges    IRDMAX=   4676
   dimension x,y,z NGX =    16 NGY =   16 NGZ =   16
   dimension x,y,z NGXF=    32 NGYF=   32 NGZF=   32
   support grid    NGXF=    32 NGYF=   32 NGZF=   32
   ions per type =               2
   NGX,Y,Z   is equivalent  to a cutoff of   7.21,  7.21,  7.21 a.u.
   NGXF,Y,Z  is equivalent  to a cutoff of  14.41, 14.41, 14.41 a.u.

 SYSTEM =  unknown system                          
 POSCAR =  Si2                                     

 Startparameter for this run:
   NWRITE =      2    write-flag & timer
   PREC   = normal    normal or accurate (medium, high low for compatibility)
   ISTART =      1    job   : 0-new  1-cont  2-samecut
   ICHARG =      0    charge: 1-file 2-atom 10-const
   ISPIN  =      1    spin polarized calculation?
   LNONCOLLINEAR =      F non collinear calculations
   LSORBIT =      F    spin-orbit coupling
   INIWAV =      1    electr: 0-lowe 1-rand  2-diag
   LASPH  =      F    aspherical Exc in radial PAW
   METAGGA=      F    non-selfconsistent MetaGGA calc.

 Electronic Relaxation 1
   ENCUT  =  300.0 eV  22.05 Ry    4.70 a.u.   5.21  5.21  5.21*2*pi/ulx,y,z
   ENINI  =  300.0     initial cutoff
   ENAUG  =  322.1 eV  augmentation charge cutoff
   NELM   =     60;   NELMIN=  2; NELMDL=  0     # of ELM steps 
   EDIFF  = 0.4E-03   stopping-criterion for ELM
   LREAL  =      F    real-space projection
   NLSPLINE    = F    spline interpolate recip. space projectors
   LCOMPAT=      F    compatible to vasp.4.4
   GGA_COMPAT  = T    GGA compatible to vasp.4.4-vasp.4.6
   LMAXPAW     = -100 max onsite density
   LMAXMIX     =    2 max onsite mixed and CHGCAR
   VOSKOWN=      0    Vosko Wilk Nusair interpolation
   ROPT   =    0.00000
 Ionic relaxation
   EDIFFG = -.1E-01   stopping-criterion for IOM
   NSW    =     15    number of steps for IOM
   NBLOCK =      1;   KBLOCK =     15    inner block; outer block 
   IBRION =      2    ionic relax: 0-MD 1-quasi-New 2-CG
   NFREE  =      1    steps in history (QN), initial steepest desc. (CG)
   ISIF   =      2    stress and relaxation
   IWAVPR =     11    prediction:  0-non 1-charg 2-wave 3-comb
   ISYM   =      2    0-nonsym 1-usesym 2-fastsym
   LCORR  =      T    Harris-Foulkes like correction to forces

   POTIM  = 0.5000    time-step for ionic-motion
   TEIN   =    0.0    initial temperature
   TEBEG  =    0.0;   TEEND  =   0.0 temperature during run
   SMASS  =  -3.00    Nose mass-parameter (am)
   estimated Nose-frequenzy (Omega)   =  0.10E-29 period in steps =****** mass=  -0.311E-27a.u.
   SCALEE = 1.0000    scale energy and forces
   NPACO  =    256;   APACO  = 16.0  distance and # of slots for P.C.
   PSTRESS=    0.0 pullay stress

  Mass of Ions in am
   POMASS =  28.09
  Ionic Valenz
   ZVAL   =   4.00
  Atomic Wigner-Seitz radii
   RWIGS  =  -1.00
  virtual crystal weights 
   VCA    =   1.00
   NELECT =       8.0000    total number of electrons
   NUPDOWN=      -1.0000    fix difference up-down

 DOS related values:
   EMIN   =  10.00;   EMAX   =-10.00  energy-range for DOS
   EFERMI =   0.00
   ISMEAR =     0;   SIGMA  =   0.20  broadening in eV -4-tet -1-fermi 0-gaus

 Electronic relaxation 2 (details)
   IALGO  =     38    algorithm
   LDIAG  =      T    sub-space diagonalisation (order eigenvalues)
   LSUBROT=      F    optimize rotation matrix (better conditioning)
   TURBO    =      0    0=normal 1=particle mesh
   IRESTART =      0    0=no restart 2=restart with 2 vectors
   NREBOOT  =      0    no. of reboots
   NMIN     =      0    reboot dimension
   EREF     =   0.00    reference energy to select bands
   IMIX   =      4    mixing-type and parameters
     AMIX     =   0.40;   BMIX     =  1.00
     AMIX_MAG =   1.60;   BMIX_MAG =  1.00
     AMIN     =   0.10
     WC   =   100.;   INIMIX=   1;  MIXPRE=   1;  MAXMIX= -45

 Intra band minimization:
   WEIMIN = 0.0010     energy-eigenvalue tresh-hold
   EBREAK =  0.13E-04  absolut break condition
   DEPER  =   0.30     relativ break condition  

   TIME   =   0.40     timestep for ELM

  volume/ion in A,a.u.               =      15.29       103.21
  Fermi-wavevector in a.u.,A,eV,Ry     =   1.046930  1.978411 14.912834  1.096062
  Thomas-Fermi vector in A             =   2.181789
 
 Write flags
   LWAVE        =      T    write WAVECAR
   LDOWNSAMPLE  =      F    k-point downsampling of WAVECAR
   LCHARG       =      T    write CHGCAR
   LVTOT        =      F    write LOCPOT, total local potential
   LVHAR        =      F    write LOCPOT, Hartree potential only
   LELF         =      F    write electronic localiz. function (ELF)
   LORBIT       =      0    0 simple, 1 ext, 2 COOP (PROOUT), +10 PAW based schemes


 Dipole corrections
   LMONO  =      F    monopole corrections only (constant potential shift)
   LDIPOL =      F    correct potential (dipole corrections)
   IDIPOL =      0    1-x, 2-y, 3-z, 4-all directions 
   EPSILON=  1.0000000 bulk dielectric constant

 Exchange correlation treatment:
   GGA     =    --    GGA type
   LEXCH   =     8    internal setting for exchange type
   VOSKOWN=      0    Vosko Wilk Nusair interpolation
   LHFCALC =     F    Hartree Fock is set to
   LHFONE  =     F    Hartree Fock one center treatment
   AEXX    =    0.0000 exact exchange contribution

 Linear response parameters
   LEPSILON=     F    determine dielectric tensor
   LRPA    =     F    only Hartree local field effects (RPA)
   LNABLA  =     F    use nabla operator in PAW spheres
   LVEL    =     F    velocity operator in full k-point grid
   LINTERFAST=   F  fast interpolation
   KINTER  =     0    interpolate to denser k-point grid
   CSHIFT  =0.1000    complex shift for real part using Kramers Kronig
   OMEGAMAX=  -1.0    maximum frequency
   DEG_THRESHOLD= 0.2000000E-02 threshold for treating states as degnerate
   RTIME   =   -0.100 relaxation time in fs
  (WPLASMAI=    0.000 imaginary part of plasma frequency in eV, 0.658/RTIME)
   DFIELD  = 0.0000000 0.0000000 0.0000000 field for delta impulse in time
 
 Orbital magnetization related:
   ORBITALMAG=     F  switch on orbital magnetization
   LCHIMAG   =     F  perturbation theory with respect to B field
   DQ        =  0.001000  dq finite difference perturbation B field
   LLRAUG    =     F  two centre corrections for induced B field



--------------------------------------------------------------------------------------------------------


 conjugate gradient relaxation of ions
 charge density and potential will be updated during run
 non-spin polarized calculation
 Variant of blocked Davidson
 Davidson routine will perform the subspace rotation
 perform sub-space diagonalisation
    after iterative eigenvector-optimisation
 modified Broyden-mixing scheme, WC =      100.0
 initial mixing is a Kerker type mixing with AMIX =  0.4000 and BMIX =      1.0000
 Hartree-type preconditioning will be used
 using additional bands            4
 reciprocal scheme for non local part
 use partial core corrections
 calculate Harris-corrections to forces 
   (improved forces if not selfconsistent)
 use gradient corrections 
 use of overlap-Matrix (Vanderbilt PP)
 Gauss-broadening in eV      SIGMA  =   0.20


--------------------------------------------------------------------------------------------------------


  energy-cutoff  :      300.00
  volume of cell :       30.59
      direct lattice vectors                 reciprocal lattice vectors
    -2.450000000  2.450000000  1.274000000     0.000000000  0.204081633  0.392464678
     2.450000000 -2.450000000  1.274000000     0.204081633  0.000000000  0.392464678
     2.450000000  2.450000000 -1.274000000     0.204081633  0.204081633 -0.000000000

  length of vectors
     3.691622408  3.691622408  3.691622408     0.442354876  0.442354876  0.288615013


 
 old parameters found on file WAVECAR:
  energy-cutoff  :      300.00
  volume of cell :       30.59
      direct lattice vectors                 reciprocal lattice vectors
    -2.450000000  2.450000000  1.274000000     0.000000000  0.204081633  0.392464678
     2.450000000 -2.450000000  1.274000000     0.204081633  0.000000000  0.392464678
     2.450000000  2.450000000 -1.274000000     0.204081633  0.204081633 -0.000000000

  length of vectors

 
 k-points in units of 2pi/SCALE and weight: Automatic kpoint scheme                 
   0.00000000  0.00000000  0.00000000       0.001
   0.00000000  0.02267574  0.04360719       0.011
   0.00000000  0.04535147  0.08721437       0.011
   0.00000000  0.06802721  0.13082156       0.011
   0.00000000  0.09070295  0.17442875       0.011
   0.02267574  0.02267574  0.08721437       0.011
   0.02267574  0.04535147  0.13082156       0.022
   0.02267574  0.06802721  0.17442875       0.022
   0.02267574  0.09070295  0.21803593       0.022
   0.02267574 -0.09070295 -0.13082156       0.022
   0.02267574 -0.06802721 -0.08721437       0.022
   0.02267574 -0.04535147 -0.04360719       0.022
   0.02267574 -0.02267574 -0.00000000       0.005
   0.04535147  0.04535147  0.17442875       0.011
   0.04535147  0.06802721  0.21803593       0.022
   0.04535147  0.09070295  0.26164312       0.022
   0.04535147 -0.09070295 -0.08721437       0.022
   0.04535147 -0.06802721 -0.04360719       0.022
   0.04535147 -0.04535147  0.00000000       0.005
   0.06802721  0.06802721  0.26164312       0.011
   0.06802721  0.09070295  0.30525031       0.022
   0.06802721 -0.09070295 -0.04360719       0.022
   0.06802721 -0.06802721 -0.00000000       0.005
   0.09070295  0.09070295  0.34885749       0.011
   0.09070295 -0.09070295  0.00000000       0.005
   0.04535147  0.04535147  0.08721437       0.011
   0.04535147  0.06802721  0.13082156       0.022
   0.04535147  0.09070295  0.17442875       0.022
   0.04535147  0.00000000  0.00000000       0.005
   0.06802721  0.06802721  0.17442875       0.011
   0.06802721  0.09070295  0.21803593       0.022
   0.06802721  0.11337868  0.26164312       0.022
   0.06802721 -0.06802721 -0.08721437       0.011
   0.06802721 -0.02267574  0.00000000       0.011
   0.06802721  0.00000000  0.04360719       0.011
   0.09070295  0.09070295  0.26164312       0.011
   0.09070295  0.11337868  0.30525031       0.011
   0.09070295 -0.04535147 -0.00000000       0.011
   0.09070295 -0.02267574  0.04360719       0.022
   0.09070295  0.00000000  0.08721437       0.011
   0.11337868 -0.06802721  0.00000000       0.011
   0.11337868 -0.04535147  0.04360719       0.022
   0.11337868 -0.02267574  0.08721437       0.022
   0.11337868 -0.00000000  0.13082156       0.011
  -0.06802721 -0.06802721 -0.34885749       0.011
  -0.06802721 -0.04535147 -0.30525031       0.022
  -0.06802721 -0.02267574 -0.26164312       0.022
  -0.06802721  0.00000000 -0.21803593       0.011
  -0.04535147 -0.04535147 -0.26164312       0.011
  -0.04535147 -0.02267574 -0.21803593       0.022
  -0.04535147 -0.00000000 -0.17442875       0.011
  -0.02267574 -0.02267574 -0.17442875       0.011
  -0.02267574  0.00000000 -0.13082156       0.011
   0.00000000  0.00000000 -0.08721437       0.003
   0.09070295  0.09070295  0.17442875       0.011
   0.09070295  0.00000000  0.00000000       0.005
   0.11337868 -0.02267574  0.00000000       0.011
   0.11337868  0.00000000  0.04360719       0.011
   0.13605442 -0.04535147 -0.00000000       0.011
   0.13605442 -0.02267574  0.04360719       0.022
   0.13605442  0.00000000  0.08721437       0.011
  -0.04535147 -0.04535147 -0.34885749       0.011
  -0.04535147 -0.02267574 -0.30525031       0.022
  -0.04535147  0.00000000 -0.26164312       0.011
  -0.02267574 -0.02267574 -0.26164312       0.011
  -0.02267574  0.00000000 -0.21803593       0.011
   0.00000000  0.00000000 -0.17442875       0.003
   0.13605442 -0.00000000  0.00000000       0.005
   0.15873016 -0.02267574  0.00000000       0.011
   0.15873016  0.00000000  0.04360719       0.011
  -0.02267574 -0.02267574 -0.34885749       0.011
  -0.02267574 -0.00000000 -0.30525031       0.011
   0.00000000  0.00000000 -0.26164312       0.003
   0.18140590  0.00000000  0.00000000       0.005
   0.00000000  0.00000000 -0.34885749       0.003
 
 k-points in reciprocal lattice and weights: Automatic kpoint scheme                 
   0.00000000  0.00000000  0.00000000       0.001
   0.11111111 -0.00000000  0.00000000       0.011
   0.22222222  0.00000000 -0.00000000       0.011
   0.33333333 -0.00000000  0.00000000       0.011
   0.44444444  0.00000000 -0.00000000       0.011
   0.11111111  0.11111111  0.00000000       0.011
   0.22222222  0.11111111 -0.00000000       0.022
   0.33333333  0.11111111  0.00000000       0.022
   0.44444444  0.11111111  0.00000000       0.022
  -0.44444444  0.11111111  0.00000000       0.022
  -0.33333333  0.11111111 -0.00000000       0.022
  -0.22222222  0.11111111  0.00000000       0.022
  -0.11111111  0.11111111  0.00000000       0.005
   0.22222222  0.22222222 -0.00000000       0.011
   0.33333333  0.22222222  0.00000000       0.022
   0.44444444  0.22222222  0.00000000       0.022
  -0.44444444  0.22222222  0.00000000       0.022
  -0.33333333  0.22222222 -0.00000000       0.022
  -0.22222222  0.22222222  0.00000000       0.005
   0.33333333  0.33333333  0.00000000       0.011
   0.44444444  0.33333333  0.00000000       0.022
  -0.44444444  0.33333333  0.00000000       0.022
  -0.33333333  0.33333333  0.00000000       0.005
   0.44444444  0.44444444 -0.00000000       0.011
  -0.44444444  0.44444444  0.00000000       0.005
   0.11111111  0.11111111  0.11111111       0.011
   0.22222222  0.11111111  0.11111111       0.022
   0.33333333  0.11111111  0.11111111       0.022
  -0.11111111  0.11111111  0.11111111       0.005
   0.22222222  0.22222222  0.11111111       0.011
   0.33333333  0.22222222  0.11111111       0.022
   0.44444444  0.22222222  0.11111111       0.022
  -0.44444444  0.22222222  0.11111111       0.011
  -0.22222222  0.22222222  0.11111111       0.011
  -0.11111111  0.22222222  0.11111111       0.011
   0.33333333  0.33333333  0.11111111       0.011
   0.44444444  0.33333333  0.11111111       0.011
  -0.33333333  0.33333333  0.11111111       0.011
  -0.22222222  0.33333333  0.11111111       0.022
  -0.11111111  0.33333333  0.11111111       0.011
  -0.44444444  0.44444444  0.11111111       0.011
  -0.33333333  0.44444444  0.11111111       0.022
  -0.22222222  0.44444444  0.11111111       0.022
  -0.11111111  0.44444444  0.11111111       0.011
  -0.44444444 -0.44444444  0.11111111       0.011
  -0.33333333 -0.44444444  0.11111111       0.022
  -0.22222222 -0.44444444  0.11111111       0.022
  -0.11111111 -0.44444444  0.11111111       0.011
  -0.33333333 -0.33333333  0.11111111       0.011
  -0.22222222 -0.33333333  0.11111111       0.022
  -0.11111111 -0.33333333  0.11111111       0.011
  -0.22222222 -0.22222222  0.11111111       0.011
  -0.11111111 -0.22222222  0.11111111       0.011
  -0.11111111 -0.11111111  0.11111111       0.003
   0.22222222  0.22222222  0.22222222       0.011
  -0.22222222  0.22222222  0.22222222       0.005
  -0.33333333  0.33333333  0.22222222       0.011
  -0.22222222  0.33333333  0.22222222       0.011
  -0.44444444  0.44444444  0.22222222       0.011
  -0.33333333  0.44444444  0.22222222       0.022
  -0.22222222  0.44444444  0.22222222       0.011
  -0.44444444 -0.44444444  0.22222222       0.011
  -0.33333333 -0.44444444  0.22222222       0.022
  -0.22222222 -0.44444444  0.22222222       0.011
  -0.33333333 -0.33333333  0.22222222       0.011
  -0.22222222 -0.33333333  0.22222222       0.011
  -0.22222222 -0.22222222  0.22222222       0.003
  -0.33333333  0.33333333  0.33333333       0.005
  -0.44444444  0.44444444  0.33333333       0.011
  -0.33333333  0.44444444  0.33333333       0.011
  -0.44444444 -0.44444444  0.33333333       0.011
  -0.33333333 -0.44444444  0.33333333       0.011
  -0.33333333 -0.33333333  0.33333333       0.003
  -0.44444444  0.44444444  0.44444444       0.005
  -0.44444444 -0.44444444  0.44444444       0.003
 
 position of ions in fractional coordinates (direct lattice) 
   0.25000000  0.75000000  0.50000000
   0.00000000  0.00000000  0.00000000
 
 position of ions in cartesian coordinates  (Angst):
   2.45000000  0.00000000  0.63700000
   0.00000000  0.00000000  0.00000000
 


--------------------------------------------------------------------------------------------------------


 k-point  1 :   0.0000 0.0000 0.0000  plane waves:     351
 k-point  2 :   0.1111-0.0000 0.0000  plane waves:     356
 k-point  3 :   0.2222 0.0000-0.0000  plane waves:     357
 k-point  4 :   0.3333-0.0000 0.0000  plane waves:     361
 k-point  5 :   0.4444 0.0000-0.0000  plane waves:     361
 k-point  6 :   0.1111 0.1111 0.0000  plane waves:     357
 k-point  7 :   0.2222 0.1111-0.0000  plane waves:     358
 k-point  8 :   0.3333 0.1111 0.0000  plane waves:     354
 k-point  9 :   0.4444 0.1111 0.0000  plane waves:     360
 k-point 10 :  -0.4444 0.1111 0.0000  plane waves:     360
 k-point 11 :  -0.3333 0.1111-0.0000  plane waves:     359
 k-point 12 :  -0.2222 0.1111 0.0000  plane waves:     360
 k-point 13 :  -0.1111 0.1111 0.0000  plane waves:     358
 k-point 14 :   0.2222 0.2222-0.0000  plane waves:     357
 k-point 15 :   0.3333 0.2222 0.0000  plane waves:     362
 k-point 16 :   0.4444 0.2222 0.0000  plane waves:     360
 k-point 17 :  -0.4444 0.2222 0.0000  plane waves:     360
 k-point 18 :  -0.3333 0.2222-0.0000  plane waves:     367
 k-point 19 :  -0.2222 0.2222 0.0000  plane waves:     360
 k-point 20 :   0.3333 0.3333 0.0000  plane waves:     365
 k-point 21 :   0.4444 0.3333 0.0000  plane waves:     362
 k-point 22 :  -0.4444 0.3333 0.0000  plane waves:     367
 k-point 23 :  -0.3333 0.3333 0.0000  plane waves:     372
 k-point 24 :   0.4444 0.4444-0.0000  plane waves:     361
 k-point 25 :  -0.4444 0.4444 0.0000  plane waves:     376
 k-point 26 :   0.1111 0.1111 0.1111  plane waves:     365
 k-point 27 :   0.2222 0.1111 0.1111  plane waves:     362
 k-point 28 :   0.3333 0.1111 0.1111  plane waves:     360
 k-point 29 :  -0.1111 0.1111 0.1111  plane waves:     367
 k-point 30 :   0.2222 0.2222 0.1111  plane waves:     354
 k-point 31 :   0.3333 0.2222 0.1111  plane waves:     359
 k-point 32 :   0.4444 0.2222 0.1111  plane waves:     359
 k-point 33 :  -0.4444 0.2222 0.1111  plane waves:     364
 k-point 34 :  -0.2222 0.2222 0.1111  plane waves:     357
 k-point 35 :  -0.1111 0.2222 0.1111  plane waves:     363
 k-point 36 :   0.3333 0.3333 0.1111  plane waves:     357
 k-point 37 :   0.4444 0.3333 0.1111  plane waves:     364
 k-point 38 :  -0.3333 0.3333 0.1111  plane waves:     365
 k-point 39 :  -0.2222 0.3333 0.1111  plane waves:     366
 k-point 40 :  -0.1111 0.3333 0.1111  plane waves:     360
 k-point 41 :  -0.4444 0.4444 0.1111  plane waves:     365
 k-point 42 :  -0.3333 0.4444 0.1111  plane waves:     362
 k-point 43 :  -0.2222 0.4444 0.1111  plane waves:     361
 k-point 44 :  -0.1111 0.4444 0.1111  plane waves:     357
 k-point 45 :  -0.4444-0.4444 0.1111  plane waves:     366
 k-point 46 :  -0.3333-0.4444 0.1111  plane waves:     364
 k-point 47 :  -0.2222-0.4444 0.1111  plane waves:     358
 k-point 48 :  -0.1111-0.4444 0.1111  plane waves:     362
 k-point 49 :  -0.3333-0.3333 0.1111  plane waves:     358
 k-point 50 :  -0.2222-0.3333 0.1111  plane waves:     357
 k-point 51 :  -0.1111-0.3333 0.1111  plane waves:     356
 k-point 52 :  -0.2222-0.2222 0.1111  plane waves:     348
 k-point 53 :  -0.1111-0.2222 0.1111  plane waves:     357
 k-point 54 :  -0.1111-0.1111 0.1111  plane waves:     367
 k-point 55 :   0.2222 0.2222 0.2222  plane waves:     356
 k-point 56 :  -0.2222 0.2222 0.2222  plane waves:     361
 k-point 57 :  -0.3333 0.3333 0.2222  plane waves:     361
 k-point 58 :  -0.2222 0.3333 0.2222  plane waves:     362
 k-point 59 :  -0.4444 0.4444 0.2222  plane waves:     363
 k-point 60 :  -0.3333 0.4444 0.2222  plane waves:     361
 k-point 61 :  -0.2222 0.4444 0.2222  plane waves:     363
 k-point 62 :  -0.4444-0.4444 0.2222  plane waves:     361
 k-point 63 :  -0.3333-0.4444 0.2222  plane waves:     365
 k-point 64 :  -0.2222-0.4444 0.2222  plane waves:     359
 k-point 65 :  -0.3333-0.3333 0.2222  plane waves:     362
 k-point 66 :  -0.2222-0.3333 0.2222  plane waves:     357
 k-point 67 :  -0.2222-0.2222 0.2222  plane waves:     340
 k-point 68 :  -0.3333 0.3333 0.3333  plane waves:     361
 k-point 69 :  -0.4444 0.4444 0.3333  plane waves:     363
 k-point 70 :  -0.3333 0.4444 0.3333  plane waves:     368
 k-point 71 :  -0.4444-0.4444 0.3333  plane waves:     367
 k-point 72 :  -0.3333-0.4444 0.3333  plane waves:     365
 k-point 73 :  -0.3333-0.3333 0.3333  plane waves:     364
 k-point 74 :  -0.4444 0.4444 0.4444  plane waves:     361
 k-point 75 :  -0.4444-0.4444 0.4444  plane waves:     364

 maximum and minimum number of plane-waves per node :       376      340

 maximum number of plane-waves:       376
 maximum index in each direction: 
   IXMAX=    5   IYMAX=    5   IZMAX=    5
   IXMIN=   -5   IYMIN=   -5   IZMIN=   -5


 serial   3D FFT for wavefunctions
 parallel 3D FFT for charge:
    minimum data exchange during FFTs selected (reduces bandwidth)


 total amount of memory used by VASP MPI-rank0    32824. kBytes
=======================================================================

   base      :      30000. kBytes
   nonl-proj :       1816. kBytes
   fftplans  :        160. kBytes
   grid      :        372. kBytes
   one-center:          6. kBytes
   wavefun   :        470. kBytes
 
     INWAV:  cpu time    0.0920: real time    0.3650
 Broyden mixing: mesh for mixing (old mesh)
   NGX = 11   NGY = 11   NGZ = 11
  (NGX  = 32   NGY  = 32   NGZ  = 32)
  gives a total of   1331 points

 charge density for first step will be calculated from the start-wavefunctions


--------------------------------------------------------------------------------------------------------


 Maximum index for augmentation-charges          547 (set IRDMAX)


--------------------------------------------------------------------------------------------------------


 initial charge from wavefunction
 First call to EWALD:  gamma=   0.567
 Maximum number of real-space cells 4x 4x 3
 Maximum number of reciprocal cells 3x 3x 3

    FEWALD:  cpu time    0.0080: real time    0.0076


--------------------------------------- Iteration      1(   1)  ---------------------------------------


    POTLOK:  cpu time    0.0280: real time    0.0360
    SETDIJ:  cpu time    0.0080: real time    0.0091
     EDDAV:  cpu time    0.4840: real time    0.4860
       DOS:  cpu time    0.0040: real time    0.0084
    CHARGE:  cpu time    0.0200: real time    0.0201
    MIXING:  cpu time    0.0000: real time    0.0022
    --------------------------------------------
      LOOP:  cpu time    0.5440: real time    0.5645

 eigenvalue-minimisations  :   816
 total energy-change (2. order) :-0.1024017E+02  (-0.3234545E-06)
 number of electron       7.9999991 magnetization 
 augmentation part       -0.4741486 magnetization 

 Broyden mixing:
  rms(total) = 0.51272E-04    rms(broyden)= 0.51255E-04
  rms(prec ) = 0.13309E-03
  weight for this iteration     100.00

 Free energy of the ion-electron system (eV)
  ---------------------------------------------------
  alpha Z        PSCENC =         4.40202223
  Ewald energy   TEWEN  =      -265.18101312
  -Hartree energ DENC   =        -2.50174079
  -exchange      EXHF   =         0.00000000
  -V(xc)+E(xc)   XCENC  =       -17.58016901
  PAW double counting   =        70.37183749      -35.28602132
  entropy T*S    EENTRO =        -0.01155017
  eigenvalues    EBANDS =        29.41678025
  atomic energy  EATOM  =       206.12968587
  Solvation  Ediel_sol  =         0.00000000
  ---------------------------------------------------
  free energy    TOTEN  =       -10.24016856 eV

  energy without entropy =      -10.22861839  energy(sigma->0) =      -10.23439347


--------------------------------------------------------------------------------------------------------




--------------------------------------- Iteration      1(   2)  ---------------------------------------


    POTLOK:  cpu time    0.0240: real time    0.0532
    SETDIJ:  cpu time    0.0080: real time    0.0086
     EDDAV:  cpu time    0.4800: real time    0.4826
       DOS:  cpu time    0.0040: real time    0.0045
    --------------------------------------------
      LOOP:  cpu time    0.5160: real time    0.5470

 eigenvalue-minimisations  :   824
 total energy-change (2. order) :-0.2708421E-07  (-0.2446965E-07)
 number of electron       7.9999991 magnetization 
 augmentation part       -0.4741486 magnetization 

 Free energy of the ion-electron system (eV)
  ---------------------------------------------------
  alpha Z        PSCENC =         4.40202223
  Ewald energy   TEWEN  =      -265.18101312
  -Hartree energ DENC   =        -2.50187354
  -exchange      EXHF   =         0.00000000
  -V(xc)+E(xc)   XCENC  =       -17.58014169
  PAW double counting   =        70.37187520      -35.28605669
  entropy T*S    EENTRO =        -0.01155017
  eigenvalues    EBANDS =        29.41688330
  atomic energy  EATOM  =       206.12968587
  Solvation  Ediel_sol  =         0.00000000
  ---------------------------------------------------
  free energy    TOTEN  =       -10.24016859 eV

  energy without entropy =      -10.22861842  energy(sigma->0) =      -10.23439350


--------------------------------------------------------------------------------------------------------




 average (electrostatic) potential at core
  the test charge radii are     0.9892
  (the norm of the test charge is              1.0000)
       1 -80.5454       2 -80.5454
 
 
 
 E-fermi :   9.0998     XC(G=0): -10.8912     alpha+bet :-15.6819


 k-point     1 :       0.0000    0.0000    0.0000
  band No.  band energies     occupation 
      1      -4.6151      2.00000
      2       6.1837      2.00000
      3       6.2993      2.00000
      4       6.2993      2.00000
      5      10.5261      0.00000
      6      16.7734      0.00000
      7      17.3677      0.00000
      8      17.3677      0.00000

 k-point     2 :       0.1111   -0.0000    0.0000
  band No.  band energies     occupation 
      1      -4.2665      2.00000
      2       5.3071      2.00000
      3       6.2423      2.00000
      4       7.7835      2.00000
      5      11.2350      0.00000
      6      15.1627      0.00000
      7      15.9626      0.00000
      8      17.3214      0.00000

 k-point     3 :       0.2222    0.0000   -0.0000
  band No.  band energies     occupation 
      1      -3.2251      2.00000
      2       5.0189      2.00000
      3       6.3186      2.00000
      4       9.6107      0.00030
      5      12.1318      0.00000
      6      12.9124      0.00000
      7      13.0197      0.00000
      8      15.1615      0.00000

 k-point     4 :       0.3333   -0.0000    0.0000
  band No.  band energies     occupation 
      1      -1.5046      2.00000
      2       5.3580      2.00000
      3       6.7892      2.00000
      4       7.4646      2.00000
      5      10.2643      0.00000
      6      12.6519      0.00000
      7      13.0283      0.00000
      8      14.0092      0.00000

 k-point     5 :       0.4444    0.0000   -0.0000
  band No.  band energies     occupation 
      1       0.8601      2.00000
      2       3.8980      2.00000
      3       6.3768      2.00000
      4       7.5665      2.00000
      5       8.1901      2.00000
      6      10.7282      0.00000
      7      13.5426      0.00000
      8      14.5036      0.00000

 k-point     6 :       0.1111    0.1111    0.0000
  band No.  band energies     occupation 
      1      -3.3710      2.00000
      2       5.3356      2.00000
      3       7.3492      2.00000
      4       8.5387      1.99993
      5      12.2938      0.00000
      6      12.5811      0.00000
      7      13.0010      0.00000
      8      15.6423      0.00000

 k-point     7 :       0.2222    0.1111   -0.0000
  band No.  band energies     occupation 
      1      -1.7932      2.00000
      2       5.6129      2.00000
      3       7.8921      2.00000
      4       8.2953      2.00000
      5       9.7428      0.00001
      6      11.3932      0.00000
      7      13.0135      0.00000
      8      14.0212      0.00000

 k-point     8 :       0.3333    0.1111    0.0000
  band No.  band energies     occupation 
      1       0.4399      2.00000
      2       4.7049      2.00000
      3       6.4848      2.00000
      4       6.9277      2.00000
      5       9.0420      1.31693
      6      11.1010      0.00000
      7      12.6353      0.00000
      8      14.5240      0.00000

 k-point     9 :       0.4444    0.1111    0.0000
  band No.  band energies     occupation 
      1       1.5490      2.00000
      2       3.3528      2.00000
      3       5.2291      2.00000
      4       7.4625      2.00000
      5       8.6786      1.99710
      6      11.4708      0.00000
      7      12.4070      0.00000
      8      15.8116      0.00000

 k-point    10 :      -0.4444    0.1111    0.0000
  band No.  band energies     occupation 
      1      -0.9295      2.00000
      2       3.9957      2.00000
      3       6.6935      2.00000
      4       6.9985      2.00000
      5      10.0973      0.00000
      6      12.3856      0.00000
      7      13.5597      0.00000
      8      14.4886      0.00000

 k-point    11 :      -0.3333    0.1111   -0.0000
  band No.  band energies     occupation 
      1      -2.7881      2.00000
      2       3.4749      2.00000
      3       6.3350      2.00000
      4      10.1366      0.00000
      5      11.9165      0.00000
      6      12.0316      0.00000
      7      13.9379      0.00000
      8      15.1370      0.00000

 k-point    12 :      -0.2222    0.1111    0.0000
  band No.  band energies     occupation 
      1      -3.9731      2.00000
      2       3.5903      2.00000
      3       6.2986      2.00000
      4       8.9075      1.82603
      5      12.7587      0.00000
      6      13.4213      0.00000
      7      15.3031      0.00000
      8      16.6639      0.00000

 k-point    13 :      -0.1111    0.1111    0.0000
  band No.  band energies     occupation 
      1      -4.4680      2.00000
      2       4.3195      2.00000
      3       6.4355      2.00000
      4       7.6452      2.00000
      5      11.4296      0.00000
      6      14.8722      0.00000
      7      16.3240      0.00000
      8      19.2151      0.00000

 k-point    14 :       0.2222    0.2222   -0.0000
  band No.  band energies     occupation 
      1       0.2990      2.00000
      2       5.7136      2.00000
      3       5.7730      2.00000
      4       6.4331      2.00000
      5       9.9633      0.00000
      6      11.6000      0.00000
      7      12.5407      0.00000
      8      12.8212      0.00000

 k-point    15 :       0.3333    0.2222    0.0000
  band No.  band energies     occupation 
      1       2.4397      2.00000
      2       3.1025      2.00000
      3       3.8837      2.00000
      4       7.5134      2.00000
      5       9.2521      0.28149
      6      10.7806      0.00000
      7      13.5691      0.00000
      8      15.6403      0.00000

 k-point    16 :       0.4444    0.2222    0.0000
  band No.  band energies     occupation 
      1      -0.0732      2.00000
      2       2.4319      2.00000
      3       6.3982      2.00000
      4       7.5697      2.00000
      5       9.4736      0.00821
      6      11.3066      0.00000
      7      14.7546      0.00000
      8      15.7933      0.00000

 k-point    17 :      -0.4444    0.2222    0.0000
  band No.  band energies     occupation 
      1      -2.0631      2.00000
      2       1.7530      2.00000
      3       6.9511      2.00000
      4       9.9312      0.00000
      5      10.6174      0.00000
      6      12.4961      0.00000
      7      13.3901      0.00000
      8      15.8180      0.00000

 k-point    18 :      -0.3333    0.2222   -0.0000
  band No.  band energies     occupation 
      1      -3.3882      2.00000
      2       1.7305      2.00000
      3       6.8243      2.00000
      4       9.7365      0.00001
      5      11.6341      0.00000
      6      14.1819      0.00000
      7      15.1166      0.00000
      8      15.8460      0.00000

 k-point    19 :      -0.2222    0.2222    0.0000
  band No.  band energies     occupation 
      1      -4.0277      2.00000
      2       2.3607      2.00000
      3       6.8438      2.00000
      4       8.5131      1.99997
      5      12.9051      0.00000
      6      13.6651      0.00000
      7      14.6795      0.00000
      8      19.2086      0.00000

 k-point    20 :       0.3333    0.3333    0.0000
  band No.  band energies     occupation 
      1       1.0450      2.00000
      2       1.0636      2.00000
      3       6.2729      2.00000
      4       8.2339      2.00000
      5       8.8011      1.96531
      6      10.9401      0.00000
      7      15.4676      0.00000
      8      16.5068      0.00000

 k-point    21 :       0.4444    0.3333    0.0000
  band No.  band energies     occupation 
      1      -1.0559      2.00000
      2       0.2230      2.00000
      3       7.8609      2.00000
      4       8.9916      1.55582
      5      10.0478      0.00000
      6      13.0194      0.00000
      7      13.3855      0.00000
      8      14.6881      0.00000

 k-point    22 :      -0.4444    0.3333    0.0000
  band No.  band energies     occupation 
      1      -2.5156      2.00000
      2       0.0607      2.00000
      3       7.6368      2.00000
      4      10.0509      0.00000
      5      10.6448      0.00000
      6      12.9591      0.00000
      7      15.1445      0.00000
      8      15.9590      0.00000

 k-point    23 :      -0.3333    0.3333    0.0000
  band No.  band energies     occupation 
      1      -3.2968      2.00000
      2       0.5694      2.00000
      3       7.5236      2.00000
      4       9.3564      0.06960
      5      11.1714      0.00000
      6      13.0691      0.00000
      7      16.4284      0.00000
      8      18.9299      0.00000

 k-point    24 :       0.4444    0.4444   -0.0000
  band No.  band energies     occupation 
      1      -1.3625      2.00000
      2      -1.3615      2.00000
      3       8.7023      1.99505
      4       8.7339      1.99032
      5      11.6111      0.00000
      6      11.8339      0.00000
      7      14.9935      0.00000
      8      15.8925      0.00000

 k-point    25 :      -0.4444    0.4444    0.0000
  band No.  band energies     occupation 
      1      -2.2806      2.00000
      2      -0.9869      2.00000
      3       8.4734      1.99999
      4       9.6903      0.00003
      5      10.3788      0.00000
      6      11.6199      0.00000
      7      18.7925      0.00000
      8      18.8366      0.00000

 k-point    26 :       0.1111    0.1111    0.1111
  band No.  band energies     occupation 
      1      -2.9332      2.00000
      2       3.4062      2.00000
      3       7.7307      2.00000
      4       9.3369      0.09360
      5      11.9059      0.00000
      6      12.0635      0.00000
      7      14.4417      0.00000
      8      15.1070      0.00000

 k-point    27 :       0.2222    0.1111    0.1111
  band No.  band energies     occupation 
      1      -1.2154      2.00000
      2       3.8163      2.00000
      3       7.6121      2.00000
      4       8.2126      2.00000
      5       9.6799      0.00004
      6      12.0364      0.00000
      7      13.8022      0.00000
      8      14.6772      0.00000

 k-point    28 :       0.3333    0.1111    0.1111
  band No.  band energies     occupation 
      1       1.1442      2.00000
      2       4.1277      2.00000
      3       4.9374      2.00000
      4       6.5172      2.00000
      5       9.9939      0.00000
      6      12.2974      0.00000
      7      13.8614      0.00000
      8      14.3262      0.00000

 k-point    29 :      -0.1111    0.1111    0.1111
  band No.  band energies     occupation 
      1      -4.3213      2.00000
      2       3.9932      2.00000
      3       5.3439      2.00000
      4       8.9690      1.64484
      5      12.0433      0.00000
      6      13.3325      0.00000
      7      17.6091      0.00000
      8      18.0577      0.00000

 k-point    30 :       0.2222    0.2222    0.1111
  band No.  band energies     occupation 
      1       1.0070      2.00000
      2       4.6467      2.00000
      3       5.2722      2.00000
      4       5.3634      2.00000
      5      11.1000      0.00000
      6      13.2655      0.00000
      7      13.5113      0.00000
      8      13.6760      0.00000

 k-point    31 :       0.3333    0.2222    0.1111
  band No.  band energies     occupation 
      1       2.1144      2.00000
      2       3.3027      2.00000
      3       4.0334      2.00000
      4       6.2964      2.00000
      5      10.9389      0.00000
      6      12.4150      0.00000
      7      14.2402      0.00000
      8      15.1866      0.00000

 k-point    32 :       0.4444    0.2222    0.1111
  band No.  band energies     occupation 
      1      -0.3541      2.00000
      2       2.1824      2.00000
      3       7.2862      2.00000
      4       8.1870      2.00000
      5      10.1233      0.00000
      6      12.4118      0.00000
      7      12.9306      0.00000
      8      14.8991      0.00000

 k-point    33 :      -0.4444    0.2222    0.1111
  band No.  band energies     occupation 
      1      -2.2065      2.00000
      2       1.6330      2.00000
      3       8.3492      2.00000
      4       9.9678      0.00000
      5      11.2764      0.00000
      6      11.6425      0.00000
      7      13.2352      0.00000
      8      14.2204      0.00000

 k-point    34 :      -0.2222    0.2222    0.1111
  band No.  band energies     occupation 
      1      -3.8818      2.00000
      2       2.4288      2.00000
      3       5.3559      2.00000
      4      10.1438      0.00000
      5      11.4060      0.00000
      6      13.9728      0.00000
      7      16.2389      0.00000
      8      18.7097      0.00000

 k-point    35 :      -0.1111    0.2222    0.1111
  band No.  band energies     occupation 
      1      -3.6809      2.00000
      2       3.3281      2.00000
      3       4.8651      2.00000
      4      10.6308      0.00000
      5      11.5719      0.00000
      6      13.7196      0.00000
      7      14.8402      0.00000
      8      17.5622      0.00000

 k-point    36 :       0.3333    0.3333    0.1111
  band No.  band energies     occupation 
      1       0.7801      2.00000
      2       0.7861      2.00000
      3       7.1695      2.00000
      4       8.1457      2.00000
      5      10.7694      0.00000
      6      11.4968      0.00000
      7      13.5785      0.00000
      8      14.2596      0.00000

 k-point    37 :       0.4444    0.3333    0.1111
  band No.  band energies     occupation 
      1      -1.1963      2.00000
      2       0.0887      2.00000
      3       9.1556      0.69291
      4       9.9575      0.00000
      5      11.1359      0.00000
      6      11.3837      0.00000
      7      12.6204      0.00000
      8      13.1037      0.00000

 k-point    38 :      -0.3333    0.3333    0.1111
  band No.  band energies     occupation 
      1      -3.1527      2.00000
      2       0.6899      2.00000
      3       5.9907      2.00000
      4       9.6677      0.00006
      5      11.0664      0.00000
      6      14.6981      0.00000
      7      16.6169      0.00000
      8      18.5310      0.00000

 k-point    39 :      -0.2222    0.3333    0.1111
  band No.  band energies     occupation 
      1      -3.0986      2.00000
      2       1.9160      2.00000
      3       4.9313      2.00000
      4       9.7358      0.00001
      5      11.7743      0.00000
      6      14.2867      0.00000
      7      15.8635      0.00000
      8      17.2090      0.00000

 k-point    40 :      -0.1111    0.3333    0.1111
  band No.  band energies     occupation 
      1      -2.3539      2.00000
      2       3.3268      2.00000
      3       4.9459      2.00000
      4       9.7916      0.00000
      5      10.4578      0.00000
      6      13.4434      0.00000
      7      14.8112      0.00000
      8      15.4646      0.00000

 k-point    41 :      -0.4444    0.4444    0.1111
  band No.  band energies     occupation 
      1      -2.1394      2.00000
      2      -0.8519      2.00000
      3       6.9422      2.00000
      4       8.1736      2.00000
      5      12.0903      0.00000
      6      13.3009      0.00000
      7      18.2007      0.00000
      8      18.3204      0.00000

 k-point    42 :      -0.3333    0.4444    0.1111
  band No.  band energies     occupation 
      1      -2.2306      2.00000
      2       0.3155      2.00000
      3       5.6833      2.00000
      4       8.1251      2.00000
      5      12.4928      0.00000
      6      14.0917      0.00000
      7      16.0376      0.00000
      8      17.1590      0.00000

 k-point    43 :      -0.2222    0.4444    0.1111
  band No.  band energies     occupation 
      1      -1.6347      2.00000
      2       2.0694      2.00000
      3       5.1088      2.00000
      4       8.5937      1.99965
      5       9.5704      0.00088
      6      14.4155      0.00000
      7      14.9466      0.00000
      8      17.0323      0.00000

 k-point    44 :      -0.1111    0.4444    0.1111
  band No.  band energies     occupation 
      1      -0.3608      2.00000
      2       3.9655      2.00000
      3       5.6197      2.00000
      4       6.1944      2.00000
      5       9.5381      0.00194
      6      12.2735      0.00000
      7      13.6205      0.00000
      8      16.1702      0.00000

 k-point    45 :      -0.4444   -0.4444    0.1111
  band No.  band energies     occupation 
      1      -1.0879      2.00000
      2      -1.0850      2.00000
      3       6.7602      2.00000
      4       6.7696      2.00000
      5      12.7723      0.00000
      6      14.2105      0.00000
      7      15.3655      0.00000
      8      17.1521      0.00000

 k-point    46 :      -0.3333   -0.4444    0.1111
  band No.  band energies     occupation 
      1      -0.6385      2.00000
      2       0.6163      2.00000
      3       5.9774      2.00000
      4       7.1693      2.00000
      5       9.2994      0.15815
      6      14.4182      0.00000
      7      15.7662      0.00000
      8      17.0952      0.00000

 k-point    47 :      -0.2222   -0.4444    0.1111
  band No.  band energies     occupation 
      1       0.4830      2.00000
      2       2.8763      2.00000
      3       5.6739      2.00000
      4       6.0046      2.00000
      5       8.1732      2.00000
      6      12.2270      0.00000
      7      14.8947      0.00000
      8      17.2525      0.00000

 k-point    48 :      -0.1111   -0.4444    0.1111
  band No.  band energies     occupation 
      1       2.1579      2.00000
      2       2.8843      2.00000
      3       5.3621      2.00000
      4       6.8254      2.00000
      5       8.8284      1.94504
      6      11.1025      0.00000
      7      11.6843      0.00000
      8      16.5813      0.00000

 k-point    49 :      -0.3333   -0.3333    0.1111
  band No.  band energies     occupation 
      1       1.5659      2.00000
      2       1.6003      2.00000
      3       5.5954      2.00000
      4       6.8364      2.00000
      5       6.9917      2.00000
      6      12.1411      0.00000
      7      16.4569      0.00000
      8      16.7361      0.00000

 k-point    50 :      -0.2222   -0.3333    0.1111
  band No.  band energies     occupation 
      1       2.3740      2.00000
      2       3.3256      2.00000
      3       4.4275      2.00000
      4       7.1982      2.00000
      5       8.1687      2.00000
      6      10.6536      0.00000
      7      13.0331      0.00000
      8      15.1760      0.00000

 k-point    51 :      -0.1111   -0.3333    0.1111
  band No.  band energies     occupation 
      1       0.0140      2.00000
      2       5.4957      2.00000
      3       7.1193      2.00000
      4       8.0583      2.00000
      5       8.0952      2.00000
      6      10.8751      0.00000
      7      11.2594      0.00000
      8      13.5514      0.00000

 k-point    52 :      -0.2222   -0.2222    0.1111
  band No.  band energies     occupation 
      1      -0.1285      2.00000
      2       6.4407      2.00000
      3       6.4834      2.00000
      4       7.8086      2.00000
      5       8.8417      1.93196
      6      10.4904      0.00000
      7      11.8129      0.00000
      8      12.1885      0.00000

 k-point    53 :      -0.1111   -0.2222    0.1111
  band No.  band energies     occupation 
      1      -2.0832      2.00000
      2       7.2052      2.00000
      3       7.9617      2.00000
      4       8.6469      1.99864
      5       9.7816      0.00000
      6      10.7161      0.00000
      7      12.3926      0.00000
      8      13.0571      0.00000

 k-point    54 :      -0.1111   -0.1111    0.1111
  band No.  band energies     occupation 
      1      -3.5174      2.00000
      2       7.1802      2.00000
      3       7.2206      2.00000
      4       7.2206      2.00000
      5      11.6280      0.00000
      6      12.8694      0.00000
      7      13.2300      0.00000
      8      15.4263      0.00000

 k-point    55 :       0.2222    0.2222    0.2222
  band No.  band energies     occupation 
      1       1.9873      2.00000
      2       3.2214      2.00000
      3       5.0240      2.00000
      4       5.0436      2.00000
      5      12.2724      0.00000
      6      13.4293      0.00000
      7      14.5795      0.00000
      8      14.6132      0.00000

 k-point    56 :      -0.2222    0.2222    0.2222
  band No.  band energies     occupation 
      1      -3.4452      2.00000
      2       2.2742      2.00000
      3       3.9342      2.00000
      4       9.4614      0.01056
      5      12.0815      0.00000
      6      15.1389      0.00000
      7      17.4451      0.00000
      8      18.3272      0.00000

 k-point    57 :      -0.3333    0.3333    0.2222
  band No.  band energies     occupation 
      1      -2.7219      2.00000
      2       1.0067      2.00000
      3       4.0955      2.00000
      4       7.7066      2.00000
      5      13.3950      0.00000
      6      16.5994      0.00000
      7      17.2724      0.00000
      8      18.2800      0.00000

 k-point    58 :      -0.2222    0.3333    0.2222
  band No.  band energies     occupation 
      1      -2.5221      2.00000
      2       1.8889      2.00000
      3       3.6098      2.00000
      4       7.8853      2.00000
      5      12.7428      0.00000
      6      14.9155      0.00000
      7      17.1230      0.00000
      8      18.4259      0.00000

 k-point    59 :      -0.4444    0.4444    0.2222
  band No.  band energies     occupation 
      1      -1.7195      2.00000
      2      -0.4567      2.00000
      3       4.9784      2.00000
      4       6.2019      2.00000
      5      14.4606      0.00000
      6      15.5354      0.00000
      7      17.8227      0.00000
      8      17.9714      0.00000

 k-point    60 :      -0.3333    0.4444    0.2222
  band No.  band energies     occupation 
      1      -1.6662      2.00000
      2       0.7703      2.00000
      3       3.8877      2.00000
      4       6.2571      2.00000
      5      12.6814      0.00000
      6      16.0060      0.00000
      7      18.3257      0.00000
      8      18.5461      0.00000

 k-point    61 :      -0.2222    0.4444    0.2222
  band No.  band energies     occupation 
      1      -0.9275      2.00000
      2       2.1786      2.00000
      3       3.9180      2.00000
      4       6.9206      2.00000
      5       9.0475      1.28810
      6      15.6332      0.00000
      7      17.0549      0.00000
      8      17.2147      0.00000

 k-point    62 :      -0.4444   -0.4444    0.2222
  band No.  band energies     occupation 
      1      -0.5510      2.00000
      2      -0.5460      2.00000
      3       4.9019      2.00000
      4       4.9020      2.00000
      5      12.6106      0.00000
      6      16.7873      0.00000
      7      17.5769      0.00000
      8      18.5634      0.00000

 k-point    63 :      -0.3333   -0.4444    0.2222
  band No.  band energies     occupation 
      1       0.0412      2.00000
      2       1.2109      2.00000
      3       4.3205      2.00000
      4       5.4579      2.00000
      5       8.7873      1.97288
      6      15.9910      0.00000
      7      17.9695      0.00000
      8      18.6275      0.00000

 k-point    64 :      -0.2222   -0.4444    0.2222
  band No.  band energies     occupation 
      1       1.2976      2.00000
      2       3.1127      2.00000
      3       4.8562      2.00000
      4       5.3830      2.00000
      5       6.6717      2.00000
      6      13.5111      0.00000
      7      14.9929      0.00000
      8      17.6767      0.00000

 k-point    65 :      -0.3333   -0.3333    0.2222
  band No.  band energies     occupation 
      1       2.2782      2.00000
      2       2.3384      2.00000
      3       5.1042      2.00000
      4       5.3831      2.00000
      5       5.5674      2.00000
      6      13.8244      0.00000
      7      16.0651      0.00000
      8      16.6491      0.00000

 k-point    66 :      -0.2222   -0.3333    0.2222
  band No.  band energies     occupation 
      1       2.1440      2.00000
      2       4.1489      2.00000
      3       4.8262      2.00000
      4       6.3734      2.00000
      5       7.0125      2.00000
      6      11.8992      0.00000
      7      12.9983      0.00000
      8      14.2236      0.00000

 k-point    67 :      -0.2222   -0.2222    0.2222
  band No.  band energies     occupation 
      1      -0.2713      2.00000
      2       6.9130      2.00000
      3       7.0640      2.00000
      4       8.1110      2.00000
      5       8.1110      2.00000
      6      10.6407      0.00000
      7      11.5759      0.00000
      8      11.5759      0.00000

 k-point    68 :      -0.3333    0.3333    0.3333
  band No.  band energies     occupation 
      1      -2.0105      2.00000
      2       1.1119      2.00000
      3       2.8905      2.00000
      4       5.9416      2.00000
      5      15.1569      0.00000
      6      16.7338      0.00000
      7      18.0747      0.00000
      8      18.9267      0.00000

 k-point    69 :      -0.4444    0.4444    0.3333
  band No.  band energies     occupation 
      1      -1.0362      2.00000
      2       0.1397      2.00000
      3       3.2938      2.00000
      4       4.4459      2.00000
      5      15.9916      0.00000
      6      16.3987      0.00000
      7      18.4770      0.00000
      8      19.2010      0.00000

 k-point    70 :      -0.3333    0.4444    0.3333
  band No.  band energies     occupation 
      1      -0.8385      2.00000
      2       1.0154      2.00000
      3       2.8143      2.00000
      4       4.6345      2.00000
      5      12.4232      0.00000
      6      18.0507      0.00000
      7      19.5754      0.00000
      8      19.9517      0.00000

 k-point    71 :      -0.4444   -0.4444    0.3333
  band No.  band energies     occupation 
      1       0.1874      2.00000
      2       0.1950      2.00000
      3       3.3481      2.00000
      4       3.3500      2.00000
      5      12.3196      0.00000
      6      19.1441      0.00000
      7      19.8097      0.00000
      8      19.9336      0.00000

 k-point    72 :      -0.3333   -0.4444    0.3333
  band No.  band energies     occupation 
      1       0.9224      2.00000
      2       1.5992      2.00000
      3       3.3868      2.00000
      4       4.0525      2.00000
      5       8.5259      1.99995
      6      17.3018      0.00000
      7      18.6680      0.00000
      8      19.2454      0.00000

 k-point    73 :      -0.3333   -0.3333    0.3333
  band No.  band energies     occupation 
      1       2.7779      2.00000
      2       2.8745      2.00000
      3       4.5954      2.00000
      4       4.5954      2.00000
      5       5.1727      2.00000
      6      15.1498      0.00000
      7      15.9285      0.00000
      8      15.9285      0.00000

 k-point    74 :      -0.4444    0.4444    0.4444
  band No.  band energies     occupation 
      1      -0.1511      2.00000
      2       0.5259      2.00000
      3       2.3532      2.00000
      4       3.0222      2.00000
      5      16.2435      0.00000
      6      16.3230      0.00000
      7      20.1007      0.00000
      8      20.7908      0.00000

 k-point    75 :      -0.4444   -0.4444    0.4444
  band No.  band energies     occupation 
      1       0.7172      2.00000
      2       0.7278      2.00000
      3       2.5449      2.00000
      4       2.5449      2.00000
      5      12.2107      0.00000
      6      20.2181      0.00000
      7      20.6075      0.00000
      8      20.9645      0.00000


--------------------------------------------------------------------------------------------------------


 soft charge-density along one line, spin component           1
         0         1         2         3         4         5         6         7         8         9
 total charge-density along one line
 
 pseudopotential strength for first ion, spin component:           1
 18.064  -0.003   0.000  -0.000  -0.000  -0.000   0.000   0.000
 -0.003   0.005  -0.000   0.000   0.000   0.000  -0.000  -0.000
  0.000  -0.000   4.116   0.000   0.000  -0.006  -0.000  -0.000
 -0.000   0.000   0.000   4.117   0.000  -0.000  -0.006  -0.000
 -0.000   0.000   0.000   0.000   4.116  -0.000  -0.000  -0.006
 -0.000   0.000  -0.006  -0.000  -0.000   0.005   0.000   0.000
  0.000  -0.000  -0.000  -0.006  -0.000   0.000   0.005   0.000
  0.000  -0.000  -0.000  -0.000  -0.006   0.000   0.000   0.005
 total augmentation occupancy for first ion, spin component:           1
  1.617  -0.491   0.000   0.000   0.000   0.000   0.000   0.000
 -0.491   0.908  -0.000   0.000   0.000  -0.000   0.000  -0.000
  0.000   0.000   0.898   0.000  -0.000  -0.494  -0.000   0.000
  0.000   0.000   0.000   0.857   0.000   0.000  -0.511   0.000
  0.000   0.000  -0.000   0.000   0.898   0.000   0.000  -0.494
  0.000   0.000  -0.494   0.000   0.000   0.354  -0.000  -0.000
  0.000   0.000   0.000  -0.511   0.000  -0.000   0.392  -0.000
  0.000  -0.000   0.000   0.000  -0.494  -0.000  -0.000   0.354


------------------------ aborting loop because EDIFF is reached ----------------------------------------


    CHARGE:  cpu time    0.0200: real time    0.0198
    FORLOC:  cpu time    0.0000: real time    0.0007
    FORNL :  cpu time    0.0200: real time    0.0203
    STRESS:  cpu time    0.2160: real time    0.2174
    FORCOR:  cpu time    0.0160: real time    0.0145
    FORHAR:  cpu time    0.0040: real time    0.0039
    MIXING:  cpu time    0.0000: real time    0.0013
    OFIELD:  cpu time    0.0000: real time    0.0005

  FORCE on cell =-STRESS in cart. coord.  units (eV):
  Direction    XX          YY          ZZ          XY          YZ          ZX
  --------------------------------------------------------------------------------------
  Alpha Z     4.40202     4.40202     4.40202
  Ewald     -90.96023   -90.96023   -83.26083    -0.00000     0.00000     0.00000
  Hartree     0.55430     0.55430     1.39339    -0.00000    -0.00000    -0.00000
  E(xc)     -25.42299   -25.42299   -25.37960     0.00001     0.00000     0.00000
  Local     -11.20553   -11.20553   -17.45839    -0.00005    -0.00003    -0.00003
  n-local    77.07138    76.83957    76.60410     0.92539    -0.38910    -0.36703
  augment   -12.10848   -12.10848   -11.98717     0.00003     0.00003     0.00003
  Kinetic    60.42545    54.64086    56.36541     3.58473    -1.96677    -3.79377
  Fock        0.00000     0.00000     0.00000     0.00000     0.00000     0.00000
  -------------------------------------------------------------------------------------
  Total      -0.25227    -0.25227     0.67894    -0.00000     0.00000     0.00000
  in kB     -13.21365   -13.21365    35.56138    -0.00000     0.00000     0.00000
  external pressure =        3.04 kB  Pullay stress =        0.00 kB


 VOLUME and BASIS-vectors are now :
 -----------------------------------------------------------------------------
  energy-cutoff  :      300.00
  volume of cell :       30.59
      direct lattice vectors                 reciprocal lattice vectors
    -2.450000000  2.450000000  1.274000000     0.000000000  0.204081633  0.392464678
     2.450000000 -2.450000000  1.274000000     0.204081633  0.000000000  0.392464678
     2.450000000  2.450000000 -1.274000000     0.204081633  0.204081633 -0.000000000

  length of vectors
     3.691622408  3.691622408  3.691622408     0.442354876  0.442354876  0.288615013


 FORCES acting on ions
    electron-ion (+dipol)            ewald-force                    non-local-force                 convergence-correction
 -----------------------------------------------------------------------------------------------
   0.412E-06 -.412E-06 -.317E-13   0.198E-14 0.156E-15 0.342E-17   0.495E-17 -.893E-17 -.354E-17   0.471E-12 -.471E-12 0.538E-16
   -.412E-06 0.412E-06 0.962E-14   -.185E-14 0.943E-16 0.891E-15   0.320E-17 -.265E-18 -.142E-18   -.471E-12 0.471E-12 0.467E-16
 -----------------------------------------------------------------------------------------------
   0.739E-14 0.721E-14 -.221E-13   0.139E-15 0.250E-15 0.894E-15   0.815E-17 -.919E-17 -.368E-17   -.712E-16 -.227E-16 0.101E-15
 
 
 POSITION                                       TOTAL-FORCE (eV/Angst)
 -----------------------------------------------------------------------------------
      2.45000      0.00000      0.63700        -0.000000     -0.000000     -0.000000
      0.00000      0.00000      0.00000         0.000000      0.000000      0.000000
 -----------------------------------------------------------------------------------
    total drift:                                0.000000      0.000000     -0.000000


--------------------------------------------------------------------------------------------------------



  FREE ENERGIE OF THE ION-ELECTRON SYSTEM (eV)
  ---------------------------------------------------
  free  energy   TOTEN  =       -10.24016859 eV

  energy  without entropy=      -10.22861842  energy(sigma->0) =      -10.23439350
 


--------------------------------------------------------------------------------------------------------


    POTLOK:  cpu time    0.0320: real time    0.0437


--------------------------------------------------------------------------------------------------------




--------------------------------------------------------------------------------------------------------


  
 reached required accuracy - stopping structural energy minimisation
 writing wavefunctions
     LOOP+:  cpu time    2.3760: real time    3.5328
    4ORBIT:  cpu time    0.0000: real time    0.0000

 total amount of memory used by VASP MPI-rank0    32824. kBytes
=======================================================================

   base      :      30000. kBytes
   nonl-proj :       1816. kBytes
   fftplans  :        160. kBytes
   grid      :        372. kBytes
   one-center:          6. kBytes
   wavefun   :        470. kBytes
 
  
  
 General timing and accounting informations for this job:
 ========================================================
  
                  Total CPU time used (sec):        6.660
                            User time (sec):        4.844
                          System time (sec):        1.816
                         Elapsed time (sec):       10.264
  
                   Maximum memory used (kb):        9176.
                   Average memory used (kb):           0.
  
                          Minor page faults:        38008
                          Major page faults:           11
                 Voluntary context switches:        34721
