   2   2   0   0
  0.2001288E+02  0.3839590E-09  0.3839590E-09  0.3839590E-09  0.5000000E-15
  1.000000000000000E-004
  CAR 
 unknown system                          
     15.78782715     -8.04509553  301      6.26556114      1.00000000
     -8.045  0.0000E+00  0.0000E+00
     -7.966  0.0000E+00  0.0000E+00
     -7.886  0.0000E+00  0.0000E+00
     -7.807  0.0000E+00  0.0000E+00
     -7.727  0.0000E+00  0.0000E+00
     -7.648  0.0000E+00  0.0000E+00
     -7.568  0.0000E+00  0.0000E+00
     -7.489  0.0000E+00  0.0000E+00
     -7.410  0.0000E+00  0.0000E+00
     -7.330  0.0000E+00  0.0000E+00
     -7.251  0.0000E+00  0.0000E+00
     -7.171  0.5176E-16  0.4112E-17
     -7.092  0.4144E-14  0.3333E-15
     -7.012  0.2429E-12  0.1963E-13
     -6.933  0.1043E-10  0.8486E-12
     -6.853  0.3284E-09  0.2694E-10
     -6.774  0.7579E-08  0.6290E-09
     -6.695  0.1283E-06  0.1082E-07
     -6.615  0.1592E-05  0.1373E-06
     -6.536  0.1451E-04  0.1290E-05
     -6.456  0.9711E-04  0.9005E-05
     -6.377  0.4773E-03  0.4692E-04
     -6.297  0.1724E-02  0.1839E-03
     -6.218  0.4577E-02  0.5475E-03
     -6.138  0.8933E-02  0.1257E-02
     -6.059  0.1282E-01  0.2275E-02
     -5.980  0.1353E-01  0.3350E-02
     -5.900  0.1050E-01  0.4184E-02
     -5.821  0.5992E-02  0.4660E-02
     -5.741  0.2514E-02  0.4860E-02
     -5.662  0.7754E-03  0.4922E-02
     -5.582  0.1758E-03  0.4936E-02
     -5.503  0.2927E-04  0.4938E-02
     -5.423  0.3598E-05  0.4938E-02
     -5.344  0.6875E-06  0.4938E-02
     -5.265  0.5131E-05  0.4939E-02
     -5.185  0.5233E-04  0.4943E-02
     -5.106  0.3934E-03  0.4974E-02
     -5.026  0.2172E-02  0.5147E-02
     -4.947  0.8812E-02  0.5847E-02
     -4.867  0.2627E-01  0.7934E-02
     -4.788  0.5758E-01  0.1251E-01
     -4.708  0.9279E-01  0.1988E-01
     -4.629  0.1100E+00  0.2862E-01
     -4.550  0.9637E-01  0.3628E-01
     -4.470  0.6416E-01  0.4137E-01
     -4.391  0.3898E-01  0.4447E-01
     -4.311  0.3692E-01  0.4740E-01
     -4.232  0.5545E-01  0.5181E-01
     -4.152  0.7698E-01  0.5793E-01
     -4.073  0.8143E-01  0.6439E-01
     -3.993  0.6364E-01  0.6945E-01
     -3.914  0.3660E-01  0.7236E-01
     -3.835  0.1548E-01  0.7359E-01
     -3.755  0.4810E-02  0.7397E-01
     -3.676  0.1099E-02  0.7406E-01
     -3.596  0.1844E-03  0.7407E-01
     -3.517  0.2277E-04  0.7407E-01
     -3.437  0.2903E-05  0.7407E-01
     -3.358  0.1140E-04  0.7408E-01
     -3.279  0.1099E-03  0.7408E-01
     -3.199  0.7869E-03  0.7415E-01
     -3.120  0.4140E-02  0.7448E-01
     -3.040  0.1600E-01  0.7575E-01
     -2.961  0.4547E-01  0.7936E-01
     -2.881  0.9497E-01  0.8690E-01
     -2.802  0.1459E+00  0.9849E-01
     -2.722  0.1647E+00  0.1116E+00
     -2.643  0.1368E+00  0.1224E+00
     -2.564  0.8355E-01  0.1291E+00
     -2.484  0.3751E-01  0.1321E+00
     -2.405  0.1238E-01  0.1330E+00
     -2.325  0.3004E-02  0.1333E+00
     -2.246  0.5354E-03  0.1333E+00
     -2.166  0.7009E-04  0.1333E+00
     -2.087  0.6735E-05  0.1333E+00
     -2.007  0.4750E-06  0.1333E+00
     -1.928  0.2457E-07  0.1333E+00
     -1.849  0.9327E-09  0.1333E+00
     -1.769  0.4751E-10  0.1333E+00
     -1.690  0.7887E-09  0.1333E+00
     -1.610  0.2110E-07  0.1333E+00
     -1.531  0.4140E-06  0.1333E+00
     -1.451  0.5960E-05  0.1333E+00
     -1.372  0.6296E-04  0.1333E+00
     -1.292  0.4883E-03  0.1334E+00
     -1.213  0.2781E-02  0.1336E+00
     -1.134  0.1164E-01  0.1345E+00
     -1.054  0.3579E-01  0.1374E+00
     -0.975  0.8092E-01  0.1438E+00
     -0.895  0.1345E+00  0.1545E+00
     -0.816  0.1644E+00  0.1675E+00
     -0.736  0.1478E+00  0.1793E+00
     -0.657  0.9768E-01  0.1870E+00
     -0.577  0.4748E-01  0.1908E+00
     -0.498  0.1696E-01  0.1922E+00
     -0.419  0.4455E-02  0.1925E+00
     -0.339  0.8596E-03  0.1926E+00
     -0.260  0.1218E-03  0.1926E+00
     -0.180  0.1269E-04  0.1926E+00
     -0.101  0.1260E-05  0.1926E+00
     -0.021  0.4224E-05  0.1926E+00
      0.058  0.4379E-04  0.1926E+00
      0.138  0.3376E-03  0.1926E+00
      0.217  0.1912E-02  0.1928E+00
      0.296  0.7953E-02  0.1934E+00
      0.376  0.2433E-01  0.1953E+00
      0.455  0.5479E-01  0.1997E+00
      0.535  0.9122E-01  0.2069E+00
      0.614  0.1140E+00  0.2160E+00
      0.694  0.1121E+00  0.2249E+00
      0.773  0.9872E-01  0.2327E+00
      0.853  0.9245E-01  0.2401E+00
      0.932  0.9168E-01  0.2474E+00
      1.011  0.8102E-01  0.2538E+00
      1.091  0.5740E-01  0.2584E+00
      1.170  0.3601E-01  0.2612E+00
      1.250  0.3533E-01  0.2640E+00
      1.329  0.6467E-01  0.2692E+00
      1.409  0.1156E+00  0.2784E+00
      1.488  0.1580E+00  0.2909E+00
      1.568  0.1596E+00  0.3036E+00
      1.647  0.1186E+00  0.3130E+00
      1.726  0.6477E-01  0.3182E+00
      1.806  0.2602E-01  0.3202E+00
      1.885  0.7681E-02  0.3208E+00
      1.965  0.1666E-02  0.3210E+00
      2.044  0.2656E-03  0.3210E+00
      2.124  0.3109E-04  0.3210E+00
      2.203  0.2671E-05  0.3210E+00
      2.283  0.1684E-06  0.3210E+00
      2.362  0.7784E-08  0.3210E+00
      2.441  0.2639E-09  0.3210E+00
      2.521  0.8237E-11  0.3210E+00
      2.600  0.7555E-10  0.3210E+00
      2.680  0.2479E-08  0.3210E+00
      2.759  0.5975E-07  0.3210E+00
      2.839  0.1056E-05  0.3210E+00
      2.918  0.1369E-04  0.3210E+00
      2.997  0.1303E-03  0.3210E+00
      3.077  0.9102E-03  0.3211E+00
      3.156  0.4672E-02  0.3214E+00
      3.236  0.1763E-01  0.3228E+00
      3.315  0.4897E-01  0.3267E+00
      3.395  0.1006E+00  0.3347E+00
      3.474  0.1545E+00  0.3470E+00
      3.554  0.1842E+00  0.3616E+00
      3.633  0.1867E+00  0.3765E+00
      3.712  0.1850E+00  0.3912E+00
      3.792  0.1877E+00  0.4061E+00
      3.871  0.1739E+00  0.4199E+00
      3.951  0.1300E+00  0.4302E+00
      4.030  0.7370E-01  0.4361E+00
      4.110  0.3104E-01  0.4385E+00
      4.189  0.9636E-02  0.4393E+00
      4.269  0.2202E-02  0.4395E+00
      4.348  0.3879E-03  0.4395E+00
      4.427  0.2219E-03  0.4395E+00
      4.507  0.1233E-02  0.4396E+00
      4.586  0.6295E-02  0.4401E+00
      4.666  0.2368E-01  0.4420E+00
      4.745  0.6549E-01  0.4472E+00
      4.825  0.1331E+00  0.4578E+00
      4.904  0.1990E+00  0.4736E+00
      4.984  0.2187E+00  0.4910E+00
      5.063  0.1768E+00  0.5050E+00
      5.142  0.1051E+00  0.5134E+00
      5.222  0.4594E-01  0.5170E+00
      5.301  0.1476E-01  0.5182E+00
      5.381  0.3491E-02  0.5185E+00
      5.460  0.6627E-03  0.5185E+00
      5.540  0.4499E-03  0.5186E+00
      5.619  0.1761E-02  0.5187E+00
      5.699  0.6062E-02  0.5192E+00
      5.778  0.1540E-01  0.5204E+00
      5.857  0.2876E-01  0.5227E+00
      5.937  0.3949E-01  0.5258E+00
      6.016  0.3989E-01  0.5290E+00
      6.096  0.2965E-01  0.5313E+00
      6.175  0.1640E-01  0.5326E+00
      6.255  0.7807E-02  0.5333E+00
      6.334  0.7471E-02  0.5339E+00
      6.414  0.1769E-01  0.5353E+00
      6.493  0.3956E-01  0.5384E+00
      6.572  0.6639E-01  0.5437E+00
      6.652  0.8204E-01  0.5502E+00
      6.731  0.7457E-01  0.5561E+00
      6.811  0.4985E-01  0.5601E+00
      6.890  0.2451E-01  0.5620E+00
      6.970  0.8999E-02  0.5627E+00
      7.049  0.3361E-02  0.5630E+00
      7.129  0.5563E-02  0.5635E+00
      7.208  0.1906E-01  0.5650E+00
      7.287  0.5227E-01  0.5691E+00
      7.367  0.1072E+00  0.5776E+00
      7.446  0.1672E+00  0.5909E+00
      7.526  0.2055E+00  0.6072E+00
      7.605  0.2127E+00  0.6242E+00
      7.685  0.2011E+00  0.6401E+00
      7.764  0.1831E+00  0.6547E+00
      7.844  0.1601E+00  0.6674E+00
      7.923  0.1288E+00  0.6776E+00
      8.002  0.8977E-01  0.6847E+00
      8.082  0.5148E-01  0.6888E+00
      8.161  0.2492E-01  0.6908E+00
      8.241  0.1521E-01  0.6920E+00
      8.320  0.2005E-01  0.6936E+00
      8.400  0.3203E-01  0.6962E+00
      8.479  0.4069E-01  0.6994E+00
      8.559  0.3834E-01  0.7024E+00
      8.638  0.2660E-01  0.7046E+00
      8.717  0.1357E-01  0.7056E+00
      8.797  0.5100E-02  0.7060E+00
      8.876  0.1528E-02  0.7062E+00
      8.956  0.1170E-02  0.7063E+00
      9.035  0.4711E-02  0.7066E+00
      9.115  0.1841E-01  0.7081E+00
      9.194  0.5414E-01  0.7124E+00
      9.273  0.1185E+00  0.7218E+00
      9.353  0.1923E+00  0.7371E+00
      9.432  0.2312E+00  0.7555E+00
      9.512  0.2055E+00  0.7718E+00
      9.591  0.1349E+00  0.7825E+00
      9.671  0.6527E-01  0.7877E+00
      9.750  0.2327E-01  0.7895E+00
      9.830  0.6108E-02  0.7900E+00
      9.909  0.1179E-02  0.7901E+00
      9.988  0.1673E-03  0.7901E+00
     10.068  0.1745E-04  0.7901E+00
     10.147  0.1336E-05  0.7901E+00
     10.227  0.7504E-07  0.7901E+00
     10.306  0.3093E-08  0.7901E+00
     10.386  0.9344E-10  0.7901E+00
     10.465  0.2069E-11  0.7901E+00
     10.545  0.3357E-13  0.7901E+00
     10.624  0.2843E-14  0.7901E+00
     10.703  0.1773E-12  0.7901E+00
     10.783  0.9457E-11  0.7901E+00
     10.862  0.3695E-09  0.7901E+00
     10.942  0.1058E-07  0.7901E+00
     11.021  0.2222E-06  0.7901E+00
     11.101  0.3422E-05  0.7901E+00
     11.180  0.3867E-04  0.7901E+00
     11.260  0.3208E-03  0.7902E+00
     11.339  0.1954E-02  0.7903E+00
     11.418  0.8746E-02  0.7910E+00
     11.498  0.2876E-01  0.7933E+00
     11.577  0.6954E-01  0.7988E+00
     11.657  0.1236E+00  0.8086E+00
     11.736  0.1615E+00  0.8215E+00
     11.816  0.1553E+00  0.8338E+00
     11.895  0.1099E+00  0.8425E+00
     11.975  0.5813E-01  0.8471E+00
     12.054  0.2725E-01  0.8493E+00
     12.133  0.2603E-01  0.8514E+00
     12.213  0.5467E-01  0.8557E+00
     12.292  0.1055E+00  0.8641E+00
     12.372  0.1528E+00  0.8762E+00
     12.451  0.1629E+00  0.8892E+00
     12.531  0.1279E+00  0.8993E+00
     12.610  0.7508E-01  0.9053E+00
     12.690  0.3812E-01  0.9083E+00
     12.769  0.3419E-01  0.9111E+00
     12.848  0.6705E-01  0.9164E+00
     12.928  0.1308E+00  0.9268E+00
     13.007  0.2043E+00  0.9430E+00
     13.087  0.2571E+00  0.9634E+00
     13.166  0.2671E+00  0.9846E+00
     13.246  0.2304E+00  0.1003E+01
     13.325  0.1620E+00  0.1016E+01
     13.405  0.9091E-01  0.1023E+01
     13.484  0.4416E-01  0.1027E+01
     13.563  0.3221E-01  0.1029E+01
     13.643  0.5080E-01  0.1033E+01
     13.722  0.8450E-01  0.1040E+01
     13.802  0.1083E+00  0.1048E+01
     13.881  0.1026E+00  0.1057E+01
     13.961  0.7146E-01  0.1062E+01
     14.040  0.3661E-01  0.1065E+01
     14.120  0.1379E-01  0.1066E+01
     14.199  0.3819E-02  0.1067E+01
     14.278  0.7769E-03  0.1067E+01
     14.358  0.1161E-03  0.1067E+01
     14.437  0.1274E-04  0.1067E+01
     14.517  0.1026E-05  0.1067E+01
     14.596  0.6063E-07  0.1067E+01
     14.676  0.2627E-08  0.1067E+01
     14.755  0.8348E-10  0.1067E+01
     14.835  0.1944E-11  0.1067E+01
     14.914  0.3313E-13  0.1067E+01
     14.993  0.4417E-15  0.1067E+01
     15.073  0.0000E+00  0.1067E+01
     15.152  0.0000E+00  0.1067E+01
     15.232  0.0000E+00  0.1067E+01
     15.311  0.0000E+00  0.1067E+01
     15.391  0.0000E+00  0.1067E+01
     15.470  0.0000E+00  0.1067E+01
     15.549  0.0000E+00  0.1067E+01
     15.629  0.0000E+00  0.1067E+01
     15.708  0.0000E+00  0.1067E+01
     15.788  0.0000E+00  0.1067E+01
