   2   2   0   0
  0.1580741E+02  0.3688078E-09  0.3688078E-09  0.3688078E-09  0.5000000E-15
  1.000000000000000E-004
  CAR 
 unknown system                          
     22.67697059     -6.63391471  301      8.67708867      1.00000000
     -6.634  0.0000E+00  0.0000E+00
     -6.536  0.0000E+00  0.0000E+00
     -6.439  0.0000E+00  0.0000E+00
     -6.341  0.0000E+00  0.0000E+00
     -6.243  0.0000E+00  0.0000E+00
     -6.145  0.0000E+00  0.0000E+00
     -6.048  0.0000E+00  0.0000E+00
     -5.950  0.0000E+00  0.0000E+00
     -5.852  0.0000E+00  0.0000E+00
     -5.755  0.1243E-16  0.1214E-17
     -5.657  0.2497E-14  0.2452E-15
     -5.559  0.3197E-12  0.3148E-13
     -5.461  0.2561E-10  0.2533E-11
     -5.364  0.1284E-08  0.1280E-09
     -5.266  0.4038E-07  0.4074E-08
     -5.168  0.7974E-06  0.8198E-07
     -5.071  0.9901E-05  0.1049E-05
     -4.973  0.7749E-04  0.8620E-05
     -4.875  0.3836E-03  0.4609E-04
     -4.778  0.1211E-02  0.1644E-03
     -4.680  0.2497E-02  0.4083E-03
     -4.582  0.3657E-02  0.7656E-03
     -4.484  0.4800E-02  0.1235E-02
     -4.387  0.7319E-02  0.1950E-02
     -4.289  0.1143E-01  0.3066E-02
     -4.191  0.1449E-01  0.4482E-02
     -4.094  0.1434E-01  0.5883E-02
     -3.996  0.1207E-01  0.7062E-02
     -3.898  0.9694E-02  0.8010E-02
     -3.801  0.8743E-02  0.8864E-02
     -3.703  0.1078E-01  0.9917E-02
     -3.605  0.1631E-01  0.1151E-01
     -3.507  0.2272E-01  0.1373E-01
     -3.410  0.2478E-01  0.1615E-01
     -3.312  0.2071E-01  0.1818E-01
     -3.214  0.1615E-01  0.1975E-01
     -3.117  0.1668E-01  0.2138E-01
     -3.019  0.2030E-01  0.2337E-01
     -2.921  0.2151E-01  0.2547E-01
     -2.823  0.1971E-01  0.2739E-01
     -2.726  0.1919E-01  0.2927E-01
     -2.628  0.2181E-01  0.3140E-01
     -2.530  0.2485E-01  0.3383E-01
     -2.433  0.2595E-01  0.3636E-01
     -2.335  0.2540E-01  0.3885E-01
     -2.237  0.2385E-01  0.4118E-01
     -2.140  0.2316E-01  0.4344E-01
     -2.042  0.2640E-01  0.4602E-01
     -1.944  0.3129E-01  0.4908E-01
     -1.846  0.3091E-01  0.5210E-01
     -1.749  0.2435E-01  0.5448E-01
     -1.651  0.1753E-01  0.5619E-01
     -1.553  0.1495E-01  0.5765E-01
     -1.456  0.1750E-01  0.5936E-01
     -1.358  0.2567E-01  0.6187E-01
     -1.260  0.3834E-01  0.6561E-01
     -1.163  0.4902E-01  0.7040E-01
     -1.065  0.5038E-01  0.7532E-01
     -0.967  0.4364E-01  0.7959E-01
     -0.869  0.3675E-01  0.8318E-01
     -0.772  0.3358E-01  0.8646E-01
     -0.674  0.3085E-01  0.8947E-01
     -0.576  0.2594E-01  0.9201E-01
     -0.479  0.2088E-01  0.9405E-01
     -0.381  0.1829E-01  0.9584E-01
     -0.283  0.1965E-01  0.9776E-01
     -0.186  0.2508E-01  0.1002E+00
     -0.088  0.3185E-01  0.1033E+00
      0.010  0.3624E-01  0.1069E+00
      0.108  0.3874E-01  0.1106E+00
      0.205  0.4247E-01  0.1148E+00
      0.303  0.4735E-01  0.1194E+00
      0.401  0.4987E-01  0.1243E+00
      0.498  0.4794E-01  0.1290E+00
      0.596  0.4402E-01  0.1333E+00
      0.694  0.4117E-01  0.1373E+00
      0.792  0.4097E-01  0.1413E+00
      0.889  0.4337E-01  0.1455E+00
      0.987  0.4516E-01  0.1499E+00
      1.085  0.4696E-01  0.1545E+00
      1.182  0.5344E-01  0.1598E+00
      1.280  0.5904E-01  0.1655E+00
      1.378  0.5208E-01  0.1706E+00
      1.475  0.3487E-01  0.1740E+00
      1.573  0.2079E-01  0.1761E+00
      1.671  0.1568E-01  0.1776E+00
      1.769  0.1553E-01  0.1791E+00
      1.866  0.1631E-01  0.1807E+00
      1.964  0.1972E-01  0.1826E+00
      2.062  0.2890E-01  0.1854E+00
      2.159  0.4129E-01  0.1895E+00
      2.257  0.5081E-01  0.1944E+00
      2.355  0.5382E-01  0.1997E+00
      2.452  0.5104E-01  0.2047E+00
      2.550  0.4711E-01  0.2093E+00
      2.648  0.4592E-01  0.2138E+00
      2.746  0.4670E-01  0.2183E+00
      2.843  0.4785E-01  0.2230E+00
      2.941  0.4926E-01  0.2278E+00
      3.039  0.4758E-01  0.2325E+00
      3.136  0.3806E-01  0.2362E+00
      3.234  0.2541E-01  0.2387E+00
      3.332  0.2044E-01  0.2407E+00
      3.429  0.2558E-01  0.2432E+00
      3.527  0.3315E-01  0.2464E+00
      3.625  0.3625E-01  0.2500E+00
      3.723  0.3485E-01  0.2534E+00
      3.820  0.3288E-01  0.2566E+00
      3.918  0.3506E-01  0.2600E+00
      4.016  0.4564E-01  0.2645E+00
      4.113  0.6361E-01  0.2707E+00
      4.211  0.7842E-01  0.2783E+00
      4.309  0.8013E-01  0.2862E+00
      4.407  0.7285E-01  0.2933E+00
      4.504  0.6487E-01  0.2996E+00
      4.602  0.5619E-01  0.3051E+00
      4.700  0.4648E-01  0.3097E+00
      4.797  0.4063E-01  0.3136E+00
      4.895  0.4121E-01  0.3176E+00
      4.993  0.4335E-01  0.3219E+00
      5.090  0.4063E-01  0.3259E+00
      5.188  0.3538E-01  0.3293E+00
      5.286  0.3645E-01  0.3329E+00
      5.384  0.4662E-01  0.3374E+00
      5.481  0.5869E-01  0.3432E+00
      5.579  0.6423E-01  0.3494E+00
      5.677  0.6396E-01  0.3557E+00
      5.774  0.6584E-01  0.3621E+00
      5.872  0.6958E-01  0.3689E+00
      5.970  0.6683E-01  0.3754E+00
      6.067  0.5744E-01  0.3811E+00
      6.165  0.4895E-01  0.3858E+00
      6.263  0.4680E-01  0.3904E+00
      6.361  0.5182E-01  0.3955E+00
      6.458  0.5950E-01  0.4013E+00
      6.556  0.6264E-01  0.4074E+00
      6.654  0.5948E-01  0.4132E+00
      6.751  0.5581E-01  0.4187E+00
      6.849  0.5902E-01  0.4244E+00
      6.947  0.6950E-01  0.4312E+00
      7.044  0.8030E-01  0.4391E+00
      7.142  0.8772E-01  0.4476E+00
      7.240  0.9132E-01  0.4566E+00
      7.338  0.8803E-01  0.4652E+00
      7.435  0.7821E-01  0.4728E+00
      7.533  0.6652E-01  0.4793E+00
      7.631  0.5546E-01  0.4847E+00
      7.728  0.4713E-01  0.4893E+00
      7.826  0.4301E-01  0.4935E+00
      7.924  0.4105E-01  0.4975E+00
      8.022  0.3996E-01  0.5015E+00
      8.119  0.4083E-01  0.5054E+00
      8.217  0.4312E-01  0.5097E+00
      8.315  0.4401E-01  0.5140E+00
      8.412  0.4383E-01  0.5182E+00
      8.510  0.4827E-01  0.5230E+00
      8.608  0.5893E-01  0.5287E+00
      8.705  0.6699E-01  0.5353E+00
      8.803  0.6348E-01  0.5415E+00
      8.901  0.5375E-01  0.5467E+00
      8.999  0.5274E-01  0.5519E+00
      9.096  0.6155E-01  0.5579E+00
      9.194  0.6189E-01  0.5639E+00
      9.292  0.4461E-01  0.5683E+00
      9.389  0.2399E-01  0.5706E+00
      9.487  0.1544E-01  0.5721E+00
      9.585  0.1985E-01  0.5741E+00
      9.682  0.2946E-01  0.5769E+00
      9.780  0.3693E-01  0.5806E+00
      9.878  0.4080E-01  0.5845E+00
      9.976  0.4431E-01  0.5889E+00
     10.073  0.4803E-01  0.5936E+00
     10.171  0.4849E-01  0.5983E+00
     10.269  0.4636E-01  0.6028E+00
     10.366  0.4776E-01  0.6075E+00
     10.464  0.5613E-01  0.6130E+00
     10.562  0.6807E-01  0.6196E+00
     10.660  0.7555E-01  0.6270E+00
     10.757  0.7549E-01  0.6344E+00
     10.855  0.7374E-01  0.6416E+00
     10.953  0.7265E-01  0.6487E+00
     11.050  0.6743E-01  0.6553E+00
     11.148  0.5852E-01  0.6610E+00
     11.246  0.5611E-01  0.6665E+00
     11.343  0.6818E-01  0.6731E+00
     11.441  0.8875E-01  0.6818E+00
     11.539  0.1048E+00  0.6920E+00
     11.637  0.1092E+00  0.7027E+00
     11.734  0.1013E+00  0.7126E+00
     11.832  0.8307E-01  0.7207E+00
     11.930  0.6099E-01  0.7267E+00
     12.027  0.4392E-01  0.7310E+00
     12.125  0.3488E-01  0.7344E+00
     12.223  0.2981E-01  0.7373E+00
     12.320  0.2947E-01  0.7402E+00
     12.418  0.4092E-01  0.7442E+00
     12.516  0.6171E-01  0.7502E+00
     12.614  0.7706E-01  0.7577E+00
     12.711  0.7782E-01  0.7653E+00
     12.809  0.7110E-01  0.7723E+00
     12.907  0.6855E-01  0.7790E+00
     13.004  0.7032E-01  0.7859E+00
     13.102  0.6816E-01  0.7925E+00
     13.200  0.5906E-01  0.7983E+00
     13.297  0.4882E-01  0.8031E+00
     13.395  0.4572E-01  0.8075E+00
     13.493  0.5666E-01  0.8131E+00
     13.591  0.8198E-01  0.8211E+00
     13.688  0.1068E+00  0.8315E+00
     13.786  0.1136E+00  0.8426E+00
     13.884  0.1054E+00  0.8529E+00
     13.981  0.9501E-01  0.8622E+00
     14.079  0.8470E-01  0.8705E+00
     14.177  0.7164E-01  0.8775E+00
     14.275  0.5877E-01  0.8832E+00
     14.372  0.5275E-01  0.8884E+00
     14.470  0.5671E-01  0.8939E+00
     14.568  0.6635E-01  0.9004E+00
     14.665  0.7413E-01  0.9076E+00
     14.763  0.7524E-01  0.9150E+00
     14.861  0.6932E-01  0.9217E+00
     14.958  0.6105E-01  0.9277E+00
     15.056  0.5680E-01  0.9333E+00
     15.154  0.5786E-01  0.9389E+00
     15.252  0.6143E-01  0.9449E+00
     15.349  0.6357E-01  0.9511E+00
     15.447  0.6066E-01  0.9571E+00
     15.545  0.5445E-01  0.9624E+00
     15.642  0.4805E-01  0.9671E+00
     15.740  0.4058E-01  0.9710E+00
     15.838  0.3336E-01  0.9743E+00
     15.935  0.3032E-01  0.9773E+00
     16.033  0.3175E-01  0.9804E+00
     16.131  0.3477E-01  0.9838E+00
     16.229  0.3887E-01  0.9876E+00
     16.326  0.4699E-01  0.9921E+00
     16.424  0.5797E-01  0.9978E+00
     16.522  0.6550E-01  0.1004E+01
     16.619  0.6699E-01  0.1011E+01
     16.717  0.6301E-01  0.1017E+01
     16.815  0.5336E-01  0.1022E+01
     16.912  0.4031E-01  0.1026E+01
     17.010  0.2754E-01  0.1029E+01
     17.108  0.1789E-01  0.1030E+01
     17.206  0.1318E-01  0.1032E+01
     17.303  0.1262E-01  0.1033E+01
     17.401  0.1402E-01  0.1034E+01
     17.499  0.1694E-01  0.1036E+01
     17.596  0.2280E-01  0.1038E+01
     17.694  0.3156E-01  0.1041E+01
     17.792  0.3820E-01  0.1045E+01
     17.890  0.3687E-01  0.1049E+01
     17.987  0.2833E-01  0.1051E+01
     18.085  0.1823E-01  0.1053E+01
     18.183  0.1051E-01  0.1054E+01
     18.280  0.5611E-02  0.1055E+01
     18.378  0.2767E-02  0.1055E+01
     18.476  0.1651E-02  0.1055E+01
     18.573  0.2576E-02  0.1055E+01
     18.671  0.5682E-02  0.1056E+01
     18.769  0.9714E-02  0.1057E+01
     18.867  0.1244E-01  0.1058E+01
     18.964  0.1257E-01  0.1059E+01
     19.062  0.1022E-01  0.1060E+01
     19.160  0.6423E-02  0.1061E+01
     19.257  0.3032E-02  0.1061E+01
     19.355  0.1596E-02  0.1062E+01
     19.453  0.2439E-02  0.1062E+01
     19.550  0.4609E-02  0.1062E+01
     19.648  0.6047E-02  0.1063E+01
     19.746  0.5603E-02  0.1063E+01
     19.844  0.4492E-02  0.1064E+01
     19.941  0.3874E-02  0.1064E+01
     20.039  0.3524E-02  0.1065E+01
     20.137  0.3361E-02  0.1065E+01
     20.234  0.3283E-02  0.1065E+01
     20.332  0.2694E-02  0.1065E+01
     20.430  0.1811E-02  0.1066E+01
     20.528  0.1649E-02  0.1066E+01
     20.625  0.2382E-02  0.1066E+01
     20.723  0.2899E-02  0.1066E+01
     20.821  0.2323E-02  0.1067E+01
     20.918  0.1183E-02  0.1067E+01
     21.016  0.3806E-03  0.1067E+01
     21.114  0.7728E-04  0.1067E+01
     21.211  0.9892E-05  0.1067E+01
     21.309  0.7971E-06  0.1067E+01
     21.407  0.4038E-07  0.1067E+01
     21.505  0.1284E-08  0.1067E+01
     21.602  0.2561E-10  0.1067E+01
     21.700  0.3197E-12  0.1067E+01
     21.798  0.2498E-14  0.1067E+01
     21.895  0.1184E-16  0.1067E+01
     21.993  0.0000E+00  0.1067E+01
     22.091  0.0000E+00  0.1067E+01
     22.188  0.0000E+00  0.1067E+01
     22.286  0.0000E+00  0.1067E+01
     22.384  0.0000E+00  0.1067E+01
     22.482  0.0000E+00  0.1067E+01
     22.579  0.0000E+00  0.1067E+01
     22.677  0.0000E+00  0.1067E+01
