    2    2   15    1
  0.1580741E+02  0.3688078E-09  0.3688078E-09  0.3688078E-09  0.5000000E-15
  1.000000000000000E-004
  CAR 
 unknown system                          
      8     56      8
 
  0.6250000E-01  0.6250000E-01  0.6250000E-01  0.1562500E-01
    1       -4.225928   1.000000
    2        4.428581   1.000000
    3        6.693632   1.000000
    4        8.217359   0.999425
    5       11.849291   0.000000
    6       13.709217   0.000000
    7       14.275972   0.000000
    8       16.143408   0.000000
 
  0.1875000E+00  0.6250000E-01  0.6250000E-01  0.3125000E-01
    1       -3.009166   1.000000
    2        4.183252   1.000000
    3        6.992665   1.000000
    4        9.156040   0.000354
    5       10.812844   0.000000
    6       10.919684   0.000000
    7       13.678931   0.000000
    8       14.434362   0.000000
 
  0.3125000E+00  0.6250000E-01  0.6250000E-01  0.3125000E-01
    1       -1.011458   1.000000
    2        4.479506   1.000000
    3        5.555965   1.000000
    4        7.262704   1.000000
    5        8.613018   0.674744
    6       11.740004   0.000000
    7       13.190545   0.000000
    8       13.582166   0.000000
 
  0.4375000E+00  0.6250000E-01  0.6250000E-01  0.1562500E-01
    1        1.323008   1.000000
    2        2.239113   1.000000
    3        5.779840   1.000000
    4        6.171014   1.000000
    5        8.496057   0.899743
    6       10.575851   0.000000
    7       13.099875   0.000000
    8       14.043166   0.000000
 
 -0.6250000E-01  0.6250000E-01  0.6250000E-01  0.7812500E-02
    1       -4.633915   1.000000
    2        5.034571   1.000000
    3        5.887837   1.000000
    4        7.885780   1.000000
    5       10.981750   0.000000
    6       14.860201   0.000000
    7       17.333521   0.000000
    8       17.432719   0.000000
 
  0.1875000E+00  0.1875000E+00  0.6250000E-01  0.1562500E-01
    1       -1.194435   1.000000
    2        4.469983   1.000000
    3        6.438694   1.000000
    4        6.632619   1.000000
    5        9.582419   0.000000
    6       11.576012   0.000000
    7       12.874226   0.000000
    8       13.066316   0.000000
 
  0.3125000E+00  0.1875000E+00  0.6250000E-01  0.3125000E-01
    1        1.269623   1.000000
    2        2.968025   1.000000
    3        4.315036   1.000000
    4        5.790463   1.000000
    5        9.838181   0.000000
    6       11.574053   0.000000
    7       12.597021   0.000000
    8       14.635558   0.000000
 
  0.4375000E+00  0.1875000E+00  0.6250000E-01  0.3125000E-01
    1       -0.096949   1.000000
    2        2.737561   1.000000
    3        4.915815   1.000000
    4        7.265974   1.000000
    5        9.083624   0.002022
    6       11.742918   0.000000
    7       13.662228   0.000000
    8       14.545537   0.000000
 
 -0.4375000E+00  0.1875000E+00  0.6250000E-01  0.3125000E-01
    1       -2.260913   1.000000
    2        2.117777   1.000000
    3        7.537083   1.000000
    4        8.815701   0.163509
    5       10.343897   0.000000
    6       11.468319   0.000000
    7       12.677786   0.000000
    8       15.018460   0.000000
 
 -0.3125000E+00  0.1875000E+00  0.6250000E-01  0.1562500E-01
    1       -3.659739   1.000000
    2        2.207044   1.000000
    3        7.200575   1.000000
    4        9.141068   0.000518
    5       12.132856   0.000000
    6       13.645414   0.000000
    7       14.196198   0.000000
    8       14.822270   0.000000
 
 -0.1875000E+00  0.1875000E+00  0.6250000E-01  0.1562500E-01
    1       -4.255400   1.000000
    2        3.020092   1.000000
    3        6.004503   1.000000
    4        9.121308   0.000842
    5       12.787323   0.000000
    6       12.947347   0.000000
    7       15.869015   0.000000
    8       17.218971   0.000000
 
 -0.6250000E-01  0.1875000E+00  0.6250000E-01  0.1562500E-01
    1       -4.037148   1.000000
    2        4.146664   1.000000
    3        5.371034   1.000000
    4        9.702340   0.000000
    5       12.573930   0.000000
    6       12.698019   0.000000
    7       13.738626   0.000000
    8       15.717906   0.000000
 
  0.3125000E+00  0.3125000E+00  0.6250000E-01  0.1562500E-01
    1        1.131517   1.000000
    2        1.198468   1.000000
    3        4.723623   1.000000
    4        7.208602   1.000000
    5        9.823348   0.000000
    6       10.649605   0.000000
    7       14.689728   0.000000
    8       15.541168   0.000000
 
  0.4375000E+00  0.3125000E+00  0.6250000E-01  0.3125000E-01
    1       -1.146841   1.000000
    2        0.320764   1.000000
    3        8.063358   0.999993
    4        8.673089   0.511281
    5        9.994350   0.000000
    6       11.386729   0.000000
    7       12.485959   0.000000
    8       13.877527   0.000000
 
 -0.4375000E+00  0.3125000E+00  0.6250000E-01  0.1562500E-01
    1       -2.721019   1.000000
    2        0.234123   1.000000
    3        8.036956   0.999997
    4       10.105599   0.000000
    5       10.623556   0.000000
    6       12.708811   0.000000
    7       13.751318   0.000000
    8       13.839658   0.000000
 
 -0.3125000E+00  0.3125000E+00  0.6250000E-01  0.1562500E-01
    1       -3.501297   1.000000
    2        0.920836   1.000000
    3        6.688710   1.000000
    4       10.059749   0.000000
    5       10.813686   0.000000
    6       14.148654   0.000000
    7       15.849592   0.000000
    8       16.914056   0.000000
 
 -0.1875000E+00  0.3125000E+00  0.6250000E-01  0.3125000E-01
    1       -3.472312   1.000000
    2        2.331454   1.000000
    3        5.491464   1.000000
    4       10.655730   0.000000
    5       11.050537   0.000000
    6       12.957571   0.000000
    7       14.730131   0.000000
    8       15.634615   0.000000
 
 -0.6250000E-01  0.3125000E+00  0.6250000E-01  0.1562500E-01
    1       -2.635385   1.000000
    2        4.008658   1.000000
    3        5.377877   1.000000
    4        8.458357   0.939028
    5       11.089564   0.000000
    6       12.635750   0.000000
    7       13.297494   0.000000
    8       13.662420   0.000000
 
  0.4375000E+00  0.4375000E+00  0.6250000E-01  0.7812500E-02
    1       -1.418181   1.000000
    2       -1.418181   1.000000
    3        9.181747   0.000180
    4        9.181748   0.000180
    5       11.356585   0.000000
    6       11.356586   0.000000
    7       13.555170   0.000000
    8       13.555172   0.000000
 
 -0.4375000E+00  0.4375000E+00  0.6250000E-01  0.1562500E-01
    1       -2.377951   1.000000
    2       -0.896702   1.000000
    3        7.732142   1.000000
    4        9.114202   0.000998
    5       11.171805   0.000000
    6       12.544534   0.000000
    7       16.616412   0.000000
    8       16.714562   0.000000
 
 -0.3125000E+00  0.4375000E+00  0.6250000E-01  0.3125000E-01
    1       -2.536300   1.000000
    2        0.401527   1.000000
    3        6.325069   1.000000
    4        9.055929   0.003694
    5       11.405886   0.000000
    6       12.881511   0.000000
    7       14.821535   0.000000
    8       15.343383   0.000000
 
 -0.1875000E+00  0.4375000E+00  0.6250000E-01  0.3125000E-01
    1       -1.891408   1.000000
    2        2.402102   1.000000
    3        5.584163   1.000000
    4        7.819470   1.000000
    5        9.679039   0.000000
    6       12.495039   0.000000
    7       13.989682   0.000000
    8       15.328440   0.000000
 
 -0.6250000E-01  0.4375000E+00  0.6250000E-01  0.1562500E-01
    1       -0.465498   1.000000
    2        4.055029   1.000000
    3        5.205699   1.000000
    4        5.995009   1.000000
    5        9.144525   0.000474
    6       11.557897   0.000000
    7       11.873428   0.000000
    8       15.162999   0.000000
 
 -0.4375000E+00 -0.4375000E+00  0.6250000E-01  0.1562500E-01
    1       -1.241977   1.000000
    2       -1.235371   1.000000
    3        7.523803   1.000000
    4        7.537500   1.000000
    5       11.496828   0.000000
    6       13.388855   0.000000
    7       14.228569   0.000000
    8       14.829366   0.000000
 
 -0.3125000E+00 -0.4375000E+00  0.6250000E-01  0.3125000E-01
    1       -0.785760   1.000000
    2        0.663794   1.000000
    3        6.482637   1.000000
    4        7.398740   1.000000
    5        8.260158   0.998402
    6       12.147175   0.000000
    7       15.083602   0.000000
    8       16.388598   0.000000
 
 -0.1875000E+00 -0.4375000E+00  0.6250000E-01  0.3125000E-01
    1        0.431917   1.000000
    2        3.050964   1.000000
    3        4.216298   1.000000
    4        6.428069   1.000000
    5        8.655878   0.559611
    6       10.591109   0.000000
    7       13.093664   0.000000
    8       16.473625   0.000000
 
 -0.6250000E-01 -0.4375000E+00  0.6250000E-01  0.1562500E-01
    1        0.918026   1.000000
    2        2.645133   1.000000
    3        6.232600   1.000000
    4        6.963873   1.000000
    5        7.582100   1.000000
    6       10.191924   0.000000
    7       11.632902   0.000000
    8       15.377961   0.000000
 
 -0.3125000E+00 -0.3125000E+00  0.6250000E-01  0.1562500E-01
    1        1.566049   1.000000
    2        1.741569   1.000000
    3        3.917195   1.000000
    4        7.299570   1.000000
    5        7.707163   1.000000
    6       10.214001   0.000000
    7       14.944749   0.000000
    8       15.611501   0.000000
 
 -0.1875000E+00 -0.3125000E+00  0.6250000E-01  0.3125000E-01
    1        0.604942   1.000000
    2        3.643313   1.000000
    3        4.984475   1.000000
    4        7.159290   1.000000
    5        8.268605   0.998064
    6       10.077733   0.000000
    7       11.667595   0.000000
    8       14.069927   0.000000
 
 -0.6250000E-01 -0.3125000E+00  0.6250000E-01  0.1562500E-01
    1       -1.564632   1.000000
    2        5.825676   1.000000
    3        6.834240   1.000000
    4        7.205038   1.000000
    5        8.442494   0.951425
    6       10.921413   0.000000
    7       11.649961   0.000000
    8       13.321145   0.000000
 
 -0.1875000E+00 -0.1875000E+00  0.6250000E-01  0.1562500E-01
    1       -1.749697   1.000000
    2        6.455804   1.000000
    3        7.122597   1.000000
    4        7.419035   1.000000
    5        8.778847   0.235904
    6       10.435540   0.000000
    7       11.618962   0.000000
    8       11.842418   0.000000
 
 -0.6250000E-01 -0.1875000E+00  0.6250000E-01  0.1562500E-01
    1       -3.384795   1.000000
    2        6.143473   1.000000
    3        6.888506   1.000000
    4        8.740515   0.326900
    5       10.869614   0.000000
    6       11.300122   0.000000
    7       12.091869   0.000000
    8       13.833269   0.000000
 
 -0.6250000E-01 -0.6250000E-01  0.6250000E-01  0.3906250E-02
    1       -4.415145   1.000000
    2        6.523902   1.000000
    3        6.523903   1.000000
    4        6.797877   1.000000
    5       10.736381   0.000000
    6       14.504664   0.000000
    7       14.620087   0.000000
    8       16.499072   0.000000
 
  0.1875000E+00  0.1875000E+00  0.1875000E+00  0.1562500E-01
    1       -0.275423   1.000000
    2        2.595628   1.000000
    3        6.007715   1.000000
    4        6.097358   1.000000
    5       10.575064   0.000000
    6       12.418058   0.000000
    7       13.644019   0.000000
    8       14.084540   0.000000
 
  0.3125000E+00  0.1875000E+00  0.1875000E+00  0.1562500E-01
    1        2.029610   1.000000
    2        2.776368   1.000000
    3        3.805585   1.000000
    4        4.454513   1.000000
    5       11.499828   0.000000
    6       13.418367   0.000000
    7       13.726244   0.000000
    8       13.911479   0.000000
 
 -0.1875000E+00  0.1875000E+00  0.1875000E+00  0.7812500E-02
    1       -3.878684   1.000000
    2        2.842444   1.000000
    3        4.265761   1.000000
    4       10.665527   0.000000
    5       11.244354   0.000000
    6       14.021319   0.000000
    7       16.263562   0.000000
    8       16.781028   0.000000
 
  0.3125000E+00  0.3125000E+00  0.1875000E+00  0.7812500E-02
    1        0.995769   1.000000
    2        0.995770   1.000000
    3        5.887434   1.000000
    4        5.887435   1.000000
    5       11.825381   0.000000
    6       11.825383   0.000000
    7       13.630532   0.000000
    8       13.630537   0.000000
 
 -0.3125000E+00  0.3125000E+00  0.1875000E+00  0.1562500E-01
    1       -3.128649   1.000000
    2        1.210216   1.000000
    3        4.485831   1.000000
    4        8.636459   0.613056
    5       12.583020   0.000000
    6       15.494524   0.000000
    7       16.094325   0.000000
    8       16.874566   0.000000
 
 -0.1875000E+00  0.3125000E+00  0.1875000E+00  0.1562500E-01
    1       -2.912005   1.000000
    2        2.306870   1.000000
    3        3.820387   1.000000
    4        8.792032   0.208174
    5       11.390263   0.000000
    6       14.022019   0.000000
    7       16.038014   0.000000
    8       16.350622   0.000000
 
 -0.4375000E+00  0.4375000E+00  0.1875000E+00  0.1562500E-01
    1       -2.013266   1.000000
    2       -0.549644   1.000000
    3        5.494650   1.000000
    4        6.895836   1.000000
    5       13.629839   0.000000
    6       14.630642   0.000000
    7       16.188445   0.000000
    8       16.571502   0.000000
 
 -0.3125000E+00  0.4375000E+00  0.1875000E+00  0.3125000E-01
    1       -1.985402   1.000000
    2        0.866824   1.000000
    3        4.181695   1.000000
    4        6.919985   1.000000
    5       11.028815   0.000000
    6       15.336914   0.000000
    7       16.401647   0.000000
    8       17.850131   0.000000
 
 -0.1875000E+00  0.4375000E+00  0.1875000E+00  0.1562500E-01
    1       -1.157758   1.000000
    2        2.539659   1.000000
    3        4.095384   1.000000
    4        7.013391   1.000000
    5        7.922366   1.000000
    6       13.737835   0.000000
    7       15.150493   0.000000
    8       16.485661   0.000000
 
 -0.4375000E+00 -0.4375000E+00  0.1875000E+00  0.1562500E-01
    1       -0.715381   1.000000
    2       -0.701384   1.000000
    3        5.345763   1.000000
    4        5.368058   1.000000
    5       10.884090   0.000000
    6       16.005863   0.000000
    7       16.672045   0.000000
    8       16.985827   0.000000
 
 -0.3125000E+00 -0.4375000E+00  0.1875000E+00  0.3125000E-01
    1       -0.075482   1.000000
    2        1.303818   1.000000
    3        4.594499   1.000000
    4        5.858866   1.000000
    5        7.048009   1.000000
    6       13.921925   0.000000
    7       16.680883   0.000000
    8       17.722136   0.000000
 
 -0.1875000E+00 -0.4375000E+00  0.1875000E+00  0.1562500E-01
    1        1.277639   1.000000
    2        3.004982   1.000000
    3        4.169888   1.000000
    4        5.081341   1.000000
    5        7.270755   1.000000
    6       11.704359   0.000000
    7       13.033048   0.000000
    8       16.645095   0.000000
 
 -0.3125000E+00 -0.3125000E+00  0.1875000E+00  0.1562500E-01
    1        2.115110   1.000000
    2        2.584782   1.000000
    3        3.651519   1.000000
    4        5.772051   1.000000
    5        5.888122   1.000000
    6       11.952003   0.000000
    7       14.410303   0.000000
    8       15.218188   0.000000
 
 -0.1875000E+00 -0.3125000E+00  0.1875000E+00  0.1562500E-01
    1        0.257739   1.000000
    2        4.638324   1.000000
    3        5.566821   1.000000
    4        6.637545   1.000000
    5        7.436702   1.000000
    6       10.457886   0.000000
    7       11.520464   0.000000
    8       13.009210   0.000000
 
 -0.1875000E+00 -0.1875000E+00  0.1875000E+00  0.3906250E-02
    1       -1.935383   1.000000
    2        7.806408   1.000000
    3        7.806408   1.000000
    4        7.902352   1.000000
    5        8.120060   0.999959
    6        9.409076   0.000000
    7       11.339174   0.000000
    8       11.339177   0.000000
 
 -0.3125000E+00  0.3125000E+00  0.3125000E+00  0.7812500E-02
    1       -2.388432   1.000000
    2        1.351844   1.000000
    3        2.941495   1.000000
    4        6.572262   1.000000
    5       14.242569   0.000000
    6       15.124183   0.000000
    7       16.687668   0.000000
    8       18.110902   0.000000
 
 -0.4375000E+00  0.4375000E+00  0.3125000E+00  0.1562500E-01
    1       -1.295304   1.000000
    2        0.098618   1.000000
    3        3.462562   1.000000
    4        4.820368   1.000000
    5       14.573766   0.000000
    6       14.761407   0.000000
    7       17.667989   0.000000
    8       18.737510   0.000000
 
 -0.3125000E+00  0.4375000E+00  0.3125000E+00  0.1562500E-01
    1       -1.081564   1.000000
    2        1.185157   1.000000
    3        2.804727   1.000000
    4        5.017894   1.000000
    5       10.574789   0.000000
    6       17.497762   0.000000
    7       17.856531   0.000000
    8       18.870605   0.000000
 
 -0.4375000E+00 -0.4375000E+00  0.3125000E+00  0.1562500E-01
    1        0.111401   1.000000
    2        0.135698   1.000000
    3        3.484785   1.000000
    4        3.499674   1.000000
    5       10.414139   0.000000
    6       17.739614   0.000000
    7       19.021806   0.000000
    8       19.601530   0.000000
 
 -0.3125000E+00 -0.4375000E+00  0.3125000E+00  0.1562500E-01
    1        0.931072   1.000000
    2        1.797504   1.000000
    3        3.419831   1.000000
    4        4.256212   1.000000
    5        6.617035   1.000000
    6       15.591007   0.000000
    7       16.820742   0.000000
    8       17.998030   0.000000
 
 -0.3125000E+00 -0.3125000E+00  0.3125000E+00  0.3906250E-02
    1        2.330593   1.000000
    2        3.299072   1.000000
    3        4.048136   1.000000
    4        4.759180   1.000000
    5        4.759180   1.000000
    6       13.672756   0.000000
    7       14.228932   0.000000
    8       14.228937   0.000000
 
 -0.4375000E+00  0.4375000E+00  0.4375000E+00  0.7812500E-02
    1       -0.275157   1.000000
    2        0.598288   1.000000
    3        2.251727   1.000000
    4        3.113363   1.000000
    5       14.474658   0.000000
    6       14.512483   0.000000
    7       19.909966   0.000000
    8       20.676971   0.000000
 
 -0.4375000E+00 -0.4375000E+00  0.4375000E+00  0.3906250E-02
    1        0.788693   1.000000
    2        0.828067   1.000000
    3        2.458740   1.000000
    4        2.458740   1.000000
    5       10.250614   0.000000
    6       18.252837   0.000000
    7       20.190782   0.000000
    8       20.231506   0.000000
