 vasp.5.4.4.18Apr17-6-g9f103f2a35 (build Dec 09 2018 21:25:21) complex          
  
 executed on IFC18.0.1.163_CrayMP date 2019.03.23  21:13:21
 running on    8 total cores
 distrk:  each k-point on    8 cores,    1 groups
 distr:  one band on NCORES_PER_BAND=   1 cores,    8 groups


--------------------------------------------------------------------------------------------------------


 INCAR:
 POTCAR:   PAW_PBE Si 05Jan2001                   

 ----------------------------------------------------------------------------- 
|                                                                             |
|           W    W    AA    RRRRR   N    N  II  N    N   GGGG   !!!           |
|           W    W   A  A   R    R  NN   N  II  NN   N  G    G  !!!           |
|           W    W  A    A  R    R  N N  N  II  N N  N  G       !!!           |
|           W WW W  AAAAAA  RRRRR   N  N N  II  N  N N  G  GGG   !            |
|           WW  WW  A    A  R   R   N   NN  II  N   NN  G    G                |
|           W    W  A    A  R    R  N    N  II  N    N   GGGG   !!!           |
|                                                                             |
|      For optimal performance we recommend to set                            |
|        NCORE= 4 - approx SQRT( number of cores)                             |
|      NCORE specifies how many cores store one orbital (NPAR=cpu/NCORE).     |
|      This setting can  greatly improve the performance of VASP for DFT.     |
|      The default,   NCORE=1            might be grossly inefficient         |
|      on modern multi-core architectures or massively parallel machines.     |
|      Do your own testing !!!!                                               |
|      Unfortunately you need to use the default for GW and RPA calculations. |
|      (for HF NCORE is supported but not extensively tested yet)             |
|                                                                             |
 ----------------------------------------------------------------------------- 

 POTCAR:   PAW_PBE Si 05Jan2001                   
   VRHFIN =Si: s2p2                                                             
   LEXCH  = PE                                                                  
   EATOM  =   103.0669 eV,    7.5752 Ry                                         
                                                                                
   TITEL  = PAW_PBE Si 05Jan2001                                                
   LULTRA =        F    use ultrasoft PP ?                                      
   IUNSCR =        1    unscreen: 0-lin 1-nonlin 2-no                           
   RPACOR =    1.500    partial core radius                                     
   POMASS =   28.085; ZVAL   =    4.000    mass and valenz                      
   RCORE  =    1.900    outmost cutoff radius                                   
   RWIGS  =    2.480; RWIGS  =    1.312    wigner-seitz radius (au A)           
   ENMAX  =  245.345; ENMIN  =  184.009 eV                                      
   ICORE  =        2    local potential                                         
   LCOR   =        T    correct aug charges                                     
   LPAW   =        T    paw PP                                                  
   EAUG   =  322.069                                                            
   DEXC   =    -.007                                                            
   RMAX   =    2.944    core radius for proj-oper                               
   RAUG   =    1.300    factor for augmentation sphere                          
   RDEP   =    1.993    radius for radial grids                                 
   QCUT   =   -4.246; QGAM   =    8.493    optimization parameters              
                                                                                
   Description                                                                  
     l     E      TYP  RCUT    TYP  RCUT                                        
     0   .000     23  1.900                                                     
     0   .000     23  1.900                                                     
     1   .000     23  1.900                                                     
     1   .000     23  1.900                                                     
     2   .000      7  1.900                                                     
  local pseudopotential read in
  partial core-charges read in
  atomic valenz-charges read in
  non local Contribution for L=           0  read in
    real space projection operators read in
  non local Contribution for L=           0  read in
    real space projection operators read in
  non local Contribution for L=           1  read in
    real space projection operators read in
  non local Contribution for L=           1  read in
    real space projection operators read in
    PAW grid and wavefunctions read in
 
   number of l-projection  operators is LMAX  =           4
   number of lm-projection operators is LMMAX =           8
 
 PAW_PBE Si 05Jan2001                   :
 energy of atom  1       EATOM= -103.0669
 kinetic energy error for atom=    0.0013 (will be added to EATOM!!)
 
 
 POSCAR: Si2                                     
  positions in direct lattice
  No initial velocities read in
 exchange correlation table for  LEXCH =        8
   RHO(1)=    0.500       N(1)  =     2000
   RHO(2)=  100.500       N(2)  =     4000
 


--------------------------------------------------------------------------------------------------------


 ion  position               nearest neighbor table
   1  0.750  0.250  0.500-   2 2.52   2 2.52   2 2.52   2 2.52
   2  0.500  0.500  0.000-   1 2.52   1 2.52   1 2.52   1 2.52
 
  LATTYP: Found a body centered tetragonal cell.
 ALAT       =     4.8601600000
 C/A-ratio  =     0.5507682875
  
  Lattice vectors:
  
 A1 = (  -2.4300800000,   2.4300800000,   1.3384110000)
 A2 = (   2.4300800000,  -2.4300800000,   1.3384110000)
 A3 = (   2.4300800000,   2.4300800000,  -1.3384110000)


Analysis of symmetry for initial positions (statically):
=====================================================================
 Subroutine PRICEL returns:
 Original cell was already a primitive cell.
 

 Routine SETGRP: Setting up the symmetry group for a 
 body centered tetragonal supercell.


 Subroutine GETGRP returns: Found 16 space group operations
 (whereof  8 operations were pure point group operations)
 out of a pool of 16 trial point group operations.


The static configuration has the point symmetry D_2d.
 The point group associated with its full space group is D_4h.


Analysis of symmetry for dynamics (positions and initial velocities):
=====================================================================
 Subroutine PRICEL returns:
 Original cell was already a primitive cell.
 

 Routine SETGRP: Setting up the symmetry group for a 
 body centered tetragonal supercell.


 Subroutine GETGRP returns: Found 16 space group operations
 (whereof  8 operations were pure point group operations)
 out of a pool of 16 trial point group operations.


The dynamic configuration has the point symmetry D_2d.
 The point group associated with its full space group is D_4h.


 Subroutine INISYM returns: Found 16 space group operations
 (whereof  8 operations are pure point group operations),
 and found     1 'primitive' translations

 
 
 KPOINTS: Automatic kpoint scheme                 

Automatic generation of k-mesh.
Space group operators:
 irot       det(A)        alpha          n_x          n_y          n_z        tau_x        tau_y        tau_z
    1     1.000000     0.000000     1.000000     0.000000     0.000000     0.000000     0.000000     0.000000
    2    -1.000000    90.000000     0.000000    -0.000000    -1.000000     0.000000     0.000000     0.000000
    3     1.000000   180.000000     0.000000     0.000000    -1.000000     0.000000     0.000000     0.000000
    4    -1.000000    90.000000    -0.000000     0.000000     1.000000     0.000000     0.000000     0.000000
    5    -1.000000   180.000000     0.000000     1.000000    -0.000000     0.000000     0.000000     0.000000
    6     1.000000   180.000000     0.707107     0.707107    -0.000000     0.000000     0.000000     0.000000
    7    -1.000000   180.000000     1.000000     0.000000     0.000000     0.000000     0.000000     0.000000
    8     1.000000   180.000000     0.707107    -0.707107     0.000000     0.000000     0.000000     0.000000
    9    -1.000000     0.000000     1.000000     0.000000     0.000000     0.250000     0.750000     0.500000
   10     1.000000    90.000000     0.000000    -0.000000    -1.000000     0.250000     0.750000     0.500000
   11    -1.000000   180.000000     0.000000     0.000000    -1.000000     0.250000     0.750000     0.500000
   12     1.000000    90.000000    -0.000000     0.000000     1.000000     0.250000     0.750000     0.500000
   13     1.000000   180.000000     0.000000     1.000000    -0.000000     0.250000     0.750000     0.500000
   14    -1.000000   180.000000     0.707107     0.707107    -0.000000     0.250000     0.750000     0.500000
   15     1.000000   180.000000     1.000000     0.000000     0.000000     0.250000     0.750000     0.500000
   16    -1.000000   180.000000     0.707107    -0.707107     0.000000     0.250000     0.750000     0.500000
 
 Subroutine IBZKPT returns following result:
 ===========================================
 
 Found     56 irreducible k-points:
 
 Following reciprocal coordinates:
            Coordinates               Weight
  0.062500  0.062500  0.062500    128.000000
  0.187500  0.062500  0.062500    256.000000
  0.312500  0.062500  0.062500    256.000000
  0.437500  0.062500  0.062500    128.000000
 -0.062500  0.062500  0.062500     64.000000
  0.187500  0.187500  0.062500    128.000000
  0.312500  0.187500  0.062500    256.000000
  0.437500  0.187500  0.062500    256.000000
 -0.437500  0.187500  0.062500    256.000000
 -0.312500  0.187500  0.062500    128.000000
 -0.187500  0.187500  0.062500    128.000000
 -0.062500  0.187500  0.062500    128.000000
  0.312500  0.312500  0.062500    128.000000
  0.437500  0.312500  0.062500    256.000000
 -0.437500  0.312500  0.062500    128.000000
 -0.312500  0.312500  0.062500    128.000000
 -0.187500  0.312500  0.062500    256.000000
 -0.062500  0.312500  0.062500    128.000000
  0.437500  0.437500  0.062500     64.000000
 -0.437500  0.437500  0.062500    128.000000
 -0.312500  0.437500  0.062500    256.000000
 -0.187500  0.437500  0.062500    256.000000
 -0.062500  0.437500  0.062500    128.000000
 -0.437500 -0.437500  0.062500    128.000000
 -0.312500 -0.437500  0.062500    256.000000
 -0.187500 -0.437500  0.062500    256.000000
 -0.062500 -0.437500  0.062500    128.000000
 -0.312500 -0.312500  0.062500    128.000000
 -0.187500 -0.312500  0.062500    256.000000
 -0.062500 -0.312500  0.062500    128.000000
 -0.187500 -0.187500  0.062500    128.000000
 -0.062500 -0.187500  0.062500    128.000000
 -0.062500 -0.062500  0.062500     32.000000
  0.187500  0.187500  0.187500    128.000000
  0.312500  0.187500  0.187500    128.000000
 -0.187500  0.187500  0.187500     64.000000
  0.312500  0.312500  0.187500     64.000000
 -0.312500  0.312500  0.187500    128.000000
 -0.187500  0.312500  0.187500    128.000000
 -0.437500  0.437500  0.187500    128.000000
 -0.312500  0.437500  0.187500    256.000000
 -0.187500  0.437500  0.187500    128.000000
 -0.437500 -0.437500  0.187500    128.000000
 -0.312500 -0.437500  0.187500    256.000000
 -0.187500 -0.437500  0.187500    128.000000
 -0.312500 -0.312500  0.187500    128.000000
 -0.187500 -0.312500  0.187500    128.000000
 -0.187500 -0.187500  0.187500     32.000000
 -0.312500  0.312500  0.312500     64.000000
 -0.437500  0.437500  0.312500    128.000000
 -0.312500  0.437500  0.312500    128.000000
 -0.437500 -0.437500  0.312500    128.000000
 -0.312500 -0.437500  0.312500    128.000000
 -0.312500 -0.312500  0.312500     32.000000
 -0.437500  0.437500  0.437500     64.000000
 -0.437500 -0.437500  0.437500     32.000000
 
 Following cartesian coordinates:
            Coordinates               Weight
  0.025719  0.025719  0.046697    128.000000
  0.025719  0.051439  0.093394    256.000000
  0.025719  0.077158  0.140091    256.000000
  0.025719  0.102877  0.186789    128.000000
  0.025719  0.000000  0.000000     64.000000
  0.051439  0.051439  0.140091    128.000000
  0.051439  0.077158  0.186789    256.000000
  0.051439  0.102877  0.233486    256.000000
  0.051439 -0.077158 -0.093394    256.000000
  0.051439 -0.051439 -0.046697    128.000000
  0.051439 -0.025719  0.000000    128.000000
  0.051439  0.000000  0.046697    128.000000
  0.077158  0.077158  0.233486    128.000000
  0.077158  0.102877  0.280183    256.000000
  0.077158 -0.077158 -0.046697    128.000000
  0.077158 -0.051439  0.000000    128.000000
  0.077158 -0.025719  0.046697    256.000000
  0.077158  0.000000  0.093394    128.000000
  0.102877  0.102877  0.326880     64.000000
  0.102877 -0.077158  0.000000    128.000000
  0.102877 -0.051439  0.046697    256.000000
  0.102877 -0.025719  0.093394    256.000000
  0.102877  0.000000  0.140091    128.000000
 -0.077158 -0.077158 -0.326880    128.000000
 -0.077158 -0.051439 -0.280183    256.000000
 -0.077158 -0.025719 -0.233486    256.000000
 -0.077158 -0.000000 -0.186789    128.000000
 -0.051439 -0.051439 -0.233486    128.000000
 -0.051439 -0.025719 -0.186789    256.000000
 -0.051439 -0.000000 -0.140091    128.000000
 -0.025719 -0.025719 -0.140091    128.000000
 -0.025719  0.000000 -0.093394    128.000000
 -0.000000  0.000000 -0.046697     32.000000
  0.077158  0.077158  0.140091    128.000000
  0.077158  0.102877  0.186789    128.000000
  0.077158  0.000000  0.000000     64.000000
  0.102877  0.102877  0.233486     64.000000
  0.102877 -0.025719  0.000000    128.000000
  0.102877  0.000000  0.046697    128.000000
  0.128597 -0.051439  0.000000    128.000000
  0.128597 -0.025719  0.046697    256.000000
  0.128597  0.000000  0.093394    128.000000
 -0.051439 -0.051439 -0.326880    128.000000
 -0.051439 -0.025719 -0.280183    256.000000
 -0.051439 -0.000000 -0.233486    128.000000
 -0.025719 -0.025719 -0.233486    128.000000
 -0.025719  0.000000 -0.186789    128.000000
 -0.000000  0.000000 -0.140091     32.000000
  0.128597  0.000000  0.000000     64.000000
  0.154316 -0.025719  0.000000    128.000000
  0.154316  0.000000  0.046697    128.000000
 -0.025719 -0.025719 -0.326880    128.000000
 -0.025719  0.000000 -0.280183    128.000000
 -0.000000 -0.000000 -0.233486     32.000000
  0.180035  0.000000  0.000000     64.000000
  0.000000  0.000000 -0.326880     32.000000
 


--------------------------------------------------------------------------------------------------------




 Dimension of arrays:
   k-points           NKPTS =     56   k-points in BZ     NKDIM =     56   number of bands    NBANDS=      8
   number of dos      NEDOS =    301   number of ions     NIONS =      2
   non local maximal  LDIM  =      4   non local SUM 2l+1 LMDIM =      8
   total plane-waves  NPLWV =   5832
   max r-space proj   IRMAX =      1   max aug-charges    IRDMAX=   6367
   dimension x,y,z NGX =    18 NGY =   18 NGZ =   18
   dimension x,y,z NGXF=    36 NGYF=   36 NGZF=   36
   support grid    NGXF=    36 NGYF=   36 NGZF=   36
   ions per type =               2
   NGX,Y,Z   is equivalent  to a cutoff of   8.11,  8.11,  8.11 a.u.
   NGXF,Y,Z  is equivalent  to a cutoff of  16.23, 16.23, 16.23 a.u.

 SYSTEM =  unknown system                          
 POSCAR =  Si2                                     

 Startparameter for this run:
   NWRITE =      2    write-flag & timer
   PREC   = normal    normal or accurate (medium, high low for compatibility)
   ISTART =      0    job   : 0-new  1-cont  2-samecut
   ICHARG =      2    charge: 1-file 2-atom 10-const
   ISPIN  =      1    spin polarized calculation?
   LNONCOLLINEAR =      F non collinear calculations
   LSORBIT =      F    spin-orbit coupling
   INIWAV =      1    electr: 0-lowe 1-rand  2-diag
   LASPH  =      F    aspherical Exc in radial PAW
   METAGGA=      F    non-selfconsistent MetaGGA calc.

 Electronic Relaxation 1
   ENCUT  =  350.0 eV  25.72 Ry    5.07 a.u.   5.63  5.63  5.63*2*pi/ulx,y,z
   ENINI  =  350.0     initial cutoff
   ENAUG  =  322.1 eV  augmentation charge cutoff
   NELM   =     60;   NELMIN=  2; NELMDL= -5     # of ELM steps 
   EDIFF  = 0.4E-03   stopping-criterion for ELM
   LREAL  =      F    real-space projection
   NLSPLINE    = F    spline interpolate recip. space projectors
   LCOMPAT=      F    compatible to vasp.4.4
   GGA_COMPAT  = T    GGA compatible to vasp.4.4-vasp.4.6
   LMAXPAW     = -100 max onsite density
   LMAXMIX     =    2 max onsite mixed and CHGCAR
   VOSKOWN=      0    Vosko Wilk Nusair interpolation
   ROPT   =    0.00000
 Ionic relaxation
   EDIFFG = -.1E-01   stopping-criterion for IOM
   NSW    =     15    number of steps for IOM
   NBLOCK =      1;   KBLOCK =     15    inner block; outer block 
   IBRION =      2    ionic relax: 0-MD 1-quasi-New 2-CG
   NFREE  =      1    steps in history (QN), initial steepest desc. (CG)
   ISIF   =      2    stress and relaxation
   IWAVPR =     11    prediction:  0-non 1-charg 2-wave 3-comb
   ISYM   =      2    0-nonsym 1-usesym 2-fastsym
   LCORR  =      T    Harris-Foulkes like correction to forces

   POTIM  = 0.5000    time-step for ionic-motion
   TEIN   =    0.0    initial temperature
   TEBEG  =    0.0;   TEEND  =   0.0 temperature during run
   SMASS  =  -3.00    Nose mass-parameter (am)
   estimated Nose-frequenzy (Omega)   =  0.10E-29 period in steps =****** mass=  -0.311E-27a.u.
   SCALEE = 1.0000    scale energy and forces
   NPACO  =    256;   APACO  = 16.0  distance and # of slots for P.C.
   PSTRESS=    0.0 pullay stress

  Mass of Ions in am
   POMASS =  28.09
  Ionic Valenz
   ZVAL   =   4.00
  Atomic Wigner-Seitz radii
   RWIGS  =  -1.00
  virtual crystal weights 
   VCA    =   1.00
   NELECT =       8.0000    total number of electrons
   NUPDOWN=      -1.0000    fix difference up-down

 DOS related values:
   EMIN   =  10.00;   EMAX   =-10.00  energy-range for DOS
   EFERMI =   0.00
   ISMEAR =     0;   SIGMA  =   0.20  broadening in eV -4-tet -1-fermi 0-gaus

 Electronic relaxation 2 (details)
   IALGO  =     38    algorithm
   LDIAG  =      T    sub-space diagonalisation (order eigenvalues)
   LSUBROT=      F    optimize rotation matrix (better conditioning)
   TURBO    =      0    0=normal 1=particle mesh
   IRESTART =      0    0=no restart 2=restart with 2 vectors
   NREBOOT  =      0    no. of reboots
   NMIN     =      0    reboot dimension
   EREF     =   0.00    reference energy to select bands
   IMIX   =      4    mixing-type and parameters
     AMIX     =   0.40;   BMIX     =  1.00
     AMIX_MAG =   1.60;   BMIX_MAG =  1.00
     AMIN     =   0.10
     WC   =   100.;   INIMIX=   1;  MIXPRE=   1;  MAXMIX= -45

 Intra band minimization:
   WEIMIN = 0.0010     energy-eigenvalue tresh-hold
   EBREAK =  0.13E-04  absolut break condition
   DEPER  =   0.30     relativ break condition  

   TIME   =   0.40     timestep for ELM

  volume/ion in A,a.u.               =      15.81       106.67
  Fermi-wavevector in a.u.,A,eV,Ry     =   1.035479  1.956772 14.588394  1.072217
  Thomas-Fermi vector in A             =   2.169824
 
 Write flags
   LWAVE        =      T    write WAVECAR
   LDOWNSAMPLE  =      F    k-point downsampling of WAVECAR
   LCHARG       =      T    write CHGCAR
   LVTOT        =      F    write LOCPOT, total local potential
   LVHAR        =      F    write LOCPOT, Hartree potential only
   LELF         =      F    write electronic localiz. function (ELF)
   LORBIT       =      0    0 simple, 1 ext, 2 COOP (PROOUT), +10 PAW based schemes


 Dipole corrections
   LMONO  =      F    monopole corrections only (constant potential shift)
   LDIPOL =      F    correct potential (dipole corrections)
   IDIPOL =      0    1-x, 2-y, 3-z, 4-all directions 
   EPSILON=  1.0000000 bulk dielectric constant

 Exchange correlation treatment:
   GGA     =    --    GGA type
   LEXCH   =     8    internal setting for exchange type
   VOSKOWN=      0    Vosko Wilk Nusair interpolation
   LHFCALC =     F    Hartree Fock is set to
   LHFONE  =     F    Hartree Fock one center treatment
   AEXX    =    0.0000 exact exchange contribution

 Linear response parameters
   LEPSILON=     F    determine dielectric tensor
   LRPA    =     F    only Hartree local field effects (RPA)
   LNABLA  =     F    use nabla operator in PAW spheres
   LVEL    =     F    velocity operator in full k-point grid
   LINTERFAST=   F  fast interpolation
   KINTER  =     0    interpolate to denser k-point grid
   CSHIFT  =0.1000    complex shift for real part using Kramers Kronig
   OMEGAMAX=  -1.0    maximum frequency
   DEG_THRESHOLD= 0.2000000E-02 threshold for treating states as degnerate
   RTIME   =   -0.100 relaxation time in fs
  (WPLASMAI=    0.000 imaginary part of plasma frequency in eV, 0.658/RTIME)
   DFIELD  = 0.0000000 0.0000000 0.0000000 field for delta impulse in time
 
 Orbital magnetization related:
   ORBITALMAG=     F  switch on orbital magnetization
   LCHIMAG   =     F  perturbation theory with respect to B field
   DQ        =  0.001000  dq finite difference perturbation B field
   LLRAUG    =     F  two centre corrections for induced B field



--------------------------------------------------------------------------------------------------------


 conjugate gradient relaxation of ions
 charge density and potential will be updated during run
 non-spin polarized calculation
 Variant of blocked Davidson
 Davidson routine will perform the subspace rotation
 perform sub-space diagonalisation
    after iterative eigenvector-optimisation
 modified Broyden-mixing scheme, WC =      100.0
 initial mixing is a Kerker type mixing with AMIX =  0.4000 and BMIX =      1.0000
 Hartree-type preconditioning will be used
 using additional bands            4
 reciprocal scheme for non local part
 use partial core corrections
 calculate Harris-corrections to forces 
   (improved forces if not selfconsistent)
 use gradient corrections 
 use of overlap-Matrix (Vanderbilt PP)
 Gauss-broadening in eV      SIGMA  =   0.20


--------------------------------------------------------------------------------------------------------


  energy-cutoff  :      350.00
  volume of cell :       31.61
      direct lattice vectors                 reciprocal lattice vectors
    -2.430080000  2.430080000  1.338411000     0.000000000  0.205754543  0.373577324
     2.430080000 -2.430080000  1.338411000     0.205754543  0.000000000  0.373577324
     2.430080000  2.430080000 -1.338411000     0.205754543  0.205754543  0.000000000

  length of vectors
     3.688078310  3.688078310  3.688078310     0.426491441  0.426491441  0.290980865


 
 k-points in units of 2pi/SCALE and weight: Automatic kpoint scheme                 
   0.02571932  0.02571932  0.04669717       0.016
   0.02571932  0.05143864  0.09339433       0.031
   0.02571932  0.07715795  0.14009150       0.031
   0.02571932  0.10287727  0.18678866       0.016
   0.02571932  0.00000000  0.00000000       0.008
   0.05143864  0.05143864  0.14009150       0.016
   0.05143864  0.07715795  0.18678866       0.031
   0.05143864  0.10287727  0.23348583       0.031
   0.05143864 -0.07715795 -0.09339433       0.031
   0.05143864 -0.05143864 -0.04669717       0.016
   0.05143864 -0.02571932 -0.00000000       0.016
   0.05143864  0.00000000  0.04669717       0.016
   0.07715795  0.07715795  0.23348583       0.016
   0.07715795  0.10287727  0.28018299       0.031
   0.07715795 -0.07715795 -0.04669717       0.016
   0.07715795 -0.05143864  0.00000000       0.016
   0.07715795 -0.02571932  0.04669717       0.031
   0.07715795  0.00000000  0.09339433       0.016
   0.10287727  0.10287727  0.32688016       0.008
   0.10287727 -0.07715795 -0.00000000       0.016
   0.10287727 -0.05143864  0.04669717       0.031
   0.10287727 -0.02571932  0.09339433       0.031
   0.10287727  0.00000000  0.14009150       0.016
  -0.07715795 -0.07715795 -0.32688016       0.016
  -0.07715795 -0.05143864 -0.28018299       0.031
  -0.07715795 -0.02571932 -0.23348583       0.031
  -0.07715795 -0.00000000 -0.18678866       0.016
  -0.05143864 -0.05143864 -0.23348583       0.016
  -0.05143864 -0.02571932 -0.18678866       0.031
  -0.05143864 -0.00000000 -0.14009150       0.016
  -0.02571932 -0.02571932 -0.14009150       0.016
  -0.02571932 -0.00000000 -0.09339433       0.016
   0.00000000  0.00000000 -0.04669717       0.004
   0.07715795  0.07715795  0.14009150       0.016
   0.07715795  0.10287727  0.18678866       0.016
   0.07715795  0.00000000 -0.00000000       0.008
   0.10287727  0.10287727  0.23348583       0.008
   0.10287727 -0.02571932  0.00000000       0.016
   0.10287727  0.00000000  0.04669717       0.016
   0.12859659 -0.05143864 -0.00000000       0.016
   0.12859659 -0.02571932  0.04669717       0.031
   0.12859659  0.00000000  0.09339433       0.016
  -0.05143864 -0.05143864 -0.32688016       0.016
  -0.05143864 -0.02571932 -0.28018299       0.031
  -0.05143864 -0.00000000 -0.23348583       0.016
  -0.02571932 -0.02571932 -0.23348583       0.016
  -0.02571932  0.00000000 -0.18678866       0.016
   0.00000000  0.00000000 -0.14009150       0.004
   0.12859659 -0.00000000  0.00000000       0.008
   0.15431591 -0.02571932 -0.00000000       0.016
   0.15431591 -0.00000000  0.04669717       0.016
  -0.02571932 -0.02571932 -0.32688016       0.016
  -0.02571932 -0.00000000 -0.28018299       0.016
  -0.00000000 -0.00000000 -0.23348583       0.004
   0.18003523  0.00000000 -0.00000000       0.008
  -0.00000000 -0.00000000 -0.32688016       0.004
 
 k-points in reciprocal lattice and weights: Automatic kpoint scheme                 
   0.06250000  0.06250000  0.06250000       0.016
   0.18750000  0.06250000  0.06250000       0.031
   0.31250000  0.06250000  0.06250000       0.031
   0.43750000  0.06250000  0.06250000       0.016
  -0.06250000  0.06250000  0.06250000       0.008
   0.18750000  0.18750000  0.06250000       0.016
   0.31250000  0.18750000  0.06250000       0.031
   0.43750000  0.18750000  0.06250000       0.031
  -0.43750000  0.18750000  0.06250000       0.031
  -0.31250000  0.18750000  0.06250000       0.016
  -0.18750000  0.18750000  0.06250000       0.016
  -0.06250000  0.18750000  0.06250000       0.016
   0.31250000  0.31250000  0.06250000       0.016
   0.43750000  0.31250000  0.06250000       0.031
  -0.43750000  0.31250000  0.06250000       0.016
  -0.31250000  0.31250000  0.06250000       0.016
  -0.18750000  0.31250000  0.06250000       0.031
  -0.06250000  0.31250000  0.06250000       0.016
   0.43750000  0.43750000  0.06250000       0.008
  -0.43750000  0.43750000  0.06250000       0.016
  -0.31250000  0.43750000  0.06250000       0.031
  -0.18750000  0.43750000  0.06250000       0.031
  -0.06250000  0.43750000  0.06250000       0.016
  -0.43750000 -0.43750000  0.06250000       0.016
  -0.31250000 -0.43750000  0.06250000       0.031
  -0.18750000 -0.43750000  0.06250000       0.031
  -0.06250000 -0.43750000  0.06250000       0.016
  -0.31250000 -0.31250000  0.06250000       0.016
  -0.18750000 -0.31250000  0.06250000       0.031
  -0.06250000 -0.31250000  0.06250000       0.016
  -0.18750000 -0.18750000  0.06250000       0.016
  -0.06250000 -0.18750000  0.06250000       0.016
  -0.06250000 -0.06250000  0.06250000       0.004
   0.18750000  0.18750000  0.18750000       0.016
   0.31250000  0.18750000  0.18750000       0.016
  -0.18750000  0.18750000  0.18750000       0.008
   0.31250000  0.31250000  0.18750000       0.008
  -0.31250000  0.31250000  0.18750000       0.016
  -0.18750000  0.31250000  0.18750000       0.016
  -0.43750000  0.43750000  0.18750000       0.016
  -0.31250000  0.43750000  0.18750000       0.031
  -0.18750000  0.43750000  0.18750000       0.016
  -0.43750000 -0.43750000  0.18750000       0.016
  -0.31250000 -0.43750000  0.18750000       0.031
  -0.18750000 -0.43750000  0.18750000       0.016
  -0.31250000 -0.31250000  0.18750000       0.016
  -0.18750000 -0.31250000  0.18750000       0.016
  -0.18750000 -0.18750000  0.18750000       0.004
  -0.31250000  0.31250000  0.31250000       0.008
  -0.43750000  0.43750000  0.31250000       0.016
  -0.31250000  0.43750000  0.31250000       0.016
  -0.43750000 -0.43750000  0.31250000       0.016
  -0.31250000 -0.43750000  0.31250000       0.016
  -0.31250000 -0.31250000  0.31250000       0.004
  -0.43750000  0.43750000  0.43750000       0.008
  -0.43750000 -0.43750000  0.43750000       0.004
 
 position of ions in fractional coordinates (direct lattice) 
   0.75000000  0.25000000  0.50000000
   0.50000000  0.50000000  0.00000000
 
 position of ions in cartesian coordinates  (Angst):
   0.00000000  2.43008000  0.66920550
   0.00000000  0.00000000  1.33841100
 


--------------------------------------------------------------------------------------------------------


 k-point  1 :   0.0625 0.0625 0.0625  plane waves:     476
 k-point  2 :   0.1875 0.0625 0.0625  plane waves:     477
 k-point  3 :   0.3125 0.0625 0.0625  plane waves:     474
 k-point  4 :   0.4375 0.0625 0.0625  plane waves:     476
 k-point  5 :  -0.0625 0.0625 0.0625  plane waves:     475
 k-point  6 :   0.1875 0.1875 0.0625  plane waves:     478
 k-point  7 :   0.3125 0.1875 0.0625  plane waves:     476
 k-point  8 :   0.4375 0.1875 0.0625  plane waves:     477
 k-point  9 :  -0.4375 0.1875 0.0625  plane waves:     472
 k-point 10 :  -0.3125 0.1875 0.0625  plane waves:     475
 k-point 11 :  -0.1875 0.1875 0.0625  plane waves:     467
 k-point 12 :  -0.0625 0.1875 0.0625  plane waves:     475
 k-point 13 :   0.3125 0.3125 0.0625  plane waves:     466
 k-point 14 :   0.4375 0.3125 0.0625  plane waves:     469
 k-point 15 :  -0.4375 0.3125 0.0625  plane waves:     465
 k-point 16 :  -0.3125 0.3125 0.0625  plane waves:     470
 k-point 17 :  -0.1875 0.3125 0.0625  plane waves:     466
 k-point 18 :  -0.0625 0.3125 0.0625  plane waves:     473
 k-point 19 :   0.4375 0.4375 0.0625  plane waves:     470
 k-point 20 :  -0.4375 0.4375 0.0625  plane waves:     461
 k-point 21 :  -0.3125 0.4375 0.0625  plane waves:     463
 k-point 22 :  -0.1875 0.4375 0.0625  plane waves:     469
 k-point 23 :  -0.0625 0.4375 0.0625  plane waves:     475
 k-point 24 :  -0.4375-0.4375 0.0625  plane waves:     466
 k-point 25 :  -0.3125-0.4375 0.0625  plane waves:     470
 k-point 26 :  -0.1875-0.4375 0.0625  plane waves:     473
 k-point 27 :  -0.0625-0.4375 0.0625  plane waves:     466
 k-point 28 :  -0.3125-0.3125 0.0625  plane waves:     470
 k-point 29 :  -0.1875-0.3125 0.0625  plane waves:     473
 k-point 30 :  -0.0625-0.3125 0.0625  plane waves:     476
 k-point 31 :  -0.1875-0.1875 0.0625  plane waves:     478
 k-point 32 :  -0.0625-0.1875 0.0625  plane waves:     477
 k-point 33 :  -0.0625-0.0625 0.0625  plane waves:     472
 k-point 34 :   0.1875 0.1875 0.1875  plane waves:     475
 k-point 35 :   0.3125 0.1875 0.1875  plane waves:     478
 k-point 36 :  -0.1875 0.1875 0.1875  plane waves:     469
 k-point 37 :   0.3125 0.3125 0.1875  plane waves:     466
 k-point 38 :  -0.3125 0.3125 0.1875  plane waves:     464
 k-point 39 :  -0.1875 0.3125 0.1875  plane waves:     466
 k-point 40 :  -0.4375 0.4375 0.1875  plane waves:     468
 k-point 41 :  -0.3125 0.4375 0.1875  plane waves:     465
 k-point 42 :  -0.1875 0.4375 0.1875  plane waves:     472
 k-point 43 :  -0.4375-0.4375 0.1875  plane waves:     454
 k-point 44 :  -0.3125-0.4375 0.1875  plane waves:     468
 k-point 45 :  -0.1875-0.4375 0.1875  plane waves:     464
 k-point 46 :  -0.3125-0.3125 0.1875  plane waves:     469
 k-point 47 :  -0.1875-0.3125 0.1875  plane waves:     471
 k-point 48 :  -0.1875-0.1875 0.1875  plane waves:     488
 k-point 49 :  -0.3125 0.3125 0.3125  plane waves:     466
 k-point 50 :  -0.4375 0.4375 0.3125  plane waves:     465
 k-point 51 :  -0.3125 0.4375 0.3125  plane waves:     468
 k-point 52 :  -0.4375-0.4375 0.3125  plane waves:     472
 k-point 53 :  -0.3125-0.4375 0.3125  plane waves:     469
 k-point 54 :  -0.3125-0.3125 0.3125  plane waves:     464
 k-point 55 :  -0.4375 0.4375 0.4375  plane waves:     468
 k-point 56 :  -0.4375-0.4375 0.4375  plane waves:     480

 maximum and minimum number of plane-waves per node :       488      454

 maximum number of plane-waves:       488
 maximum index in each direction: 
   IXMAX=    6   IYMAX=    6   IZMAX=    5
   IXMIN=   -6   IYMIN=   -6   IZMIN=   -6


 serial   3D FFT for wavefunctions
 parallel 3D FFT for charge:
    minimum data exchange during FFTs selected (reduces bandwidth)


 total amount of memory used by VASP MPI-rank0    33029. kBytes
=======================================================================

   base      :      30000. kBytes
   nonl-proj :       1764. kBytes
   fftplans  :        247. kBytes
   grid      :        561. kBytes
   one-center:          6. kBytes
   wavefun   :        451. kBytes
 
     INWAV:  cpu time    0.0000: real time    0.0009
 Broyden mixing: mesh for mixing (old mesh)
   NGX = 11   NGY = 11   NGZ = 11
  (NGX  = 36   NGY  = 36   NGZ  = 36)
  gives a total of   1331 points

 initial charge density was supplied:
 charge density of overlapping atoms calculated
 number of electron       8.0000000 magnetization 
 keeping initial charge density in first step


--------------------------------------------------------------------------------------------------------


 Maximum index for augmentation-charges          879 (set IRDMAX)


--------------------------------------------------------------------------------------------------------


 First call to EWALD:  gamma=   0.561
 Maximum number of real-space cells 4x 4x 3
 Maximum number of reciprocal cells 3x 3x 3

    FEWALD:  cpu time    0.0080: real time    0.0073


--------------------------------------- Iteration      1(   1)  ---------------------------------------


    POTLOK:  cpu time    0.0400: real time    0.0463
    SETDIJ:  cpu time    0.0080: real time    0.0092
     EDDAV:  cpu time    0.7200: real time    0.7308
       DOS:  cpu time    0.0040: real time    0.0034
    --------------------------------------------
      LOOP:  cpu time    0.7720: real time    0.7904

 eigenvalue-minimisations  :   896
 total energy-change (2. order) : 0.1082810E+01  (-0.2667206E+03)
 number of electron       8.0000000 magnetization 
 augmentation part        8.0000000 magnetization 

 Free energy of the ion-electron system (eV)
  ---------------------------------------------------
  alpha Z        PSCENC =         4.25915249
  Ewald energy   TEWEN  =      -262.38932341
  -Hartree energ DENC   =        -2.44281202
  -exchange      EXHF   =         0.00000000
  -V(xc)+E(xc)   XCENC  =       -17.98439714
  PAW double counting   =        65.95520812      -30.76852678
  entropy T*S    EENTRO =        -0.01420001
  eigenvalues    EBANDS =        38.33645413
  atomic energy  EATOM  =       206.13125414
  Solvation  Ediel_sol  =         0.00000000
  ---------------------------------------------------
  free energy    TOTEN  =         1.08280952 eV

  energy without entropy =        1.09700953  energy(sigma->0) =        1.08990952


--------------------------------------------------------------------------------------------------------




--------------------------------------- Iteration      1(   2)  ---------------------------------------


     EDDAV:  cpu time    1.0760: real time    1.0813
       DOS:  cpu time    0.0000: real time    0.0033
    --------------------------------------------
      LOOP:  cpu time    1.0760: real time    1.0845

 eigenvalue-minimisations  :  1368
 total energy-change (2. order) :-0.1122756E+02  (-0.1091280E+02)
 number of electron       8.0000000 magnetization 
 augmentation part        8.0000000 magnetization 

 Free energy of the ion-electron system (eV)
  ---------------------------------------------------
  alpha Z        PSCENC =         4.25915249
  Ewald energy   TEWEN  =      -262.38932341
  -Hartree energ DENC   =        -2.44281202
  -exchange      EXHF   =         0.00000000
  -V(xc)+E(xc)   XCENC  =       -17.98439714
  PAW double counting   =        65.95520812      -30.76852678
  entropy T*S    EENTRO =        -0.02111596
  eigenvalues    EBANDS =        27.11581341
  atomic energy  EATOM  =       206.13125414
  Solvation  Ediel_sol  =         0.00000000
  ---------------------------------------------------
  free energy    TOTEN  =       -10.14474715 eV

  energy without entropy =      -10.12363119  energy(sigma->0) =      -10.13418917


--------------------------------------------------------------------------------------------------------




--------------------------------------- Iteration      1(   3)  ---------------------------------------


     EDDAV:  cpu time    0.9640: real time    0.9667
       DOS:  cpu time    0.0000: real time    0.0039
    --------------------------------------------
      LOOP:  cpu time    0.9640: real time    0.9718

 eigenvalue-minimisations  :  1208
 total energy-change (2. order) :-0.1229933E+00  (-0.1202778E+00)
 number of electron       8.0000000 magnetization 
 augmentation part        8.0000000 magnetization 

 Free energy of the ion-electron system (eV)
  ---------------------------------------------------
  alpha Z        PSCENC =         4.25915249
  Ewald energy   TEWEN  =      -262.38932341
  -Hartree energ DENC   =        -2.44281202
  -exchange      EXHF   =         0.00000000
  -V(xc)+E(xc)   XCENC  =       -17.98439714
  PAW double counting   =        65.95520812      -30.76852678
  entropy T*S    EENTRO =        -0.02027523
  eigenvalues    EBANDS =        26.99197940
  atomic energy  EATOM  =       206.13125414
  Solvation  Ediel_sol  =         0.00000000
  ---------------------------------------------------
  free energy    TOTEN  =       -10.26774043 eV

  energy without entropy =      -10.24746520  energy(sigma->0) =      -10.25760282


--------------------------------------------------------------------------------------------------------




--------------------------------------- Iteration      1(   4)  ---------------------------------------


     EDDAV:  cpu time    1.0480: real time    1.0701
       DOS:  cpu time    0.0000: real time    0.0034
    --------------------------------------------
      LOOP:  cpu time    1.0480: real time    1.0723

 eigenvalue-minimisations  :  1328
 total energy-change (2. order) :-0.3042553E-03  (-0.3041412E-03)
 number of electron       8.0000000 magnetization 
 augmentation part        8.0000000 magnetization 

 Free energy of the ion-electron system (eV)
  ---------------------------------------------------
  alpha Z        PSCENC =         4.25915249
  Ewald energy   TEWEN  =      -262.38932341
  -Hartree energ DENC   =        -2.44281202
  -exchange      EXHF   =         0.00000000
  -V(xc)+E(xc)   XCENC  =       -17.98439714
  PAW double counting   =        65.95520812      -30.76852678
  entropy T*S    EENTRO =        -0.02028568
  eigenvalues    EBANDS =        26.99168560
  atomic energy  EATOM  =       206.13125414
  Solvation  Ediel_sol  =         0.00000000
  ---------------------------------------------------
  free energy    TOTEN  =       -10.26804469 eV

  energy without entropy =      -10.24775901  energy(sigma->0) =      -10.25790185


--------------------------------------------------------------------------------------------------------




--------------------------------------- Iteration      1(   5)  ---------------------------------------


     EDDAV:  cpu time    0.9720: real time    0.9785
       DOS:  cpu time    0.0040: real time    0.0034
    CHARGE:  cpu time    0.0600: real time    0.0585
    MIXING:  cpu time    0.0000: real time    0.0024
    --------------------------------------------
      LOOP:  cpu time    1.0360: real time    1.0428

 eigenvalue-minimisations  :  1224
 total energy-change (2. order) :-0.4606161E-06  (-0.4591503E-06)
 number of electron       7.9999994 magnetization 
 augmentation part       -0.4700427 magnetization 

 Broyden mixing:
  rms(total) = 0.15377E+00    rms(broyden)= 0.15377E+00
  rms(prec ) = 0.35178E+00
  weight for this iteration     100.00

 Free energy of the ion-electron system (eV)
  ---------------------------------------------------
  alpha Z        PSCENC =         4.25915249
  Ewald energy   TEWEN  =      -262.38932341
  -Hartree energ DENC   =        -2.44281202
  -exchange      EXHF   =         0.00000000
  -V(xc)+E(xc)   XCENC  =       -17.98439714
  PAW double counting   =        65.95520812      -30.76852678
  entropy T*S    EENTRO =        -0.02028567
  eigenvalues    EBANDS =        26.99168513
  atomic energy  EATOM  =       206.13125414
  Solvation  Ediel_sol  =         0.00000000
  ---------------------------------------------------
  free energy    TOTEN  =       -10.26804515 eV

  energy without entropy =      -10.24775948  energy(sigma->0) =      -10.25790231


--------------------------------------------------------------------------------------------------------




--------------------------------------- Iteration      1(   6)  ---------------------------------------


    POTLOK:  cpu time    0.0280: real time    0.0334
    SETDIJ:  cpu time    0.0080: real time    0.0086
     EDDAV:  cpu time    0.8960: real time    0.8943
       DOS:  cpu time    0.0000: real time    0.0033
    CHARGE:  cpu time    0.0600: real time    0.0567
    MIXING:  cpu time    0.0000: real time    0.0020
    --------------------------------------------
      LOOP:  cpu time    0.9920: real time    0.9981

 eigenvalue-minimisations  :  1136
 total energy-change (2. order) : 0.6310806E-02  (-0.3630206E-03)
 number of electron       7.9999994 magnetization 
 augmentation part       -0.4717231 magnetization 

 Broyden mixing:
  rms(total) = 0.95559E-01    rms(broyden)= 0.95558E-01
  rms(prec ) = 0.21821E+00
  weight for this iteration     100.00

 eigenvalues of (default mixing * dielectric matrix)
  average eigenvalue GAMMA=   2.6327
  2.6327

 Free energy of the ion-electron system (eV)
  ---------------------------------------------------
  alpha Z        PSCENC =         4.25915249
  Ewald energy   TEWEN  =      -262.38932341
  -Hartree energ DENC   =        -2.45921239
  -exchange      EXHF   =         0.00000000
  -V(xc)+E(xc)   XCENC  =       -17.90974914
  PAW double counting   =        67.40133754      -32.24383584
  entropy T*S    EENTRO =        -0.02033245
  eigenvalues    EBANDS =        26.96897470
  atomic energy  EATOM  =       206.13125414
  Solvation  Ediel_sol  =         0.00000000
  ---------------------------------------------------
  free energy    TOTEN  =       -10.26173434 eV

  energy without entropy =      -10.24140190  energy(sigma->0) =      -10.25156812


--------------------------------------------------------------------------------------------------------




--------------------------------------- Iteration      1(   7)  ---------------------------------------


    POTLOK:  cpu time    0.0280: real time    0.0351
    SETDIJ:  cpu time    0.0080: real time    0.0089
     EDDAV:  cpu time    0.8720: real time    0.8716
       DOS:  cpu time    0.0040: real time    0.0033
    CHARGE:  cpu time    0.0560: real time    0.0557
    MIXING:  cpu time    0.0000: real time    0.0018
    --------------------------------------------
      LOOP:  cpu time    0.9680: real time    0.9765

 eigenvalue-minimisations  :  1104
 total energy-change (2. order) : 0.4442148E-02  (-0.9473107E-03)
 number of electron       7.9999994 magnetization 
 augmentation part       -0.4748805 magnetization 

 Broyden mixing:
  rms(total) = 0.50303E-02    rms(broyden)= 0.50300E-02
  rms(prec ) = 0.14523E-01
  weight for this iteration     100.00

 eigenvalues of (default mixing * dielectric matrix)
  average eigenvalue GAMMA=   2.5637
  2.5637  2.5637

 Free energy of the ion-electron system (eV)
  ---------------------------------------------------
  alpha Z        PSCENC =         4.25915249
  Ewald energy   TEWEN  =      -262.38932341
  -Hartree energ DENC   =        -2.58395740
  -exchange      EXHF   =         0.00000000
  -V(xc)+E(xc)   XCENC  =       -17.76970277
  PAW double counting   =        69.64758196      -34.53919500
  entropy T*S    EENTRO =        -0.02037537
  eigenvalues    EBANDS =        27.00727316
  atomic energy  EATOM  =       206.13125414
  Solvation  Ediel_sol  =         0.00000000
  ---------------------------------------------------
  free energy    TOTEN  =       -10.25729220 eV

  energy without entropy =      -10.23691683  energy(sigma->0) =      -10.24710451


--------------------------------------------------------------------------------------------------------




--------------------------------------- Iteration      1(   8)  ---------------------------------------


    POTLOK:  cpu time    0.0280: real time    0.0333
    SETDIJ:  cpu time    0.0120: real time    0.0088
     EDDAV:  cpu time    0.5720: real time    0.5745
       DOS:  cpu time    0.0040: real time    0.0034
    --------------------------------------------
      LOOP:  cpu time    0.6160: real time    0.6201

 eigenvalue-minimisations  :   640
 total energy-change (2. order) : 0.5099593E-04  (-0.3805231E-04)
 number of electron       7.9999994 magnetization 
 augmentation part       -0.4748805 magnetization 

 Free energy of the ion-electron system (eV)
  ---------------------------------------------------
  alpha Z        PSCENC =         4.25915249
  Ewald energy   TEWEN  =      -262.38932341
  -Hartree energ DENC   =        -2.60428138
  -exchange      EXHF   =         0.00000000
  -V(xc)+E(xc)   XCENC  =       -17.76795508
  PAW double counting   =        69.51921775      -34.41304200
  entropy T*S    EENTRO =        -0.02036617
  eigenvalues    EBANDS =        27.02810245
  atomic energy  EATOM  =       206.13125414
  Solvation  Ediel_sol  =         0.00000000
  ---------------------------------------------------
  free energy    TOTEN  =       -10.25724120 eV

  energy without entropy =      -10.23687503  energy(sigma->0) =      -10.24705812


--------------------------------------------------------------------------------------------------------




 average (electrostatic) potential at core
  the test charge radii are     0.9892
  (the norm of the test charge is              1.0000)
       1 -80.9763       2 -80.9763
 
 
 
 E-fermi :   8.6771     XC(G=0): -10.7615     alpha+bet :-15.1730


 k-point     1 :       0.0625    0.0625    0.0625
  band No.  band energies     occupation 
      1      -4.2259      2.00000
      2       4.4286      2.00000
      3       6.6936      2.00000
      4       8.2174      1.99885
      5      11.8493      0.00000
      6      13.7092      0.00000
      7      14.2760      0.00000
      8      16.1434      0.00000

 k-point     2 :       0.1875    0.0625    0.0625
  band No.  band energies     occupation 
      1      -3.0092      2.00000
      2       4.1833      2.00000
      3       6.9927      2.00000
      4       9.1560      0.00071
      5      10.8128      0.00000
      6      10.9197      0.00000
      7      13.6789      0.00000
      8      14.4344      0.00000

 k-point     3 :       0.3125    0.0625    0.0625
  band No.  band energies     occupation 
      1      -1.0115      2.00000
      2       4.4795      2.00000
      3       5.5560      2.00000
      4       7.2627      2.00000
      5       8.6130      1.34949
      6      11.7400      0.00000
      7      13.1905      0.00000
      8      13.5822      0.00000

 k-point     4 :       0.4375    0.0625    0.0625
  band No.  band energies     occupation 
      1       1.3230      2.00000
      2       2.2391      2.00000
      3       5.7798      2.00000
      4       6.1710      2.00000
      5       8.4961      1.79949
      6      10.5759      0.00000
      7      13.0999      0.00000
      8      14.0432      0.00000

 k-point     5 :      -0.0625    0.0625    0.0625
  band No.  band energies     occupation 
      1      -4.6339      2.00000
      2       5.0346      2.00000
      3       5.8878      2.00000
      4       7.8858      2.00000
      5      10.9817      0.00000
      6      14.8602      0.00000
      7      17.3335      0.00000
      8      17.4327      0.00000

 k-point     6 :       0.1875    0.1875    0.0625
  band No.  band energies     occupation 
      1      -1.1944      2.00000
      2       4.4700      2.00000
      3       6.4387      2.00000
      4       6.6326      2.00000
      5       9.5824      0.00000
      6      11.5760      0.00000
      7      12.8742      0.00000
      8      13.0663      0.00000

 k-point     7 :       0.3125    0.1875    0.0625
  band No.  band energies     occupation 
      1       1.2696      2.00000
      2       2.9680      2.00000
      3       4.3150      2.00000
      4       5.7905      2.00000
      5       9.8382      0.00000
      6      11.5741      0.00000
      7      12.5970      0.00000
      8      14.6356      0.00000

 k-point     8 :       0.4375    0.1875    0.0625
  band No.  band energies     occupation 
      1      -0.0969      2.00000
      2       2.7376      2.00000
      3       4.9158      2.00000
      4       7.2660      2.00000
      5       9.0836      0.00404
      6      11.7429      0.00000
      7      13.6622      0.00000
      8      14.5455      0.00000

 k-point     9 :      -0.4375    0.1875    0.0625
  band No.  band energies     occupation 
      1      -2.2609      2.00000
      2       2.1178      2.00000
      3       7.5371      2.00000
      4       8.8157      0.32702
      5      10.3439      0.00000
      6      11.4683      0.00000
      7      12.6778      0.00000
      8      15.0185      0.00000

 k-point    10 :      -0.3125    0.1875    0.0625
  band No.  band energies     occupation 
      1      -3.6597      2.00000
      2       2.2070      2.00000
      3       7.2006      2.00000
      4       9.1411      0.00104
      5      12.1329      0.00000
      6      13.6454      0.00000
      7      14.1962      0.00000
      8      14.8223      0.00000

 k-point    11 :      -0.1875    0.1875    0.0625
  band No.  band energies     occupation 
      1      -4.2554      2.00000
      2       3.0201      2.00000
      3       6.0045      2.00000
      4       9.1213      0.00168
      5      12.7873      0.00000
      6      12.9473      0.00000
      7      15.8690      0.00000
      8      17.2190      0.00000

 k-point    12 :      -0.0625    0.1875    0.0625
  band No.  band energies     occupation 
      1      -4.0371      2.00000
      2       4.1467      2.00000
      3       5.3710      2.00000
      4       9.7023      0.00000
      5      12.5739      0.00000
      6      12.6980      0.00000
      7      13.7386      0.00000
      8      15.7179      0.00000

 k-point    13 :       0.3125    0.3125    0.0625
  band No.  band energies     occupation 
      1       1.1315      2.00000
      2       1.1985      2.00000
      3       4.7236      2.00000
      4       7.2086      2.00000
      5       9.8233      0.00000
      6      10.6496      0.00000
      7      14.6897      0.00000
      8      15.5412      0.00000

 k-point    14 :       0.4375    0.3125    0.0625
  band No.  band energies     occupation 
      1      -1.1468      2.00000
      2       0.3208      2.00000
      3       8.0634      1.99999
      4       8.6731      1.02256
      5       9.9943      0.00000
      6      11.3867      0.00000
      7      12.4860      0.00000
      8      13.8775      0.00000

 k-point    15 :      -0.4375    0.3125    0.0625
  band No.  band energies     occupation 
      1      -2.7210      2.00000
      2       0.2341      2.00000
      3       8.0370      1.99999
      4      10.1056      0.00000
      5      10.6236      0.00000
      6      12.7088      0.00000
      7      13.7513      0.00000
      8      13.8397      0.00000

 k-point    16 :      -0.3125    0.3125    0.0625
  band No.  band energies     occupation 
      1      -3.5013      2.00000
      2       0.9208      2.00000
      3       6.6887      2.00000
      4      10.0597      0.00000
      5      10.8137      0.00000
      6      14.1487      0.00000
      7      15.8496      0.00000
      8      16.9141      0.00000

 k-point    17 :      -0.1875    0.3125    0.0625
  band No.  band energies     occupation 
      1      -3.4723      2.00000
      2       2.3315      2.00000
      3       5.4915      2.00000
      4      10.6557      0.00000
      5      11.0505      0.00000
      6      12.9576      0.00000
      7      14.7301      0.00000
      8      15.6346      0.00000

 k-point    18 :      -0.0625    0.3125    0.0625
  band No.  band energies     occupation 
      1      -2.6354      2.00000
      2       4.0087      2.00000
      3       5.3779      2.00000
      4       8.4584      1.87806
      5      11.0896      0.00000
      6      12.6357      0.00000
      7      13.2975      0.00000
      8      13.6624      0.00000

 k-point    19 :       0.4375    0.4375    0.0625
  band No.  band energies     occupation 
      1      -1.4182      2.00000
      2      -1.4182      2.00000
      3       9.1817      0.00036
      4       9.1817      0.00036
      5      11.3566      0.00000
      6      11.3566      0.00000
      7      13.5552      0.00000
      8      13.5552      0.00000

 k-point    20 :      -0.4375    0.4375    0.0625
  band No.  band energies     occupation 
      1      -2.3780      2.00000
      2      -0.8967      2.00000
      3       7.7321      2.00000
      4       9.1142      0.00200
      5      11.1718      0.00000
      6      12.5445      0.00000
      7      16.6164      0.00000
      8      16.7146      0.00000

 k-point    21 :      -0.3125    0.4375    0.0625
  band No.  band energies     occupation 
      1      -2.5363      2.00000
      2       0.4015      2.00000
      3       6.3251      2.00000
      4       9.0559      0.00739
      5      11.4059      0.00000
      6      12.8815      0.00000
      7      14.8215      0.00000
      8      15.3434      0.00000

 k-point    22 :      -0.1875    0.4375    0.0625
  band No.  band energies     occupation 
      1      -1.8914      2.00000
      2       2.4021      2.00000
      3       5.5842      2.00000
      4       7.8195      2.00000
      5       9.6790      0.00000
      6      12.4950      0.00000
      7      13.9897      0.00000
      8      15.3284      0.00000

 k-point    23 :      -0.0625    0.4375    0.0625
  band No.  band energies     occupation 
      1      -0.4655      2.00000
      2       4.0550      2.00000
      3       5.2057      2.00000
      4       5.9950      2.00000
      5       9.1445      0.00095
      6      11.5579      0.00000
      7      11.8734      0.00000
      8      15.1630      0.00000

 k-point    24 :      -0.4375   -0.4375    0.0625
  band No.  band energies     occupation 
      1      -1.2420      2.00000
      2      -1.2354      2.00000
      3       7.5238      2.00000
      4       7.5375      2.00000
      5      11.4968      0.00000
      6      13.3889      0.00000
      7      14.2286      0.00000
      8      14.8294      0.00000

 k-point    25 :      -0.3125   -0.4375    0.0625
  band No.  band energies     occupation 
      1      -0.7858      2.00000
      2       0.6638      2.00000
      3       6.4826      2.00000
      4       7.3987      2.00000
      5       8.2602      1.99680
      6      12.1472      0.00000
      7      15.0836      0.00000
      8      16.3886      0.00000

 k-point    26 :      -0.1875   -0.4375    0.0625
  band No.  band energies     occupation 
      1       0.4319      2.00000
      2       3.0510      2.00000
      3       4.2163      2.00000
      4       6.4281      2.00000
      5       8.6559      1.11922
      6      10.5911      0.00000
      7      13.0937      0.00000
      8      16.4736      0.00000

 k-point    27 :      -0.0625   -0.4375    0.0625
  band No.  band energies     occupation 
      1       0.9180      2.00000
      2       2.6451      2.00000
      3       6.2326      2.00000
      4       6.9639      2.00000
      5       7.5821      2.00000
      6      10.1919      0.00000
      7      11.6329      0.00000
      8      15.3780      0.00000

 k-point    28 :      -0.3125   -0.3125    0.0625
  band No.  band energies     occupation 
      1       1.5660      2.00000
      2       1.7416      2.00000
      3       3.9172      2.00000
      4       7.2996      2.00000
      5       7.7072      2.00000
      6      10.2140      0.00000
      7      14.9447      0.00000
      8      15.6115      0.00000

 k-point    29 :      -0.1875   -0.3125    0.0625
  band No.  band energies     occupation 
      1       0.6049      2.00000
      2       3.6433      2.00000
      3       4.9845      2.00000
      4       7.1593      2.00000
      5       8.2686      1.99613
      6      10.0777      0.00000
      7      11.6676      0.00000
      8      14.0699      0.00000

 k-point    30 :      -0.0625   -0.3125    0.0625
  band No.  band energies     occupation 
      1      -1.5646      2.00000
      2       5.8257      2.00000
      3       6.8342      2.00000
      4       7.2050      2.00000
      5       8.4425      1.90285
      6      10.9214      0.00000
      7      11.6500      0.00000
      8      13.3211      0.00000

 k-point    31 :      -0.1875   -0.1875    0.0625
  band No.  band energies     occupation 
      1      -1.7497      2.00000
      2       6.4558      2.00000
      3       7.1226      2.00000
      4       7.4190      2.00000
      5       8.7788      0.47181
      6      10.4355      0.00000
      7      11.6190      0.00000
      8      11.8424      0.00000

 k-point    32 :      -0.0625   -0.1875    0.0625
  band No.  band energies     occupation 
      1      -3.3848      2.00000
      2       6.1435      2.00000
      3       6.8885      2.00000
      4       8.7405      0.65380
      5      10.8696      0.00000
      6      11.3001      0.00000
      7      12.0919      0.00000
      8      13.8333      0.00000

 k-point    33 :      -0.0625   -0.0625    0.0625
  band No.  band energies     occupation 
      1      -4.4151      2.00000
      2       6.5239      2.00000
      3       6.5239      2.00000
      4       6.7979      2.00000
      5      10.7364      0.00000
      6      14.5047      0.00000
      7      14.6201      0.00000
      8      16.4991      0.00000

 k-point    34 :       0.1875    0.1875    0.1875
  band No.  band energies     occupation 
      1      -0.2754      2.00000
      2       2.5956      2.00000
      3       6.0077      2.00000
      4       6.0974      2.00000
      5      10.5751      0.00000
      6      12.4181      0.00000
      7      13.6440      0.00000
      8      14.0845      0.00000

 k-point    35 :       0.3125    0.1875    0.1875
  band No.  band energies     occupation 
      1       2.0296      2.00000
      2       2.7764      2.00000
      3       3.8056      2.00000
      4       4.4545      2.00000
      5      11.4998      0.00000
      6      13.4184      0.00000
      7      13.7262      0.00000
      8      13.9115      0.00000

 k-point    36 :      -0.1875    0.1875    0.1875
  band No.  band energies     occupation 
      1      -3.8787      2.00000
      2       2.8424      2.00000
      3       4.2658      2.00000
      4      10.6655      0.00000
      5      11.2444      0.00000
      6      14.0213      0.00000
      7      16.2636      0.00000
      8      16.7810      0.00000

 k-point    37 :       0.3125    0.3125    0.1875
  band No.  band energies     occupation 
      1       0.9958      2.00000
      2       0.9958      2.00000
      3       5.8874      2.00000
      4       5.8874      2.00000
      5      11.8254      0.00000
      6      11.8254      0.00000
      7      13.6305      0.00000
      8      13.6305      0.00000

 k-point    38 :      -0.3125    0.3125    0.1875
  band No.  band energies     occupation 
      1      -3.1286      2.00000
      2       1.2102      2.00000
      3       4.4858      2.00000
      4       8.6365      1.22611
      5      12.5830      0.00000
      6      15.4945      0.00000
      7      16.0943      0.00000
      8      16.8746      0.00000

 k-point    39 :      -0.1875    0.3125    0.1875
  band No.  band energies     occupation 
      1      -2.9120      2.00000
      2       2.3069      2.00000
      3       3.8204      2.00000
      4       8.7920      0.41635
      5      11.3903      0.00000
      6      14.0220      0.00000
      7      16.0380      0.00000
      8      16.3506      0.00000

 k-point    40 :      -0.4375    0.4375    0.1875
  band No.  band energies     occupation 
      1      -2.0133      2.00000
      2      -0.5496      2.00000
      3       5.4947      2.00000
      4       6.8958      2.00000
      5      13.6298      0.00000
      6      14.6306      0.00000
      7      16.1884      0.00000
      8      16.5715      0.00000

 k-point    41 :      -0.3125    0.4375    0.1875
  band No.  band energies     occupation 
      1      -1.9854      2.00000
      2       0.8668      2.00000
      3       4.1817      2.00000
      4       6.9200      2.00000
      5      11.0288      0.00000
      6      15.3369      0.00000
      7      16.4016      0.00000
      8      17.8501      0.00000

 k-point    42 :      -0.1875    0.4375    0.1875
  band No.  band energies     occupation 
      1      -1.1578      2.00000
      2       2.5397      2.00000
      3       4.0954      2.00000
      4       7.0134      2.00000
      5       7.9224      2.00000
      6      13.7378      0.00000
      7      15.1505      0.00000
      8      16.4857      0.00000

 k-point    43 :      -0.4375   -0.4375    0.1875
  band No.  band energies     occupation 
      1      -0.7154      2.00000
      2      -0.7014      2.00000
      3       5.3458      2.00000
      4       5.3681      2.00000
      5      10.8841      0.00000
      6      16.0059      0.00000
      7      16.6720      0.00000
      8      16.9858      0.00000

 k-point    44 :      -0.3125   -0.4375    0.1875
  band No.  band energies     occupation 
      1      -0.0755      2.00000
      2       1.3038      2.00000
      3       4.5945      2.00000
      4       5.8589      2.00000
      5       7.0480      2.00000
      6      13.9219      0.00000
      7      16.6809      0.00000
      8      17.7221      0.00000

 k-point    45 :      -0.1875   -0.4375    0.1875
  band No.  band energies     occupation 
      1       1.2776      2.00000
      2       3.0050      2.00000
      3       4.1699      2.00000
      4       5.0813      2.00000
      5       7.2708      2.00000
      6      11.7044      0.00000
      7      13.0330      0.00000
      8      16.6451      0.00000

 k-point    46 :      -0.3125   -0.3125    0.1875
  band No.  band energies     occupation 
      1       2.1151      2.00000
      2       2.5848      2.00000
      3       3.6515      2.00000
      4       5.7721      2.00000
      5       5.8881      2.00000
      6      11.9520      0.00000
      7      14.4103      0.00000
      8      15.2182      0.00000

 k-point    47 :      -0.1875   -0.3125    0.1875
  band No.  band energies     occupation 
      1       0.2577      2.00000
      2       4.6383      2.00000
      3       5.5668      2.00000
      4       6.6375      2.00000
      5       7.4367      2.00000
      6      10.4579      0.00000
      7      11.5205      0.00000
      8      13.0092      0.00000

 k-point    48 :      -0.1875   -0.1875    0.1875
  band No.  band energies     occupation 
      1      -1.9354      2.00000
      2       7.8064      2.00000
      3       7.8064      2.00000
      4       7.9024      2.00000
      5       8.1201      1.99992
      6       9.4091      0.00000
      7      11.3392      0.00000
      8      11.3392      0.00000

 k-point    49 :      -0.3125    0.3125    0.3125
  band No.  band energies     occupation 
      1      -2.3884      2.00000
      2       1.3518      2.00000
      3       2.9415      2.00000
      4       6.5723      2.00000
      5      14.2426      0.00000
      6      15.1242      0.00000
      7      16.6877      0.00000
      8      18.1109      0.00000

 k-point    50 :      -0.4375    0.4375    0.3125
  band No.  band energies     occupation 
      1      -1.2953      2.00000
      2       0.0986      2.00000
      3       3.4626      2.00000
      4       4.8204      2.00000
      5      14.5738      0.00000
      6      14.7614      0.00000
      7      17.6680      0.00000
      8      18.7375      0.00000

 k-point    51 :      -0.3125    0.4375    0.3125
  band No.  band energies     occupation 
      1      -1.0816      2.00000
      2       1.1852      2.00000
      3       2.8047      2.00000
      4       5.0179      2.00000
      5      10.5748      0.00000
      6      17.4978      0.00000
      7      17.8565      0.00000
      8      18.8706      0.00000

 k-point    52 :      -0.4375   -0.4375    0.3125
  band No.  band energies     occupation 
      1       0.1114      2.00000
      2       0.1357      2.00000
      3       3.4848      2.00000
      4       3.4997      2.00000
      5      10.4141      0.00000
      6      17.7396      0.00000
      7      19.0218      0.00000
      8      19.6015      0.00000

 k-point    53 :      -0.3125   -0.4375    0.3125
  band No.  band energies     occupation 
      1       0.9311      2.00000
      2       1.7975      2.00000
      3       3.4198      2.00000
      4       4.2562      2.00000
      5       6.6170      2.00000
      6      15.5910      0.00000
      7      16.8207      0.00000
      8      17.9980      0.00000

 k-point    54 :      -0.3125   -0.3125    0.3125
  band No.  band energies     occupation 
      1       2.3306      2.00000
      2       3.2991      2.00000
      3       4.0481      2.00000
      4       4.7592      2.00000
      5       4.7592      2.00000
      6      13.6728      0.00000
      7      14.2289      0.00000
      8      14.2289      0.00000

 k-point    55 :      -0.4375    0.4375    0.4375
  band No.  band energies     occupation 
      1      -0.2752      2.00000
      2       0.5983      2.00000
      3       2.2517      2.00000
      4       3.1134      2.00000
      5      14.4747      0.00000
      6      14.5125      0.00000
      7      19.9100      0.00000
      8      20.6770      0.00000

 k-point    56 :      -0.4375   -0.4375    0.4375
  band No.  band energies     occupation 
      1       0.7887      2.00000
      2       0.8281      2.00000
      3       2.4587      2.00000
      4       2.4587      2.00000
      5      10.2506      0.00000
      6      18.2528      0.00000
      7      20.1908      0.00000
      8      20.2315      0.00000


--------------------------------------------------------------------------------------------------------


 soft charge-density along one line, spin component           1
         0         1         2         3         4         5         6         7         8         9
 total charge-density along one line
 
 pseudopotential strength for first ion, spin component:           1
 18.110  -0.002   0.000   0.000  -0.000  -0.000  -0.000   0.000
 -0.002   0.005  -0.000  -0.000   0.000   0.000   0.000  -0.000
  0.000  -0.000   4.122   0.000   0.000  -0.006  -0.000  -0.000
  0.000  -0.000   0.000   4.123   0.000  -0.000  -0.006  -0.000
 -0.000   0.000   0.000   0.000   4.122  -0.000  -0.000  -0.006
 -0.000   0.000  -0.006  -0.000  -0.000   0.005   0.000   0.000
 -0.000   0.000  -0.000  -0.006  -0.000   0.000   0.005   0.000
  0.000  -0.000  -0.000  -0.000  -0.006   0.000   0.000   0.005
 total augmentation occupancy for first ion, spin component:           1
  1.625  -0.431   0.000   0.000  -0.000   0.000   0.000   0.000
 -0.431   0.835   0.000   0.000   0.000   0.000   0.000   0.000
  0.000   0.000   0.889   0.000   0.000  -0.469   0.000   0.000
  0.000   0.000   0.000   0.830   0.000  -0.000  -0.428   0.000
 -0.000   0.000   0.000   0.000   0.889   0.000   0.000  -0.469
  0.000   0.000  -0.469  -0.000   0.000   0.323   0.000   0.000
  0.000   0.000   0.000  -0.428   0.000   0.000   0.298   0.000
  0.000   0.000   0.000   0.000  -0.469   0.000   0.000   0.323


------------------------ aborting loop because EDIFF is reached ----------------------------------------


    CHARGE:  cpu time    0.0520: real time    0.0550
    FORLOC:  cpu time    0.0040: real time    0.0009
    FORNL :  cpu time    0.0200: real time    0.0212
    STRESS:  cpu time    0.2120: real time    0.2123
    FORCOR:  cpu time    0.0200: real time    0.0219
    FORHAR:  cpu time    0.0080: real time    0.0056
    MIXING:  cpu time    0.0000: real time    0.0014
    OFIELD:  cpu time    0.0000: real time    0.0005

  FORCE on cell =-STRESS in cart. coord.  units (eV):
  Direction    XX          YY          ZZ          XY          YZ          ZX
  --------------------------------------------------------------------------------------
  Alpha Z     4.25915     4.25915     4.25915
  Ewald     -86.87411   -86.87411   -88.64133     0.00000    -0.00000     0.00000
  Hartree     0.82220     0.82220     0.96410    -0.00000    -0.00000    -0.00000
  E(xc)     -25.23420   -25.23420   -25.09804    -0.00000     0.00000     0.00000
  Local     -14.89956   -14.89956   -11.32229    -0.00002    -0.00002    -0.00002
  n-local    77.19845    77.30046    74.90327     1.19367    -0.38919    -0.48719
  augment   -12.14681   -12.14681   -11.98616     0.00002     0.00002     0.00002
  Kinetic    54.47153    57.37712    56.95872     2.56297    -1.81173    -1.63292
  Fock        0.00000     0.00000     0.00000     0.00000     0.00000     0.00000
  -------------------------------------------------------------------------------------
  Total      -0.89955    -0.89955     0.03742     0.00000     0.00000     0.00000
  in kB     -45.58742   -45.58742     1.89633     0.00000     0.00000     0.00000
  external pressure =      -29.76 kB  Pullay stress =        0.00 kB


 VOLUME and BASIS-vectors are now :
 -----------------------------------------------------------------------------
  energy-cutoff  :      350.00
  volume of cell :       31.61
      direct lattice vectors                 reciprocal lattice vectors
    -2.430080000  2.430080000  1.338411000     0.000000000  0.205754543  0.373577324
     2.430080000 -2.430080000  1.338411000     0.205754543  0.000000000  0.373577324
     2.430080000  2.430080000 -1.338411000     0.205754543  0.205754543  0.000000000

  length of vectors
     3.688078310  3.688078310  3.688078310     0.426491441  0.426491441  0.290980865


 FORCES acting on ions
    electron-ion (+dipol)            ewald-force                    non-local-force                 convergence-correction
 -----------------------------------------------------------------------------------------------
   -.168E-06 0.168E-06 0.962E-14   0.617E-14 0.120E-14 0.323E-14   -.403E-18 0.482E-16 0.239E-16   -.277E-08 0.277E-08 0.576E-16
   0.168E-06 -.168E-06 -.388E-13   -.633E-14 -.147E-14 -.321E-14   0.295E-17 -.526E-16 -.327E-16   0.277E-08 -.277E-08 -.328E-15
 -----------------------------------------------------------------------------------------------
   -.207E-13 0.201E-13 -.292E-13   -.162E-15 -.272E-15 0.261E-16   0.255E-17 -.439E-17 -.872E-17   -.474E-16 -.139E-15 -.270E-15
 
 
 POSITION                                       TOTAL-FORCE (eV/Angst)
 -----------------------------------------------------------------------------------
      0.00000      2.43008      0.66921        -0.000000      0.000000     -0.000000
      0.00000      0.00000      1.33841         0.000000     -0.000000      0.000000
 -----------------------------------------------------------------------------------
    total drift:                               -0.000000      0.000000     -0.000000


--------------------------------------------------------------------------------------------------------



  FREE ENERGIE OF THE ION-ELECTRON SYSTEM (eV)
  ---------------------------------------------------
  free  energy   TOTEN  =       -10.25724120 eV

  energy  without entropy=      -10.23687503  energy(sigma->0) =      -10.24705812
 


--------------------------------------------------------------------------------------------------------


    POTLOK:  cpu time    0.0400: real time    0.0501


--------------------------------------------------------------------------------------------------------




--------------------------------------------------------------------------------------------------------


  
 reached required accuracy - stopping structural energy minimisation
 writing wavefunctions
     LOOP+:  cpu time    9.0440: real time   10.1925
    4ORBIT:  cpu time    0.0000: real time    0.0000

 total amount of memory used by VASP MPI-rank0    33029. kBytes
=======================================================================

   base      :      30000. kBytes
   nonl-proj :       1764. kBytes
   fftplans  :        247. kBytes
   grid      :        561. kBytes
   one-center:          6. kBytes
   wavefun   :        451. kBytes
 
  
  
 General timing and accounting informations for this job:
 ========================================================
  
                  Total CPU time used (sec):       13.052
                            User time (sec):       11.100
                          System time (sec):        1.952
                         Elapsed time (sec):       15.959
  
                   Maximum memory used (kb):        9904.
                   Average memory used (kb):           0.
  
                          Minor page faults:        38214
                          Major page faults:           29
                 Voluntary context switches:        38877
