 running on    8 total cores
 distrk:  each k-point on    8 cores,    1 groups
 distr:  one band on    1 cores,    8 groups
 using from now: INCAR     
 vasp.5.4.4.18Apr17-6-g9f103f2a35 (build Dec 09 2018 21:25:21) complex          
  
 POSCAR found type information on POSCAR  Si
 POSCAR found :  1 types and       2 ions
 scaLAPACK will be used

 ----------------------------------------------------------------------------- 
|                                                                             |
|           W    W    AA    RRRRR   N    N  II  N    N   GGGG   !!!           |
|           W    W   A  A   R    R  NN   N  II  NN   N  G    G  !!!           |
|           W    W  A    A  R    R  N N  N  II  N N  N  G       !!!           |
|           W WW W  AAAAAA  RRRRR   N  N N  II  N  N N  G  GGG   !            |
|           WW  WW  A    A  R   R   N   NN  II  N   NN  G    G                |
|           W    W  A    A  R    R  N    N  II  N    N   GGGG   !!!           |
|                                                                             |
|      For optimal performance we recommend to set                            |
|        NCORE= 4 - approx SQRT( number of cores)                             |
|      NCORE specifies how many cores store one orbital (NPAR=cpu/NCORE).     |
|      This setting can  greatly improve the performance of VASP for DFT.     |
|      The default,   NCORE=1            might be grossly inefficient         |
|      on modern multi-core architectures or massively parallel machines.     |
|      Do your own testing !!!!                                               |
|      Unfortunately you need to use the default for GW and RPA calculations. |
|      (for HF NCORE is supported but not extensively tested yet)             |
|                                                                             |
 ----------------------------------------------------------------------------- 

 LDA part: xc-table for Pade appr. of Perdew
 POSCAR, INCAR and KPOINTS ok, starting setup
 FFT: planning ...
 WAVECAR not read
 entering main loop
       N       E                     dE             d eps       ncg     rms          rms(c)
DAV:   1     0.108280951548E+01    0.10828E+01   -0.26672E+03   896   0.598E+02
DAV:   2    -0.101447471498E+02   -0.11228E+02   -0.10913E+02  1368   0.635E+01
DAV:   3    -0.102677404339E+02   -0.12299E+00   -0.12028E+00  1208   0.819E+00
DAV:   4    -0.102680446891E+02   -0.30426E-03   -0.30414E-03  1328   0.388E-01
DAV:   5    -0.102680451498E+02   -0.46062E-06   -0.45915E-06  1224   0.114E-02    0.154E+00
DAV:   6    -0.102617343435E+02    0.63108E-02   -0.36302E-03  1136   0.402E-01    0.956E-01
DAV:   7    -0.102572921958E+02    0.44421E-02   -0.94731E-03  1104   0.676E-01    0.503E-02
DAV:   8    -0.102572411999E+02    0.50996E-04   -0.38052E-04   640   0.142E-01
   1 F= -.10257241E+02 E0= -.10247058E+02  d E =-.102572E+02
 curvature:   0.00 expect dE= 0.000E+00 dE for cont linesearch  0.000E+00
 trial: gam= 0.00000 g(F)=  0.186E-47 g(S)=  0.000E+00 ort = 0.000E+00 (trialstep = 0.100E+01)
 search vector abs. value=  0.100E-09
 reached required accuracy - stopping structural energy minimisation
 writing wavefunctions
