<?xml version="1.0" encoding="ISO-8859-1"?>
<modeling>
 <generator>
  <i name="program" type="string">vasp </i>
  <i name="version" type="string">5.4.4.18Apr17-6-g9f103f2a35  </i>
  <i name="subversion" type="string">(build Dec 09 2018 21:25:21) complex            parallel </i>
  <i name="platform" type="string">IFC18.0.1.163_CrayMPICH7.7.0_MKL18.0.1.163 </i>
  <i name="date" type="string">2019 03 23 </i>
  <i name="time" type="string">21:13:21 </i>
 </generator>
 <incar>
  <i type="string" name="PREC">normal</i>
  <i type="int" name="IBRION">     2</i>
  <i name="EDIFF">      0.00040000</i>
  <i name="EDIFFG">     -0.01000000</i>
  <i type="int" name="NSW">    15</i>
  <i type="int" name="ISIF">     2</i>
  <i name="ENCUT">    350.00000000</i>
  <i type="int" name="NBANDS">     8</i>
  <i type="logical" name="LREAL"> F  </i>
  <i type="int" name="ISMEAR">     0</i>
  <i name="SIGMA">      0.20000000</i>
  <v type="int" name="KPOINT_BSE">    -1     0     0     0</v>
 </incar>
 <structure name="primitive_cell" >
  <crystal>
   <varray name="basis" >
    <v>      -2.43008000       2.43008000       1.33841100 </v>
    <v>       2.43008000      -2.43008000       1.33841100 </v>
    <v>       2.43008000       2.43008000      -1.33841100 </v>
   </varray>
   <i name="volume">     31.61481399 </i>
   <varray name="rec_basis" >
    <v>       0.00000000       0.20575454       0.37357732 </v>
    <v>       0.20575454       0.00000000       0.37357732 </v>
    <v>       0.20575454       0.20575454       0.00000000 </v>
   </varray>
  </crystal>
  <varray name="positions" >
   <v>      -0.25000000       0.25000000      -0.50000000 </v>
   <v>      -0.50000000      -0.50000000       0.00000000 </v>
  </varray>
 </structure>
 <varray name="primitive_index" >
  <v type="int" >        1 </v>
  <v type="int" >        2 </v>
 </varray>
 <kpoints>
  <generation param="Monkhorst-Pack">
   <v type="int" name="divisions">       8        8        8 </v>
   <v name="usershift">      0.00000000       0.00000000       0.00000000 </v>
   <v name="genvec1">      0.12500000       0.00000000      -0.00000000 </v>
   <v name="genvec2">      0.00000000       0.12500000      -0.00000000 </v>
   <v name="genvec3">     -0.00000000       0.00000000       0.12500000 </v>
   <v name="shift">      0.50000000       0.50000000       0.50000000 </v>
  </generation>
  <varray name="kpointlist" >
   <v>       0.06250000       0.06250000       0.06250000 </v>
   <v>       0.18750000       0.06250000       0.06250000 </v>
   <v>       0.31250000       0.06250000       0.06250000 </v>
   <v>       0.43750000       0.06250000       0.06250000 </v>
   <v>      -0.06250000       0.06250000       0.06250000 </v>
   <v>       0.18750000       0.18750000       0.06250000 </v>
   <v>       0.31250000       0.18750000       0.06250000 </v>
   <v>       0.43750000       0.18750000       0.06250000 </v>
   <v>      -0.43750000       0.18750000       0.06250000 </v>
   <v>      -0.31250000       0.18750000       0.06250000 </v>
   <v>      -0.18750000       0.18750000       0.06250000 </v>
   <v>      -0.06250000       0.18750000       0.06250000 </v>
   <v>       0.31250000       0.31250000       0.06250000 </v>
   <v>       0.43750000       0.31250000       0.06250000 </v>
   <v>      -0.43750000       0.31250000       0.06250000 </v>
   <v>      -0.31250000       0.31250000       0.06250000 </v>
   <v>      -0.18750000       0.31250000       0.06250000 </v>
   <v>      -0.06250000       0.31250000       0.06250000 </v>
   <v>       0.43750000       0.43750000       0.06250000 </v>
   <v>      -0.43750000       0.43750000       0.06250000 </v>
   <v>      -0.31250000       0.43750000       0.06250000 </v>
   <v>      -0.18750000       0.43750000       0.06250000 </v>
   <v>      -0.06250000       0.43750000       0.06250000 </v>
   <v>      -0.43750000      -0.43750000       0.06250000 </v>
   <v>      -0.31250000      -0.43750000       0.06250000 </v>
   <v>      -0.18750000      -0.43750000       0.06250000 </v>
   <v>      -0.06250000      -0.43750000       0.06250000 </v>
   <v>      -0.31250000      -0.31250000       0.06250000 </v>
   <v>      -0.18750000      -0.31250000       0.06250000 </v>
   <v>      -0.06250000      -0.31250000       0.06250000 </v>
   <v>      -0.18750000      -0.18750000       0.06250000 </v>
   <v>      -0.06250000      -0.18750000       0.06250000 </v>
   <v>      -0.06250000      -0.06250000       0.06250000 </v>
   <v>       0.18750000       0.18750000       0.18750000 </v>
   <v>       0.31250000       0.18750000       0.18750000 </v>
   <v>      -0.18750000       0.18750000       0.18750000 </v>
   <v>       0.31250000       0.31250000       0.18750000 </v>
   <v>      -0.31250000       0.31250000       0.18750000 </v>
   <v>      -0.18750000       0.31250000       0.18750000 </v>
   <v>      -0.43750000       0.43750000       0.18750000 </v>
   <v>      -0.31250000       0.43750000       0.18750000 </v>
   <v>      -0.18750000       0.43750000       0.18750000 </v>
   <v>      -0.43750000      -0.43750000       0.18750000 </v>
   <v>      -0.31250000      -0.43750000       0.18750000 </v>
   <v>      -0.18750000      -0.43750000       0.18750000 </v>
   <v>      -0.31250000      -0.31250000       0.18750000 </v>
   <v>      -0.18750000      -0.31250000       0.18750000 </v>
   <v>      -0.18750000      -0.18750000       0.18750000 </v>
   <v>      -0.31250000       0.31250000       0.31250000 </v>
   <v>      -0.43750000       0.43750000       0.31250000 </v>
   <v>      -0.31250000       0.43750000       0.31250000 </v>
   <v>      -0.43750000      -0.43750000       0.31250000 </v>
   <v>      -0.31250000      -0.43750000       0.31250000 </v>
   <v>      -0.31250000      -0.31250000       0.31250000 </v>
   <v>      -0.43750000       0.43750000       0.43750000 </v>
   <v>      -0.43750000      -0.43750000       0.43750000 </v>
  </varray>
  <varray name="weights" >
   <v>       0.01562500 </v>
   <v>       0.03125000 </v>
   <v>       0.03125000 </v>
   <v>       0.01562500 </v>
   <v>       0.00781250 </v>
   <v>       0.01562500 </v>
   <v>       0.03125000 </v>
   <v>       0.03125000 </v>
   <v>       0.03125000 </v>
   <v>       0.01562500 </v>
   <v>       0.01562500 </v>
   <v>       0.01562500 </v>
   <v>       0.01562500 </v>
   <v>       0.03125000 </v>
   <v>       0.01562500 </v>
   <v>       0.01562500 </v>
   <v>       0.03125000 </v>
   <v>       0.01562500 </v>
   <v>       0.00781250 </v>
   <v>       0.01562500 </v>
   <v>       0.03125000 </v>
   <v>       0.03125000 </v>
   <v>       0.01562500 </v>
   <v>       0.01562500 </v>
   <v>       0.03125000 </v>
   <v>       0.03125000 </v>
   <v>       0.01562500 </v>
   <v>       0.01562500 </v>
   <v>       0.03125000 </v>
   <v>       0.01562500 </v>
   <v>       0.01562500 </v>
   <v>       0.01562500 </v>
   <v>       0.00390625 </v>
   <v>       0.01562500 </v>
   <v>       0.01562500 </v>
   <v>       0.00781250 </v>
   <v>       0.00781250 </v>
   <v>       0.01562500 </v>
   <v>       0.01562500 </v>
   <v>       0.01562500 </v>
   <v>       0.03125000 </v>
   <v>       0.01562500 </v>
   <v>       0.01562500 </v>
   <v>       0.03125000 </v>
   <v>       0.01562500 </v>
   <v>       0.01562500 </v>
   <v>       0.01562500 </v>
   <v>       0.00390625 </v>
   <v>       0.00781250 </v>
   <v>       0.01562500 </v>
   <v>       0.01562500 </v>
   <v>       0.01562500 </v>
   <v>       0.01562500 </v>
   <v>       0.00390625 </v>
   <v>       0.00781250 </v>
   <v>       0.00390625 </v>
  </varray>
 </kpoints>
 <parameters>
  <separator name="general" >
   <i type="string" name="SYSTEM">unknown system</i>
   <i type="logical" name="LCOMPAT"> F  </i>
  </separator>
  <separator name="electronic" >
   <i type="string" name="PREC">normal</i>
   <i name="ENMAX">    350.00000000</i>
   <i name="ENAUG">    322.06900000</i>
   <i name="EDIFF">      0.00040000</i>
   <i type="int" name="IALGO">    38</i>
   <i type="int" name="IWAVPR">    11</i>
   <i type="int" name="NBANDS">     8</i>
   <i name="NELECT">      8.00000000</i>
   <i type="int" name="TURBO">     0</i>
   <i type="int" name="IRESTART">     0</i>
   <i type="int" name="NREBOOT">     0</i>
   <i type="int" name="NMIN">     0</i>
   <i name="EREF">      0.00000000</i>
   <separator name="electronic smearing" >
    <i type="int" name="ISMEAR">     0</i>
    <i name="SIGMA">      0.20000000</i>
    <i name="KSPACING">      0.50000000</i>
    <i type="logical" name="KGAMMA"> T  </i>
   </separator>
   <separator name="electronic projectors" >
    <i type="logical" name="LREAL"> F  </i>
    <v name="ROPT">      0.00000000</v>
    <i type="int" name="LMAXPAW">  -100</i>
    <i type="int" name="LMAXMIX">     2</i>
    <i type="logical" name="NLSPLINE"> F  </i>
   </separator>
   <separator name="electronic startup" >
    <i type="int" name="ISTART">     0</i>
    <i type="int" name="ICHARG">     2</i>
    <i type="int" name="INIWAV">     1</i>
   </separator>
   <separator name="electronic spin" >
    <i type="int" name="ISPIN">     1</i>
    <i type="logical" name="LNONCOLLINEAR"> F  </i>
    <v name="MAGMOM">      1.00000000      1.00000000</v>
    <i name="NUPDOWN">     -1.00000000</i>
    <i type="logical" name="LSORBIT"> F  </i>
    <v name="SAXIS">      0.00000000      0.00000000      1.00000000</v>
    <i type="logical" name="LSPIRAL"> F  </i>
    <v name="QSPIRAL">      0.00000000      0.00000000      0.00000000</v>
    <i type="logical" name="LZEROZ"> F  </i>
   </separator>
   <separator name="electronic exchange-correlation" >
    <i type="logical" name="LASPH"> F  </i>
    <i type="logical" name="LMETAGGA"> F  </i>
   </separator>
   <separator name="electronic convergence" >
    <i type="int" name="NELM">    60</i>
    <i type="int" name="NELMDL">    -5</i>
    <i type="int" name="NELMIN">     2</i>
    <i name="ENINI">    350.00000000</i>
    <separator name="electronic convergence detail" >
     <i type="logical" name="LDIAG"> T  </i>
     <i type="logical" name="LSUBROT"> F  </i>
     <i name="WEIMIN">      0.00100000</i>
     <i name="EBREAK">      0.00001250</i>
     <i name="DEPER">      0.30000000</i>
     <i type="int" name="NRMM">     4</i>
     <i name="TIME">      0.40000000</i>
    </separator>
   </separator>
   <separator name="electronic mixer" >
    <i name="AMIX">      0.40000000</i>
    <i name="BMIX">      1.00000000</i>
    <i name="AMIN">      0.10000000</i>
    <i name="AMIX_MAG">      1.60000000</i>
    <i name="BMIX_MAG">      1.00000000</i>
    <separator name="electronic mixer details" >
     <i type="int" name="IMIX">     4</i>
     <i type="logical" name="MIXFIRST"> F  </i>
     <i type="int" name="MAXMIX">   -45</i>
     <i name="WC">    100.00000000</i>
     <i type="int" name="INIMIX">     1</i>
     <i type="int" name="MIXPRE">     1</i>
     <i type="int" name="MREMOVE">     5</i>
    </separator>
   </separator>
   <separator name="electronic dipolcorrection" >
    <i type="logical" name="LDIPOL"> F  </i>
    <i type="logical" name="LMONO"> F  </i>
    <i type="int" name="IDIPOL">     0</i>
    <i name="EPSILON">      1.00000000</i>
    <v name="DIPOL">   -100.00000000   -100.00000000   -100.00000000</v>
    <i name="EFIELD">      0.00000000</i>
   </separator>
  </separator>
  <separator name="grids" >
   <i type="int" name="NGX">    18</i>
   <i type="int" name="NGY">    18</i>
   <i type="int" name="NGZ">    18</i>
   <i type="int" name="NGXF">    36</i>
   <i type="int" name="NGYF">    36</i>
   <i type="int" name="NGZF">    36</i>
   <i type="logical" name="ADDGRID"> F  </i>
  </separator>
  <separator name="ionic" >
   <i type="int" name="NSW">    15</i>
   <i type="int" name="IBRION">     2</i>
   <i type="int" name="MDALGO">     0</i>
   <i type="int" name="ISIF">     2</i>
   <i name="PSTRESS">      0.00000000</i>
   <i name="EDIFFG">     -0.01000000</i>
   <i type="int" name="NFREE">     1</i>
   <i name="POTIM">      0.50000000</i>
   <i name="SMASS">     -3.00000000</i>
   <i name="SCALEE">      1.00000000</i>
  </separator>
  <separator name="ionic md" >
   <i name="TEBEG">      0.00010000</i>
   <i name="TEEND">      0.00010000</i>
   <i type="int" name="NBLOCK">     1</i>
   <i type="int" name="KBLOCK">    15</i>
   <i type="int" name="NPACO">   256</i>
   <i name="APACO">     16.00000000</i>
  </separator>
  <separator name="symmetry" >
   <i type="int" name="ISYM">     2</i>
   <i name="SYMPREC">      0.00001000</i>
  </separator>
  <separator name="dos" >
   <i type="int" name="LORBIT">     0</i>
   <v name="RWIGS">     -1.00000000</v>
   <i type="int" name="NEDOS">   301</i>
   <i name="EMIN">     10.00000000</i>
   <i name="EMAX">    -10.00000000</i>
   <i name="EFERMI">      0.00000000</i>
  </separator>
  <separator name="writing" >
   <i type="int" name="NWRITE">     2</i>
   <i type="logical" name="LWAVE"> T  </i>
   <i type="logical" name="LDOWNSAMPLE"> F  </i>
   <i type="logical" name="LCHARG"> T  </i>
   <i type="logical" name="LPARD"> F  </i>
   <i type="logical" name="LVTOT"> F  </i>
   <i type="logical" name="LVHAR"> F  </i>
   <i type="logical" name="LELF"> F  </i>
   <i type="logical" name="LOPTICS"> F  </i>
   <v name="STM">      0.00000000      0.00000000      0.00000000      0.00000000      0.00000000      0.00000000      0.00000000</v>
  </separator>
  <separator name="performance" >
   <i type="int" name="NPAR">     8</i>
   <i type="int" name="NSIM">     4</i>
   <i type="int" name="NBLK">    -1</i>
   <i type="logical" name="LPLANE"> T  </i>
   <i type="logical" name="LSCALAPACK"> T  </i>
   <i type="logical" name="LSCAAWARE"> F  </i>
   <i type="logical" name="LSCALU"> F  </i>
   <i type="logical" name="LASYNC"> F  </i>
   <i type="logical" name="LORBITALREAL"> F  </i>
  </separator>
  <separator name="miscellaneous" >
   <i type="int" name="IDIOT">     3</i>
   <i type="int" name="ISPECIAL">     0</i>
   <i type="logical" name="LMUSIC"> F  </i>
   <v name="POMASS">     28.08500000</v>
   <v name="DARWINR">      0.00000000</v>
   <v name="DARWINV">      1.00000000</v>
   <i type="logical" name="LCORR"> T  </i>
  </separator>
  <i type="logical" name="GGA_COMPAT"> T  </i>
  <i type="logical" name="LBERRY"> F  </i>
  <i type="int" name="ICORELEVEL">     0</i>
  <i type="logical" name="LDAU"> F  </i>
  <i type="int" name="I_CONSTRAINED_M">     0</i>
  <separator name="electronic exchange-correlation" >
   <i type="string" name="GGA">--</i>
   <i type="int" name="VOSKOWN">     0</i>
   <i type="logical" name="LHFCALC"> F  </i>
   <i type="string" name="PRECFOCK"></i>
   <i type="logical" name="LSYMGRAD"> F  </i>
   <i type="logical" name="LHFONE"> F  </i>
   <i type="logical" name="LRHFCALC"> F  </i>
   <i type="logical" name="LTHOMAS"> F  </i>
   <i type="logical" name="LMODELHF"> F  </i>
   <i name="ENCUT4O">     -1.00000000</i>
   <i type="int" name="EXXOEP">     0</i>
   <i type="int" name="FOURORBIT">     0</i>
   <i name="AEXX">      0.00000000</i>
   <i name="HFALPHA">      0.00000000</i>
   <i name="MCALPHA">      0.00000000</i>
   <i name="ALDAX">      1.00000000</i>
   <i name="AGGAX">      1.00000000</i>
   <i name="ALDAC">      1.00000000</i>
   <i name="AGGAC">      1.00000000</i>
   <i type="int" name="NKREDX">     1</i>
   <i type="int" name="NKREDY">     1</i>
   <i type="int" name="NKREDZ">     1</i>
   <i type="logical" name="SHIFTRED"> F  </i>
   <i type="logical" name="ODDONLY"> F  </i>
   <i type="logical" name="EVENONLY"> F  </i>
   <i type="int" name="LMAXFOCK">     0</i>
   <i type="int" name="NMAXFOCKAE">     0</i>
   <i type="logical" name="LFOCKAEDFT"> F  </i>
   <i name="HFSCREEN">      0.00000000</i>
   <i name="HFSCREENC">      0.00000000</i>
   <i type="int" name="NBANDSGWLOW">     0</i>
  </separator>
  <separator name="vdW DFT" >
   <i type="logical" name="LUSE_VDW"> F  </i>
   <i name="Zab_VDW">     -0.84910000</i>
   <i name="PARAM1">      0.12340000</i>
   <i name="PARAM2">      1.00000000</i>
   <i name="PARAM3">      0.00000000</i>
  </separator>
  <separator name="model GW" >
   <i type="int" name="MODEL_GW">     0</i>
   <i name="MODEL_EPS0">      9.48444420</i>
   <i name="MODEL_ALPHA">      1.00000000</i>
  </separator>
  <separator name="linear response parameters" >
   <i type="logical" name="LEPSILON"> F  </i>
   <i type="logical" name="LRPA"> F  </i>
   <i type="logical" name="LNABLA"> F  </i>
   <i type="logical" name="LVEL"> F  </i>
   <i type="int" name="KINTER">     0</i>
   <i name="CSHIFT">      0.10000000</i>
   <i name="OMEGAMAX">     -1.00000000</i>
   <i name="DEG_THRESHOLD">      0.00200000</i>
   <i name="RTIME">     -0.10000000</i>
   <i name="WPLASMAI">      0.00000000</i>
   <v name="DFIELD">      0.00000000      0.00000000      0.00000000</v>
   <v name="WPLASMA">      0.00000000      0.00000000      0.00000000      0.00000000      0.00000000      0.00000000      0.00000000      0.00000000      0.00000000</v>
  </separator>
  <separator name="orbital magnetization" >
   <i type="logical" name="NUCIND"> F  </i>
   <v name="MAGPOS">      0.00000000      0.00000000      0.00000000</v>
   <i type="logical" name="LNICSALL"> T  </i>
   <i type="logical" name="ORBITALMAG"> F  </i>
   <i type="logical" name="LMAGBLOCH"> F  </i>
   <i type="logical" name="LCHIMAG"> F  </i>
   <i type="logical" name="LGAUGE"> T  </i>
   <i type="int" name="MAGATOM">     0</i>
   <v name="MAGDIPOL">      0.00000000      0.00000000      0.00000000</v>
   <v name="AVECCONST">      0.00000000      0.00000000      0.00000000</v>
  </separator>
  <separator name="response functions" >
   <i type="logical" name="LADDER"> F  </i>
   <i type="logical" name="LRPAFORCE"> F  </i>
   <i type="logical" name="LFXC"> F  </i>
   <i type="logical" name="LHARTREE"> T  </i>
   <i type="int" name="IBSE">     0</i>
   <v type="int" name="KPOINT">    -1     0     0     0</v>
   <i type="logical" name="LTCTE"> F  </i>
   <i type="logical" name="LTETE"> F  </i>
   <i type="logical" name="LTRIPLET"> F  </i>
   <i type="logical" name="LFXCEPS"> F  </i>
   <i type="logical" name="LFXHEG"> F  </i>
   <i type="int" name="NATURALO">     2</i>
   <i type="logical" name="L2ORDER"> F  </i>
   <i type="logical" name="LMP2LT"> F  </i>
   <i type="logical" name="LUSEW"> F  </i>
   <i name="ENCUTGW">     -2.00000000</i>
   <i name="ENCUTGWSOFT">     -2.00000000</i>
   <i name="ENCUTLF">     -1.00000000</i>
   <i type="int" name="LMAXMP2">    -1</i>
   <i name="SCISSOR">      0.00000000</i>
   <i type="int" name="NOMEGA">     0</i>
   <i type="int" name="NOMEGAR">     0</i>
   <i type="int" name="NBANDSGW">    -1</i>
   <i type="int" name="NBANDSO">    -1</i>
   <i type="int" name="NBANDSV">    -1</i>
   <i type="int" name="NELM">     1</i>
   <i type="int" name="NELMHF">     1</i>
   <i type="int" name="DIM">     3</i>
   <i type="int" name="ANTIRES">     0</i>
   <i name="OMEGAMAX">    -30.00000000</i>
   <i name="OMEGAMIN">    -30.00000000</i>
   <i name="OMEGATL">   -200.00000000</i>
   <i type="int" name="OMEGAGRID">   140</i>
   <i name="CSHIFT">     -0.10000000</i>
   <i type="logical" name="SELFENERGY"> F  </i>
   <i type="logical" name="LSPECTRAL"> F  </i>
   <i type="logical" name="LSPECTRALGW"> F  </i>
   <i type="logical" name="LSINGLES"> F  </i>
   <i type="logical" name="LFERMIGW"> F  </i>
   <i type="logical" name="ODDONLYGW"> F  </i>
   <i type="logical" name="EVENONLYGW"> F  </i>
   <i type="int" name="NKREDLFX">     1</i>
   <i type="int" name="NKREDLFY">     1</i>
   <i type="int" name="NKREDLFZ">     1</i>
   <i type="int" name="MAXMEM">  2800</i>
   <i type="int" name="TELESCOPE">     0</i>
   <i type="int" name="TAUPAR">     1</i>
   <i type="int" name="OMEGAPAR">    -1</i>
   <i name="LAMBDA">      1.00000000</i>
  </separator>
  <separator name="External order field" >
   <i name="OFIELD_KAPPA">      0.00000000</i>
   <v name="OFIELD_K">      0.00000000      0.00000000      0.00000000</v>
   <i name="OFIELD_Q6_NEAR">      0.00000000</i>
   <i name="OFIELD_Q6_FAR">      0.00000000</i>
   <i name="OFIELD_A">      0.00000000</i>
  </separator>
 </parameters>
 <atominfo>
  <atoms>       2 </atoms>
  <types>       1 </types>
  <array name="atoms" >
   <dimension dim="1">ion</dimension>
   <field type="string">element</field>
   <field type="int">atomtype</field>
   <set>
    <rc><c>Si</c><c>   1</c></rc>
    <rc><c>Si</c><c>   1</c></rc>
   </set>
  </array>
  <array name="atomtypes" >
   <dimension dim="1">type</dimension>
   <field type="int">atomspertype</field>
   <field type="string">element</field>
   <field>mass</field>
   <field>valence</field>
   <field type="string">pseudopotential</field>
   <set>
    <rc><c>   2</c><c>Si</c><c>     28.08500000</c><c>      4.00000000</c><c> PAW_PBE Si 05Jan2001                   </c></rc>
   </set>
  </array>
 </atominfo>
 <structure name="initialpos" >
  <crystal>
   <varray name="basis" >
    <v>      -2.43008000       2.43008000       1.33841100 </v>
    <v>       2.43008000      -2.43008000       1.33841100 </v>
    <v>       2.43008000       2.43008000      -1.33841100 </v>
   </varray>
   <i name="volume">     31.61481399 </i>
   <varray name="rec_basis" >
    <v>       0.00000000       0.20575454       0.37357732 </v>
    <v>       0.20575454       0.00000000       0.37357732 </v>
    <v>       0.20575454       0.20575454       0.00000000 </v>
   </varray>
  </crystal>
  <varray name="positions" >
   <v>       0.75000000       0.25000000       0.50000000 </v>
   <v>       0.50000000       0.50000000       0.00000000 </v>
  </varray>
 </structure>
 <calculation>
  <scstep>
   <time name="dav">    0.72    0.73</time>
   <time name="total">    0.77    0.79</time>
   <energy>
    <i name="alphaZ">      4.25915249 </i>
    <i name="ewald">   -262.38932341 </i>
    <i name="hartreedc">     -2.44281202 </i>
    <i name="XCdc">    -17.98439714 </i>
    <i name="pawpsdc">     65.95520812 </i>
    <i name="pawaedc">    -30.76852678 </i>
    <i name="eentropy">     -0.01420001 </i>
    <i name="bandstr">     38.33645413 </i>
    <i name="atom">    206.13125414 </i>
    <i name="e_fr_energy">      1.08280952 </i>
    <i name="e_wo_entrp">      1.09700953 </i>
    <i name="e_0_energy">      1.08990952 </i>
   </energy>
  </scstep>
  <scstep>
   <time name="dav">    1.08    1.08</time>
   <time name="total">    1.08    1.08</time>
   <energy>
    <i name="e_fr_energy">    -10.14474715 </i>
    <i name="e_wo_entrp">    -10.12363119 </i>
    <i name="e_0_energy">    -10.13418917 </i>
   </energy>
  </scstep>
  <scstep>
   <time name="dav">    0.96    0.97</time>
   <time name="total">    0.96    0.97</time>
   <energy>
    <i name="e_fr_energy">    -10.26774043 </i>
    <i name="e_wo_entrp">    -10.24746520 </i>
    <i name="e_0_energy">    -10.25760282 </i>
   </energy>
  </scstep>
  <scstep>
   <time name="dav">    1.05    1.07</time>
   <time name="total">    1.05    1.07</time>
   <energy>
    <i name="e_fr_energy">    -10.26804469 </i>
    <i name="e_wo_entrp">    -10.24775901 </i>
    <i name="e_0_energy">    -10.25790185 </i>
   </energy>
  </scstep>
  <scstep>
   <time name="dav">    0.97    0.98</time>
   <time name="total">    1.04    1.04</time>
   <energy>
    <i name="e_fr_energy">    -10.26804515 </i>
    <i name="e_wo_entrp">    -10.24775948 </i>
    <i name="e_0_energy">    -10.25790231 </i>
   </energy>
  </scstep>
  <scstep>
   <time name="dav">    0.90    0.89</time>
   <time name="total">    0.99    1.00</time>
   <energy>
    <i name="e_fr_energy">    -10.26173434 </i>
    <i name="e_wo_entrp">    -10.24140190 </i>
    <i name="e_0_energy">    -10.25156812 </i>
   </energy>
  </scstep>
  <scstep>
   <time name="dav">    0.87    0.87</time>
   <time name="total">    0.97    0.98</time>
   <energy>
    <i name="e_fr_energy">    -10.25729220 </i>
    <i name="e_wo_entrp">    -10.23691683 </i>
    <i name="e_0_energy">    -10.24710451 </i>
   </energy>
  </scstep>
  <scstep>
   <time name="dav">    0.57    0.57</time>
   <time name="total">    0.62    0.62</time>
   <energy>
    <i name="alphaZ">      4.25915249 </i>
    <i name="ewald">   -262.38932341 </i>
    <i name="hartreedc">     -2.60428138 </i>
    <i name="XCdc">    -17.76795508 </i>
    <i name="pawpsdc">     69.51921775 </i>
    <i name="pawaedc">    -34.41304200 </i>
    <i name="eentropy">     -0.02036617 </i>
    <i name="bandstr">     27.02810245 </i>
    <i name="atom">    206.13125414 </i>
    <i name="e_fr_energy">    -10.25724120 </i>
    <i name="e_wo_entrp">    -10.23687503 </i>
    <i name="e_0_energy">    -10.24705812 </i>
   </energy>
  </scstep>
  <structure>
   <crystal>
    <varray name="basis" >
     <v>      -2.43008000       2.43008000       1.33841100 </v>
     <v>       2.43008000      -2.43008000       1.33841100 </v>
     <v>       2.43008000       2.43008000      -1.33841100 </v>
    </varray>
    <i name="volume">     31.61481399 </i>
    <varray name="rec_basis" >
     <v>       0.00000000       0.20575454       0.37357732 </v>
     <v>       0.20575454       0.00000000       0.37357732 </v>
     <v>       0.20575454       0.20575454       0.00000000 </v>
    </varray>
   </crystal>
   <varray name="positions" >
    <v>       0.75000000       0.25000000       0.50000000 </v>
    <v>       0.50000000       0.50000000       0.00000000 </v>
   </varray>
  </structure>
  <varray name="forces" >
   <v>      -0.00000000       0.00000000      -0.00000000 </v>
   <v>       0.00000000      -0.00000000       0.00000000 </v>
  </varray>
  <varray name="stress" >
   <v>     -45.58741626       0.00000000       0.00000000 </v>
   <v>       0.00000000     -45.58741626       0.00000000 </v>
   <v>       0.00000000       0.00000000       1.89632610 </v>
  </varray>
  <energy>
   <i name="e_fr_energy">    -10.25724120 </i>
   <i name="e_wo_entrp">    -10.24705812 </i>
   <i name="e_0_energy">     -0.02036617 </i>
  </energy>
  <time name="totalsc">    9.04   10.19</time>
  <eigenvalues>
   <array>
    <dimension dim="1">band</dimension>
    <dimension dim="2">kpoint</dimension>
    <dimension dim="3">spin</dimension>
    <field>eigene</field>
    <field>occ</field>
    <set>
     <set comment="spin 1">
      <set comment="kpoint 1">
       <r>   -4.2259    1.0000 </r>
       <r>    4.4286    1.0000 </r>
       <r>    6.6936    1.0000 </r>
       <r>    8.2174    0.9994 </r>
       <r>   11.8493    0.0000 </r>
       <r>   13.7092    0.0000 </r>
       <r>   14.2760    0.0000 </r>
       <r>   16.1434    0.0000 </r>
      </set>
      <set comment="kpoint 2">
       <r>   -3.0092    1.0000 </r>
       <r>    4.1833    1.0000 </r>
       <r>    6.9927    1.0000 </r>
       <r>    9.1560    0.0004 </r>
       <r>   10.8128    0.0000 </r>
       <r>   10.9197    0.0000 </r>
       <r>   13.6789    0.0000 </r>
       <r>   14.4344    0.0000 </r>
      </set>
      <set comment="kpoint 3">
       <r>   -1.0115    1.0000 </r>
       <r>    4.4795    1.0000 </r>
       <r>    5.5560    1.0000 </r>
       <r>    7.2627    1.0000 </r>
       <r>    8.6130    0.6747 </r>
       <r>   11.7400    0.0000 </r>
       <r>   13.1905    0.0000 </r>
       <r>   13.5822    0.0000 </r>
      </set>
      <set comment="kpoint 4">
       <r>    1.3230    1.0000 </r>
       <r>    2.2391    1.0000 </r>
       <r>    5.7798    1.0000 </r>
       <r>    6.1710    1.0000 </r>
       <r>    8.4961    0.8997 </r>
       <r>   10.5759    0.0000 </r>
       <r>   13.0999    0.0000 </r>
       <r>   14.0432    0.0000 </r>
      </set>
      <set comment="kpoint 5">
       <r>   -4.6339    1.0000 </r>
       <r>    5.0346    1.0000 </r>
       <r>    5.8878    1.0000 </r>
       <r>    7.8858    1.0000 </r>
       <r>   10.9817    0.0000 </r>
       <r>   14.8602    0.0000 </r>
       <r>   17.3335    0.0000 </r>
       <r>   17.4327    0.0000 </r>
      </set>
      <set comment="kpoint 6">
       <r>   -1.1944    1.0000 </r>
       <r>    4.4700    1.0000 </r>
       <r>    6.4387    1.0000 </r>
       <r>    6.6326    1.0000 </r>
       <r>    9.5824    0.0000 </r>
       <r>   11.5760    0.0000 </r>
       <r>   12.8742    0.0000 </r>
       <r>   13.0663    0.0000 </r>
      </set>
      <set comment="kpoint 7">
       <r>    1.2696    1.0000 </r>
       <r>    2.9680    1.0000 </r>
       <r>    4.3150    1.0000 </r>
       <r>    5.7905    1.0000 </r>
       <r>    9.8382    0.0000 </r>
       <r>   11.5741    0.0000 </r>
       <r>   12.5970    0.0000 </r>
       <r>   14.6356    0.0000 </r>
      </set>
      <set comment="kpoint 8">
       <r>   -0.0969    1.0000 </r>
       <r>    2.7376    1.0000 </r>
       <r>    4.9158    1.0000 </r>
       <r>    7.2660    1.0000 </r>
       <r>    9.0836    0.0020 </r>
       <r>   11.7429    0.0000 </r>
       <r>   13.6622    0.0000 </r>
       <r>   14.5455    0.0000 </r>
      </set>
      <set comment="kpoint 9">
       <r>   -2.2609    1.0000 </r>
       <r>    2.1178    1.0000 </r>
       <r>    7.5371    1.0000 </r>
       <r>    8.8157    0.1635 </r>
       <r>   10.3439    0.0000 </r>
       <r>   11.4683    0.0000 </r>
       <r>   12.6778    0.0000 </r>
       <r>   15.0185    0.0000 </r>
      </set>
      <set comment="kpoint 10">
       <r>   -3.6597    1.0000 </r>
       <r>    2.2070    1.0000 </r>
       <r>    7.2006    1.0000 </r>
       <r>    9.1411    0.0005 </r>
       <r>   12.1329    0.0000 </r>
       <r>   13.6454    0.0000 </r>
       <r>   14.1962    0.0000 </r>
       <r>   14.8223    0.0000 </r>
      </set>
      <set comment="kpoint 11">
       <r>   -4.2554    1.0000 </r>
       <r>    3.0201    1.0000 </r>
       <r>    6.0045    1.0000 </r>
       <r>    9.1213    0.0008 </r>
       <r>   12.7873    0.0000 </r>
       <r>   12.9473    0.0000 </r>
       <r>   15.8690    0.0000 </r>
       <r>   17.2190    0.0000 </r>
      </set>
      <set comment="kpoint 12">
       <r>   -4.0371    1.0000 </r>
       <r>    4.1467    1.0000 </r>
       <r>    5.3710    1.0000 </r>
       <r>    9.7023    0.0000 </r>
       <r>   12.5739    0.0000 </r>
       <r>   12.6980    0.0000 </r>
       <r>   13.7386    0.0000 </r>
       <r>   15.7179    0.0000 </r>
      </set>
      <set comment="kpoint 13">
       <r>    1.1315    1.0000 </r>
       <r>    1.1985    1.0000 </r>
       <r>    4.7236    1.0000 </r>
       <r>    7.2086    1.0000 </r>
       <r>    9.8233    0.0000 </r>
       <r>   10.6496    0.0000 </r>
       <r>   14.6897    0.0000 </r>
       <r>   15.5412    0.0000 </r>
      </set>
      <set comment="kpoint 14">
       <r>   -1.1468    1.0000 </r>
       <r>    0.3208    1.0000 </r>
       <r>    8.0634    1.0000 </r>
       <r>    8.6731    0.5113 </r>
       <r>    9.9943    0.0000 </r>
       <r>   11.3867    0.0000 </r>
       <r>   12.4860    0.0000 </r>
       <r>   13.8775    0.0000 </r>
      </set>
      <set comment="kpoint 15">
       <r>   -2.7210    1.0000 </r>
       <r>    0.2341    1.0000 </r>
       <r>    8.0370    1.0000 </r>
       <r>   10.1056    0.0000 </r>
       <r>   10.6236    0.0000 </r>
       <r>   12.7088    0.0000 </r>
       <r>   13.7513    0.0000 </r>
       <r>   13.8397    0.0000 </r>
      </set>
      <set comment="kpoint 16">
       <r>   -3.5013    1.0000 </r>
       <r>    0.9208    1.0000 </r>
       <r>    6.6887    1.0000 </r>
       <r>   10.0597    0.0000 </r>
       <r>   10.8137    0.0000 </r>
       <r>   14.1487    0.0000 </r>
       <r>   15.8496    0.0000 </r>
       <r>   16.9141    0.0000 </r>
      </set>
      <set comment="kpoint 17">
       <r>   -3.4723    1.0000 </r>
       <r>    2.3315    1.0000 </r>
       <r>    5.4915    1.0000 </r>
       <r>   10.6557    0.0000 </r>
       <r>   11.0505    0.0000 </r>
       <r>   12.9576    0.0000 </r>
       <r>   14.7301    0.0000 </r>
       <r>   15.6346    0.0000 </r>
      </set>
      <set comment="kpoint 18">
       <r>   -2.6354    1.0000 </r>
       <r>    4.0087    1.0000 </r>
       <r>    5.3779    1.0000 </r>
       <r>    8.4584    0.9390 </r>
       <r>   11.0896    0.0000 </r>
       <r>   12.6357    0.0000 </r>
       <r>   13.2975    0.0000 </r>
       <r>   13.6624    0.0000 </r>
      </set>
      <set comment="kpoint 19">
       <r>   -1.4182    1.0000 </r>
       <r>   -1.4182    1.0000 </r>
       <r>    9.1817    0.0002 </r>
       <r>    9.1817    0.0002 </r>
       <r>   11.3566    0.0000 </r>
       <r>   11.3566    0.0000 </r>
       <r>   13.5552    0.0000 </r>
       <r>   13.5552    0.0000 </r>
      </set>
      <set comment="kpoint 20">
       <r>   -2.3780    1.0000 </r>
       <r>   -0.8967    1.0000 </r>
       <r>    7.7321    1.0000 </r>
       <r>    9.1142    0.0010 </r>
       <r>   11.1718    0.0000 </r>
       <r>   12.5445    0.0000 </r>
       <r>   16.6164    0.0000 </r>
       <r>   16.7146    0.0000 </r>
      </set>
      <set comment="kpoint 21">
       <r>   -2.5363    1.0000 </r>
       <r>    0.4015    1.0000 </r>
       <r>    6.3251    1.0000 </r>
       <r>    9.0559    0.0037 </r>
       <r>   11.4059    0.0000 </r>
       <r>   12.8815    0.0000 </r>
       <r>   14.8215    0.0000 </r>
       <r>   15.3434    0.0000 </r>
      </set>
      <set comment="kpoint 22">
       <r>   -1.8914    1.0000 </r>
       <r>    2.4021    1.0000 </r>
       <r>    5.5842    1.0000 </r>
       <r>    7.8195    1.0000 </r>
       <r>    9.6790    0.0000 </r>
       <r>   12.4950    0.0000 </r>
       <r>   13.9897    0.0000 </r>
       <r>   15.3284    0.0000 </r>
      </set>
      <set comment="kpoint 23">
       <r>   -0.4655    1.0000 </r>
       <r>    4.0550    1.0000 </r>
       <r>    5.2057    1.0000 </r>
       <r>    5.9950    1.0000 </r>
       <r>    9.1445    0.0005 </r>
       <r>   11.5579    0.0000 </r>
       <r>   11.8734    0.0000 </r>
       <r>   15.1630    0.0000 </r>
      </set>
      <set comment="kpoint 24">
       <r>   -1.2420    1.0000 </r>
       <r>   -1.2354    1.0000 </r>
       <r>    7.5238    1.0000 </r>
       <r>    7.5375    1.0000 </r>
       <r>   11.4968    0.0000 </r>
       <r>   13.3889    0.0000 </r>
       <r>   14.2286    0.0000 </r>
       <r>   14.8294    0.0000 </r>
      </set>
      <set comment="kpoint 25">
       <r>   -0.7858    1.0000 </r>
       <r>    0.6638    1.0000 </r>
       <r>    6.4826    1.0000 </r>
       <r>    7.3987    1.0000 </r>
       <r>    8.2602    0.9984 </r>
       <r>   12.1472    0.0000 </r>
       <r>   15.0836    0.0000 </r>
       <r>   16.3886    0.0000 </r>
      </set>
      <set comment="kpoint 26">
       <r>    0.4319    1.0000 </r>
       <r>    3.0510    1.0000 </r>
       <r>    4.2163    1.0000 </r>
       <r>    6.4281    1.0000 </r>
       <r>    8.6559    0.5596 </r>
       <r>   10.5911    0.0000 </r>
       <r>   13.0937    0.0000 </r>
       <r>   16.4736    0.0000 </r>
      </set>
      <set comment="kpoint 27">
       <r>    0.9180    1.0000 </r>
       <r>    2.6451    1.0000 </r>
       <r>    6.2326    1.0000 </r>
       <r>    6.9639    1.0000 </r>
       <r>    7.5821    1.0000 </r>
       <r>   10.1919    0.0000 </r>
       <r>   11.6329    0.0000 </r>
       <r>   15.3780    0.0000 </r>
      </set>
      <set comment="kpoint 28">
       <r>    1.5660    1.0000 </r>
       <r>    1.7416    1.0000 </r>
       <r>    3.9172    1.0000 </r>
       <r>    7.2996    1.0000 </r>
       <r>    7.7072    1.0000 </r>
       <r>   10.2140    0.0000 </r>
       <r>   14.9447    0.0000 </r>
       <r>   15.6115    0.0000 </r>
      </set>
      <set comment="kpoint 29">
       <r>    0.6049    1.0000 </r>
       <r>    3.6433    1.0000 </r>
       <r>    4.9845    1.0000 </r>
       <r>    7.1593    1.0000 </r>
       <r>    8.2686    0.9981 </r>
       <r>   10.0777    0.0000 </r>
       <r>   11.6676    0.0000 </r>
       <r>   14.0699    0.0000 </r>
      </set>
      <set comment="kpoint 30">
       <r>   -1.5646    1.0000 </r>
       <r>    5.8257    1.0000 </r>
       <r>    6.8342    1.0000 </r>
       <r>    7.2050    1.0000 </r>
       <r>    8.4425    0.9514 </r>
       <r>   10.9214    0.0000 </r>
       <r>   11.6500    0.0000 </r>
       <r>   13.3211    0.0000 </r>
      </set>
      <set comment="kpoint 31">
       <r>   -1.7497    1.0000 </r>
       <r>    6.4558    1.0000 </r>
       <r>    7.1226    1.0000 </r>
       <r>    7.4190    1.0000 </r>
       <r>    8.7788    0.2359 </r>
       <r>   10.4355    0.0000 </r>
       <r>   11.6190    0.0000 </r>
       <r>   11.8424    0.0000 </r>
      </set>
      <set comment="kpoint 32">
       <r>   -3.3848    1.0000 </r>
       <r>    6.1435    1.0000 </r>
       <r>    6.8885    1.0000 </r>
       <r>    8.7405    0.3269 </r>
       <r>   10.8696    0.0000 </r>
       <r>   11.3001    0.0000 </r>
       <r>   12.0919    0.0000 </r>
       <r>   13.8333    0.0000 </r>
      </set>
      <set comment="kpoint 33">
       <r>   -4.4151    1.0000 </r>
       <r>    6.5239    1.0000 </r>
       <r>    6.5239    1.0000 </r>
       <r>    6.7979    1.0000 </r>
       <r>   10.7364    0.0000 </r>
       <r>   14.5047    0.0000 </r>
       <r>   14.6201    0.0000 </r>
       <r>   16.4991    0.0000 </r>
      </set>
      <set comment="kpoint 34">
       <r>   -0.2754    1.0000 </r>
       <r>    2.5956    1.0000 </r>
       <r>    6.0077    1.0000 </r>
       <r>    6.0974    1.0000 </r>
       <r>   10.5751    0.0000 </r>
       <r>   12.4181    0.0000 </r>
       <r>   13.6440    0.0000 </r>
       <r>   14.0845    0.0000 </r>
      </set>
      <set comment="kpoint 35">
       <r>    2.0296    1.0000 </r>
       <r>    2.7764    1.0000 </r>
       <r>    3.8056    1.0000 </r>
       <r>    4.4545    1.0000 </r>
       <r>   11.4998    0.0000 </r>
       <r>   13.4184    0.0000 </r>
       <r>   13.7262    0.0000 </r>
       <r>   13.9115    0.0000 </r>
      </set>
      <set comment="kpoint 36">
       <r>   -3.8787    1.0000 </r>
       <r>    2.8424    1.0000 </r>
       <r>    4.2658    1.0000 </r>
       <r>   10.6655    0.0000 </r>
       <r>   11.2444    0.0000 </r>
       <r>   14.0213    0.0000 </r>
       <r>   16.2636    0.0000 </r>
       <r>   16.7810    0.0000 </r>
      </set>
      <set comment="kpoint 37">
       <r>    0.9958    1.0000 </r>
       <r>    0.9958    1.0000 </r>
       <r>    5.8874    1.0000 </r>
       <r>    5.8874    1.0000 </r>
       <r>   11.8254    0.0000 </r>
       <r>   11.8254    0.0000 </r>
       <r>   13.6305    0.0000 </r>
       <r>   13.6305    0.0000 </r>
      </set>
      <set comment="kpoint 38">
       <r>   -3.1286    1.0000 </r>
       <r>    1.2102    1.0000 </r>
       <r>    4.4858    1.0000 </r>
       <r>    8.6365    0.6131 </r>
       <r>   12.5830    0.0000 </r>
       <r>   15.4945    0.0000 </r>
       <r>   16.0943    0.0000 </r>
       <r>   16.8746    0.0000 </r>
      </set>
      <set comment="kpoint 39">
       <r>   -2.9120    1.0000 </r>
       <r>    2.3069    1.0000 </r>
       <r>    3.8204    1.0000 </r>
       <r>    8.7920    0.2082 </r>
       <r>   11.3903    0.0000 </r>
       <r>   14.0220    0.0000 </r>
       <r>   16.0380    0.0000 </r>
       <r>   16.3506    0.0000 </r>
      </set>
      <set comment="kpoint 40">
       <r>   -2.0133    1.0000 </r>
       <r>   -0.5496    1.0000 </r>
       <r>    5.4947    1.0000 </r>
       <r>    6.8958    1.0000 </r>
       <r>   13.6298    0.0000 </r>
       <r>   14.6306    0.0000 </r>
       <r>   16.1884    0.0000 </r>
       <r>   16.5715    0.0000 </r>
      </set>
      <set comment="kpoint 41">
       <r>   -1.9854    1.0000 </r>
       <r>    0.8668    1.0000 </r>
       <r>    4.1817    1.0000 </r>
       <r>    6.9200    1.0000 </r>
       <r>   11.0288    0.0000 </r>
       <r>   15.3369    0.0000 </r>
       <r>   16.4016    0.0000 </r>
       <r>   17.8501    0.0000 </r>
      </set>
      <set comment="kpoint 42">
       <r>   -1.1578    1.0000 </r>
       <r>    2.5397    1.0000 </r>
       <r>    4.0954    1.0000 </r>
       <r>    7.0134    1.0000 </r>
       <r>    7.9224    1.0000 </r>
       <r>   13.7378    0.0000 </r>
       <r>   15.1505    0.0000 </r>
       <r>   16.4857    0.0000 </r>
      </set>
      <set comment="kpoint 43">
       <r>   -0.7154    1.0000 </r>
       <r>   -0.7014    1.0000 </r>
       <r>    5.3458    1.0000 </r>
       <r>    5.3681    1.0000 </r>
       <r>   10.8841    0.0000 </r>
       <r>   16.0059    0.0000 </r>
       <r>   16.6720    0.0000 </r>
       <r>   16.9858    0.0000 </r>
      </set>
      <set comment="kpoint 44">
       <r>   -0.0755    1.0000 </r>
       <r>    1.3038    1.0000 </r>
       <r>    4.5945    1.0000 </r>
       <r>    5.8589    1.0000 </r>
       <r>    7.0480    1.0000 </r>
       <r>   13.9219    0.0000 </r>
       <r>   16.6809    0.0000 </r>
       <r>   17.7221    0.0000 </r>
      </set>
      <set comment="kpoint 45">
       <r>    1.2776    1.0000 </r>
       <r>    3.0050    1.0000 </r>
       <r>    4.1699    1.0000 </r>
       <r>    5.0813    1.0000 </r>
       <r>    7.2708    1.0000 </r>
       <r>   11.7044    0.0000 </r>
       <r>   13.0330    0.0000 </r>
       <r>   16.6451    0.0000 </r>
      </set>
      <set comment="kpoint 46">
       <r>    2.1151    1.0000 </r>
       <r>    2.5848    1.0000 </r>
       <r>    3.6515    1.0000 </r>
       <r>    5.7721    1.0000 </r>
       <r>    5.8881    1.0000 </r>
       <r>   11.9520    0.0000 </r>
       <r>   14.4103    0.0000 </r>
       <r>   15.2182    0.0000 </r>
      </set>
      <set comment="kpoint 47">
       <r>    0.2577    1.0000 </r>
       <r>    4.6383    1.0000 </r>
       <r>    5.5668    1.0000 </r>
       <r>    6.6375    1.0000 </r>
       <r>    7.4367    1.0000 </r>
       <r>   10.4579    0.0000 </r>
       <r>   11.5205    0.0000 </r>
       <r>   13.0092    0.0000 </r>
      </set>
      <set comment="kpoint 48">
       <r>   -1.9354    1.0000 </r>
       <r>    7.8064    1.0000 </r>
       <r>    7.8064    1.0000 </r>
       <r>    7.9024    1.0000 </r>
       <r>    8.1201    1.0000 </r>
       <r>    9.4091    0.0000 </r>
       <r>   11.3392    0.0000 </r>
       <r>   11.3392    0.0000 </r>
      </set>
      <set comment="kpoint 49">
       <r>   -2.3884    1.0000 </r>
       <r>    1.3518    1.0000 </r>
       <r>    2.9415    1.0000 </r>
       <r>    6.5723    1.0000 </r>
       <r>   14.2426    0.0000 </r>
       <r>   15.1242    0.0000 </r>
       <r>   16.6877    0.0000 </r>
       <r>   18.1109    0.0000 </r>
      </set>
      <set comment="kpoint 50">
       <r>   -1.2953    1.0000 </r>
       <r>    0.0986    1.0000 </r>
       <r>    3.4626    1.0000 </r>
       <r>    4.8204    1.0000 </r>
       <r>   14.5738    0.0000 </r>
       <r>   14.7614    0.0000 </r>
       <r>   17.6680    0.0000 </r>
       <r>   18.7375    0.0000 </r>
      </set>
      <set comment="kpoint 51">
       <r>   -1.0816    1.0000 </r>
       <r>    1.1852    1.0000 </r>
       <r>    2.8047    1.0000 </r>
       <r>    5.0179    1.0000 </r>
       <r>   10.5748    0.0000 </r>
       <r>   17.4978    0.0000 </r>
       <r>   17.8565    0.0000 </r>
       <r>   18.8706    0.0000 </r>
      </set>
      <set comment="kpoint 52">
       <r>    0.1114    1.0000 </r>
       <r>    0.1357    1.0000 </r>
       <r>    3.4848    1.0000 </r>
       <r>    3.4997    1.0000 </r>
       <r>   10.4141    0.0000 </r>
       <r>   17.7396    0.0000 </r>
       <r>   19.0218    0.0000 </r>
       <r>   19.6015    0.0000 </r>
      </set>
      <set comment="kpoint 53">
       <r>    0.9311    1.0000 </r>
       <r>    1.7975    1.0000 </r>
       <r>    3.4198    1.0000 </r>
       <r>    4.2562    1.0000 </r>
       <r>    6.6170    1.0000 </r>
       <r>   15.5910    0.0000 </r>
       <r>   16.8207    0.0000 </r>
       <r>   17.9980    0.0000 </r>
      </set>
      <set comment="kpoint 54">
       <r>    2.3306    1.0000 </r>
       <r>    3.2991    1.0000 </r>
       <r>    4.0481    1.0000 </r>
       <r>    4.7592    1.0000 </r>
       <r>    4.7592    1.0000 </r>
       <r>   13.6728    0.0000 </r>
       <r>   14.2289    0.0000 </r>
       <r>   14.2289    0.0000 </r>
      </set>
      <set comment="kpoint 55">
       <r>   -0.2752    1.0000 </r>
       <r>    0.5983    1.0000 </r>
       <r>    2.2517    1.0000 </r>
       <r>    3.1134    1.0000 </r>
       <r>   14.4747    0.0000 </r>
       <r>   14.5125    0.0000 </r>
       <r>   19.9100    0.0000 </r>
       <r>   20.6770    0.0000 </r>
      </set>
      <set comment="kpoint 56">
       <r>    0.7887    1.0000 </r>
       <r>    0.8281    1.0000 </r>
       <r>    2.4587    1.0000 </r>
       <r>    2.4587    1.0000 </r>
       <r>   10.2506    0.0000 </r>
       <r>   18.2528    0.0000 </r>
       <r>   20.1908    0.0000 </r>
       <r>   20.2315    0.0000 </r>
      </set>
     </set>
    </set>
   </array>
  </eigenvalues>
  <separator name="orbital magnetization" >
   <v name="MAGDIPOLOUT">      0.00000000      0.00000000      0.00000000</v>
  </separator>
  <dos>
   <i name="efermi">      8.67708867 </i>
   <total>
    <array>
     <dimension dim="1">gridpoints</dimension>
     <dimension dim="2">spin</dimension>
     <field>energy</field>
     <field>total</field>
     <field>integrated</field>
     <set>
      <set comment="spin 1">
       <r>    -6.6339     0.0000     0.0000 </r>
       <r>    -6.5362     0.0000     0.0000 </r>
       <r>    -6.4385     0.0000     0.0000 </r>
       <r>    -6.3408     0.0000     0.0000 </r>
       <r>    -6.2431     0.0000     0.0000 </r>
       <r>    -6.1454     0.0000     0.0000 </r>
       <r>    -6.0477     0.0000     0.0000 </r>
       <r>    -5.9500     0.0000     0.0000 </r>
       <r>    -5.8523     0.0000     0.0000 </r>
       <r>    -5.7546     0.0000     0.0000 </r>
       <r>    -5.6569     0.0000     0.0000 </r>
       <r>    -5.5592     0.0000     0.0000 </r>
       <r>    -5.4615     0.0000     0.0000 </r>
       <r>    -5.3638     0.0000     0.0000 </r>
       <r>    -5.2661     0.0000     0.0000 </r>
       <r>    -5.1684     0.0000     0.0000 </r>
       <r>    -5.0707     0.0001     0.0000 </r>
       <r>    -4.9730     0.0012     0.0001 </r>
       <r>    -4.8753     0.0058     0.0007 </r>
       <r>    -4.7776     0.0182     0.0025 </r>
       <r>    -4.6799     0.0375     0.0061 </r>
       <r>    -4.5822     0.0549     0.0115 </r>
       <r>    -4.4844     0.0720     0.0185 </r>
       <r>    -4.3867     0.1098     0.0292 </r>
       <r>    -4.2890     0.1714     0.0460 </r>
       <r>    -4.1913     0.2173     0.0672 </r>
       <r>    -4.0936     0.2151     0.0882 </r>
       <r>    -3.9959     0.1810     0.1059 </r>
       <r>    -3.8982     0.1454     0.1201 </r>
       <r>    -3.8005     0.1311     0.1330 </r>
       <r>    -3.7028     0.1617     0.1488 </r>
       <r>    -3.6051     0.2446     0.1727 </r>
       <r>    -3.5074     0.3409     0.2060 </r>
       <r>    -3.4097     0.3717     0.2423 </r>
       <r>    -3.3120     0.3107     0.2726 </r>
       <r>    -3.2143     0.2423     0.2963 </r>
       <r>    -3.1166     0.2503     0.3208 </r>
       <r>    -3.0189     0.3045     0.3505 </r>
       <r>    -2.9212     0.3227     0.3820 </r>
       <r>    -2.8235     0.2956     0.4109 </r>
       <r>    -2.7258     0.2878     0.4390 </r>
       <r>    -2.6281     0.3272     0.4710 </r>
       <r>    -2.5304     0.3728     0.5074 </r>
       <r>    -2.4327     0.3893     0.5455 </r>
       <r>    -2.3350     0.3810     0.5827 </r>
       <r>    -2.2373     0.3578     0.6176 </r>
       <r>    -2.1396     0.3474     0.6516 </r>
       <r>    -2.0419     0.3960     0.6903 </r>
       <r>    -1.9442     0.4694     0.7361 </r>
       <r>    -1.8465     0.4637     0.7814 </r>
       <r>    -1.7488     0.3653     0.8171 </r>
       <r>    -1.6511     0.2630     0.8428 </r>
       <r>    -1.5534     0.2242     0.8647 </r>
       <r>    -1.4557     0.2626     0.8904 </r>
       <r>    -1.3580     0.3850     0.9280 </r>
       <r>    -1.2603     0.5751     0.9842 </r>
       <r>    -1.1625     0.7354     1.0560 </r>
       <r>    -1.0648     0.7557     1.1299 </r>
       <r>    -0.9671     0.6546     1.1938 </r>
       <r>    -0.8694     0.5513     1.2477 </r>
       <r>    -0.7717     0.5037     1.2969 </r>
       <r>    -0.6740     0.4627     1.3421 </r>
       <r>    -0.5763     0.3891     1.3801 </r>
       <r>    -0.4786     0.3132     1.4107 </r>
       <r>    -0.3809     0.2744     1.4375 </r>
       <r>    -0.2832     0.2947     1.4663 </r>
       <r>    -0.1855     0.3763     1.5031 </r>
       <r>    -0.0878     0.4777     1.5498 </r>
       <r>     0.0099     0.5435     1.6029 </r>
       <r>     0.1076     0.5811     1.6596 </r>
       <r>     0.2053     0.6370     1.7219 </r>
       <r>     0.3030     0.7102     1.7913 </r>
       <r>     0.4007     0.7480     1.8644 </r>
       <r>     0.4984     0.7191     1.9346 </r>
       <r>     0.5961     0.6603     1.9991 </r>
       <r>     0.6938     0.6175     2.0595 </r>
       <r>     0.7915     0.6146     2.1195 </r>
       <r>     0.8892     0.6506     2.1831 </r>
       <r>     0.9869     0.6773     2.2492 </r>
       <r>     1.0846     0.7044     2.3181 </r>
       <r>     1.1823     0.8016     2.3964 </r>
       <r>     1.2800     0.8855     2.4829 </r>
       <r>     1.3777     0.7813     2.5592 </r>
       <r>     1.4754     0.5231     2.6103 </r>
       <r>     1.5731     0.3118     2.6408 </r>
       <r>     1.6708     0.2353     2.6638 </r>
       <r>     1.7685     0.2330     2.6866 </r>
       <r>     1.8662     0.2447     2.7105 </r>
       <r>     1.9639     0.2959     2.7394 </r>
       <r>     2.0616     0.4335     2.7817 </r>
       <r>     2.1594     0.6194     2.8422 </r>
       <r>     2.2571     0.7621     2.9167 </r>
       <r>     2.3548     0.8073     2.9956 </r>
       <r>     2.4525     0.7655     3.0704 </r>
       <r>     2.5502     0.7067     3.1394 </r>
       <r>     2.6479     0.6888     3.2067 </r>
       <r>     2.7456     0.7005     3.2752 </r>
       <r>     2.8433     0.7178     3.3453 </r>
       <r>     2.9410     0.7389     3.4175 </r>
       <r>     3.0387     0.7136     3.4872 </r>
       <r>     3.1364     0.5709     3.5430 </r>
       <r>     3.2341     0.3811     3.5802 </r>
       <r>     3.3318     0.3066     3.6102 </r>
       <r>     3.4295     0.3837     3.6477 </r>
       <r>     3.5272     0.4973     3.6963 </r>
       <r>     3.6249     0.5437     3.7494 </r>
       <r>     3.7226     0.5228     3.8005 </r>
       <r>     3.8203     0.4932     3.8486 </r>
       <r>     3.9180     0.5259     3.9000 </r>
       <r>     4.0157     0.6845     3.9669 </r>
       <r>     4.1134     0.9542     4.0601 </r>
       <r>     4.2111     1.1763     4.1751 </r>
       <r>     4.3088     1.2020     4.2925 </r>
       <r>     4.4065     1.0927     4.3993 </r>
       <r>     4.5042     0.9730     4.4943 </r>
       <r>     4.6019     0.8428     4.5767 </r>
       <r>     4.6996     0.6972     4.6448 </r>
       <r>     4.7973     0.6094     4.7043 </r>
       <r>     4.8950     0.6182     4.7647 </r>
       <r>     4.9927     0.6503     4.8283 </r>
       <r>     5.0904     0.6095     4.8878 </r>
       <r>     5.1881     0.5307     4.9397 </r>
       <r>     5.2858     0.5468     4.9931 </r>
       <r>     5.3835     0.6993     5.0614 </r>
       <r>     5.4813     0.8803     5.1474 </r>
       <r>     5.5790     0.9634     5.2415 </r>
       <r>     5.6767     0.9594     5.3353 </r>
       <r>     5.7744     0.9876     5.4318 </r>
       <r>     5.8721     1.0437     5.5337 </r>
       <r>     5.9698     1.0025     5.6317 </r>
       <r>     6.0675     0.8615     5.7159 </r>
       <r>     6.1652     0.7343     5.7876 </r>
       <r>     6.2629     0.7019     5.8562 </r>
       <r>     6.3606     0.7773     5.9321 </r>
       <r>     6.4583     0.8925     6.0193 </r>
       <r>     6.5560     0.9396     6.1111 </r>
       <r>     6.6537     0.8923     6.1983 </r>
       <r>     6.7514     0.8372     6.2801 </r>
       <r>     6.8491     0.8853     6.3666 </r>
       <r>     6.9468     1.0425     6.4685 </r>
       <r>     7.0445     1.2044     6.5861 </r>
       <r>     7.1422     1.3158     6.7147 </r>
       <r>     7.2399     1.3699     6.8485 </r>
       <r>     7.3376     1.3204     6.9775 </r>
       <r>     7.4353     1.1731     7.0922 </r>
       <r>     7.5330     0.9978     7.1897 </r>
       <r>     7.6307     0.8318     7.2709 </r>
       <r>     7.7284     0.7070     7.3400 </r>
       <r>     7.8261     0.6452     7.4030 </r>
       <r>     7.9238     0.6157     7.4632 </r>
       <r>     8.0215     0.5995     7.5218 </r>
       <r>     8.1192     0.6124     7.5816 </r>
       <r>     8.2169     0.6468     7.6448 </r>
       <r>     8.3146     0.6601     7.7093 </r>
       <r>     8.4123     0.6574     7.7735 </r>
       <r>     8.5100     0.7241     7.8443 </r>
       <r>     8.6077     0.8840     7.9306 </r>
       <r>     8.7054     1.0048     8.0288 </r>
       <r>     8.8032     0.9521     8.1218 </r>
       <r>     8.9009     0.8062     8.2006 </r>
       <r>     8.9986     0.7911     8.2779 </r>
       <r>     9.0963     0.9233     8.3681 </r>
       <r>     9.1940     0.9283     8.4588 </r>
       <r>     9.2917     0.6692     8.5242 </r>
       <r>     9.3894     0.3599     8.5593 </r>
       <r>     9.4871     0.2317     8.5820 </r>
       <r>     9.5848     0.2977     8.6111 </r>
       <r>     9.6825     0.4419     8.6542 </r>
       <r>     9.7802     0.5540     8.7084 </r>
       <r>     9.8779     0.6120     8.7681 </r>
       <r>     9.9756     0.6646     8.8331 </r>
       <r>    10.0733     0.7205     8.9035 </r>
       <r>    10.1710     0.7274     8.9745 </r>
       <r>    10.2687     0.6954     9.0425 </r>
       <r>    10.3664     0.7164     9.1125 </r>
       <r>    10.4641     0.8420     9.1947 </r>
       <r>    10.5618     1.0210     9.2945 </r>
       <r>    10.6595     1.1332     9.4052 </r>
       <r>    10.7572     1.1323     9.5158 </r>
       <r>    10.8549     1.1062     9.6239 </r>
       <r>    10.9526     1.0897     9.7304 </r>
       <r>    11.0503     1.0114     9.8292 </r>
       <r>    11.1480     0.8778     9.9150 </r>
       <r>    11.2457     0.8416     9.9972 </r>
       <r>    11.3434     1.0228    10.0971 </r>
       <r>    11.4411     1.3312    10.2272 </r>
       <r>    11.5388     1.5715    10.3807 </r>
       <r>    11.6365     1.6384    10.5408 </r>
       <r>    11.7342     1.5195    10.6893 </r>
       <r>    11.8319     1.2461    10.8110 </r>
       <r>    11.9296     0.9149    10.9004 </r>
       <r>    12.0273     0.6588    10.9648 </r>
       <r>    12.1251     0.5232    11.0159 </r>
       <r>    12.2228     0.4472    11.0596 </r>
       <r>    12.3205     0.4421    11.1028 </r>
       <r>    12.4182     0.6138    11.1627 </r>
       <r>    12.5159     0.9256    11.2532 </r>
       <r>    12.6136     1.1560    11.3661 </r>
       <r>    12.7113     1.1672    11.4802 </r>
       <r>    12.8090     1.0666    11.5844 </r>
       <r>    12.9067     1.0282    11.6848 </r>
       <r>    13.0044     1.0548    11.7879 </r>
       <r>    13.1021     1.0224    11.8878 </r>
       <r>    13.1998     0.8859    11.9743 </r>
       <r>    13.2975     0.7323    12.0459 </r>
       <r>    13.3952     0.6858    12.1129 </r>
       <r>    13.4929     0.8500    12.1959 </r>
       <r>    13.5906     1.2297    12.3161 </r>
       <r>    13.6883     1.6014    12.4725 </r>
       <r>    13.7860     1.7042    12.6390 </r>
       <r>    13.8837     1.5814    12.7936 </r>
       <r>    13.9814     1.4252    12.9328 </r>
       <r>    14.0791     1.2705    13.0569 </r>
       <r>    14.1768     1.0747    13.1619 </r>
       <r>    14.2745     0.8815    13.2481 </r>
       <r>    14.3722     0.7913    13.3254 </r>
       <r>    14.4699     0.8506    13.4085 </r>
       <r>    14.5676     0.9952    13.5057 </r>
       <r>    14.6653     1.1119    13.6144 </r>
       <r>    14.7630     1.1286    13.7246 </r>
       <r>    14.8607     1.0398    13.8262 </r>
       <r>    14.9584     0.9158    13.9157 </r>
       <r>    15.0561     0.8520    13.9989 </r>
       <r>    15.1538     0.8680    14.0837 </r>
       <r>    15.2515     0.9214    14.1738 </r>
       <r>    15.3492     0.9535    14.2669 </r>
       <r>    15.4470     0.9099    14.3558 </r>
       <r>    15.5447     0.8167    14.4356 </r>
       <r>    15.6424     0.7208    14.5060 </r>
       <r>    15.7401     0.6087    14.5655 </r>
       <r>    15.8378     0.5004    14.6144 </r>
       <r>    15.9355     0.4547    14.6588 </r>
       <r>    16.0332     0.4762    14.7054 </r>
       <r>    16.1309     0.5216    14.7563 </r>
       <r>    16.2286     0.5831    14.8133 </r>
       <r>    16.3263     0.7048    14.8821 </r>
       <r>    16.4240     0.8696    14.9671 </r>
       <r>    16.5217     0.9826    15.0631 </r>
       <r>    16.6194     1.0048    15.1613 </r>
       <r>    16.7171     0.9451    15.2536 </r>
       <r>    16.8148     0.8005    15.3318 </r>
       <r>    16.9125     0.6046    15.3909 </r>
       <r>    17.0102     0.4132    15.4313 </r>
       <r>    17.1079     0.2683    15.4575 </r>
       <r>    17.2056     0.1977    15.4768 </r>
       <r>    17.3033     0.1893    15.4953 </r>
       <r>    17.4010     0.2102    15.5158 </r>
       <r>    17.4987     0.2540    15.5406 </r>
       <r>    17.5964     0.3421    15.5741 </r>
       <r>    17.6941     0.4735    15.6203 </r>
       <r>    17.7918     0.5729    15.6763 </r>
       <r>    17.8895     0.5531    15.7303 </r>
       <r>    17.9872     0.4249    15.7719 </r>
       <r>    18.0849     0.2734    15.7986 </r>
       <r>    18.1826     0.1577    15.8140 </r>
       <r>    18.2803     0.0842    15.8222 </r>
       <r>    18.3780     0.0415    15.8263 </r>
       <r>    18.4757     0.0248    15.8287 </r>
       <r>    18.5734     0.0386    15.8324 </r>
       <r>    18.6711     0.0852    15.8408 </r>
       <r>    18.7689     0.1457    15.8550 </r>
       <r>    18.8666     0.1866    15.8732 </r>
       <r>    18.9643     0.1886    15.8917 </r>
       <r>    19.0620     0.1533    15.9067 </r>
       <r>    19.1597     0.0963    15.9161 </r>
       <r>    19.2574     0.0455    15.9205 </r>
       <r>    19.3551     0.0239    15.9228 </r>
       <r>    19.4528     0.0366    15.9264 </r>
       <r>    19.5505     0.0691    15.9332 </r>
       <r>    19.6482     0.0907    15.9420 </r>
       <r>    19.7459     0.0840    15.9503 </r>
       <r>    19.8436     0.0674    15.9568 </r>
       <r>    19.9413     0.0581    15.9625 </r>
       <r>    20.0390     0.0529    15.9677 </r>
       <r>    20.1367     0.0504    15.9726 </r>
       <r>    20.2344     0.0493    15.9774 </r>
       <r>    20.3321     0.0404    15.9814 </r>
       <r>    20.4298     0.0272    15.9840 </r>
       <r>    20.5275     0.0247    15.9864 </r>
       <r>    20.6252     0.0357    15.9899 </r>
       <r>    20.7229     0.0435    15.9942 </r>
       <r>    20.8206     0.0349    15.9976 </r>
       <r>    20.9183     0.0177    15.9993 </r>
       <r>    21.0160     0.0057    15.9999 </r>
       <r>    21.1137     0.0012    16.0000 </r>
       <r>    21.2114     0.0001    16.0000 </r>
       <r>    21.3091     0.0000    16.0000 </r>
       <r>    21.4068     0.0000    16.0000 </r>
       <r>    21.5045     0.0000    16.0000 </r>
       <r>    21.6022     0.0000    16.0000 </r>
       <r>    21.6999     0.0000    16.0000 </r>
       <r>    21.7976     0.0000    16.0000 </r>
       <r>    21.8953     0.0000    16.0000 </r>
       <r>    21.9930     0.0000    16.0000 </r>
       <r>    22.0908     0.0000    16.0000 </r>
       <r>    22.1885     0.0000    16.0000 </r>
       <r>    22.2862     0.0000    16.0000 </r>
       <r>    22.3839     0.0000    16.0000 </r>
       <r>    22.4816     0.0000    16.0000 </r>
       <r>    22.5793     0.0000    16.0000 </r>
       <r>    22.6770     0.0000    16.0000 </r>
      </set>
     </set>
    </array>
   </total>
  </dos>
 </calculation>
 <structure name="finalpos" >
  <crystal>
   <varray name="basis" >
    <v>      -2.43008000       2.43008000       1.33841100 </v>
    <v>       2.43008000      -2.43008000       1.33841100 </v>
    <v>       2.43008000       2.43008000      -1.33841100 </v>
   </varray>
   <i name="volume">     31.61481399 </i>
   <varray name="rec_basis" >
    <v>       0.00000000       0.20575454       0.37357732 </v>
    <v>       0.20575454       0.00000000       0.37357732 </v>
    <v>       0.20575454       0.20575454       0.00000000 </v>
   </varray>
  </crystal>
  <varray name="positions" >
   <v>       0.75000000       0.25000000       0.50000000 </v>
   <v>       0.50000000       0.50000000       0.00000000 </v>
  </varray>
 </structure>
</modeling>
