<?xml version="1.0" encoding="ISO-8859-1"?>
<modeling>
 <generator>
  <i name="program" type="string">vasp </i>
  <i name="version" type="string">5.4.4.18Apr17-6-g9f103f2a35  </i>
  <i name="subversion" type="string">(build Dec 09 2018 21:25:21) complex            parallel </i>
  <i name="platform" type="string">IFC18.0.1.163_CrayMPICH7.7.0_MKL18.0.1.163 </i>
  <i name="date" type="string">2019 03 19 </i>
  <i name="time" type="string">14:01:55 </i>
 </generator>
 <incar>
  <i type="string" name="PREC">normal</i>
  <i type="int" name="IBRION">     2</i>
  <i name="EDIFF">      0.00040000</i>
  <i name="EDIFFG">     -0.01000000</i>
  <i type="int" name="NSW">    15</i>
  <i type="int" name="ISIF">     2</i>
  <i name="ENCUT">    350.00000000</i>
  <i type="int" name="NBANDS">     8</i>
  <i type="logical" name="LREAL"> F  </i>
  <i type="int" name="ISMEAR">     0</i>
  <i name="SIGMA">      0.20000000</i>
  <v type="int" name="KPOINT_BSE">    -1     0     0     0</v>
 </incar>
 <structure name="primitive_cell" >
  <crystal>
   <varray name="basis" >
    <v>       0.00000000       2.71500000       2.71500000 </v>
    <v>       2.71500000       0.00000000       2.71500000 </v>
    <v>       2.71500000       2.71500000       0.00000000 </v>
   </varray>
   <i name="volume">     40.02575175 </i>
   <varray name="rec_basis" >
    <v>      -0.18416206       0.18416206       0.18416206 </v>
    <v>       0.18416206      -0.18416206       0.18416206 </v>
    <v>       0.18416206       0.18416206      -0.18416206 </v>
   </varray>
  </crystal>
  <varray name="positions" >
   <v>      -0.50000000      -0.50000000      -0.50000000 </v>
   <v>      -0.25000000      -0.25000000      -0.25000000 </v>
  </varray>
 </structure>
 <varray name="primitive_index" >
  <v type="int" >        1 </v>
  <v type="int" >        2 </v>
 </varray>
 <kpoints>
  <generation param="Monkhorst-Pack">
   <v type="int" name="divisions">       6        6        6 </v>
   <v name="usershift">      0.00000000       0.00000000       0.00000000 </v>
   <v name="genvec1">      0.16666667      -0.00000000       0.00000000 </v>
   <v name="genvec2">     -0.00000000       0.16666667      -0.00000000 </v>
   <v name="genvec3">      0.00000000       0.00000000       0.16666667 </v>
   <v name="shift">      0.50000000       0.50000000       0.50000000 </v>
  </generation>
  <varray name="kpointlist" >
   <v>       0.08333333       0.08333333       0.08333333 </v>
   <v>       0.25000000       0.08333333       0.08333333 </v>
   <v>       0.41666667       0.08333333       0.08333333 </v>
   <v>      -0.41666667       0.08333333       0.08333333 </v>
   <v>      -0.25000000       0.08333333       0.08333333 </v>
   <v>      -0.08333333       0.08333333       0.08333333 </v>
   <v>       0.25000000       0.25000000       0.08333333 </v>
   <v>       0.41666667       0.25000000       0.08333333 </v>
   <v>      -0.41666667       0.25000000       0.08333333 </v>
   <v>      -0.25000000       0.25000000       0.08333333 </v>
   <v>      -0.08333333       0.25000000       0.08333333 </v>
   <v>       0.41666667       0.41666667       0.08333333 </v>
   <v>      -0.41666667       0.41666667       0.08333333 </v>
   <v>      -0.25000000       0.41666667       0.08333333 </v>
   <v>      -0.08333333       0.41666667       0.08333333 </v>
   <v>      -0.41666667      -0.41666667       0.08333333 </v>
   <v>      -0.25000000      -0.41666667       0.08333333 </v>
   <v>      -0.25000000      -0.25000000       0.08333333 </v>
   <v>       0.25000000       0.25000000       0.25000000 </v>
   <v>       0.41666667       0.25000000       0.25000000 </v>
   <v>      -0.41666667       0.25000000       0.25000000 </v>
   <v>      -0.25000000       0.25000000       0.25000000 </v>
   <v>       0.41666667       0.41666667       0.25000000 </v>
   <v>      -0.41666667       0.41666667       0.25000000 </v>
   <v>      -0.25000000       0.41666667       0.25000000 </v>
   <v>      -0.41666667      -0.41666667       0.25000000 </v>
   <v>       0.41666667       0.41666667       0.41666667 </v>
   <v>      -0.41666667       0.41666667       0.41666667 </v>
  </varray>
  <varray name="weights" >
   <v>       0.00925926 </v>
   <v>       0.02777778 </v>
   <v>       0.02777778 </v>
   <v>       0.02777778 </v>
   <v>       0.02777778 </v>
   <v>       0.02777778 </v>
   <v>       0.02777778 </v>
   <v>       0.05555556 </v>
   <v>       0.05555556 </v>
   <v>       0.05555556 </v>
   <v>       0.05555556 </v>
   <v>       0.02777778 </v>
   <v>       0.05555556 </v>
   <v>       0.05555556 </v>
   <v>       0.05555556 </v>
   <v>       0.02777778 </v>
   <v>       0.05555556 </v>
   <v>       0.02777778 </v>
   <v>       0.00925926 </v>
   <v>       0.02777778 </v>
   <v>       0.02777778 </v>
   <v>       0.02777778 </v>
   <v>       0.02777778 </v>
   <v>       0.05555556 </v>
   <v>       0.05555556 </v>
   <v>       0.02777778 </v>
   <v>       0.00925926 </v>
   <v>       0.02777778 </v>
  </varray>
 </kpoints>
 <parameters>
  <separator name="general" >
   <i type="string" name="SYSTEM">unknown system</i>
   <i type="logical" name="LCOMPAT"> F  </i>
  </separator>
  <separator name="electronic" >
   <i type="string" name="PREC">normal</i>
   <i name="ENMAX">    350.00000000</i>
   <i name="ENAUG">    322.06900000</i>
   <i name="EDIFF">      0.00040000</i>
   <i type="int" name="IALGO">    38</i>
   <i type="int" name="IWAVPR">    11</i>
   <i type="int" name="NBANDS">     8</i>
   <i name="NELECT">      8.00000000</i>
   <i type="int" name="TURBO">     0</i>
   <i type="int" name="IRESTART">     0</i>
   <i type="int" name="NREBOOT">     0</i>
   <i type="int" name="NMIN">     0</i>
   <i name="EREF">      0.00000000</i>
   <separator name="electronic smearing" >
    <i type="int" name="ISMEAR">     0</i>
    <i name="SIGMA">      0.20000000</i>
    <i name="KSPACING">      0.50000000</i>
    <i type="logical" name="KGAMMA"> T  </i>
   </separator>
   <separator name="electronic projectors" >
    <i type="logical" name="LREAL"> F  </i>
    <v name="ROPT">      0.00000000</v>
    <i type="int" name="LMAXPAW">  -100</i>
    <i type="int" name="LMAXMIX">     2</i>
    <i type="logical" name="NLSPLINE"> F  </i>
   </separator>
   <separator name="electronic startup" >
    <i type="int" name="ISTART">     0</i>
    <i type="int" name="ICHARG">     2</i>
    <i type="int" name="INIWAV">     1</i>
   </separator>
   <separator name="electronic spin" >
    <i type="int" name="ISPIN">     1</i>
    <i type="logical" name="LNONCOLLINEAR"> F  </i>
    <v name="MAGMOM">      1.00000000      1.00000000</v>
    <i name="NUPDOWN">     -1.00000000</i>
    <i type="logical" name="LSORBIT"> F  </i>
    <v name="SAXIS">      0.00000000      0.00000000      1.00000000</v>
    <i type="logical" name="LSPIRAL"> F  </i>
    <v name="QSPIRAL">      0.00000000      0.00000000      0.00000000</v>
    <i type="logical" name="LZEROZ"> F  </i>
   </separator>
   <separator name="electronic exchange-correlation" >
    <i type="logical" name="LASPH"> F  </i>
    <i type="logical" name="LMETAGGA"> F  </i>
   </separator>
   <separator name="electronic convergence" >
    <i type="int" name="NELM">    60</i>
    <i type="int" name="NELMDL">    -5</i>
    <i type="int" name="NELMIN">     2</i>
    <i name="ENINI">    350.00000000</i>
    <separator name="electronic convergence detail" >
     <i type="logical" name="LDIAG"> T  </i>
     <i type="logical" name="LSUBROT"> F  </i>
     <i name="WEIMIN">      0.00100000</i>
     <i name="EBREAK">      0.00001250</i>
     <i name="DEPER">      0.30000000</i>
     <i type="int" name="NRMM">     4</i>
     <i name="TIME">      0.40000000</i>
    </separator>
   </separator>
   <separator name="electronic mixer" >
    <i name="AMIX">      0.40000000</i>
    <i name="BMIX">      1.00000000</i>
    <i name="AMIN">      0.10000000</i>
    <i name="AMIX_MAG">      1.60000000</i>
    <i name="BMIX_MAG">      1.00000000</i>
    <separator name="electronic mixer details" >
     <i type="int" name="IMIX">     4</i>
     <i type="logical" name="MIXFIRST"> F  </i>
     <i type="int" name="MAXMIX">   -45</i>
     <i name="WC">    100.00000000</i>
     <i type="int" name="INIMIX">     1</i>
     <i type="int" name="MIXPRE">     1</i>
     <i type="int" name="MREMOVE">     5</i>
    </separator>
   </separator>
   <separator name="electronic dipolcorrection" >
    <i type="logical" name="LDIPOL"> F  </i>
    <i type="logical" name="LMONO"> F  </i>
    <i type="int" name="IDIPOL">     0</i>
    <i name="EPSILON">      1.00000000</i>
    <v name="DIPOL">   -100.00000000   -100.00000000   -100.00000000</v>
    <i name="EFIELD">      0.00000000</i>
   </separator>
  </separator>
  <separator name="grids" >
   <i type="int" name="NGX">    18</i>
   <i type="int" name="NGY">    18</i>
   <i type="int" name="NGZ">    18</i>
   <i type="int" name="NGXF">    36</i>
   <i type="int" name="NGYF">    36</i>
   <i type="int" name="NGZF">    36</i>
   <i type="logical" name="ADDGRID"> F  </i>
  </separator>
  <separator name="ionic" >
   <i type="int" name="NSW">    15</i>
   <i type="int" name="IBRION">     2</i>
   <i type="int" name="MDALGO">     0</i>
   <i type="int" name="ISIF">     2</i>
   <i name="PSTRESS">      0.00000000</i>
   <i name="EDIFFG">     -0.01000000</i>
   <i type="int" name="NFREE">     1</i>
   <i name="POTIM">      0.50000000</i>
   <i name="SMASS">     -3.00000000</i>
   <i name="SCALEE">      1.00000000</i>
  </separator>
  <separator name="ionic md" >
   <i name="TEBEG">      0.00010000</i>
   <i name="TEEND">      0.00010000</i>
   <i type="int" name="NBLOCK">     1</i>
   <i type="int" name="KBLOCK">    15</i>
   <i type="int" name="NPACO">   256</i>
   <i name="APACO">     16.00000000</i>
  </separator>
  <separator name="symmetry" >
   <i type="int" name="ISYM">     2</i>
   <i name="SYMPREC">      0.00001000</i>
  </separator>
  <separator name="dos" >
   <i type="int" name="LORBIT">     0</i>
   <v name="RWIGS">     -1.00000000</v>
   <i type="int" name="NEDOS">   301</i>
   <i name="EMIN">     10.00000000</i>
   <i name="EMAX">    -10.00000000</i>
   <i name="EFERMI">      0.00000000</i>
  </separator>
  <separator name="writing" >
   <i type="int" name="NWRITE">     2</i>
   <i type="logical" name="LWAVE"> T  </i>
   <i type="logical" name="LDOWNSAMPLE"> F  </i>
   <i type="logical" name="LCHARG"> T  </i>
   <i type="logical" name="LPARD"> F  </i>
   <i type="logical" name="LVTOT"> F  </i>
   <i type="logical" name="LVHAR"> F  </i>
   <i type="logical" name="LELF"> F  </i>
   <i type="logical" name="LOPTICS"> F  </i>
   <v name="STM">      0.00000000      0.00000000      0.00000000      0.00000000      0.00000000      0.00000000      0.00000000</v>
  </separator>
  <separator name="performance" >
   <i type="int" name="NPAR">     8</i>
   <i type="int" name="NSIM">     4</i>
   <i type="int" name="NBLK">    -1</i>
   <i type="logical" name="LPLANE"> T  </i>
   <i type="logical" name="LSCALAPACK"> T  </i>
   <i type="logical" name="LSCAAWARE"> F  </i>
   <i type="logical" name="LSCALU"> F  </i>
   <i type="logical" name="LASYNC"> F  </i>
   <i type="logical" name="LORBITALREAL"> F  </i>
  </separator>
  <separator name="miscellaneous" >
   <i type="int" name="IDIOT">     3</i>
   <i type="int" name="ISPECIAL">     0</i>
   <i type="logical" name="LMUSIC"> F  </i>
   <v name="POMASS">     28.08500000</v>
   <v name="DARWINR">      0.00000000</v>
   <v name="DARWINV">      1.00000000</v>
   <i type="logical" name="LCORR"> T  </i>
  </separator>
  <i type="logical" name="GGA_COMPAT"> T  </i>
  <i type="logical" name="LBERRY"> F  </i>
  <i type="int" name="ICORELEVEL">     0</i>
  <i type="logical" name="LDAU"> F  </i>
  <i type="int" name="I_CONSTRAINED_M">     0</i>
  <separator name="electronic exchange-correlation" >
   <i type="string" name="GGA">--</i>
   <i type="int" name="VOSKOWN">     0</i>
   <i type="logical" name="LHFCALC"> F  </i>
   <i type="string" name="PRECFOCK"></i>
   <i type="logical" name="LSYMGRAD"> F  </i>
   <i type="logical" name="LHFONE"> F  </i>
   <i type="logical" name="LRHFCALC"> F  </i>
   <i type="logical" name="LTHOMAS"> F  </i>
   <i type="logical" name="LMODELHF"> F  </i>
   <i name="ENCUT4O">     -1.00000000</i>
   <i type="int" name="EXXOEP">     0</i>
   <i type="int" name="FOURORBIT">     0</i>
   <i name="AEXX">      0.00000000</i>
   <i name="HFALPHA">      0.00000000</i>
   <i name="MCALPHA">      0.00000000</i>
   <i name="ALDAX">      1.00000000</i>
   <i name="AGGAX">      1.00000000</i>
   <i name="ALDAC">      1.00000000</i>
   <i name="AGGAC">      1.00000000</i>
   <i type="int" name="NKREDX">     1</i>
   <i type="int" name="NKREDY">     1</i>
   <i type="int" name="NKREDZ">     1</i>
   <i type="logical" name="SHIFTRED"> F  </i>
   <i type="logical" name="ODDONLY"> F  </i>
   <i type="logical" name="EVENONLY"> F  </i>
   <i type="int" name="LMAXFOCK">     0</i>
   <i type="int" name="NMAXFOCKAE">     0</i>
   <i type="logical" name="LFOCKAEDFT"> F  </i>
   <i name="HFSCREEN">      0.00000000</i>
   <i name="HFSCREENC">      0.00000000</i>
   <i type="int" name="NBANDSGWLOW">     0</i>
  </separator>
  <separator name="vdW DFT" >
   <i type="logical" name="LUSE_VDW"> F  </i>
   <i name="Zab_VDW">     -0.84910000</i>
   <i name="PARAM1">      0.12340000</i>
   <i name="PARAM2">      1.00000000</i>
   <i name="PARAM3">      0.00000000</i>
  </separator>
  <separator name="model GW" >
   <i type="int" name="MODEL_GW">     0</i>
   <i name="MODEL_EPS0">     12.00772552</i>
   <i name="MODEL_ALPHA">      1.00000000</i>
  </separator>
  <separator name="linear response parameters" >
   <i type="logical" name="LEPSILON"> F  </i>
   <i type="logical" name="LRPA"> F  </i>
   <i type="logical" name="LNABLA"> F  </i>
   <i type="logical" name="LVEL"> F  </i>
   <i type="int" name="KINTER">     0</i>
   <i name="CSHIFT">      0.10000000</i>
   <i name="OMEGAMAX">     -1.00000000</i>
   <i name="DEG_THRESHOLD">      0.00200000</i>
   <i name="RTIME">     -0.10000000</i>
   <i name="WPLASMAI">      0.00000000</i>
   <v name="DFIELD">      0.00000000      0.00000000      0.00000000</v>
   <v name="WPLASMA">      0.00000000      0.00000000      0.00000000      0.00000000      0.00000000      0.00000000      0.00000000      0.00000000      0.00000000</v>
  </separator>
  <separator name="orbital magnetization" >
   <i type="logical" name="NUCIND"> F  </i>
   <v name="MAGPOS">      0.00000000      0.00000000      0.00000000</v>
   <i type="logical" name="LNICSALL"> T  </i>
   <i type="logical" name="ORBITALMAG"> F  </i>
   <i type="logical" name="LMAGBLOCH"> F  </i>
   <i type="logical" name="LCHIMAG"> F  </i>
   <i type="logical" name="LGAUGE"> T  </i>
   <i type="int" name="MAGATOM">     0</i>
   <v name="MAGDIPOL">      0.00000000      0.00000000      0.00000000</v>
   <v name="AVECCONST">      0.00000000      0.00000000      0.00000000</v>
  </separator>
  <separator name="response functions" >
   <i type="logical" name="LADDER"> F  </i>
   <i type="logical" name="LRPAFORCE"> F  </i>
   <i type="logical" name="LFXC"> F  </i>
   <i type="logical" name="LHARTREE"> T  </i>
   <i type="int" name="IBSE">     0</i>
   <v type="int" name="KPOINT">    -1     0     0     0</v>
   <i type="logical" name="LTCTE"> F  </i>
   <i type="logical" name="LTETE"> F  </i>
   <i type="logical" name="LTRIPLET"> F  </i>
   <i type="logical" name="LFXCEPS"> F  </i>
   <i type="logical" name="LFXHEG"> F  </i>
   <i type="int" name="NATURALO">     2</i>
   <i type="logical" name="L2ORDER"> F  </i>
   <i type="logical" name="LMP2LT"> F  </i>
   <i type="logical" name="LUSEW"> F  </i>
   <i name="ENCUTGW">     -2.00000000</i>
   <i name="ENCUTGWSOFT">     -2.00000000</i>
   <i name="ENCUTLF">     -1.00000000</i>
   <i type="int" name="LMAXMP2">    -1</i>
   <i name="SCISSOR">      0.00000000</i>
   <i type="int" name="NOMEGA">     0</i>
   <i type="int" name="NOMEGAR">     0</i>
   <i type="int" name="NBANDSGW">    -1</i>
   <i type="int" name="NBANDSO">    -1</i>
   <i type="int" name="NBANDSV">    -1</i>
   <i type="int" name="NELM">     1</i>
   <i type="int" name="NELMHF">     1</i>
   <i type="int" name="DIM">     3</i>
   <i type="int" name="ANTIRES">     0</i>
   <i name="OMEGAMAX">    -30.00000000</i>
   <i name="OMEGAMIN">    -30.00000000</i>
   <i name="OMEGATL">   -200.00000000</i>
   <i type="int" name="OMEGAGRID">   140</i>
   <i name="CSHIFT">     -0.10000000</i>
   <i type="logical" name="SELFENERGY"> F  </i>
   <i type="logical" name="LSPECTRAL"> F  </i>
   <i type="logical" name="LSPECTRALGW"> F  </i>
   <i type="logical" name="LSINGLES"> F  </i>
   <i type="logical" name="LFERMIGW"> F  </i>
   <i type="logical" name="ODDONLYGW"> F  </i>
   <i type="logical" name="EVENONLYGW"> F  </i>
   <i type="int" name="NKREDLFX">     1</i>
   <i type="int" name="NKREDLFY">     1</i>
   <i type="int" name="NKREDLFZ">     1</i>
   <i type="int" name="MAXMEM">  2800</i>
   <i type="int" name="TELESCOPE">     0</i>
   <i type="int" name="TAUPAR">     1</i>
   <i type="int" name="OMEGAPAR">    -1</i>
   <i name="LAMBDA">      1.00000000</i>
  </separator>
  <separator name="External order field" >
   <i name="OFIELD_KAPPA">      0.00000000</i>
   <v name="OFIELD_K">      0.00000000      0.00000000      0.00000000</v>
   <i name="OFIELD_Q6_NEAR">      0.00000000</i>
   <i name="OFIELD_Q6_FAR">      0.00000000</i>
   <i name="OFIELD_A">      0.00000000</i>
  </separator>
 </parameters>
 <atominfo>
  <atoms>       2 </atoms>
  <types>       1 </types>
  <array name="atoms" >
   <dimension dim="1">ion</dimension>
   <field type="string">element</field>
   <field type="int">atomtype</field>
   <set>
    <rc><c>Si</c><c>   1</c></rc>
    <rc><c>Si</c><c>   1</c></rc>
   </set>
  </array>
  <array name="atomtypes" >
   <dimension dim="1">type</dimension>
   <field type="int">atomspertype</field>
   <field type="string">element</field>
   <field>mass</field>
   <field>valence</field>
   <field type="string">pseudopotential</field>
   <set>
    <rc><c>   2</c><c>Si</c><c>     28.08500000</c><c>      4.00000000</c><c> PAW_PBE Si 05Jan2001                   </c></rc>
   </set>
  </array>
 </atominfo>
 <structure name="initialpos" >
  <crystal>
   <varray name="basis" >
    <v>       0.00000000       2.71500000       2.71500000 </v>
    <v>       2.71500000       0.00000000       2.71500000 </v>
    <v>       2.71500000       2.71500000       0.00000000 </v>
   </varray>
   <i name="volume">     40.02575175 </i>
   <varray name="rec_basis" >
    <v>      -0.18416206       0.18416206       0.18416206 </v>
    <v>       0.18416206      -0.18416206       0.18416206 </v>
    <v>       0.18416206       0.18416206      -0.18416206 </v>
   </varray>
  </crystal>
  <varray name="positions" >
   <v>       0.50000000       0.50000000       0.50000000 </v>
   <v>       0.75000000       0.75000000       0.75000000 </v>
  </varray>
 </structure>
 <calculation>
  <scstep>
   <time name="dav">    0.37    0.38</time>
   <time name="total">    0.42    0.46</time>
   <energy>
    <i name="alphaZ">      3.36414203 </i>
    <i name="ewald">   -228.56352493 </i>
    <i name="hartreedc">    -11.00108243 </i>
    <i name="XCdc">    -18.60185131 </i>
    <i name="pawpsdc">     65.95520812 </i>
    <i name="pawaedc">    -30.76852678 </i>
    <i name="eentropy">     -0.01146144 </i>
    <i name="bandstr">     19.04201623 </i>
    <i name="atom">    206.13125414 </i>
    <i name="e_fr_energy">      5.54617363 </i>
    <i name="e_wo_entrp">      5.55763507 </i>
    <i name="e_0_energy">      5.55190435 </i>
   </energy>
  </scstep>
  <scstep>
   <time name="dav">    0.59    0.60</time>
   <time name="total">    0.60    0.60</time>
   <energy>
    <i name="e_fr_energy">    -10.83724771 </i>
    <i name="e_wo_entrp">    -10.83724734 </i>
    <i name="e_0_energy">    -10.83724752 </i>
   </energy>
  </scstep>
  <scstep>
   <time name="dav">    0.42    0.43</time>
   <time name="total">    0.42    0.43</time>
   <energy>
    <i name="e_fr_energy">    -11.02175218 </i>
    <i name="e_wo_entrp">    -11.02175171 </i>
    <i name="e_0_energy">    -11.02175194 </i>
   </energy>
  </scstep>
  <scstep>
   <time name="dav">    0.62    0.62</time>
   <time name="total">    0.62    0.63</time>
   <energy>
    <i name="e_fr_energy">    -11.02267434 </i>
    <i name="e_wo_entrp">    -11.02267387 </i>
    <i name="e_0_energy">    -11.02267411 </i>
   </energy>
  </scstep>
  <scstep>
   <time name="dav">    0.46    0.47</time>
   <time name="total">    0.50    0.51</time>
   <energy>
    <i name="e_fr_energy">    -11.02267546 </i>
    <i name="e_wo_entrp">    -11.02267499 </i>
    <i name="e_0_energy">    -11.02267523 </i>
   </energy>
  </scstep>
  <scstep>
   <time name="dav">    0.45    0.45</time>
   <time name="total">    0.52    0.54</time>
   <energy>
    <i name="e_fr_energy">    -10.89793583 </i>
    <i name="e_wo_entrp">    -10.89793207 </i>
    <i name="e_0_energy">    -10.89793395 </i>
   </energy>
  </scstep>
  <scstep>
   <time name="dav">    0.46    0.46</time>
   <time name="total">    0.53    0.55</time>
   <energy>
    <i name="e_fr_energy">    -10.84106196 </i>
    <i name="e_wo_entrp">    -10.84102545 </i>
    <i name="e_0_energy">    -10.84104371 </i>
   </energy>
  </scstep>
  <scstep>
   <time name="dav">    0.42    0.42</time>
   <time name="total">    0.50    0.50</time>
   <energy>
    <i name="e_fr_energy">    -10.84238568 </i>
    <i name="e_wo_entrp">    -10.84235793 </i>
    <i name="e_0_energy">    -10.84237180 </i>
   </energy>
  </scstep>
  <scstep>
   <time name="dav">    0.37    0.37</time>
   <time name="total">    0.41    0.42</time>
   <energy>
    <i name="alphaZ">      3.36414203 </i>
    <i name="ewald">   -228.56352493 </i>
    <i name="hartreedc">    -14.90689073 </i>
    <i name="XCdc">    -17.96091018 </i>
    <i name="pawpsdc">     74.36674821 </i>
    <i name="pawaedc">    -39.40452375 </i>
    <i name="eentropy">     -0.00002750 </i>
    <i name="bandstr">      6.13125433 </i>
    <i name="atom">    206.13125414 </i>
    <i name="e_fr_energy">    -10.84247837 </i>
    <i name="e_wo_entrp">    -10.84245087 </i>
    <i name="e_0_energy">    -10.84246462 </i>
   </energy>
  </scstep>
  <structure>
   <crystal>
    <varray name="basis" >
     <v>       0.00000000       2.71500000       2.71500000 </v>
     <v>       2.71500000       0.00000000       2.71500000 </v>
     <v>       2.71500000       2.71500000       0.00000000 </v>
    </varray>
    <i name="volume">     40.02575175 </i>
    <varray name="rec_basis" >
     <v>      -0.18416206       0.18416206       0.18416206 </v>
     <v>       0.18416206      -0.18416206       0.18416206 </v>
     <v>       0.18416206       0.18416206      -0.18416206 </v>
    </varray>
   </crystal>
   <varray name="positions" >
    <v>       0.50000000       0.50000000       0.50000000 </v>
    <v>       0.75000000       0.75000000       0.75000000 </v>
   </varray>
  </structure>
  <varray name="forces" >
   <v>       0.00000000       0.00000000       0.00000000 </v>
   <v>      -0.00000000      -0.00000000      -0.00000000 </v>
  </varray>
  <varray name="stress" >
   <v>      19.53253239       0.00000000      -0.00000000 </v>
   <v>       0.00000000      19.53253239      -0.00000000 </v>
   <v>      -0.00000000       0.00000000      19.53253239 </v>
  </varray>
  <energy>
   <i name="e_fr_energy">    -10.84247837 </i>
   <i name="e_wo_entrp">    -10.84246462 </i>
   <i name="e_0_energy">     -0.00002750 </i>
  </energy>
  <time name="totalsc">    5.92    7.32</time>
  <eigenvalues>
   <array>
    <dimension dim="1">band</dimension>
    <dimension dim="2">kpoint</dimension>
    <dimension dim="3">spin</dimension>
    <field>eigene</field>
    <field>occ</field>
    <set>
     <set comment="spin 1">
      <set comment="kpoint 1">
       <r>   -6.0407    1.0000 </r>
       <r>    4.9717    1.0000 </r>
       <r>    5.6856    0.9993 </r>
       <r>    5.6856    0.9993 </r>
       <r>    8.4418    0.0000 </r>
       <r>    8.6083    0.0000 </r>
       <r>    8.6083    0.0000 </r>
       <r>    9.8667    0.0000 </r>
      </set>
      <set comment="kpoint 2">
       <r>   -5.5622    1.0000 </r>
       <r>    2.8885    1.0000 </r>
       <r>    4.4445    1.0000 </r>
       <r>    5.4761    1.0000 </r>
       <r>    8.5513    0.0000 </r>
       <r>    9.0042    0.0000 </r>
       <r>    9.3642    0.0000 </r>
       <r>   11.5761    0.0000 </r>
      </set>
      <set comment="kpoint 3">
       <r>   -4.4650    1.0000 </r>
       <r>    0.1146    1.0000 </r>
       <r>    3.9811    1.0000 </r>
       <r>    4.8371    1.0000 </r>
       <r>    8.0421    0.0000 </r>
       <r>    9.3842    0.0000 </r>
       <r>    9.4235    0.0000 </r>
       <r>   13.3195    0.0000 </r>
      </set>
      <set comment="kpoint 4">
       <r>   -3.7618    1.0000 </r>
       <r>   -1.0360    1.0000 </r>
       <r>    4.0493    1.0000 </r>
       <r>    4.4546    1.0000 </r>
       <r>    7.8817    0.0000 </r>
       <r>    9.0979    0.0000 </r>
       <r>    9.5265    0.0000 </r>
       <r>   13.7514    0.0000 </r>
      </set>
      <set comment="kpoint 5">
       <r>   -4.8789    1.0000 </r>
       <r>    0.9649    1.0000 </r>
       <r>    4.5134    1.0000 </r>
       <r>    4.5506    1.0000 </r>
       <r>    8.1267    0.0000 </r>
       <r>    9.1312    0.0000 </r>
       <r>    9.9223    0.0000 </r>
       <r>   11.8015    0.0000 </r>
      </set>
      <set comment="kpoint 6">
       <r>   -5.7992    1.0000 </r>
       <r>    3.9036    1.0000 </r>
       <r>    5.0360    1.0000 </r>
       <r>    5.2268    1.0000 </r>
       <r>    8.1435    0.0000 </r>
       <r>    9.0603    0.0000 </r>
       <r>    9.5141    0.0000 </r>
       <r>   10.7374    0.0000 </r>
      </set>
      <set comment="kpoint 7">
       <r>   -5.3202    1.0000 </r>
       <r>    2.7061    1.0000 </r>
       <r>    4.2903    1.0000 </r>
       <r>    4.3031    1.0000 </r>
       <r>    7.5557    0.0000 </r>
       <r>    9.7308    0.0000 </r>
       <r>   10.5146    0.0000 </r>
       <r>   10.7416    0.0000 </r>
      </set>
      <set comment="kpoint 8">
       <r>   -4.4060    1.0000 </r>
       <r>    0.8607    1.0000 </r>
       <r>    2.9637    1.0000 </r>
       <r>    3.9152    1.0000 </r>
       <r>    7.9540    0.0000 </r>
       <r>    9.5789    0.0000 </r>
       <r>   10.3954    0.0000 </r>
       <r>   11.8564    0.0000 </r>
      </set>
      <set comment="kpoint 9">
       <r>   -3.2829    1.0000 </r>
       <r>   -0.9015    1.0000 </r>
       <r>    2.3616    1.0000 </r>
       <r>    3.6862    1.0000 </r>
       <r>    8.2034    0.0000 </r>
       <r>    9.7685    0.0000 </r>
       <r>   11.7296    0.0000 </r>
       <r>   12.1135    0.0000 </r>
      </set>
      <set comment="kpoint 10">
       <r>   -4.0094    1.0000 </r>
       <r>    0.1636    1.0000 </r>
       <r>    2.3169    1.0000 </r>
       <r>    4.1760    1.0000 </r>
       <r>    8.8136    0.0000 </r>
       <r>    9.4371    0.0000 </r>
       <r>   11.1257    0.0000 </r>
       <r>   11.5993    0.0000 </r>
      </set>
      <set comment="kpoint 11">
       <r>   -5.0937    1.0000 </r>
       <r>    1.8629    1.0000 </r>
       <r>    3.6643    1.0000 </r>
       <r>    4.8489    1.0000 </r>
       <r>    8.4507    0.0000 </r>
       <r>    9.3502    0.0000 </r>
       <r>   10.3960    0.0000 </r>
       <r>   10.7263    0.0000 </r>
      </set>
      <set comment="kpoint 12">
       <r>   -3.6918    1.0000 </r>
       <r>    0.0347    1.0000 </r>
       <r>    2.9272    1.0000 </r>
       <r>    3.2707    1.0000 </r>
       <r>    6.7190    0.0000 </r>
       <r>    7.6917    0.0000 </r>
       <r>   13.4243    0.0000 </r>
       <r>   13.4683    0.0000 </r>
      </set>
      <set comment="kpoint 13">
       <r>   -2.4900    1.0000 </r>
       <r>   -1.3103    1.0000 </r>
       <r>    2.0783    1.0000 </r>
       <r>    2.8601    1.0000 </r>
       <r>    7.3435    0.0000 </r>
       <r>    8.4710    0.0000 </r>
       <r>   12.9549    0.0000 </r>
       <r>   14.4422    0.0000 </r>
      </set>
      <set comment="kpoint 14">
       <r>   -2.8611    1.0000 </r>
       <r>   -0.9767    1.0000 </r>
       <r>    1.5929    1.0000 </r>
       <r>    3.4086    1.0000 </r>
       <r>    7.9678    0.0000 </r>
       <r>   10.8889    0.0000 </r>
       <r>   11.8856    0.0000 </r>
       <r>   12.5703    0.0000 </r>
      </set>
      <set comment="kpoint 15">
       <r>   -3.8961    1.0000 </r>
       <r>   -0.5298    1.0000 </r>
       <r>    3.2680    1.0000 </r>
       <r>    4.2749    1.0000 </r>
       <r>    8.4377    0.0000 </r>
       <r>    9.0327    0.0000 </r>
       <r>   10.3724    0.0000 </r>
       <r>   12.5939    0.0000 </r>
      </set>
      <set comment="kpoint 16">
       <r>   -2.5830    1.0000 </r>
       <r>   -1.3188    1.0000 </r>
       <r>    2.6562    1.0000 </r>
       <r>    3.0547    1.0000 </r>
       <r>    6.6020    0.0005 </r>
       <r>    7.1715    0.0000 </r>
       <r>   14.9095    0.0000 </r>
       <r>   15.0108    0.0000 </r>
      </set>
      <set comment="kpoint 17">
       <r>   -3.5220    1.0000 </r>
       <r>   -0.1903    1.0000 </r>
       <r>    2.4032    1.0000 </r>
       <r>    3.2020    1.0000 </r>
       <r>    7.5571    0.0000 </r>
       <r>    8.8393    0.0000 </r>
       <r>   11.5969    0.0000 </r>
       <r>   13.4171    0.0000 </r>
      </set>
      <set comment="kpoint 18">
       <r>   -4.6126    1.0000 </r>
       <r>    1.4044    1.0000 </r>
       <r>    3.4753    1.0000 </r>
       <r>    3.6944    1.0000 </r>
       <r>    7.0443    0.0000 </r>
       <r>    8.6096    0.0000 </r>
       <r>   11.8797    0.0000 </r>
       <r>   12.0730    0.0000 </r>
      </set>
      <set comment="kpoint 19">
       <r>   -5.3318    1.0000 </r>
       <r>    1.9039    1.0000 </r>
       <r>    5.0703    1.0000 </r>
       <r>    5.0703    1.0000 </r>
       <r>    7.8624    0.0000 </r>
       <r>    9.3392    0.0000 </r>
       <r>    9.3392    0.0000 </r>
       <r>   12.7544    0.0000 </r>
      </set>
      <set comment="kpoint 20">
       <r>   -4.6497    1.0000 </r>
       <r>    0.9720    1.0000 </r>
       <r>    2.9275    1.0000 </r>
       <r>    4.9011    1.0000 </r>
       <r>    8.6176    0.0000 </r>
       <r>    9.8358    0.0000 </r>
       <r>   10.0080    0.0000 </r>
       <r>   11.9671    0.0000 </r>
      </set>
      <set comment="kpoint 21">
       <r>   -3.4647    1.0000 </r>
       <r>   -0.4721    1.0000 </r>
       <r>    1.8137    1.0000 </r>
       <r>    4.1106    1.0000 </r>
       <r>    7.8549    0.0000 </r>
       <r>   11.1565    0.0000 </r>
       <r>   11.2702    0.0000 </r>
       <r>   13.0167    0.0000 </r>
      </set>
      <set comment="kpoint 22">
       <r>   -3.4126    1.0000 </r>
       <r>   -0.5516    1.0000 </r>
       <r>    2.2964    1.0000 </r>
       <r>    3.6259    1.0000 </r>
       <r>    7.3502    0.0000 </r>
       <r>   10.2786    0.0000 </r>
       <r>   11.5797    0.0000 </r>
       <r>   11.7527    0.0000 </r>
      </set>
      <set comment="kpoint 23">
       <r>   -4.2237    1.0000 </r>
       <r>    0.1598    1.0000 </r>
       <r>    3.3986    1.0000 </r>
       <r>    4.0007    1.0000 </r>
       <r>    7.8414    0.0000 </r>
       <r>   10.0919    0.0000 </r>
       <r>   10.7279    0.0000 </r>
       <r>   10.8831    0.0000 </r>
      </set>
      <set comment="kpoint 24">
       <r>   -3.2169    1.0000 </r>
       <r>   -0.5827    1.0000 </r>
       <r>    1.9139    1.0000 </r>
       <r>    3.1986    1.0000 </r>
       <r>    9.0582    0.0000 </r>
       <r>    9.5981    0.0000 </r>
       <r>   10.5885    0.0000 </r>
       <r>   13.3290    0.0000 </r>
      </set>
      <set comment="kpoint 25">
       <r>   -2.3818    1.0000 </r>
       <r>   -1.3181    1.0000 </r>
       <r>    1.7464    1.0000 </r>
       <r>    2.5266    1.0000 </r>
       <r>    8.8542    0.0000 </r>
       <r>   10.1160    0.0000 </r>
       <r>   10.9444    0.0000 </r>
       <r>   12.3303    0.0000 </r>
      </set>
      <set comment="kpoint 26">
       <r>   -2.5931    1.0000 </r>
       <r>   -1.2255    1.0000 </r>
       <r>    1.6195    1.0000 </r>
       <r>    3.4306    1.0000 </r>
       <r>    7.0698    0.0000 </r>
       <r>    9.9943    0.0000 </r>
       <r>   12.9350    0.0000 </r>
       <r>   13.1491    0.0000 </r>
      </set>
      <set comment="kpoint 27">
       <r>   -4.1336    1.0000 </r>
       <r>   -0.6336    1.0000 </r>
       <r>    4.6815    1.0000 </r>
       <r>    4.6815    1.0000 </r>
       <r>    7.4278    0.0000 </r>
       <r>    9.2270    0.0000 </r>
       <r>    9.2270    0.0000 </r>
       <r>   13.6381    0.0000 </r>
      </set>
      <set comment="kpoint 28">
       <r>   -3.5253    1.0000 </r>
       <r>   -0.9348    1.0000 </r>
       <r>    2.8400    1.0000 </r>
       <r>    4.2383    1.0000 </r>
       <r>    8.0184    0.0000 </r>
       <r>    9.9001    0.0000 </r>
       <r>   10.2286    0.0000 </r>
       <r>   13.8113    0.0000 </r>
      </set>
     </set>
    </set>
   </array>
  </eigenvalues>
  <separator name="orbital magnetization" >
   <v name="MAGDIPOLOUT">      0.00000000      0.00000000      0.00000000</v>
  </separator>
  <dos>
   <i name="efermi">      6.13495274 </i>
   <total>
    <array>
     <dimension dim="1">gridpoints</dimension>
     <dimension dim="2">spin</dimension>
     <field>energy</field>
     <field>total</field>
     <field>integrated</field>
     <set>
      <set comment="spin 1">
       <r>    -8.0407     0.0000     0.0000 </r>
       <r>    -7.9572     0.0000     0.0000 </r>
       <r>    -7.8737     0.0000     0.0000 </r>
       <r>    -7.7902     0.0000     0.0000 </r>
       <r>    -7.7067     0.0000     0.0000 </r>
       <r>    -7.6232     0.0000     0.0000 </r>
       <r>    -7.5397     0.0000     0.0000 </r>
       <r>    -7.4562     0.0000     0.0000 </r>
       <r>    -7.3727     0.0000     0.0000 </r>
       <r>    -7.2892     0.0000     0.0000 </r>
       <r>    -7.2057     0.0000     0.0000 </r>
       <r>    -7.1222     0.0000     0.0000 </r>
       <r>    -7.0387     0.0000     0.0000 </r>
       <r>    -6.9552     0.0000     0.0000 </r>
       <r>    -6.8717     0.0000     0.0000 </r>
       <r>    -6.7882     0.0000     0.0000 </r>
       <r>    -6.7047     0.0000     0.0000 </r>
       <r>    -6.6212     0.0000     0.0000 </r>
       <r>    -6.5377     0.0000     0.0000 </r>
       <r>    -6.4541     0.0003     0.0000 </r>
       <r>    -6.3706     0.0018     0.0002 </r>
       <r>    -6.2871     0.0070     0.0008 </r>
       <r>    -6.2036     0.0198     0.0024 </r>
       <r>    -6.1201     0.0424     0.0060 </r>
       <r>    -6.0366     0.0732     0.0121 </r>
       <r>    -5.9531     0.1115     0.0214 </r>
       <r>    -5.8696     0.1561     0.0344 </r>
       <r>    -5.7861     0.1968     0.0509 </r>
       <r>    -5.7026     0.2215     0.0694 </r>
       <r>    -5.6191     0.2336     0.0889 </r>
       <r>    -5.5356     0.2446     0.1093 </r>
       <r>    -5.4521     0.2618     0.1312 </r>
       <r>    -5.3686     0.2905     0.1554 </r>
       <r>    -5.2851     0.3304     0.1830 </r>
       <r>    -5.2016     0.3752     0.2143 </r>
       <r>    -5.1181     0.4118     0.2487 </r>
       <r>    -5.0346     0.4168     0.2835 </r>
       <r>    -4.9511     0.3823     0.3154 </r>
       <r>    -4.8675     0.3397     0.3438 </r>
       <r>    -4.7840     0.3336     0.3717 </r>
       <r>    -4.7005     0.3857     0.4039 </r>
       <r>    -4.6170     0.4807     0.4440 </r>
       <r>    -4.5335     0.5785     0.4923 </r>
       <r>    -4.4500     0.6373     0.5455 </r>
       <r>    -4.3665     0.6288     0.5981 </r>
       <r>    -4.2830     0.5646     0.6452 </r>
       <r>    -4.1995     0.5074     0.6876 </r>
       <r>    -4.1160     0.5198     0.7310 </r>
       <r>    -4.0325     0.6034     0.7814 </r>
       <r>    -3.9490     0.6964     0.8395 </r>
       <r>    -3.8655     0.7341     0.9008 </r>
       <r>    -3.7820     0.7172     0.9607 </r>
       <r>    -3.6985     0.7105     1.0200 </r>
       <r>    -3.6150     0.7732     1.0846 </r>
       <r>    -3.5315     0.8911     1.1590 </r>
       <r>    -3.4480     0.9857     1.2413 </r>
       <r>    -3.3645     1.0015     1.3250 </r>
       <r>    -3.2809     0.9379     1.4033 </r>
       <r>    -3.1974     0.7958     1.4697 </r>
       <r>    -3.1139     0.5923     1.5192 </r>
       <r>    -3.0304     0.4131     1.5537 </r>
       <r>    -2.9469     0.3432     1.5823 </r>
       <r>    -2.8634     0.3660     1.6129 </r>
       <r>    -2.7799     0.4125     1.6474 </r>
       <r>    -2.6964     0.4775     1.6872 </r>
       <r>    -2.6129     0.5977     1.7371 </r>
       <r>    -2.5294     0.7393     1.7989 </r>
       <r>    -2.4459     0.7964     1.8654 </r>
       <r>    -2.3624     0.7013     1.9239 </r>
       <r>    -2.2789     0.4908     1.9649 </r>
       <r>    -2.1954     0.2668     1.9872 </r>
       <r>    -2.1119     0.1102     1.9964 </r>
       <r>    -2.0284     0.0339     1.9992 </r>
       <r>    -1.9449     0.0077     1.9999 </r>
       <r>    -1.8614     0.0014     2.0000 </r>
       <r>    -1.7779     0.0018     2.0002 </r>
       <r>    -1.6943     0.0107     2.0010 </r>
       <r>    -1.6108     0.0505     2.0053 </r>
       <r>    -1.5273     0.1704     2.0195 </r>
       <r>    -1.4438     0.4132     2.0540 </r>
       <r>    -1.3603     0.7264     2.1147 </r>
       <r>    -1.2768     0.9461     2.1937 </r>
       <r>    -1.1933     0.9730     2.2749 </r>
       <r>    -1.1098     0.9145     2.3513 </r>
       <r>    -1.0263     0.9229     2.4283 </r>
       <r>    -0.9428     0.9648     2.5089 </r>
       <r>    -0.8593     0.9073     2.5847 </r>
       <r>    -0.7758     0.7722     2.6492 </r>
       <r>    -0.6923     0.7336     2.7104 </r>
       <r>    -0.6088     0.8553     2.7818 </r>
       <r>    -0.5253     0.9718     2.8630 </r>
       <r>    -0.4418     0.9035     2.9384 </r>
       <r>    -0.3583     0.6901     2.9961 </r>
       <r>    -0.2748     0.5094     3.0386 </r>
       <r>    -0.1913     0.4462     3.0759 </r>
       <r>    -0.1078     0.4645     3.1146 </r>
       <r>    -0.0242     0.5391     3.1597 </r>
       <r>     0.0593     0.6637     3.2151 </r>
       <r>     0.1428     0.7549     3.2781 </r>
       <r>     0.2263     0.6948     3.3361 </r>
       <r>     0.3098     0.4837     3.3765 </r>
       <r>     0.3933     0.2482     3.3973 </r>
       <r>     0.4768     0.0962     3.4053 </r>
       <r>     0.5603     0.0449     3.4090 </r>
       <r>     0.6438     0.0774     3.4155 </r>
       <r>     0.7273     0.1916     3.4315 </r>
       <r>     0.8108     0.3697     3.4624 </r>
       <r>     0.8943     0.5315     3.5068 </r>
       <r>     0.9778     0.5710     3.5544 </r>
       <r>     1.0613     0.4616     3.5930 </r>
       <r>     1.1448     0.2913     3.6173 </r>
       <r>     1.2283     0.1769     3.6321 </r>
       <r>     1.3118     0.1728     3.6465 </r>
       <r>     1.3953     0.2679     3.6689 </r>
       <r>     1.4788     0.4328     3.7050 </r>
       <r>     1.5624     0.6410     3.7586 </r>
       <r>     1.6459     0.8603     3.8304 </r>
       <r>     1.7294     1.0574     3.9187 </r>
       <r>     1.8129     1.1947     4.0185 </r>
       <r>     1.8964     1.2169     4.1201 </r>
       <r>     1.9799     1.1004     4.2120 </r>
       <r>     2.0634     0.9229     4.2890 </r>
       <r>     2.1469     0.8284     4.3582 </r>
       <r>     2.2304     0.9122     4.4344 </r>
       <r>     2.3139     1.1210     4.5280 </r>
       <r>     2.3974     1.2710     4.6341 </r>
       <r>     2.4809     1.2318     4.7370 </r>
       <r>     2.5644     1.0652     4.8259 </r>
       <r>     2.6479     0.9412     4.9045 </r>
       <r>     2.7314     0.9811     4.9865 </r>
       <r>     2.8149     1.1787     5.0849 </r>
       <r>     2.8984     1.3956     5.2014 </r>
       <r>     2.9819     1.4790     5.3249 </r>
       <r>     3.0654     1.4436     5.4455 </r>
       <r>     3.1490     1.4408     5.5658 </r>
       <r>     3.2325     1.5224     5.6929 </r>
       <r>     3.3160     1.5800     5.8249 </r>
       <r>     3.3995     1.5257     5.9523 </r>
       <r>     3.4830     1.4020     6.0693 </r>
       <r>     3.5665     1.3092     6.1787 </r>
       <r>     3.6500     1.2779     6.2854 </r>
       <r>     3.7335     1.2452     6.3894 </r>
       <r>     3.8170     1.1885     6.4886 </r>
       <r>     3.9005     1.1756     6.5868 </r>
       <r>     3.9840     1.2348     6.6899 </r>
       <r>     4.0675     1.3195     6.8001 </r>
       <r>     4.1510     1.3978     6.9168 </r>
       <r>     4.2345     1.4448     7.0374 </r>
       <r>     4.3180     1.4060     7.1548 </r>
       <r>     4.4015     1.2625     7.2603 </r>
       <r>     4.4850     1.0641     7.3491 </r>
       <r>     4.5685     0.8676     7.4216 </r>
       <r>     4.6520     0.7244     7.4821 </r>
       <r>     4.7356     0.6925     7.5399 </r>
       <r>     4.8191     0.7657     7.6038 </r>
       <r>     4.9026     0.8373     7.6738 </r>
       <r>     4.9861     0.8064     7.7411 </r>
       <r>     5.0696     0.6777     7.7977 </r>
       <r>     5.1531     0.5203     7.8411 </r>
       <r>     5.2366     0.3863     7.8734 </r>
       <r>     5.3201     0.2945     7.8980 </r>
       <r>     5.4036     0.2474     7.9186 </r>
       <r>     5.4871     0.2312     7.9379 </r>
       <r>     5.5706     0.2190     7.9562 </r>
       <r>     5.6541     0.1931     7.9724 </r>
       <r>     5.7376     0.1513     7.9850 </r>
       <r>     5.8211     0.0998     7.9933 </r>
       <r>     5.9046     0.0521     7.9977 </r>
       <r>     5.9881     0.0205     7.9994 </r>
       <r>     6.0716     0.0059     7.9999 </r>
       <r>     6.1551     0.0017     8.0000 </r>
       <r>     6.2386     0.0032     8.0003 </r>
       <r>     6.3222     0.0140     8.0015 </r>
       <r>     6.4057     0.0462     8.0053 </r>
       <r>     6.4892     0.1122     8.0147 </r>
       <r>     6.5727     0.2024     8.0316 </r>
       <r>     6.6562     0.2751     8.0546 </r>
       <r>     6.7397     0.2908     8.0789 </r>
       <r>     6.8232     0.2646     8.1009 </r>
       <r>     6.9067     0.2649     8.1231 </r>
       <r>     6.9902     0.3394     8.1514 </r>
       <r>     7.0737     0.4596     8.1898 </r>
       <r>     7.1572     0.5671     8.2371 </r>
       <r>     7.2407     0.6519     8.2916 </r>
       <r>     7.3242     0.7338     8.3529 </r>
       <r>     7.4077     0.8032     8.4199 </r>
       <r>     7.4912     0.8369     8.4898 </r>
       <r>     7.5747     0.8336     8.5594 </r>
       <r>     7.6582     0.8248     8.6283 </r>
       <r>     7.7417     0.8884     8.7025 </r>
       <r>     7.8252     1.0892     8.7934 </r>
       <r>     7.9088     1.3645     8.9074 </r>
       <r>     7.9923     1.5434     9.0363 </r>
       <r>     8.0758     1.5170     9.1629 </r>
       <r>     8.1593     1.3352     9.2744 </r>
       <r>     8.2428     1.1502     9.3705 </r>
       <r>     8.3263     1.1154     9.4636 </r>
       <r>     8.4098     1.2650     9.5693 </r>
       <r>     8.4933     1.4450     9.6899 </r>
       <r>     8.5768     1.4729     9.8129 </r>
       <r>     8.6603     1.3688     9.9272 </r>
       <r>     8.7438     1.3110    10.0367 </r>
       <r>     8.8273     1.3918    10.1529 </r>
       <r>     8.9108     1.5407    10.2816 </r>
       <r>     8.9943     1.6509    10.4194 </r>
       <r>     9.0778     1.6525    10.5574 </r>
       <r>     9.1613     1.5451    10.6865 </r>
       <r>     9.2448     1.4572    10.8081 </r>
       <r>     9.3283     1.5321    10.9361 </r>
       <r>     9.4118     1.7206    11.0798 </r>
       <r>     9.4954     1.8342    11.2329 </r>
       <r>     9.5789     1.7712    11.3808 </r>
       <r>     9.6624     1.5909    11.5137 </r>
       <r>     9.7459     1.4160    11.6319 </r>
       <r>     9.8294     1.3168    11.7419 </r>
       <r>     9.9129     1.2786    11.8486 </r>
       <r>     9.9964     1.2553    11.9535 </r>
       <r>    10.0799     1.2247    12.0557 </r>
       <r>    10.1634     1.2078    12.1566 </r>
       <r>    10.2469     1.2562    12.2615 </r>
       <r>    10.3304     1.3739    12.3762 </r>
       <r>    10.4139     1.4637    12.4984 </r>
       <r>    10.4974     1.4416    12.6188 </r>
       <r>    10.5809     1.3696    12.7332 </r>
       <r>    10.6644     1.3627    12.8470 </r>
       <r>    10.7479     1.4189    12.9655 </r>
       <r>    10.8314     1.4382    13.0856 </r>
       <r>    10.9149     1.3541    13.1986 </r>
       <r>    10.9984     1.1866    13.2977 </r>
       <r>    11.0820     1.0019    13.3814 </r>
       <r>    11.1655     0.8352    13.4511 </r>
       <r>    11.2490     0.6743    13.5074 </r>
       <r>    11.3325     0.5463    13.5531 </r>
       <r>    11.4160     0.5602    13.5998 </r>
       <r>    11.4995     0.7965    13.6664 </r>
       <r>    11.5830     1.1744    13.7644 </r>
       <r>    11.6665     1.5077    13.8903 </r>
       <r>    11.7500     1.6873    14.0312 </r>
       <r>    11.8335     1.7124    14.1742 </r>
       <r>    11.9170     1.5931    14.3073 </r>
       <r>    12.0005     1.3551    14.4204 </r>
       <r>    12.0840     1.0789    14.5105 </r>
       <r>    12.1675     0.8415    14.5808 </r>
       <r>    12.2510     0.6761    14.6372 </r>
       <r>    12.3345     0.5933    14.6868 </r>
       <r>    12.4180     0.5955    14.7365 </r>
       <r>    12.5015     0.6640    14.7920 </r>
       <r>    12.5850     0.7276    14.8527 </r>
       <r>    12.6686     0.7007    14.9112 </r>
       <r>    12.7521     0.6076    14.9620 </r>
       <r>    12.8356     0.5739    15.0099 </r>
       <r>    12.9191     0.6465    15.0639 </r>
       <r>    13.0026     0.7282    15.1247 </r>
       <r>    13.0861     0.7350    15.1861 </r>
       <r>    13.1696     0.7284    15.2469 </r>
       <r>    13.2531     0.8198    15.3153 </r>
       <r>    13.3366     0.9898    15.3980 </r>
       <r>    13.4201     1.0764    15.4879 </r>
       <r>    13.5036     0.9623    15.5682 </r>
       <r>    13.5871     0.7214    15.6285 </r>
       <r>    13.6706     0.5205    15.6719 </r>
       <r>    13.7541     0.4222    15.7072 </r>
       <r>    13.8376     0.3574    15.7370 </r>
       <r>    13.9211     0.2600    15.7588 </r>
       <r>    14.0046     0.1464    15.7710 </r>
       <r>    14.0881     0.0669    15.7766 </r>
       <r>    14.1716     0.0469    15.7805 </r>
       <r>    14.2552     0.0906    15.7881 </r>
       <r>    14.3387     0.1857    15.8036 </r>
       <r>    14.4222     0.2819    15.8271 </r>
       <r>    14.5057     0.3068    15.8527 </r>
       <r>    14.5892     0.2433    15.8730 </r>
       <r>    14.6727     0.1581    15.8862 </r>
       <r>    14.7562     0.1306    15.8971 </r>
       <r>    14.8397     0.1798    15.9122 </r>
       <r>    14.9232     0.2573    15.9336 </r>
       <r>    15.0067     0.2905    15.9579 </r>
       <r>    15.0902     0.2460    15.9784 </r>
       <r>    15.1737     0.1546    15.9914 </r>
       <r>    15.2572     0.0718    15.9973 </r>
       <r>    15.3407     0.0244    15.9994 </r>
       <r>    15.4242     0.0061    15.9999 </r>
       <r>    15.5077     0.0011    16.0000 </r>
       <r>    15.5912     0.0001    16.0000 </r>
       <r>    15.6747     0.0000    16.0000 </r>
       <r>    15.7582     0.0000    16.0000 </r>
       <r>    15.8418     0.0000    16.0000 </r>
       <r>    15.9253     0.0000    16.0000 </r>
       <r>    16.0088     0.0000    16.0000 </r>
       <r>    16.0923     0.0000    16.0000 </r>
       <r>    16.1758     0.0000    16.0000 </r>
       <r>    16.2593     0.0000    16.0000 </r>
       <r>    16.3428     0.0000    16.0000 </r>
       <r>    16.4263     0.0000    16.0000 </r>
       <r>    16.5098     0.0000    16.0000 </r>
       <r>    16.5933     0.0000    16.0000 </r>
       <r>    16.6768     0.0000    16.0000 </r>
       <r>    16.7603     0.0000    16.0000 </r>
       <r>    16.8438     0.0000    16.0000 </r>
       <r>    16.9273     0.0000    16.0000 </r>
       <r>    17.0108     0.0000    16.0000 </r>
      </set>
     </set>
    </array>
   </total>
  </dos>
 </calculation>
 <structure name="finalpos" >
  <crystal>
   <varray name="basis" >
    <v>       0.00000000       2.71500000       2.71500000 </v>
    <v>       2.71500000       0.00000000       2.71500000 </v>
    <v>       2.71500000       2.71500000       0.00000000 </v>
   </varray>
   <i name="volume">     40.02575175 </i>
   <varray name="rec_basis" >
    <v>      -0.18416206       0.18416206       0.18416206 </v>
    <v>       0.18416206      -0.18416206       0.18416206 </v>
    <v>       0.18416206       0.18416206      -0.18416206 </v>
   </varray>
  </crystal>
  <varray name="positions" >
   <v>       0.50000000       0.50000000       0.50000000 </v>
   <v>       0.75000000       0.75000000       0.75000000 </v>
  </varray>
 </structure>
</modeling>
