unknown system                          
   1.00000000000000     
    -2.427674    2.427674    1.337087
     2.427674   -2.427674    1.337087
     2.427674    2.427674   -1.337087
   Si
     2
Direct
  0.750000  0.250000  0.500000
  0.500000  0.500000  0.000000
 
   36   36   36
  9.7268      9.6571      9.4544      9.1362      8.7273      8.2555      7.7466      7.2217      6.6972      6.1857    
  5.6983      5.2457      4.8385      4.4857      4.1940      3.9671      3.8059      3.7099      3.6781      3.7099    
  3.8059      3.9671      4.1940      4.4857      4.8385      5.2457      5.6983      6.1857      6.6972      7.2217    
  7.7466      8.2555      8.7273      9.1362      9.4544      9.6572      9.6572      9.8112      9.8239      9.6984    
  9.4493      9.0988      8.6720      8.1929      7.6813      7.1532      6.6225      6.1026      5.6072      5.1505    
  4.7447      4.3988      4.1181      3.9048      3.7585      3.6779      3.6623      3.7116      3.8265      4.0077    
  4.2547      4.5650      4.9342      5.3560      5.8233      6.3284      6.8626      7.4143      7.9665      8.4963    
  8.9749      9.3714      9.4544      9.8239      10.059      10.146      10.087      9.8947      9.5893      9.1946    
  8.7331      8.2236      7.6816      7.1216      6.5587      6.0102      5.4936      5.0249      4.6162      4.2752    
  4.0051      3.8064      3.6775      3.6172      3.6248      3.7004      3.8444      4.0566      4.3357      4.6790    
  5.0832      5.5444      6.0578      6.6167      7.2096      7.8187      8.4179      8.9749      9.1362      9.6984    
  10.146      10.452      10.601      10.594      10.443      10.168      9.7945      9.3417      8.8268      8.2641    
  7.6676      7.0540      6.4436      5.8582      5.3181      4.8396      4.4331      4.1037      3.8522      3.6770    
  3.5761      3.5479      3.5917      3.7074      3.8951      4.1543      4.4846      4.8852      5.3553      5.8927    
  6.4918      7.1406      7.8187      8.4963      8.7273      9.4493      10.087      10.601      10.961      11.153    
  11.178      11.053      10.798      10.437      9.9885      9.4658      8.8799      8.2432      7.5735      6.8944    
  6.2329      5.6149      5.0615      4.5867      4.1973      3.8946      3.6767      3.5404      3.4830      3.5027    
  3.5992      3.7725      4.0235      4.3537      4.7653      5.2599      5.8372      6.4918      7.2096      7.9665    
  8.2555      9.0988      9.8947      10.594      11.153      11.543      11.747      11.773      11.649      11.406    
  11.067      10.636      10.114      9.5067      8.8291      8.1001      7.3477      6.6050      5.9049      5.2742    
  4.7305      4.2828      3.9325      3.6767      3.5111      3.4314      3.4351      3.5211      3.6901      3.9445    
  4.2879      4.7251      5.2599      5.8927      6.6167      7.4143      7.7466      8.6720      9.5893      10.443    
  11.178      11.747      12.107      12.256      12.234      12.092      11.872      11.585      11.215      10.732    
  10.122      9.4058      8.6162      7.7877      6.9613      6.1776      5.4698      4.8596      4.3574      3.9646    
  3.6771      3.4887      3.3941      3.3896      3.4740      3.6488      3.9181      4.2879      4.7653      5.3553    
  6.0578      6.8626      7.2217      8.1929      9.1946      10.168      11.053      11.773      12.256      12.485    
  12.506      12.397      12.240      12.077      11.900      11.652      11.265      10.696      9.9541      9.1040    
  8.1987      7.2885      6.4227      5.6410      4.9691      4.4185      3.9898      3.6775      3.4738      3.3716    
  3.3667      3.4583      3.6488      3.9445      4.3537      4.8852      5.5444      6.3284      6.6972      7.6813    
  8.7331      9.7945      10.798      11.649      12.234      12.506      12.503      12.331      12.121      11.978    
  11.936      11.947      11.900      11.674      11.192      10.454      9.5467      8.5658      7.5744      6.6309    
  5.7815      5.0551      4.4639      4.0073      3.6780      3.4663      3.3641      3.3667      3.4740      3.6901    
  4.0235      4.4846      5.0832      5.8233      6.1857      7.1533      8.2236      9.3417      10.437      11.406    
  12.092      12.397      12.331      12.006      11.605      11.311      11.244      11.411      11.704      11.942    
  11.942      11.590      10.883      9.9295      8.8758      7.8083      6.7943      5.8859      5.1144      4.4918    
  4.0162      3.6781      3.4663      3.3716      3.3896      3.5211      3.7725      4.1543      4.6790      5.3560    
  5.6983      6.6226      7.6817      8.8269      9.9885      11.067      11.872      12.240      12.121      11.605    
  10.898      10.266      9.9408      10.041      10.523      11.198      11.798      12.076      11.886      11.229    
  10.240      9.1178      7.9815      6.9067      5.9501      5.1446      4.5013      4.0162      3.6780      3.4738    
  3.3941      3.4351      3.5992      3.8951      4.3357      4.9342      5.2457      6.1026      7.1216      8.2641    
  9.4658      10.636      11.585      12.077      11.978      11.311      10.266      9.1588      8.3374      8.0703    
  8.4500      9.3570      10.500      11.520      12.104      12.088      11.485      10.468      9.2837      8.0880    
  6.9640      5.9718      5.1446      4.4918      4.0073      3.6775      3.4887      3.4314      3.5027      3.7074    
  4.0566      4.5650      4.8385      5.6072      6.5587      7.6676      8.8799      10.114      11.215      11.900    
  11.936      11.244      9.9408      8.3374      6.8617      5.9371      5.8446      6.6225      8.0493      9.7197    
  11.180      12.069      12.212      11.653      10.606      9.3680      8.1239      6.9640      5.9501      5.1144    
  4.4639      3.9898      3.6771      3.5111      3.4830      3.5917      3.8444      4.2547      4.4857      5.1505    
  6.0102      7.0541      8.2432      9.5067      10.732      11.652      11.947      11.411      10.041      8.0703    
  5.9371      4.1781      3.2720      3.4824      4.7628      6.7704      8.9816      10.861      12.013      12.278    
  11.736      10.653      9.3680      8.0880      6.9067      5.8859      5.0551      4.4185      3.9646      3.6767    
  3.5404      3.5479      3.7004      4.0077      4.1940      4.7447      5.4936      6.4436      7.5735      8.8291    
  10.122      11.265      11.900      11.704      10.523      8.4500      5.8446      3.2720      1.3611     0.61572    
  1.2475      3.0991      5.6969      8.4079      10.635      11.975      12.298      11.736      10.606      9.2837    
  7.9815      6.7943      5.7815      4.9691      4.3574      3.9325      3.6767      3.5761      3.6248      3.8265    
  3.9671      4.3988      5.0249      5.8582      6.8944      8.1001      9.4058      10.696      11.674      11.942    
  11.198      9.3570      6.6225      3.4824     0.61572     -1.2857     -1.7298     -.59027      1.8475      4.9827    
  8.0946      10.554      11.975      12.278      11.653      10.468      9.1178      7.8083      6.6309      5.6410    
  4.8596      4.2828      3.8946      3.6770      3.6172      3.7116      3.8059      4.1182      4.6162      5.3181    
  6.2329      7.3477      8.6162      9.9541      11.192      11.942      11.798      10.500      8.0493      4.7628    
  1.2475     -1.7298     -3.4526     -3.4803     -1.7983      1.1758      4.7324      8.0946      10.635      12.013    
  12.212      11.485      10.240      8.8758      7.5744      6.4227      5.4698      4.7305      4.1973      3.8522    
  3.6775      3.6623      3.7099      3.9048      4.2752      4.8396      5.6149      6.6050      7.7877      9.1040    
  10.454      11.590      12.076      11.520      9.7197      6.7703      3.0991     -.59029     -3.4803     -4.8733    
 -4.4156     -2.2194      1.1758      4.9827      8.4079      10.861      12.069      12.088      11.229      9.9295    
  8.5658      7.2885      6.1776      5.2742      4.5867      4.1037      3.8064      3.6779      3.6781      3.7585    
  4.0052      4.4331      5.0615      5.9049      6.9613      8.1988      9.5467      10.883      11.886      12.104    
  11.180      8.9816      5.6969      1.8474     -1.7983     -4.4156     -5.3680     -4.4156     -1.7983      1.8475    
  5.6969      8.9816      11.180      12.104      11.886      10.883      9.5467      8.1987      6.9613      5.9049    
  5.0615      4.4331      4.0051      3.7585      3.7099      3.6779      3.8064      4.1037      4.5867      5.2742    
  6.1776      7.2885      8.5658      9.9295      11.229      12.088      12.069      10.861      8.4079      4.9827    
  1.1758     -2.2195     -4.4156     -4.8733     -3.4803     -.59027      3.0991      6.7704      9.7197      11.520    
  12.076      11.590      10.454      9.1040      7.7877      6.6050      5.6149      4.8396      4.2752      3.9048    
  3.8059      3.6623      3.6775      3.8522      4.1973      4.7306      5.4698      6.4227      7.5744      8.8758    
  10.240      11.485      12.212      12.013      10.635      8.0946      4.7323      1.1758     -1.7983     -3.4803    
 -3.4526     -1.7298      1.2475      4.7628      8.0493      10.500      11.798      11.942      11.192      9.9541    
  8.6162      7.3477      6.2329      5.3181      4.6162      4.1181      3.9671      3.7116      3.6172      3.6771    
  3.8947      4.2828      4.8596      5.6410      6.6309      7.8082      9.1178      10.468      11.653      12.278    
  11.975      10.554      8.0946      4.9827      1.8474     -.59029     -1.7298     -1.2857     0.61572      3.4824    
  6.6225      9.3570      11.198      11.942      11.674      10.696      9.4058      8.1001      6.8944      5.8582    
  5.0249      4.3988      4.1940      3.8266      3.6248      3.5761      3.6768      3.9325      4.3574      4.9691    
  5.7815      6.7943      7.9815      9.2837      10.606      11.736      12.298      11.975      10.635      8.4079    
  5.6969      3.0991      1.2475     0.61572      1.3611      3.2720      5.8446      8.4500      10.523      11.704    
  11.900      11.265      10.122      8.8291      7.5735      6.4436      5.4936      4.7447      4.4857      4.0077    
  3.7004      3.5479      3.5404      3.6768      3.9646      4.4185      5.0551      5.8858      6.9067      8.0879    
  9.3679      10.653      11.736      12.278      12.013      10.861      8.9816      6.7703      4.7628      3.4824    
  3.2720      4.1781      5.9371      8.0703      10.041      11.411      11.947      11.652      10.732      9.5067    
  8.2432      7.0540      6.0102      5.1505      4.8385      4.2547      3.8444      3.5917      3.4830      3.5111    
  3.6771      3.9899      4.4639      5.1144      5.9501      6.9639      8.1238      9.3679      10.606      11.653    
  12.212      12.069      11.180      9.7197      8.0493      6.6225      5.8446      5.9371      6.8617      8.3374    
  9.9408      11.244      11.936      11.900      11.215      10.114      8.8799      7.6676      6.5587      5.6072    
  5.2457      4.5650      4.0566      3.7074      3.5028      3.4314      3.4888      3.6776      4.0073      4.4918    
  5.1445      5.9718      6.9639      8.0879      9.2837      10.468      11.485      12.088      12.104      11.520    
  10.500      9.3570      8.4500      8.0703      8.3374      9.1588      10.266      11.311      11.978      12.077    
  11.585      10.636      9.4658      8.2641      7.1216      6.1026      5.6983      4.9342      4.3357      3.8951    
  3.5992      3.4351      3.3941      3.4738      3.6780      4.0162      4.5013      5.1445      5.9501      6.9067    
  7.9815      9.1178      10.240      11.229      11.886      12.076      11.798      11.198      10.523      10.041    
  9.9408      10.266      10.898      11.605      12.121      12.240      11.872      11.067      9.9885      8.8268    
  7.6816      6.6225      6.1857      5.3560      4.6790      4.1543      3.7725      3.5211      3.3896      3.3716    
  3.4663      3.6782      4.0162      4.4918      5.1144      5.8858      6.7943      7.8082      8.8758      9.9295    
  10.883      11.590      11.942      11.942      11.704      11.411      11.244      11.311      11.605      12.006    
  12.331      12.397      12.092      11.406      10.437      9.3417      8.2236      7.1532      6.6972      5.8233    
  5.0832      4.4846      4.0234      3.6901      3.4740      3.3668      3.3641      3.4663      3.6780      4.0073    
  4.4639      5.0551      5.7815      6.6309      7.5744      8.5658      9.5467      10.454      11.192      11.674    
  11.900      11.947      11.936      11.978      12.121      12.331      12.503      12.506      12.234      11.649    
  10.798      9.7945      8.7331      7.6813      7.2217      6.3284      5.5444      4.8852      4.3537      3.9445    
  3.6488      3.4583      3.3668      3.3716      3.4738      3.6776      3.9899      4.4185      4.9691      5.6410    
  6.4227      7.2885      8.1988      9.1040      9.9541      10.696      11.265      11.652      11.900      12.077    
  12.240      12.397      12.506      12.485      12.256      11.773      11.053      10.168      9.1946      8.1929    
  7.7466      6.8626      6.0578      5.3553      4.7652      4.2879      3.9181      3.6488      3.4740      3.3896    
  3.3941      3.4888      3.6771      3.9646      4.3574      4.8596      5.4698      6.1776      6.9613      7.7877    
  8.6162      9.4058      10.122      10.732      11.215      11.585      11.872      12.092      12.234      12.256    
  12.107      11.747      11.178      10.443      9.5893      8.6720      8.2555      7.4143      6.6167      5.8927    
  5.2599      4.7251      4.2879      3.9445      3.6901      3.5211      3.4351      3.4314      3.5111      3.6768    
  3.9325      4.2828      4.7306      5.2742      5.9049      6.6050      7.3477      8.1001      8.8291      9.5067    
  10.114      10.636      11.067      11.406      11.649      11.773      11.747      11.543      11.153      10.594    
  9.8947      9.0988      8.7273      7.9665      7.2096      6.4918      5.8372      5.2599      4.7652      4.3537    
  4.0234      3.7725      3.5992      3.5028      3.4830      3.5404      3.6768      3.8947      4.1973      4.5867    
  5.0615      5.6149      6.2329      6.8944      7.5735      8.2432      8.8799      9.4658      9.9885      10.437    
  10.798      11.053      11.178      11.153      10.961      10.601      10.087      9.4493      9.1362      8.4963    
  7.8187      7.1406      6.4918      5.8927      5.3553      4.8852      4.4846      4.1543      3.8951      3.7074    
  3.5917      3.5479      3.5761      3.6771      3.8522      4.1037      4.4331      4.8396      5.3181      5.8582    
  6.4436      7.0541      7.6676      8.2641      8.8269      9.3417      9.7945      10.168      10.443      10.594    
  10.601      10.452      10.146      9.6984      9.4544      8.9749      8.4179      7.8187      7.2096      6.6167    
  6.0578      5.5444      5.0832      4.6790      4.3357      4.0566      3.8444      3.7004      3.6248      3.6172    
  3.6775      3.8064      4.0052      4.2752      4.6162      5.0249      5.4936      6.0102      6.5587      7.1216    
  7.6817      8.2236      8.7331      9.1946      9.5893      9.8947      10.087      10.146      10.059      9.8239    
  9.6571      9.3714      8.9749      8.4963      7.9665      7.4143      6.8626      6.3284      5.8233      5.3560    
  4.9342      4.5650      4.2547      4.0077      3.8266      3.7116      3.6623      3.6779      3.7585      3.9048    
  4.1182      4.3988      4.7447      5.1505      5.6072      6.1026      6.6226      7.1533      7.6813      8.1929    
  8.6720      9.0988      9.4493      9.6984      9.8239      9.8112      9.6572      9.5474      9.3177      8.9857    
  8.5757      8.1144      7.6264      7.1316      6.6446      6.1759      5.7344      5.3284      4.9666      4.6566    
  4.4043      4.2134      4.0853      4.0197      4.0162      4.0745      4.1953      4.3791      4.6258      4.9331    
  5.2959      5.7057      6.1514      6.6210      7.1027      7.5853      8.0572      8.5043      8.9084      9.2476    
  9.4983      9.6395      9.5474      9.6572      9.6395      9.4983      9.2476      8.9084      8.5043      8.0572    
  7.5853      7.1027      6.6210      6.1514      5.7057      5.2959      4.9331      4.6258      4.3791      4.1953    
  4.0745      4.0162      4.0197      4.0853      4.2135      4.4043      4.6566      4.9666      5.3284      5.7344    
  6.1759      6.6446      7.1316      7.6264      8.1144      8.5757      8.9857      9.3177      9.3015      9.6229    
  9.8239      9.8938      9.8331      9.6534      9.3731      9.0133      8.5940      8.1319      7.6407      7.1331    
  6.6226      6.1244      5.6545      5.2277      4.8553      4.5448      4.2997      4.1208      4.0073      3.9583    
  3.9736      4.0533      4.1975      4.4054      4.6747      5.0017      5.3816      5.8095      6.2798      6.7860    
  7.3180      7.8604      8.3908      8.8814      8.9389      9.4494      9.8602      10.146      10.294      10.301    
  10.179      9.9447      9.6168      9.2140      8.7511      8.2411      7.6970      7.1347      6.5730      6.0322    
  5.5313      5.0855      4.7051      4.3950      4.1569      3.9898      3.8924      3.8637      3.9031      4.0104    
  4.1852      4.4263      4.7321      5.1006      5.5301      6.0177      6.5584      7.1422      7.7517      8.3613    
  8.4866      9.1532      9.7508      10.243      10.601      10.811      10.871      10.792      10.590      10.284    
  9.8891      9.4185      8.8827      8.2946      7.6720      7.0376      6.4168      5.8338      5.3083      4.8540    
  4.4777      4.1816      3.9646      3.8244      3.7589      3.7667      3.8473      4.0002      4.2256      4.5240    
  4.8961      5.3429      5.8638      6.4544      7.1036      7.7909      7.9746      8.7584      9.5099      10.184    
  10.741      11.153      11.405      11.497      11.443      11.264      10.975      10.588      10.107      9.5420    
  8.9053      8.2162      7.5022      6.7946      6.1239      5.5153      4.9859      4.5447      4.1942      3.9325    
  3.7563      3.6620      3.6473      3.7110      3.8533      4.0755      4.3801      4.7707      5.2506      5.8204    
  6.4754      7.2017      7.4310      8.2923      9.1600      9.9844      10.716      11.315      11.747      11.997    
  12.080      12.027      11.869      11.616      11.259      10.786      10.195      9.5073      8.7480      7.9499    
  7.1515      6.3906      5.6984      5.0958      4.5936      4.1942      3.8947      3.6900      3.5753      3.5470    
  3.6038      3.7463      3.9774      4.3019      4.7257      5.2538      5.8872      6.6190      6.8793      7.7809    
  8.7267      9.6656      10.542      11.302      11.885      12.256      12.432      12.461      12.401      12.284    
  12.105      11.827      11.405      10.815      10.079      9.2477      8.3635      7.4733      6.6231      5.8502    
  5.1793      4.6225      4.1816      3.8522      3.6274      3.5007      3.4678      3.5271      3.6804      3.9322    
  4.2898      4.7609      5.3515      6.0612      6.3370      7.2463      8.2348      9.2530      10.241      11.134    
  11.840      12.295      12.506      12.539      12.489      12.434      12.402      12.360      12.226      11.911    
  11.364      10.599      9.6966      8.7269      7.7472      6.8120      5.9647      5.2332      4.6304      4.1569    
  3.8064      3.5700      3.4398      3.4108      3.4820      3.6562      3.9404      4.3436      4.8753      5.5409    
  5.8174      6.7059      7.7055      8.7705      9.8399      10.841      11.654      12.172      12.375      12.331    
  12.172      12.041      12.033      12.157      12.332      12.417      12.271      11.810      11.045      10.078    
  9.0261      7.9625      6.9498      6.0373      5.2555      4.6170      4.1208      3.7585      3.5192      3.3939    
  3.3773      3.4692      3.6743      4.0017      4.4624      5.0665      5.3312      6.1742      7.1562      8.2382    
  9.3610      10.450      11.369      11.959      12.147      11.979      11.605      11.233      11.052      11.162    
  11.533      12.017      12.397      12.476      12.139      11.398      10.378      9.2500      8.1109      7.0314    
  6.0655      5.2454      4.5827      4.0745      3.7099      3.4764      3.3640      3.3679      3.4892      3.7347    
  4.1156      4.6447      4.8877      5.6639      6.6019      7.6725      8.8221      9.9766      11.008      11.705    
  11.922      11.646      11.011      10.266      9.6977      9.5325      9.8552      10.574      11.453      12.194    
  12.538      12.349      11.646      10.587      9.3911      8.1873      7.0539      6.0484      5.2035      4.5291    
  4.0197      3.6623      3.4429      3.3513      3.3834      3.5423      3.8370      4.2810      4.4958      5.1874    
  6.0574      7.0885      8.2372      9.4334      10.570      11.418      11.747      11.453      10.607      9.4499    
  8.3374      7.6303      7.5757      8.2182      9.3807      10.725      11.865      12.492      12.454      11.791    
  10.699      9.4452      8.1897      7.0171      5.9871      5.1315      4.4580      3.9583      3.6172      3.4198    
  3.3563      3.4239      3.6280      3.9802      4.1624      4.7563      5.5378      6.5021      7.6196      8.8307    
  10.046      11.069      11.603      11.435      10.525      9.0478      7.3649      5.9371      5.1860      5.3542    
  6.4191      8.0977      9.9426      11.486      12.378      12.471      11.836      10.713      9.4121      8.1190    
  6.9230      5.8843      5.0325      4.3723      3.8925      3.5761      3.4081      3.3792      3.4890      3.7454    
  3.8925      4.3804      5.0576      5.9307      6.9858      8.1790      9.4334      10.614      11.416      11.524    
  10.764      9.1827      7.0717      4.9163      3.2721      2.5974      3.1007      4.6668      6.8941      9.2287    
  11.135      12.243      12.423      11.790      10.631      9.2942      7.9788      6.7758      5.7442      4.9103    
  4.2750      3.8244      3.5404      3.4081      3.4199      3.5778      3.6884      4.0665      4.6297      5.3925    
  6.3559      7.4948      8.7495      10.024      11.092      11.580      11.184      9.7893      7.5432      4.8605    
  2.3419     0.61575     0.14592      1.0764      3.1800      5.9353      8.6954      10.880      12.121      12.325    
  11.658      10.457      9.0969      7.7747      6.5813      5.5723      4.7694      4.1694      3.7563      3.5111    
  3.4199      3.4773      3.5501      3.8181      4.2632      4.9039      5.7521      6.8011      8.0133      9.3137    
  10.570      11.454      11.567      10.637      8.6244      5.7861      2.6548     -.73581E-01 -1.7298     -1.8794    
 -.46957      2.1526      5.3558      8.4252      10.764      12.030      12.184      11.447      10.199      8.8278    
  7.5147      6.3470      5.3749      4.6147      4.0591      3.6900      3.4888      3.4429      3.4764      3.6360    
  3.9637      4.4774      5.1955      6.1257      7.2525      8.5253      9.8549      11.046      11.697      11.415    
  9.9743      7.4239      4.1273     0.71889     -2.0411     -3.4803     -3.2278     -1.3394      1.7214      5.2367    
  8.4558      10.797      11.970      11.997      11.157      9.8650      8.4966      7.2082      6.0814      5.1592    
  4.4516      3.9474      3.6274      3.4738      3.4663      3.5192      3.7328      4.1209      4.7029      5.4955    
  6.5014      7.6953      9.0146      10.353      11.440      11.840      11.186      9.3129      6.3595      2.7850    
 -.70158     -3.3137     -4.4156     -3.7274     -1.4198      1.9435      5.5907      8.7729      10.956      11.918    
  11.754      10.791      9.4659      8.1148      6.8664      5.7942      4.9326      4.2852      3.8376      3.5700    
  3.5192      3.4663      3.5700      3.8376      4.2852      4.9326      5.7942      6.8664      8.1147      9.4659    
  10.791      11.754      11.918      10.956      8.7729      5.5907      1.9435     -1.4198     -3.7274     -4.4156    
 -3.3137     -.70158      2.7850      6.3595      9.3129      11.186      11.840      11.440      10.353      9.0147    
  7.6953      6.5014      5.4955      4.7029      4.1209      3.7328      3.6360      3.4764      3.4738      3.6274    
  3.9474      4.4516      5.1592      6.0814      7.2082      8.4966      9.8649      11.157      11.997      11.970    
  10.797      8.4558      5.2367      1.7214     -1.3394     -3.2279     -3.4804     -2.0411     0.71886      4.1273    
  7.4239      9.9743      11.415      11.697      11.046      9.8549      8.5253      7.2525      6.1257      5.1955    
  4.4774      3.9637      3.8181      3.5501      3.4429      3.4888      3.6900      4.0591      4.6147      5.3749    
  6.3469      7.5146      8.8278      10.199      11.447      12.184      12.030      10.764      8.4252      5.3558    
  2.1525     -.46961     -1.8795     -1.7298     -.73632E-01  2.6548      5.7861      8.6244      10.637      11.567    
  11.454      10.570      9.3137      8.0133      6.8011      5.7521      4.9039      4.2632      4.0665      3.6884    
  3.4773      3.4199      3.5111      3.7563      4.1695      4.7694      5.5723      6.5813      7.7747      9.0969    
  10.457      11.658      12.325      12.121      10.880      8.6954      5.9353      3.1800      1.0763     0.14587    
 0.61569      2.3418      4.8604      7.5431      9.7892      11.184      11.580      11.092      10.024      8.7495    
  7.4948      6.3559      5.3925      4.6296      4.3804      3.8925      3.5778      3.4199      3.4081      3.5405    
  3.8244      4.2750      4.9103      5.7442      6.7758      7.9787      9.2942      10.631      11.790      12.423    
  12.243      11.135      9.2287      6.8941      4.6668      3.1007      2.5973      3.2720      4.9162      7.0716    
  9.1827      10.764      11.524      11.416      10.614      9.4334      8.1790      6.9858      5.9307      5.0576    
  4.7563      4.1624      3.7454      3.4891      3.3793      3.4081      3.5762      3.8925      4.3723      5.0325    
  5.8843      6.9230      8.1190      9.4121      10.713      11.836      12.472      12.378      11.486      9.9426    
  8.0977      6.4191      5.3542      5.1859      5.9371      7.3648      9.0478      10.525      11.435      11.603    
  11.069      10.046      8.8307      7.6196      6.5021      5.5378      5.1874      4.4958      3.9802      3.6280    
  3.4239      3.3563      3.4199      3.6173      3.9584      4.4580      5.1315      5.9871      7.0171      8.1897    
  9.4452      10.699      11.791      12.454      12.492      11.865      10.725      9.3807      8.2182      7.5757    
  7.6303      8.3374      9.4498      10.607      11.453      11.747      11.418      10.570      9.4334      8.2372    
  7.0885      6.0574      5.6639      4.8877      4.2810      3.8370      3.5423      3.3834      3.3513      3.4430    
  3.6624      4.0198      4.5291      5.2035      6.0484      7.0539      8.1873      9.3911      10.587      11.646    
  12.349      12.538      12.194      11.453      10.574      9.8552      9.5325      9.6976      10.266      11.011    
  11.646      11.922      11.705      11.008      9.9766      8.8221      7.6725      6.6019      6.1742      5.3311    
  4.6447      4.1156      3.7347      3.4892      3.3680      3.3641      3.4765      3.7100      4.0746      4.5828    
  5.2454      6.0655      7.0314      8.1109      9.2501      10.378      11.398      12.139      12.476      12.397    
  12.017      11.533      11.162      11.052      11.233      11.605      11.979      12.147      11.959      11.369    
  10.450      9.3610      8.2382      7.1561      6.7059      5.8174      5.0665      4.4624      4.0016      3.6743    
  3.4692      3.3773      3.3939      3.5192      3.7585      4.1208      4.6170      5.2555      6.0373      6.9498    
  7.9625      9.0262      10.078      11.045      11.810      12.271      12.417      12.332      12.157      12.033    
  12.041      12.172      12.331      12.375      12.172      11.654      10.841      9.8399      8.7705      7.7055    
  7.2463      6.3370      5.5409      4.8753      4.3436      3.9403      3.6562      3.4820      3.4108      3.4398    
  3.5700      3.8064      4.1569      4.6304      5.2332      5.9647      6.8120      7.7473      8.7269      9.6966    
  10.599      11.364      11.911      12.226      12.360      12.402      12.434      12.489      12.539      12.506    
  12.295      11.840      11.134      10.241      9.2530      8.2348      7.7809      6.8793      6.0612      5.3515    
  4.7609      4.2898      3.9322      3.6804      3.5271      3.4678      3.5007      3.6274      3.8522      4.1816    
  4.6225      5.1793      5.8502      6.6231      7.4733      8.3635      9.2478      10.079      10.815      11.405    
  11.827      12.105      12.284      12.401      12.461      12.432      12.256      11.885      11.302      10.542    
  9.6656      8.7267      8.2923      7.4310      6.6189      5.8872      5.2538      4.7257      4.3019      3.9774    
  3.7463      3.6038      3.5470      3.5753      3.6900      3.8946      4.1942      4.5936      5.0958      5.6984    
  6.3906      7.1515      7.9499      8.7481      9.5073      10.195      10.786      11.260      11.616      11.869    
  12.027      12.080      11.997      11.747      11.315      10.716      9.9844      9.1600      8.7584      7.9746    