   2   2   0   0
  0.1576051E+02  0.3684427E-09  0.3684427E-09  0.3684427E-09  0.5000000E-15
  1.000000000000000E-004
  CAR 
 unknown system                          
     22.74982334     -6.62245425  301      8.71381694      1.00000000
     -6.622  0.0000E+00  0.0000E+00
     -6.525  0.0000E+00  0.0000E+00
     -6.427  0.0000E+00  0.0000E+00
     -6.329  0.0000E+00  0.0000E+00
     -6.231  0.0000E+00  0.0000E+00
     -6.133  0.0000E+00  0.0000E+00
     -6.035  0.0000E+00  0.0000E+00
     -5.937  0.0000E+00  0.0000E+00
     -5.839  0.0000E+00  0.0000E+00
     -5.741  0.1358E-16  0.1330E-17
     -5.643  0.2772E-14  0.2727E-15
     -5.545  0.3549E-12  0.3502E-13
     -5.448  0.2836E-10  0.2812E-11
     -5.350  0.1417E-08  0.1415E-09
     -5.252  0.4429E-07  0.4478E-08
     -5.154  0.8676E-06  0.8943E-07
     -5.056  0.1067E-04  0.1134E-05
     -4.958  0.8256E-04  0.9217E-05
     -4.860  0.4033E-03  0.4870E-04
     -4.762  0.1254E-02  0.1715E-03
     -4.664  0.2549E-02  0.4211E-03
     -4.566  0.3692E-02  0.7825E-03
     -4.468  0.4851E-02  0.1257E-02
     -4.371  0.7447E-02  0.1987E-02
     -4.273  0.1159E-01  0.3121E-02
     -4.175  0.1454E-01  0.4544E-02
     -4.077  0.1425E-01  0.5940E-02
     -3.979  0.1193E-01  0.7108E-02
     -3.881  0.9586E-02  0.8046E-02
     -3.783  0.8726E-02  0.8901E-02
     -3.685  0.1091E-01  0.9969E-02
     -3.587  0.1655E-01  0.1159E-01
     -3.489  0.2291E-01  0.1383E-01
     -3.392  0.2469E-01  0.1625E-01
     -3.294  0.2043E-01  0.1825E-01
     -3.196  0.1599E-01  0.1982E-01
     -3.098  0.1676E-01  0.2146E-01
     -3.000  0.2040E-01  0.2345E-01
     -2.902  0.2144E-01  0.2555E-01
     -2.804  0.1958E-01  0.2747E-01
     -2.706  0.1918E-01  0.2935E-01
     -2.608  0.2191E-01  0.3149E-01
     -2.510  0.2490E-01  0.3393E-01
     -2.412  0.2591E-01  0.3647E-01
     -2.315  0.2530E-01  0.3895E-01
     -2.217  0.2373E-01  0.4127E-01
     -2.119  0.2312E-01  0.4353E-01
     -2.021  0.2654E-01  0.4613E-01
     -1.923  0.3137E-01  0.4920E-01
     -1.825  0.3071E-01  0.5221E-01
     -1.727  0.2399E-01  0.5456E-01
     -1.629  0.1728E-01  0.5625E-01
     -1.531  0.1489E-01  0.5771E-01
     -1.433  0.1765E-01  0.5943E-01
     -1.335  0.2602E-01  0.6198E-01
     -1.238  0.3877E-01  0.6578E-01
     -1.140  0.4921E-01  0.7060E-01
     -1.042  0.5015E-01  0.7551E-01
     -0.944  0.4323E-01  0.7974E-01
     -0.846  0.3646E-01  0.8331E-01
     -0.748  0.3341E-01  0.8658E-01
     -0.650  0.3063E-01  0.8958E-01
     -0.552  0.2567E-01  0.9209E-01
     -0.454  0.2066E-01  0.9412E-01
     -0.356  0.1819E-01  0.9590E-01
     -0.258  0.1970E-01  0.9782E-01
     -0.161  0.2524E-01  0.1003E+00
     -0.063  0.3195E-01  0.1034E+00
      0.035  0.3619E-01  0.1070E+00
      0.133  0.3871E-01  0.1108E+00
      0.231  0.4258E-01  0.1149E+00
      0.329  0.4747E-01  0.1196E+00
      0.427  0.4977E-01  0.1244E+00
      0.525  0.4762E-01  0.1291E+00
      0.623  0.4368E-01  0.1334E+00
      0.721  0.4093E-01  0.1374E+00
      0.819  0.4086E-01  0.1414E+00
      0.916  0.4334E-01  0.1456E+00
      1.014  0.4506E-01  0.1500E+00
      1.112  0.4680E-01  0.1546E+00
      1.210  0.5331E-01  0.1599E+00
      1.308  0.5885E-01  0.1656E+00
      1.406  0.5173E-01  0.1707E+00
      1.504  0.3451E-01  0.1741E+00
      1.602  0.2060E-01  0.1761E+00
      1.700  0.1563E-01  0.1776E+00
      1.798  0.1548E-01  0.1791E+00
      1.896  0.1625E-01  0.1807E+00
      1.993  0.1979E-01  0.1826E+00
      2.091  0.2926E-01  0.1855E+00
      2.189  0.4181E-01  0.1896E+00
      2.287  0.5110E-01  0.1946E+00
      2.385  0.5372E-01  0.1999E+00
      2.483  0.5079E-01  0.2048E+00
      2.581  0.4703E-01  0.2094E+00
      2.679  0.4607E-01  0.2140E+00
      2.777  0.4689E-01  0.2185E+00
      2.875  0.4783E-01  0.2232E+00
      2.972  0.4895E-01  0.2280E+00
      3.070  0.4704E-01  0.2326E+00
      3.168  0.3756E-01  0.2363E+00
      3.266  0.2537E-01  0.2388E+00
      3.364  0.2108E-01  0.2409E+00
      3.462  0.2645E-01  0.2434E+00
      3.560  0.3355E-01  0.2467E+00
      3.658  0.3608E-01  0.2503E+00
      3.756  0.3448E-01  0.2536E+00
      3.854  0.3253E-01  0.2568E+00
      3.952  0.3498E-01  0.2602E+00
      4.049  0.4627E-01  0.2648E+00
      4.147  0.6483E-01  0.2711E+00
      4.245  0.7905E-01  0.2789E+00
      4.343  0.7951E-01  0.2866E+00
      4.441  0.7177E-01  0.2937E+00
      4.539  0.6417E-01  0.3000E+00
      4.637  0.5581E-01  0.3054E+00
      4.735  0.4622E-01  0.3099E+00
      4.833  0.4055E-01  0.3139E+00
      4.931  0.4128E-01  0.3180E+00
      5.029  0.4326E-01  0.3222E+00
      5.126  0.4030E-01  0.3261E+00
      5.224  0.3530E-01  0.3296E+00
      5.322  0.3709E-01  0.3332E+00
      5.420  0.4761E-01  0.3379E+00
      5.518  0.5919E-01  0.3437E+00
      5.616  0.6390E-01  0.3499E+00
      5.714  0.6344E-01  0.3562E+00
      5.812  0.6582E-01  0.3626E+00
      5.910  0.6963E-01  0.3694E+00
      6.008  0.6627E-01  0.3759E+00
      6.106  0.5646E-01  0.3814E+00
      6.203  0.4825E-01  0.3862E+00
      6.301  0.4678E-01  0.3907E+00
      6.399  0.5235E-01  0.3959E+00
      6.497  0.6003E-01  0.4017E+00
      6.595  0.6275E-01  0.4079E+00
      6.693  0.5918E-01  0.4137E+00
      6.791  0.5562E-01  0.4191E+00
      6.889  0.5952E-01  0.4249E+00
      6.987  0.7040E-01  0.4318E+00
      7.085  0.8094E-01  0.4398E+00
      7.183  0.8800E-01  0.4484E+00
      7.280  0.9114E-01  0.4573E+00
      7.378  0.8713E-01  0.4658E+00
      7.476  0.7688E-01  0.4734E+00
      7.574  0.6525E-01  0.4797E+00
      7.672  0.5453E-01  0.4851E+00
      7.770  0.4667E-01  0.4897E+00
      7.868  0.4278E-01  0.4938E+00
      7.966  0.4077E-01  0.4978E+00
      8.064  0.3972E-01  0.5017E+00
      8.162  0.4081E-01  0.5057E+00
      8.259  0.4318E-01  0.5099E+00
      8.357  0.4381E-01  0.5142E+00
      8.455  0.4362E-01  0.5185E+00
      8.553  0.4868E-01  0.5233E+00
      8.651  0.5979E-01  0.5291E+00
      8.749  0.6731E-01  0.5357E+00
      8.847  0.6287E-01  0.5419E+00
      8.945  0.5309E-01  0.5471E+00
      9.043  0.5294E-01  0.5523E+00
      9.141  0.6191E-01  0.5583E+00
      9.239  0.6104E-01  0.5643E+00
      9.336  0.4283E-01  0.5685E+00
      9.434  0.2273E-01  0.5707E+00
      9.532  0.1541E-01  0.5722E+00
      9.630  0.2058E-01  0.5742E+00
      9.728  0.3017E-01  0.5772E+00
      9.826  0.3729E-01  0.5808E+00
      9.924  0.4106E-01  0.5849E+00
     10.022  0.4468E-01  0.5892E+00
     10.120  0.4825E-01  0.5940E+00
     10.218  0.4818E-01  0.5987E+00
     10.316  0.4568E-01  0.6031E+00
     10.413  0.4742E-01  0.6078E+00
     10.511  0.5678E-01  0.6133E+00
     10.609  0.6924E-01  0.6201E+00
     10.707  0.7604E-01  0.6276E+00
     10.805  0.7523E-01  0.6349E+00
     10.903  0.7355E-01  0.6421E+00
     11.001  0.7248E-01  0.6492E+00
     11.099  0.6670E-01  0.6558E+00
     11.197  0.5766E-01  0.6614E+00
     11.295  0.5637E-01  0.6669E+00
     11.393  0.6988E-01  0.6738E+00
     11.490  0.9067E-01  0.6827E+00
     11.588  0.1058E+00  0.6930E+00
     11.686  0.1092E+00  0.7037E+00
     11.784  0.1003E+00  0.7135E+00
     11.882  0.8115E-01  0.7215E+00
     11.980  0.5876E-01  0.7272E+00
     12.078  0.4234E-01  0.7314E+00
     12.176  0.3392E-01  0.7347E+00
     12.274  0.2904E-01  0.7375E+00
     12.372  0.2937E-01  0.7404E+00
     12.470  0.4210E-01  0.7445E+00
     12.567  0.6345E-01  0.7507E+00
     12.665  0.7797E-01  0.7584E+00
     12.763  0.7759E-01  0.7660E+00
     12.861  0.7082E-01  0.7729E+00
     12.959  0.6871E-01  0.7796E+00
     13.057  0.6998E-01  0.7865E+00
     13.155  0.6659E-01  0.7930E+00
     13.253  0.5719E-01  0.7986E+00
     13.351  0.4807E-01  0.8033E+00
     13.449  0.4648E-01  0.8078E+00
     13.547  0.5870E-01  0.8136E+00
     13.644  0.8441E-01  0.8219E+00
     13.742  0.1077E+00  0.8324E+00
     13.840  0.1124E+00  0.8434E+00
     13.938  0.1036E+00  0.8536E+00
     14.036  0.9395E-01  0.8628E+00
     14.134  0.8415E-01  0.8710E+00
     14.232  0.7098E-01  0.8780E+00
     14.330  0.5799E-01  0.8836E+00
     14.428  0.5233E-01  0.8888E+00
     14.526  0.5690E-01  0.8943E+00
     14.623  0.6698E-01  0.9009E+00
     14.721  0.7462E-01  0.9082E+00
     14.819  0.7498E-01  0.9155E+00
     14.917  0.6840E-01  0.9222E+00
     15.015  0.6017E-01  0.9281E+00
     15.113  0.5630E-01  0.9336E+00
     15.211  0.5762E-01  0.9393E+00
     15.309  0.6131E-01  0.9453E+00
     15.407  0.6334E-01  0.9515E+00
     15.505  0.6006E-01  0.9574E+00
     15.603  0.5368E-01  0.9626E+00
     15.700  0.4754E-01  0.9673E+00
     15.798  0.4052E-01  0.9712E+00
     15.896  0.3371E-01  0.9745E+00
     15.994  0.3086E-01  0.9776E+00
     16.092  0.3217E-01  0.9807E+00
     16.190  0.3461E-01  0.9841E+00
     16.288  0.3807E-01  0.9878E+00
     16.386  0.4619E-01  0.9923E+00
     16.484  0.5773E-01  0.9980E+00
     16.582  0.6586E-01  0.1004E+01
     16.680  0.6759E-01  0.1011E+01
     16.777  0.6321E-01  0.1017E+01
     16.875  0.5283E-01  0.1022E+01
     16.973  0.3931E-01  0.1026E+01
     17.071  0.2652E-01  0.1029E+01
     17.169  0.1716E-01  0.1031E+01
     17.267  0.1282E-01  0.1032E+01
     17.365  0.1246E-01  0.1033E+01
     17.463  0.1391E-01  0.1034E+01
     17.561  0.1691E-01  0.1036E+01
     17.659  0.2296E-01  0.1038E+01
     17.757  0.3190E-01  0.1041E+01
     17.854  0.3853E-01  0.1045E+01
     17.952  0.3702E-01  0.1049E+01
     18.050  0.2826E-01  0.1052E+01
     18.148  0.1799E-01  0.1053E+01
     18.246  0.1014E-01  0.1054E+01
     18.344  0.5247E-02  0.1055E+01
     18.442  0.2561E-02  0.1055E+01
     18.540  0.1601E-02  0.1055E+01
     18.638  0.2634E-02  0.1056E+01
     18.736  0.5851E-02  0.1056E+01
     18.834  0.9973E-02  0.1057E+01
     18.931  0.1267E-01  0.1058E+01
     19.029  0.1261E-01  0.1060E+01
     19.127  0.1001E-01  0.1061E+01
     19.225  0.6106E-02  0.1061E+01
     19.323  0.2802E-02  0.1061E+01
     19.421  0.1536E-02  0.1062E+01
     19.519  0.2513E-02  0.1062E+01
     19.617  0.4707E-02  0.1062E+01
     19.715  0.6035E-02  0.1063E+01
     19.813  0.5465E-02  0.1063E+01
     19.911  0.4347E-02  0.1064E+01
     20.008  0.3808E-02  0.1064E+01
     20.106  0.3518E-02  0.1065E+01
     20.204  0.3366E-02  0.1065E+01
     20.302  0.3283E-02  0.1065E+01
     20.400  0.2689E-02  0.1065E+01
     20.498  0.1791E-02  0.1066E+01
     20.596  0.1604E-02  0.1066E+01
     20.694  0.2334E-02  0.1066E+01
     20.792  0.2896E-02  0.1066E+01
     20.890  0.2365E-02  0.1066E+01
     20.987  0.1225E-02  0.1067E+01
     21.085  0.4001E-03  0.1067E+01
     21.183  0.8233E-04  0.1067E+01
     21.281  0.1066E-04  0.1067E+01
     21.379  0.8673E-06  0.1067E+01
     21.477  0.4428E-07  0.1067E+01
     21.575  0.1417E-08  0.1067E+01
     21.673  0.2836E-10  0.1067E+01
     21.771  0.3548E-12  0.1067E+01
     21.869  0.2771E-14  0.1067E+01
     21.967  0.1417E-16  0.1067E+01
     22.064  0.0000E+00  0.1067E+01
     22.162  0.0000E+00  0.1067E+01
     22.260  0.0000E+00  0.1067E+01
     22.358  0.0000E+00  0.1067E+01
     22.456  0.0000E+00  0.1067E+01
     22.554  0.0000E+00  0.1067E+01
     22.652  0.0000E+00  0.1067E+01
     22.750  0.0000E+00  0.1067E+01
