unknown system                          
           1
    -2.427674    2.427674    1.337087
     2.427674   -2.427674    1.337087
     2.427674    2.427674   -1.337087
   Si
   2
Direct configuration=     1
   0.75000000  0.25000000  0.50000000
   0.50000000  0.50000000  0.00000000
