unknown system                          
   1.00000000000000     
    -2.450000    2.450000    1.274000
     2.450000   -2.450000    1.274000
     2.450000    2.450000   -1.274000
   Si
     2
Direct
  0.250000  0.750000  0.500000
  0.000000  0.000000  0.000000
 
   36   36   36
 -5.2509     -4.3222     -1.7713      1.7782      5.5195      8.7033      10.825      11.707      11.483      10.504    
  9.2091      7.9055      6.7103      5.6913      4.8786      4.2736      3.8618      3.6246      3.5473      3.6246    
  3.8618      4.2736      4.8786      5.6913      6.7103      7.9055      9.2091      10.504      11.483      11.707    
  10.825      8.7033      5.5195      1.7782     -1.7713     -4.3223     -4.3223     -4.8063     -3.4803     -.68155    
  2.9110      6.4967      9.3842      11.152      11.707      11.243      10.144      8.8329      7.5537      6.4038    
  5.4407      4.6862      4.1363      3.7744      3.5823      3.5472      3.6664      3.9476      4.4069      5.0627    
  5.9267      6.9919      8.2202      9.5353      10.797      11.649      11.664      10.532      8.1867      4.8790    
  1.1762     -2.1489     -1.7713     -3.4803     -3.5220     -1.8905     0.99673      4.4420      7.6889      10.132    
  11.449      11.631      10.924      9.7253      8.4188      7.1769      6.0832      5.1839      4.4922      3.9996    
  3.6882      3.5408      3.5469      3.7063      4.0289      4.5316      5.2318      6.1382      7.2382      8.4866    
  9.8009      11.016      11.754      11.613      10.331      7.9083      4.6560      1.1762      1.7782     -.68155    
 -1.8905     -1.5402     0.27156      3.0767      6.1962      8.9510      10.843      11.653      11.452      10.525    
  9.2658      7.9802      6.7880      5.7595      4.9294      4.3030      3.8679      3.6061      3.5016      3.5466    
  3.7432      4.1030      4.6431      5.3797      6.3179      7.4400      8.6952      9.9970      11.162      11.811    
  11.579      10.260      7.9083      4.8790      5.5195      2.9110     0.99673     0.27156     0.92419      2.7736    
  5.3346      7.9813      10.136      11.419      11.715      11.158      10.059      8.7810      7.5309      6.3995    
  5.4432      4.6853      4.1243      3.7453      3.5304      3.4659      3.5463      3.7760      4.1674      4.7376    
  5.5009      6.4590      7.5898      8.8386      10.117      11.234      11.829      11.579      10.331      8.1867    
  8.7033      6.4967      4.4420      3.0767      2.7736      3.6135      5.3594      7.5419      9.6151      11.118    
  11.790      11.606      10.755      9.5510      8.2854      7.0850      6.0237      5.1439      4.4586      3.9611    
  3.6349      3.4634      3.4349      3.5463      3.8036      4.2200      4.8116      5.5908      6.5561      7.6819    
  8.9116      10.157      11.234      11.811      11.613      10.532      10.825      9.3842      7.6889      6.1962    
  5.3346      5.3594      6.2639      7.7850      9.4968      10.951      11.808      11.915      11.329      10.269    
  9.0279      7.7947      6.6565      5.6717      4.8697      4.2552      3.8174      3.5397      3.4068      3.4095    
  3.5466      3.8253      4.2589      4.8625      5.6462      6.6056      7.7130      8.9116      10.117      11.162    
  11.754      11.664      11.707      11.152      10.132      8.9510      7.9813      7.5419      7.7850      8.6419    
  9.8508      11.050      11.896      12.164      11.798      10.913      9.7404      8.5088      7.3247      6.2582    
  5.3531      4.6276      4.0797      3.6964      3.4615      3.3618      3.3901      3.5469      3.8402      4.2828    
  4.8884      5.6648      6.6056      7.6819      8.8386      9.9970      11.016      11.649      11.483      11.707    
  11.449      10.843      10.136      9.6151      9.4968      9.8508      10.573      11.425      12.121      12.419    
  12.197      11.476      10.409      9.2103      8.0122      6.8909      5.9019      5.0762      4.4229      3.9356    
  3.6003      3.4019      3.3292      3.3771      3.5472      3.8477      4.2908      4.8884      5.6462      6.5561    
  7.5898      8.6952      9.8009      10.797      10.504      11.243      11.631      11.653      11.419      11.118    
  10.951      11.050      11.425      11.960      12.455      12.701      12.550      11.964      11.020      9.8845    
  8.7035      7.5569      6.5074      5.5975      4.8475      4.2599      3.8256      3.5306      3.3617      3.3096    
  3.3706      3.5473      3.8477      4.2828      4.8625      5.5908      6.4590      7.4400      8.4866      9.5353    
  9.2091      10.144      10.924      11.452      11.715      11.790      11.808      11.896      12.121      12.455    
  12.786      12.962      12.845      12.368      11.553      10.514      9.3826      8.2424      7.1600      6.1864    
  5.3529      4.6720      4.1416      3.7514      3.4885      3.3415      3.3030      3.3706      3.5472      3.8402    
  4.2589      4.8116      5.5009      6.3179      7.2382      8.2202      7.9055      8.8329      9.7253      10.525    
  11.158      11.606      11.915      12.164      12.419      12.701      12.962      13.107      13.031      12.660    
  11.985      11.073      10.029      8.9310      7.8477      6.8363      5.9376      5.1743      4.5531      4.0698    
  3.7140      3.4744      3.3415      3.3096      3.3771      3.5469      3.8253      4.2200      4.7376      5.3797    
  6.1382      6.9919      6.7103      7.5537      8.4188      9.2658      10.059      10.755      11.329      11.798    
  12.197      12.550      12.845      13.031      13.035      12.793      12.280      11.529      10.614      9.6001    
  8.5540      7.5368      6.5972      5.7680      5.0655      4.4932      4.0458      3.7140      3.4885      3.3617    
  3.3292      3.3901      3.5466      3.8036      4.1674      4.6431      5.2318      5.9267      5.6913      6.4038    
  7.1769      7.9802      8.7810      9.5510      10.269      10.913      11.476      11.964      12.368      12.660    
  12.793      12.714      12.395      11.843      11.101      10.218      9.2544      8.2709      7.3224      6.4507    
  5.6821      5.0290      4.4932      4.0698      3.7514      3.5306      3.4019      3.3618      3.4095      3.5463    
  3.7760      4.1030      4.5316      5.0627      4.8786      5.4407      6.0831      6.7880      7.5309      8.2854    
  9.0279      9.7404      10.409      11.020      11.553      11.985      12.280      12.395      12.297      11.979    
  11.451      10.747      9.9153      9.0125      8.0956      7.2132      6.4013      5.6821      5.0655      4.5531    
  4.1416      3.8256      3.6003      3.4615      3.4068      3.4349      3.5463      3.7432      4.0289      4.4069    
  4.2736      4.6862      5.1839      5.7595      6.3995      7.0850      7.7947      8.5088      9.2103      9.8845    
  10.514      11.073      11.529      11.843      11.979      11.910      11.627      11.145      10.495      9.7252    
  8.8881      8.0363      7.2132      6.4507      5.7680      5.1743      4.6720      4.2599      3.9356      3.6964    
  3.5397      3.4634      3.4659      3.5466      3.7063      3.9476      3.8618      4.1363      4.4922      4.9294    
  5.4432      6.0237      6.6565      7.3247      8.0122      8.7035      9.3826      10.029      10.614      11.101    
  11.451      11.627      11.604      11.374      10.951      10.365      9.6604      8.8881      8.0956      7.3224    
  6.5972      5.9376      5.3529      4.8475      4.4229      4.0797      3.8174      3.6349      3.5304      3.5016    
  3.5469      3.6664      3.6246      3.7744      3.9996      4.3030      4.6853      5.1439      5.6717      6.2582    
  6.8909      7.5569      8.2424      8.9310      9.6001      10.218      10.747      11.145      11.374      11.410    
  11.242      10.884      10.365      9.7252      9.0125      8.2709      7.5368      6.8363      6.1864      5.5975    
  5.0762      4.6276      4.2552      3.9611      3.7453      3.6061      3.5408      3.5472      3.5473      3.5823    
  3.6882      3.8679      4.1243      4.4586      4.8697      5.3531      5.9019      6.5074      7.1600      7.8477    
  8.5540      9.2544      9.9153      10.495      10.951      11.242      11.343      11.242      10.951      10.495    
  9.9153      9.2544      8.5540      7.8477      7.1600      6.5074      5.9019      5.3531      4.8697      4.4586    
  4.1243      3.8679      3.6882      3.5823      3.6246      3.5472      3.5408      3.6060      3.7453      3.9611    
  4.2552      4.6276      5.0762      5.5975      6.1864      6.8363      7.5368      8.2709      9.0125      9.7252    
  10.365      10.884      11.242      11.410      11.374      11.145      10.747      10.218      9.6001      8.9310    
  8.2424      7.5569      6.8909      6.2582      5.6717      5.1439      4.6853      4.3030      3.9996      3.7744    
  3.8618      3.6664      3.5469      3.5016      3.5304      3.6349      3.8174      4.0797      4.4229      4.8475    
  5.3529      5.9376      6.5972      7.3224      8.0956      8.8881      9.6604      10.365      10.951      11.374    
  11.604      11.627      11.451      11.101      10.614      10.029      9.3826      8.7035      8.0122      7.3247    
  6.6565      6.0237      5.4432      4.9294      4.4922      4.1363      4.2736      3.9476      3.7063      3.5465    
  3.4659      3.4634      3.5397      3.6964      3.9356      4.2599      4.6720      5.1743      5.7680      6.4507    
  7.2132      8.0363      8.8881      9.7252      10.495      11.145      11.627      11.910      11.979      11.843    
  11.529      11.073      10.514      9.8845      9.2103      8.5088      7.7947      7.0850      6.3995      5.7595    
  5.1839      4.6862      4.8786      4.4069      4.0289      3.7432      3.5463      3.4349      3.4068      3.4615    
  3.6003      3.8256      4.1416      4.5531      5.0655      5.6821      6.4013      7.2132      8.0956      9.0125    
  9.9153      10.747      11.451      11.979      12.297      12.395      12.280      11.985      11.553      11.020    
  10.409      9.7404      9.0279      8.2854      7.5309      6.7880      6.0832      5.4407      5.6913      5.0627    
  4.5316      4.1030      3.7760      3.5463      3.4095      3.3618      3.4019      3.5306      3.7514      4.0698    
  4.4932      5.0290      5.6821      6.4507      7.3224      8.2709      9.2544      10.218      11.101      11.843    
  12.395      12.714      12.793      12.660      12.368      11.964      11.476      10.913      10.269      9.5510    
  8.7810      7.9802      7.1769      6.4038      6.7103      5.9267      5.2318      4.6431      4.1674      3.8036    
  3.5466      3.3901      3.3292      3.3617      3.4885      3.7140      4.0458      4.4932      5.0655      5.7680    
  6.5972      7.5368      8.5540      9.6001      10.614      11.529      12.280      12.793      13.035      13.031    
  12.845      12.550      12.197      11.798      11.329      10.755      10.059      9.2658      8.4188      7.5537    
  7.9055      6.9919      6.1382      5.3797      4.7376      4.2200      3.8253      3.5469      3.3771      3.3096    
  3.3415      3.4744      3.7140      4.0698      4.5531      5.1743      5.9376      6.8363      7.8477      8.9310    
  10.029      11.073      11.985      12.660      13.031      13.107      12.962      12.701      12.419      12.164    
  11.915      11.606      11.158      10.525      9.7253      8.8329      9.2091      8.2202      7.2382      6.3179    
  5.5009      4.8117      4.2589      3.8402      3.5472      3.3706      3.3030      3.3415      3.4885      3.7514    
  4.1416      4.6720      5.3529      6.1864      7.1600      8.2424      9.3826      10.514      11.553      12.368    
  12.845      12.962      12.786      12.455      12.121      11.896      11.808      11.790      11.715      11.452    
  10.924      10.144      10.504      9.5353      8.4866      7.4400      6.4590      5.5908      4.8625      4.2828    
  3.8478      3.5474      3.3706      3.3096      3.3617      3.5306      3.8256      4.2599      4.8475      5.5975    
  6.5074      7.5569      8.7035      9.8845      11.020      11.964      12.550      12.701      12.455      11.960    
  11.425      11.050      10.951      11.118      11.419      11.653      11.631      11.243      11.483      10.797    
  9.8009      8.6952      7.5898      6.5561      5.6462      4.8884      4.2908      3.8478      3.5472      3.3771    
  3.3292      3.4019      3.6003      3.9356      4.4229      5.0762      5.9019      6.8909      8.0122      9.2103    
  10.409      11.476      12.197      12.419      12.121      11.425      10.573      9.8508      9.4968      9.6151    
  10.136      10.843      11.449      11.707      11.707      11.649      11.016      9.9970      8.8386      7.6819    
  6.6056      5.6648      4.8884      4.2828      3.8402      3.5469      3.3901      3.3618      3.4615      3.6964    
  4.0797      4.6276      5.3531      6.2582      7.3247      8.5088      9.7404      10.913      11.798      12.164    
  11.896      11.050      9.8508      8.6419      7.7850      7.5419      7.9813      8.9510      10.132      11.152    
  10.825      11.664      11.754      11.162      10.117      8.9116      7.7130      6.6056      5.6462      4.8625    
  4.2589      3.8253      3.5466      3.4095      3.4068      3.5397      3.8174      4.2552      4.8697      5.6717    
  6.6565      7.7947      9.0279      10.269      11.329      11.915      11.808      10.951      9.4968      7.7850    
  6.2639      5.3594      5.3346      6.1962      7.6889      9.3842      8.7033      10.532      11.613      11.811    
  11.234      10.157      8.9116      7.6819      6.5561      5.5908      4.8117      4.2200      3.8036      3.5463    
  3.4349      3.4634      3.6349      3.9611      4.4586      5.1439      6.0237      7.0850      8.2854      9.5510    
  10.755      11.606      11.790      11.118      9.6151      7.5419      5.3594      3.6135      2.7736      3.0767    
  4.4420      6.4967      5.5195      8.1867      10.331      11.579      11.829      11.234      10.117      8.8386    
  7.5898      6.4590      5.5009      4.7376      4.1674      3.7760      3.5463      3.4659      3.5304      3.7453    
  4.1243      4.6853      5.4432      6.3995      7.5309      8.7810      10.059      11.158      11.715      11.419    
  10.136      7.9813      5.3346      2.7736     0.92419     0.27156     0.99673      2.9110      1.7782      4.8789    
  7.9083      10.260      11.579      11.811      11.162      9.9970      8.6952      7.4400      6.3179      5.3797    
  4.6431      4.1030      3.7432      3.5465      3.5016      3.6060      3.8679      4.3030      4.9294      5.7595    
  6.7880      7.9802      9.2658      10.525      11.452      11.653      10.843      8.9510      6.1962      3.0767    
 0.27156     -1.5402     -1.8905     -.68155     -1.7713      1.1762      4.6560      7.9083      10.331      11.613    
  11.754      11.016      9.8009      8.4866      7.2382      6.1382      5.2318      4.5316      4.0289      3.7063    
  3.5469      3.5408      3.6882      3.9996      4.4922      5.1839      6.0831      7.1769      8.4188      9.7253    
  10.924      11.631      11.449      10.132      7.6889      4.4420     0.99673     -1.8905     -3.5220     -3.4803    
 -4.3222     -2.1489      1.1762      4.8789      8.1867      10.532      11.664      11.649      10.797      9.5353    
  8.2202      6.9919      5.9267      5.0627      4.4069      3.9476      3.6664      3.5472      3.5823      3.7744    
  4.1363      4.6862      5.4407      6.4038      7.5537      8.8329      10.144      11.243      11.707      11.152    
  9.3842      6.4967      2.9110     -.68155     -3.4803     -4.8063     -4.3223     -3.6334     -1.3675      1.9178    
  5.4647      8.5430      10.638      11.545      11.363      10.419      9.1358      7.8322      6.6300      5.5992    
  4.7722      4.1517      3.7234      3.4682      3.3705      3.4237      3.6317      4.0083      4.5722      5.3401    
  6.3144      7.4711      8.7494      10.047      11.102      11.491      10.856      9.0355      6.1593      2.6758    
 -.72133     -3.2613     -3.6334     -4.3223     -3.2613     -.72134      2.6758      6.1593      9.0354      10.856    
  11.491      11.102      10.047      8.7494      7.4711      6.3144      5.3401      4.5722      4.0083      3.6317    
  3.4237      3.3705      3.4682      3.7234      4.1517      4.7722      5.5992      6.6300      7.8322      9.1358    
  10.419      11.363      11.545      10.638      8.5430      5.4647      1.9178     -1.3675     -1.2968     -3.1856    
 -3.4803     -2.1116     0.56678      3.8995      7.1387      9.6574      11.093      11.394      10.778      9.6254    
  8.3313      7.0900      5.9894      5.0793      4.3756      3.8707      3.5469      3.3861      3.3771      3.5184    
  3.8193      4.2965      4.9690      5.8480      6.9255      8.1614      9.4787      10.733      11.571      11.585    
  10.494      8.2587      5.1475      1.7179      2.1016     -.51662     -1.9684     -1.8905     -.31360      2.3491    
  5.4425      8.2754      10.312      11.286      11.225      10.390      9.1687      7.8939      6.7012      5.6655    
  4.8253      4.1883      3.7432      3.4714      3.3567      3.3901      3.5730      3.9165      4.4382      5.1560    
  6.0779      7.1905      8.4476      9.7669      10.984      11.734      11.637      10.464      8.2304      5.2519    
  5.7675      3.0247     0.88431     -.11749     0.27154      1.9342      4.4261      7.1255      9.4261      10.899    
  11.379      10.963      9.9440      8.6923      7.4501      6.3165      5.3527      4.5857      4.0159      3.6293    
  3.4076      3.3364      3.4095      3.6305      4.0122      4.5722      5.3268      6.2807      7.4155      8.6804    
  9.9903      11.169      11.857      11.716      10.565      8.4684      8.9435      6.6319      4.3797      2.7490    
  2.1650      2.7736      4.3920      6.5748      8.7629      10.454      11.334      11.332      10.605      9.4570    
  8.2091      7.0128      5.9474      5.0600      4.3670      3.8630      3.5321      3.3572      3.3260      3.4349    
  3.6895      4.1034      4.6939      5.4753      6.4489      7.5922      8.8513      10.141      11.283      11.943    
  11.823      10.789      11.104      9.5925      7.7394      6.0116      4.8739      4.6388      5.3594      6.8132    
  8.5816      10.190      11.250      11.559      11.131      10.163      8.9545      7.7325      6.5944      5.6042    
  4.7952      4.1747      3.7332      3.4540      3.3215      3.3260      3.4659      3.7484      4.1873      4.7993    
  5.5962      6.5761      7.7136      8.9534      10.212      11.323      11.984      11.942      12.048      11.458    
  10.327      8.9566      7.7397      7.0380      7.0594      7.7850      8.9785      10.271      11.285      11.747    
  11.554      10.788      9.6699      8.4557      7.2765      6.2070      5.2959      4.5646      4.0132      3.6293    
  3.3966      3.3015      3.3364      3.5016      3.8053      4.2612      4.8845      5.6848      6.6574      7.7747    
  8.9820      10.200      11.284      11.970      11.886      12.108      11.788      11.047      10.142      9.3828    
  9.0332      9.2116      9.8508      10.724      11.529      11.985      11.926      11.335      10.342      9.1664    
  7.9768      6.8551      5.8613      5.0301      4.3733      3.8856      3.5532      3.3610      3.2973      3.3567    
  3.5408      3.8584      4.3225      4.9466      5.7377      6.6891      7.7725      8.9353      10.104      11.160    
  10.951      11.718      12.088      12.033      11.658      11.164      10.785      10.692      10.936      11.425    
  11.960      12.309      12.288      11.821      10.956      9.8509      8.6798      7.5346      6.4815      5.5666    
  4.8130      4.2250      3.7939      3.5060      3.3475      3.3088      3.3861      3.5823      3.9058      4.3689    
  4.9829      5.7526      6.6697      7.7065      8.8140      9.9257      9.6710      10.656      11.457      11.959    
  12.140      12.079      11.925      11.833      11.907      12.147      12.455      12.671      12.636      12.248    
  11.502      10.493      9.3698      8.2311      7.1457      6.1675      5.3306      4.6492      4.1223      3.7397    
  3.4882      3.3560      3.3353      3.4237      3.6246      3.9460      4.3987      4.9918      5.7284      6.5994    
  7.5787      8.6221      8.3665      9.3484      10.285      11.100      11.705      12.076      12.264      12.365    
  12.475      12.639      12.831      12.962      12.913      12.591      11.960      11.068      10.026      8.9276    
  7.8407      6.8248      5.9229      5.1594      4.5422      4.0670      3.7236      3.4999      3.3860      3.3759    
  3.4682      3.6664      3.9775      4.4106      4.9729      5.6659      6.4807      7.3938      7.1588      8.0566    
  8.9692      9.8508      10.657      11.327      11.833      12.199      12.478      12.715      12.918      13.048    
  13.031      12.794      12.293      11.544      10.621      9.6012      8.5493      7.5268      6.5841      5.7551    
  5.0572      4.4940      4.0601      3.7457      3.5406      3.4367      3.4296      3.5184      3.7063      3.9992    
  4.4041      4.9266      5.5673      6.3181      6.1181      6.8829      7.7041      8.5465      9.3725      10.149    
  10.845      11.432      11.912      12.302      12.611      12.826      12.904      12.793      12.452      11.879    
  11.117      10.221      9.2465      8.2559      7.3038      6.4326      5.6693      5.0266      4.5059      4.1017    
  3.8056      3.6094      3.5070      3.4950      3.5730      3.7432      4.0102      4.3792      4.8546      5.4365    
  5.2786      5.8886      6.5769      7.3219      8.0951      8.8657      9.6060      10.296      10.918      11.459    
  11.912      12.263      12.485      12.541      12.395      12.034      11.474      10.747      9.8988      8.9857    
  8.0639      7.1821      6.3763      5.6687      5.0692      4.5782      4.1914      3.9024      3.7053      3.5956    
  3.5708      3.6305      3.7760      4.0102      4.3370      4.7596      4.6455      5.0999      5.6387      6.2522    
  6.9237      7.6305      8.3475      9.0518      9.7250      10.353      10.920      11.408      11.790      12.032    
  12.103      11.979      11.653      11.138      10.465      9.6801      8.8361      7.9842      7.1677      6.4182    
  5.7543      5.1845      4.7099      4.3279      4.0346      3.8264      3.7006      3.6553      3.6895      3.8036    
  3.9992      4.2789      4.2071      4.5166      4.9074      5.3777      5.9206      6.5234      7.1683      7.8355    
  8.5062      9.1641      9.7942      10.379      10.894      11.310      11.590      11.704      11.627      11.356    
  10.901      10.295      9.5813      8.8079      8.0221      7.2630      6.5583      5.9249      5.3710      4.8990    
  4.5090      4.1999      3.9707      3.8200      3.7463      3.7484      3.8252      3.9775      3.9460      4.1244    
  4.3778      4.7081      5.1148      5.5932      6.1339      6.7235      7.3471      7.9896      8.6369      9.2738    
  9.8805      10.430      10.889      11.220      11.389      11.374      11.169      10.786      10.253      9.6106    
  8.9046      8.1779      7.4659      6.7937      6.1771      5.6249      5.1419      4.7313      4.3953      4.1352    
  3.9510      3.8417      3.8052      3.8401      3.8477      3.9058      4.0338      4.2341      4.5089      4.8585    
  5.2801      5.7671      6.3102      6.8986      7.5212      8.1658      8.8174      9.4542      10.047      10.558    
  10.950      11.186      11.242      11.111      10.802      10.342      9.7684      9.1234      8.4466      7.7704    
  7.1180      6.5047      5.9406      5.4336      4.9904      4.6166      4.3161      4.0903      3.9385      3.8584    
  3.9059      3.8477      3.8583      3.9385      4.0903      4.3161      4.6166      4.9904      5.4336      5.9406    
  6.5047      7.1180      7.7704      8.4466      9.1234      9.7684      10.342      10.802      11.111      11.242    
  11.186      10.950      10.558      10.047      9.4542      8.8174      8.1658      7.5212      6.8986      6.3102    
  5.7672      5.2801      4.8585      4.5089      4.2341      4.0338      4.1244      3.9461      3.8402      3.8052    
  3.8417      3.9510      4.1352      4.3953      4.7313      5.1419      5.6249      6.1771      6.7937      7.4659    
  8.1779      8.9046      9.6106      10.253      10.786      11.169      11.374      11.389      11.220      10.889    
  10.430      9.8805      9.2738      8.6369      7.9896      7.3471      6.7235      6.1339      5.5932      5.1148    
  4.7081      4.3778      4.5166      4.2071      3.9775      3.8253      3.7484      3.7463      3.8200      3.9707    
  4.1999      4.5090      4.8990      5.3710      5.9249      6.5583      7.2630      8.0221      8.8079      9.5813    
  10.295      10.901      11.356      11.627      11.704      11.590      11.310      10.894      10.379      9.7942    
  9.1641      8.5062      7.8355      7.1683      6.5234      5.9206      5.3777      4.9073      5.0999      4.6455    
  4.2789      3.9992      3.8036      3.6895      3.6553      3.7006      3.8264      4.0346      4.3279      4.7099    
  5.1845      5.7543      6.4182      7.1677      7.9842      8.8361      9.6801      10.465      11.138      11.653    
  11.979      12.103      12.032      11.790      11.408      10.920      10.353      9.7250      9.0518      8.3475    
  7.6305      6.9237      6.2523      5.6387      5.8886      5.2786      4.7596      4.3370      4.0102      3.7760    
  3.6305      3.5708      3.5956      3.7053      3.9024      4.1914      4.5782      5.0692      5.6687      6.3763    
  7.1821      8.0639      8.9857      9.8987      10.747      11.474      12.034      12.395      12.541      12.485    
  12.263      11.912      11.459      10.918      10.296      9.6061      8.8657      8.0951      7.3219      6.5769    
  6.8829      6.1181      5.4365      4.8546      4.3792      4.0102      3.7432      3.5730      3.4950      3.5070    
  3.6094      3.8056      4.1017      4.5059      5.0267      5.6693      6.4326      7.3038      8.2559      9.2465    
  10.221      11.117      11.879      12.452      12.793      12.904      12.826      12.611      12.302      11.912    
  11.432      10.845      10.149      9.3725      8.5465      7.7041      8.0566      7.1588      6.3181      5.5673    
  4.9266      4.4041      3.9992      3.7063      3.5184      3.4296      3.4367      3.5406      3.7457      4.0601    
  4.4940      5.0572      5.7551      6.5841      7.5268      8.5493      9.6012      10.621      11.544      12.293    
  12.794      13.031      13.048      12.918      12.715      12.478      12.199      11.833      11.327      10.657    
  9.8508      8.9691      9.3484      8.3665      7.3937      6.4807      5.6659      4.9729      4.4106      3.9775    
  3.6664      3.4682      3.3759      3.3860      3.4999      3.7236      4.0670      4.5422      5.1594      5.9229    
  6.8248      7.8407      8.9276      10.026      11.068      11.960      12.591      12.913      12.962      12.831    
  12.639      12.475      12.365      12.264      12.076      11.705      11.100      10.285      10.656      9.6710    
  8.6221      7.5787      6.5994      5.7284      4.9918      4.3987      3.9461      3.6246      3.4237      3.3353    
  3.3560      3.4882      3.7397      4.1223      4.6492      5.3306      6.1675      7.1457      8.2311      9.3697    
  10.493      11.502      12.248      12.636      12.671      12.455      12.147      11.907      11.833      11.925    
  12.079      12.140      11.959      11.457      11.718      10.951      9.9257      8.8140      7.7065      6.6697    
  5.7526      4.9829      4.3689      3.9058      3.5823      3.3861      3.3088      3.3475      3.5060      3.7939    
  4.2250      4.8130      5.5666      6.4815      7.5346      8.6798      9.8509      10.956      11.821      12.288    
  12.309      11.960      11.425      10.936      10.692      10.785      11.164      11.658      12.033      12.088    
  12.108      11.886      11.160      10.104      8.9353      7.7725      6.6891      5.7377      4.9466      4.3225    
  3.8583      3.5408      3.3567      3.2973      3.3610      3.5532      3.8856      4.3733      5.0301      5.8613    
  6.8551      7.9768      9.1664      10.342      11.335      11.926      11.985      11.529      10.724      9.8508    
  9.2116      9.0332      9.3828      10.142      11.047      11.788      11.458      12.048      11.970      11.284    
  10.200      8.9820      7.7747      6.6574      5.6848      4.8845      4.2612      3.8052      3.5016      3.3364    
  3.3015      3.3966      3.6293      4.0132      4.5646      5.2959      6.2070      7.2765      8.4557      9.6699    
  10.788      11.554      11.747      11.285      10.271      8.9785      7.7850      7.0594      7.0380      7.7397    
  8.9567      10.327      9.5925      11.104      11.942      11.984      11.323      10.212      8.9534      7.7136    
  6.5761      5.5962      4.7993      4.1873      3.7483      3.4659      3.3260      3.3215      3.4540      3.7332    
  4.1748      4.7952      5.6042      6.5944      7.7325      8.9545      10.163      11.131      11.559      11.250    
  10.190      8.5816      6.8132      5.3594      4.6388      4.8739      6.0116      7.7395      6.6320      8.9435    