unknown system                          
   1.00000000000000     
     0.000000    2.715000    2.715000
     2.715000    0.000000    2.715000
     2.715000    2.715000    0.000000
   Si
     2
Direct
  0.500000  0.500000  0.500000
  0.750000  0.750000  0.750000
 
   24   24   24
 0.86520009654E+00 0.90268313175E+00 0.10202087934E+01 0.12320256615E+01 0.15592365635E+01
 0.20246248610E+01 0.26437639014E+01 0.34121285437E+01 0.42901530760E+01 0.51927102253E+01
 0.59933231483E+01 0.65504047906E+01 0.67506295062E+01 0.65504701362E+01 0.59934012269E+01
 0.51927203685E+01 0.42900340179E+01 0.34118832871E+01 0.26434667365E+01 0.20243805014E+01
 0.15591210536E+01 0.12320476882E+01 0.10203082955E+01 0.90276722049E+00 0.90268313175E+00
 0.96374064673E+00 0.10935900489E+01 0.13060487352E+01 0.16177494590E+01 0.20424568521E+01
 0.25828787670E+01 0.32206263732E+01 0.39071481955E+01 0.45615782691E+01 0.50821118098E+01
 0.53721084714E+01 0.53721298417E+01 0.50821730591E+01 0.45616507905E+01 0.39071623525E+01
 0.32205166097E+01 0.25826541721E+01 0.20422127612E+01 0.16176034439E+01 0.13060616428E+01
 0.10937294214E+01 0.96390175530E+00 0.90275301645E+00 0.10202087934E+01 0.10935900489E+01
 0.12256955244E+01 0.14284895477E+01 0.17133328488E+01 0.20856470144E+01 0.25384045670E+01
 0.30454760814E+01 0.35576465677E+01 0.40058447706E+01 0.43149023920E+01 0.44254840051E+01
 0.43149303844E+01 0.40058759108E+01 0.35576392259E+01 0.30454019551E+01 0.25382820985E+01
 0.20855364279E+01 0.17132938822E+01 0.14285453606E+01 0.12258260241E+01 0.10937412426E+01
 0.10203104979E+01 0.99684044127E+00 0.12320256615E+01 0.13060487352E+01 0.14284895477E+01
 0.16089037403E+01 0.18538283677E+01 0.21624652311E+01 0.25221538412E+01 0.29046480211E+01
 0.32656636238E+01 0.35508558195E+01 0.37091264306E+01 0.37091229762E+01 0.35508310060E+01
 0.32655922886E+01 0.29045339739E+01 0.25220507098E+01 0.21624445636E+01 0.18539182614E+01
 0.16090636430E+01 0.14286489201E+01 0.13061618763E+01 0.12320860054E+01 0.11976330174E+01
 0.11976148441E+01 0.15592365635E+01 0.16177494590E+01 0.17133328488E+01 0.18538283677E+01
 0.20426659437E+01 0.22757009909E+01 0.25384110336E+01 0.28044231901E+01 0.30374033677E+01
 0.31980905656E+01 0.32555498817E+01 0.31979902714E+01 0.30372551925E+01 0.28042979064E+01
 0.25383627061E+01 0.22757488998E+01 0.20427879708E+01 0.18539692925E+01 0.17134374653E+01
 0.16177981800E+01 0.15592468355E+01 0.15288264421E+01 0.15195620728E+01 0.15288283166E+01
 0.20246248610E+01 0.20424568521E+01 0.20856470144E+01 0.21624652311E+01 0.22757009909E+01
 0.24204409516E+01 0.25828731776E+01 0.27409212878E+01 0.28678100631E+01 0.29387317416E+01
 0.29386477136E+01 0.28676146275E+01 0.27407385237E+01 0.25828039697E+01 0.24205049057E+01
 0.22758356214E+01 0.21625680211E+01 0.20856438027E+01 0.20423549321E+01 0.20244968862E+01
 0.20212612969E+01 0.20226475056E+01 0.20226757931E+01 0.20213488159E+01 0.26437639014E+01
 0.25828787670E+01 0.25384045670E+01 0.25221538412E+01 0.25384110336E+01 0.25828731776E+01
 0.26437459541E+01 0.27047599890E+01 0.27494790765E+01 0.27658036114E+01 0.27493331702E+01
 0.27045611242E+01 0.26435924252E+01 0.25828068601E+01 0.25384236480E+01 0.25221999176E+01
 0.25384041896E+01 0.25827610943E+01 0.26435367983E+01 0.27045273490E+01 0.27493268362E+01
 0.27658040338E+01 0.27494792214E+01 0.27047710562E+01 0.34121285437E+01 0.32206263732E+01
 0.30454760814E+01 0.29046480211E+01 0.28044231901E+01 0.27409212878E+01 0.27047599890E+01
 0.26862068690E+01 0.26784550359E+01 0.26783759689E+01 0.26860242554E+01 0.27045695849E+01
 0.27407669573E+01 0.28043111887E+01 0.29045939307E+01 0.30454708682E+01 0.32205934631E+01
 0.34119872190E+01 0.35929738396E+01 0.37344395033E+01 0.38120696473E+01 0.38121561251E+01
 0.37346555427E+01 0.35932074670E+01 0.42901530760E+01 0.39071481955E+01 0.35576465677E+01
 0.32656636238E+01 0.30374033677E+01 0.28678100631E+01 0.27494790765E+01 0.26784550359E+01
 0.26545414670E+01 0.26783088251E+01 0.27492778001E+01 0.28676369946E+01 0.30372911100E+01
 0.32656306644E+01 0.35576905469E+01 0.39072012528E+01 0.42901259488E+01 0.46652715336E+01
 0.49824830955E+01 0.51947837803E+01 0.52694486446E+01 0.51948516033E+01 0.49826070331E+01
 0.46653861618E+01 0.51927102253E+01 0.45615782691E+01 0.40058447706E+01 0.35508558195E+01
 0.31980905656E+01 0.29387317416E+01 0.27658036114E+01 0.26783759689E+01 0.26783088251E+01
 0.27656549100E+01 0.29385953265E+01 0.31980169476E+01 0.35508637231E+01 0.40059473574E+01
 0.45617404538E+01 0.51928384717E+01 0.58442354277E+01 0.64383730155E+01 0.68924595054E+01
 0.71384430472E+01 0.71384425830E+01 0.68924722118E+01 0.64383928304E+01 0.58442000874E+01
 0.59933231483E+01 0.50821118098E+01 0.43149023920E+01 0.37091264306E+01 0.32555498817E+01
 0.29386477136E+01 0.27493331702E+01 0.26860242554E+01 0.27492778001E+01 0.29385953265E+01
 0.32555369850E+01 0.37091494210E+01 0.43149718691E+01 0.50822535181E+01 0.59935154588E+01
 0.69884719308E+01 0.79637066202E+01 0.87908800117E+01 0.93465539118E+01 0.95424047288E+01
 0.93465012957E+01 0.87907936340E+01 0.79635816577E+01 0.69882954104E+01 0.65504047906E+01
 0.53721084714E+01 0.44254840051E+01 0.37091229762E+01 0.31979902714E+01 0.28676146275E+01
 0.27045611242E+01 0.27045695849E+01 0.28676369946E+01 0.31980169476E+01 0.37091494210E+01
 0.44255271787E+01 0.53721941059E+01 0.65505315298E+01 0.79108761357E+01 0.93382046359E+01
 0.10661846667E+02 0.11688917052E+02 0.12251365777E+02 0.12251293782E+02 0.11688749520E+02
 0.10661668140E+02 0.93380489340E+01 0.79107328213E+01 0.67506295062E+01 0.53721298417E+01
 0.43149303844E+01 0.35508310060E+01 0.30372551925E+01 0.27407385237E+01 0.26435924252E+01
 0.27407669573E+01 0.30372911100E+01 0.35508637231E+01 0.43149718691E+01 0.53721941059E+01
 0.67507153039E+01 0.84290692754E+01 0.10305405121E+02 0.12188886619E+02 0.13823214243E+02
 0.14941393633E+02 0.15338661199E+02 0.14941331058E+02 0.13823109853E+02 0.12188769190E+02
 0.10305294466E+02 0.84289701725E+01 0.65504701362E+01 0.50821730591E+01 0.40058759108E+01
 0.32655922886E+01 0.28042979064E+01 0.25828039697E+01 0.25828068601E+01 0.28043111887E+01
 0.32656306644E+01 0.40059473574E+01 0.50822535181E+01 0.65505315298E+01 0.84290692754E+01
 0.10655085250E+02 0.13053714662E+02 0.15337622971E+02 0.17133747311E+02 0.18110318923E+02
 0.18110374504E+02 0.17133835129E+02 0.15337621245E+02 0.13053621307E+02 0.10654989209E+02
 0.84290082291E+01 0.59934012269E+01 0.45616507905E+01 0.35576392259E+01 0.29045339739E+01
 0.25383627061E+01 0.24205049057E+01 0.25384236480E+01 0.29045939307E+01 0.35576905469E+01
 0.45617404538E+01 0.59935154588E+01 0.79108761357E+01 0.10305405121E+02 0.13053714662E+02
 0.15886639127E+02 0.18358130526E+02 0.20008762962E+02 0.20583672831E+02 0.20008797797E+02
 0.18358145695E+02 0.15886628531E+02 0.13053716338E+02 0.10305403488E+02 0.79108116890E+01
 0.51927203685E+01 0.39071623525E+01 0.30454019551E+01 0.25220507098E+01 0.22757488998E+01
 0.22758356214E+01 0.25221999176E+01 0.30454708682E+01 0.39072012528E+01 0.51928384717E+01
 0.69884719308E+01 0.93382046359E+01 0.12188886619E+02 0.15337622971E+02 0.18358130526E+02
 0.20680279025E+02 0.21922471683E+02 0.21922419450E+02 0.20680157996E+02 0.18358043756E+02
 0.15337653436E+02 0.12188970695E+02 0.93381901291E+01 0.69883361574E+01 0.42900340179E+01
 0.32205166097E+01 0.25382820985E+01 0.21624445636E+01 0.20427879708E+01 0.21625680211E+01
 0.25384041896E+01 0.32205934631E+01 0.42901259488E+01 0.58442354277E+01 0.79637066202E+01
 0.10661846667E+02 0.13823214243E+02 0.17133747311E+02 0.20008762962E+02 0.21922471683E+02
 0.22588422962E+02 0.21922445367E+02 0.20008639427E+02 0.17133568367E+02 0.13823110883E+02
 0.10661831246E+02 0.79636661984E+01 0.58441338715E+01 0.34118832871E+01 0.25826541721E+01
 0.20855364279E+01 0.18539182614E+01 0.18539692925E+01 0.20856438027E+01 0.25827610943E+01
 0.34119872190E+01 0.46652715336E+01 0.64383730155E+01 0.87908800117E+01 0.11688917052E+02
 0.14941393633E+02 0.18110318923E+02 0.20583672831E+02 0.21922419450E+02 0.21922445367E+02
 0.20583619000E+02 0.18110041281E+02 0.14941031673E+02 0.11688717285E+02 0.87908604924E+01
 0.64383642353E+01 0.46651932183E+01 0.26434667365E+01 0.20422127612E+01 0.17132938822E+01
 0.16090636430E+01 0.17134374653E+01 0.20423549321E+01 0.26435367983E+01 0.35929738396E+01
 0.49824830955E+01 0.68924595054E+01 0.93465539118E+01 0.12251365777E+02 0.15338661199E+02
 0.18110374504E+02 0.20008797797E+02 0.20680157996E+02 0.20008639427E+02 0.18110041281E+02
 0.15338274267E+02 0.12251123682E+02 0.93464985498E+01 0.68924562178E+01 0.49824462075E+01
 0.35929272904E+01 0.20243805014E+01 0.16176034439E+01 0.14285453606E+01 0.14286489201E+01
 0.16177981800E+01 0.20244968862E+01 0.27045273490E+01 0.37344395033E+01 0.51947837803E+01
 0.71384430472E+01 0.95424047288E+01 0.12251293782E+02 0.14941331058E+02 0.17133835129E+02
 0.18358145695E+02 0.18358043756E+02 0.17133568367E+02 0.14941031673E+02 0.12251123682E+02
 0.95423945120E+01 0.71384657461E+01 0.51947499609E+01 0.37343927955E+01 0.27044866287E+01
 0.15591210536E+01 0.13060616428E+01 0.12258260241E+01 0.13061618763E+01 0.15592468355E+01
 0.20212612969E+01 0.27493268362E+01 0.38120696473E+01 0.52694486446E+01 0.71384425830E+01
 0.93465012957E+01 0.11688749520E+02 0.13823109853E+02 0.15337621245E+02 0.15886628531E+02
 0.15337653436E+02 0.13823110883E+02 0.11688717285E+02 0.93464985498E+01 0.71384657461E+01
 0.52694198047E+01 0.38119660303E+01 0.27492030728E+01 0.20211445071E+01 0.12320476882E+01
 0.10937294214E+01 0.10937412426E+01 0.12320860054E+01 0.15288264421E+01 0.20226475056E+01
 0.27658040338E+01 0.38121561251E+01 0.51948516033E+01 0.68924722118E+01 0.87907936340E+01
 0.10661668140E+02 0.12188769190E+02 0.13053621307E+02 0.13053716338E+02 0.12188970695E+02
 0.10661831246E+02 0.87908604924E+01 0.68924562178E+01 0.51947499609E+01 0.38119660303E+01
 0.27655844661E+01 0.20224821275E+01 0.15287394632E+01 0.10203082955E+01 0.96390175530E+00
 0.10203104979E+01 0.11976330174E+01 0.15195620728E+01 0.20226757931E+01 0.27494792214E+01
 0.37346555427E+01 0.49826070331E+01 0.64383928304E+01 0.79635816577E+01 0.93380489340E+01
 0.10305294466E+02 0.10654989209E+02 0.10305403488E+02 0.93381901291E+01 0.79636661984E+01
 0.64383642353E+01 0.49824462075E+01 0.37343927955E+01 0.27492030728E+01 0.20224821275E+01
 0.15194774213E+01 0.11976132631E+01 0.90276722049E+00 0.90275301645E+00 0.99684044127E+00
 0.11976148441E+01 0.15288283166E+01 0.20213488159E+01 0.27047710562E+01 0.35932074670E+01
 0.46653861618E+01 0.58442000874E+01 0.69882954104E+01 0.79107328213E+01 0.84289701725E+01
 0.84290082291E+01 0.79108116890E+01 0.69883361574E+01 0.58441338715E+01 0.46651932183E+01
 0.35929272904E+01 0.27044866287E+01 0.20211445071E+01 0.15287394632E+01 0.11976132631E+01
 0.99686865126E+00 0.90267810003E+00 0.96373566512E+00 0.10935889897E+01 0.13060486760E+01
 0.16177476264E+01 0.20424571405E+01 0.25828854544E+01 0.32206373270E+01 0.39071597776E+01
 0.45615901246E+01 0.50821206551E+01 0.53721043395E+01 0.53721063232E+01 0.50821366352E+01
 0.45616144813E+01 0.39071355447E+01 0.32205053579E+01 0.25826630127E+01 0.20422383842E+01
 0.16176325193E+01 0.13060822924E+01 0.10937406726E+01 0.96390737068E+00 0.90275315589E+00
 0.96373566512E+00 0.10322682458E+01 0.11567622018E+01 0.13497199355E+01 0.16229774671E+01
 0.19822118020E+01 0.24204412117E+01 0.29116846388E+01 0.34075383683E+01 0.38408335497E+01
 0.41391705289E+01 0.42458057585E+01 0.41391754936E+01 0.38408680700E+01 0.34075815884E+01
 0.29116619656E+01 0.24203143285E+01 0.19820427908E+01 0.16228778649E+01 0.13497529515E+01
 0.11569044564E+01 0.10324402521E+01 0.96384981602E+00 0.94203903060E+00 0.10935889897E+01
 0.11567622018E+01 0.12643331826E+01 0.14269597926E+01 0.16519984610E+01 0.19390556750E+01
 0.22756936301E+01 0.26343489922E+01 0.29726075767E+01 0.32393391041E+01 0.33871213685E+01
 0.33871132831E+01 0.32393218860E+01 0.29725857650E+01 0.26343101455E+01 0.22756325531E+01
 0.19390010388E+01 0.16519937633E+01 0.14270223276E+01 0.12644441245E+01 0.11568858634E+01
 0.10936867204E+01 0.10649829635E+01 0.10649454580E+01 0.13060486760E+01 0.13497199355E+01
 0.14269597926E+01 0.15468620820E+01 0.17136067585E+01 0.19234616508E+01 0.21624654145E+01
 0.24055546655E+01 0.26187551167E+01 0.27658211605E+01 0.28184167128E+01 0.27657667243E+01
 0.26186571192E+01 0.24054370501E+01 0.21623711740E+01 0.19234436427E+01 0.17136894315E+01
 0.15470097214E+01 0.14270995582E+01 0.13498014657E+01 0.13060738705E+01 0.12854375760E+01
 0.12796092906E+01 0.12854372404E+01 0.16177476264E+01 0.16229774671E+01 0.16519984610E+01
 0.17136067585E+01 0.18107850723E+01 0.19390612822E+01 0.20856517543E+01 0.22299786218E+01
 0.23467955228E+01 0.24124236980E+01 0.24123696540E+01 0.23466629034E+01 0.22298331104E+01
 0.20855556765E+01 0.19390542619E+01 0.18108748137E+01 0.17137554193E+01 0.16521313458E+01
 0.16230319920E+01 0.16177208366E+01 0.16242478196E+01 0.16310861305E+01 0.16311130570E+01
 0.16243042171E+01 0.20424571405E+01 0.19822118020E+01 0.19390556750E+01 0.19234616508E+01
 0.19390612822E+01 0.19822119864E+01 0.20424518422E+01 0.21042058579E+01 0.21503685380E+01
 0.21674334796E+01 0.21502695571E+01 0.21040698120E+01 0.20423549740E+01 0.19822025998E+01
 0.19391440418E+01 0.19235913622E+01 0.19391497034E+01 0.19822028892E+01 0.20423498242E+01
 0.21040701399E+01 0.21502752929E+01 0.21674335846E+01 0.21503630051E+01 0.21042057120E+01
 0.25828854544E+01 0.24204412117E+01 0.22756936301E+01 0.21624654145E+01 0.20856517543E+01
 0.20424518422E+01 0.20246140914E+01 0.20213488402E+01 0.20226868080E+01 0.20226584090E+01
 0.20212760732E+01 0.20245259515E+01 0.20423862930E+01 0.20856527969E+01 0.21625514441E+01
 0.22758092664E+01 0.24204745986E+01 0.25827676994E+01 0.27407094158E+01 0.28676104855E+01
 0.29386620129E+01 0.29387432495E+01 0.28678157174E+01 0.27409321264E+01 0.32206373270E+01
 0.29116846388E+01 0.26343489922E+01 0.24055546655E+01 0.22299786218E+01 0.21042058579E+01
 0.20213488402E+01 0.19746668405E+01 0.19596204192E+01 0.19746441195E+01 0.20212960926E+01
 0.21041263711E+01 0.22299144706E+01 0.24055746682E+01 0.26344708020E+01 0.29118192909E+01
 0.32206550603E+01 0.35302861500E+01 0.37992237398E+01 0.39835979133E+01 0.40494040850E+01
 0.39837467091E+01 0.37994352954E+01 0.35304265211E+01 0.39071597776E+01 0.34075383683E+01
 0.29726075767E+01 0.26187551167E+01 0.23467955228E+01 0.21503685380E+01 0.20226868080E+01
 0.19596204192E+01 0.19596105900E+01 0.20226510940E+01 0.21503085705E+01 0.23467544236E+01
 0.26188055095E+01 0.29727774232E+01 0.34077562766E+01 0.39073072551E+01 0.44332732981E+01
 0.49257557398E+01 0.53123032506E+01 0.55259006530E+01 0.55259157430E+01 0.53123486461E+01
 0.49258030250E+01 0.44332482712E+01 0.45615901246E+01 0.38408335497E+01 0.32393391041E+01
 0.27658211605E+01 0.24124236980E+01 0.21674334796E+01 0.20226584090E+01 0.19746441195E+01
 0.20226510940E+01 0.21674103565E+01 0.24124241530E+01 0.27659313023E+01 0.32395952794E+01
 0.38411542446E+01 0.45618452755E+01 0.53630919211E+01 0.61691700000E+01 0.68727712590E+01
 0.73571267294E+01 0.75302345791E+01 0.73570417453E+01 0.68726682703E+01 0.61690776513E+01
 0.53629490216E+01 0.50821206551E+01 0.41391705289E+01 0.33871213685E+01 0.28184167128E+01
 0.24123696540E+01 0.21502695571E+01 0.20212760732E+01 0.20212960926E+01 0.21503085705E+01
 0.24124241530E+01 0.28185577737E+01 0.33874082945E+01 0.41395382601E+01 0.50824296092E+01
 0.61895881239E+01 0.73816315249E+01 0.85207110480E+01 0.94294220434E+01 0.99368155603E+01
 0.99367381303E+01 0.94292440268E+01 0.85205335626E+01 0.73814835477E+01 0.61893944525E+01
 0.53721043395E+01 0.42458057585E+01 0.33871132831E+01 0.27657667243E+01 0.23466629034E+01
 0.21040698120E+01 0.20245259515E+01 0.21041263711E+01 0.23467544236E+01 0.27659313023E+01
 0.33874082945E+01 0.42461726993E+01 0.53723899947E+01 0.67656240778E+01 0.83633318140E+01
 0.10016973787E+02 0.11495230045E+02 0.12530599326E+02 0.12904034641E+02 0.12530436108E+02
 0.11494995713E+02 0.10016788704E+02 0.83632218215E+01 0.67654785558E+01 0.53721063232E+01
 0.41391754936E+01 0.32393218860E+01 0.26186571192E+01 0.22298331104E+01 0.20423549740E+01
 0.20423862930E+01 0.22299144706E+01 0.26188055095E+01 0.32395952794E+01 0.41395382601E+01
 0.53723899947E+01 0.69728162579E+01 0.89164174968E+01 0.11075880479E+02 0.13196878989E+02
 0.14925615336E+02 0.15904180095E+02 0.15904110023E+02 0.14925420880E+02 0.13196646158E+02
 0.11075738773E+02 0.89163743146E+01 0.69727103857E+01 0.50821366352E+01 0.38408680700E+01
 0.29725857650E+01 0.24054370501E+01 0.20855556765E+01 0.19822025998E+01 0.20856527969E+01
 0.24055746682E+01 0.29727774232E+01 0.38411542446E+01 0.50824296092E+01 0.67656240778E+01
 0.89164174968E+01 0.11459822016E+02 0.14166117049E+02 0.16641000253E+02 0.18402559051E+02
 0.19043302598E+02 0.18402467801E+02 0.16640799939E+02 0.14165897511E+02 0.11459709128E+02
 0.89163661713E+01 0.67654670319E+01 0.45616144813E+01 0.34075815884E+01 0.26343101455E+01
 0.21623711740E+01 0.19390542619E+01 0.19391440418E+01 0.21625514441E+01 0.26344708020E+01
 0.34077562766E+01 0.45618452755E+01 0.61895881239E+01 0.83633318140E+01 0.11075880479E+02
 0.14166117049E+02 0.17266860087E+02 0.19835229018E+02 0.21300056643E+02 0.21300022165E+02
 0.19835083670E+02 0.17266601577E+02 0.14165883124E+02 0.11075761964E+02 0.83632275218E+01
 0.61893897897E+01 0.39071355447E+01 0.29116619656E+01 0.22756325531E+01 0.19234436427E+01
 0.18108748137E+01 0.19235913622E+01 0.22758092664E+01 0.29118192909E+01 0.39073072551E+01
 0.53630919211E+01 0.73816315249E+01 0.10016973787E+02 0.13196878989E+02 0.16641000253E+02
 0.19835229018E+02 0.22121947367E+02 0.22952256288E+02 0.22121906161E+02 0.19835009059E+02
 0.16640627911E+02 0.13196574153E+02 0.10016833957E+02 0.73815319182E+01 0.53629345479E+01
 0.32205053579E+01 0.24203143285E+01 0.19390010388E+01 0.17136894315E+01 0.17137554193E+01
 0.19391497034E+01 0.24204745986E+01 0.32206550603E+01 0.44332732981E+01 0.61691700000E+01
 0.85207110480E+01 0.11495230045E+02 0.14925615336E+02 0.18402559051E+02 0.21300056643E+02
 0.22952256288E+02 0.22952300617E+02 0.21300008076E+02 0.18402190868E+02 0.14925068753E+02
 0.11494843091E+02 0.85205746453E+01 0.61691110622E+01 0.44331629977E+01 0.25826630127E+01
 0.19820427908E+01 0.16519937633E+01 0.15470097214E+01 0.16521313458E+01 0.19822028892E+01
 0.25827676994E+01 0.35302861500E+01 0.49257557398E+01 0.68727712590E+01 0.94294220434E+01
 0.12530599326E+02 0.15904180095E+02 0.19043302598E+02 0.21300022165E+02 0.22121906161E+02
 0.21300008076E+02 0.19043035815E+02 0.15903607459E+02 0.12530001213E+02 0.94290663938E+01
 0.68726457939E+01 0.49257102419E+01 0.35302292015E+01 0.20422383842E+01 0.16228778649E+01
 0.14270223276E+01 0.14270995582E+01 0.16230319920E+01 0.20423498242E+01 0.27407094158E+01
 0.37992237398E+01 0.53123032506E+01 0.73571267294E+01 0.99368155603E+01 0.12904034641E+02
 0.15904110023E+02 0.18402467801E+02 0.19835083670E+02 0.19835009059E+02 0.18402190868E+02
 0.15903607459E+02 0.12903467900E+02 0.99363976812E+01 0.73569089867E+01 0.53122043057E+01
 0.37991716207E+01 0.27406553351E+01 0.16176325193E+01 0.13497529515E+01 0.12644441245E+01
 0.13498014657E+01 0.16177208366E+01 0.21040701399E+01 0.28676104855E+01 0.39835979133E+01
 0.55259006530E+01 0.75302345791E+01 0.99367381303E+01 0.12530436108E+02 0.14925420880E+02
 0.16640799939E+02 0.17266601577E+02 0.16640627911E+02 0.14925068753E+02 0.12530001213E+02
 0.99363976812E+01 0.75300619322E+01 0.55258075546E+01 0.39834799517E+01 0.28674643957E+01
 0.21039434856E+01 0.13060822924E+01 0.11569044564E+01 0.11568858634E+01 0.13060738705E+01
 0.16242478196E+01 0.21502752929E+01 0.29386620129E+01 0.40494040850E+01 0.55259157430E+01
 0.73570417453E+01 0.94292440268E+01 0.11494995713E+02 0.13196646158E+02 0.14165897511E+02
 0.14165883124E+02 0.13196574153E+02 0.11494843091E+02 0.94290663938E+01 0.73569089867E+01
 0.55258075546E+01 0.40492410455E+01 0.29384338475E+01 0.21500743952E+01 0.16241599362E+01
 0.10937406726E+01 0.10324402521E+01 0.10936867204E+01 0.12854375760E+01 0.16310861305E+01
 0.21674335846E+01 0.29387432495E+01 0.39837467091E+01 0.53123486461E+01 0.68726682703E+01
 0.85205335626E+01 0.10016788704E+02 0.11075738773E+02 0.11459709128E+02 0.11075761964E+02
 0.10016833957E+02 0.85205746453E+01 0.68726457939E+01 0.53122043057E+01 0.39834799517E+01
 0.29384338475E+01 0.21671978469E+01 0.16309943147E+01 0.12854650592E+01 0.96390737068E+00
 0.96384981602E+00 0.10649829635E+01 0.12796092906E+01 0.16311130570E+01 0.21503630051E+01
 0.28678157174E+01 0.37994352954E+01 0.49258030250E+01 0.61690776513E+01 0.73814835477E+01
 0.83632218215E+01 0.89163743146E+01 0.89163661713E+01 0.83632275218E+01 0.73815319182E+01
 0.61691110622E+01 0.49257102419E+01 0.37991716207E+01 0.28674643957E+01 0.21500743952E+01
 0.16309943147E+01 0.12796585186E+01 0.10650991929E+01 0.90275315589E+00 0.94203903060E+00
 0.10649454580E+01 0.12854372404E+01 0.16243042171E+01 0.21042057120E+01 0.27409321264E+01
 0.35304265211E+01 0.44332482712E+01 0.53629490216E+01 0.61893944525E+01 0.67654785558E+01
 0.69727103857E+01 0.67654670319E+01 0.61893897897E+01 0.53629345479E+01 0.44331629977E+01
 0.35302292015E+01 0.27406553351E+01 0.21039434856E+01 0.16241599362E+01 0.12854650592E+01
 0.10650991929E+01 0.94217991065E+00 0.10201969377E+01 0.10935823410E+01 0.12256958813E+01
 0.14284914771E+01 0.17133322115E+01 0.20856504133E+01 0.25384165524E+01 0.30454894109E+01
 0.35576529705E+01 0.40058434061E+01 0.43148903556E+01 0.44254525231E+01 0.43148807910E+01
 0.40058279182E+01 0.35576135068E+01 0.30454037009E+01 0.25383071826E+01 0.20855797936E+01
 0.17133433458E+01 0.14285812187E+01 0.12258384707E+01 0.10937389319E+01 0.10203046003E+01
 0.99683167142E+00 0.10935823410E+01 0.11567596084E+01 0.12643346310E+01 0.14269617479E+01
 0.16519996087E+01 0.19390587175E+01 0.22756988433E+01 0.26343513369E+01 0.29726024713E+01
 0.32393260208E+01 0.33871006280E+01 0.33870860785E+01 0.32392959518E+01 0.29725742579E+01
 0.26343206648E+01 0.22756609455E+01 0.19390371831E+01 0.16520280701E+01 0.14270459371E+01
 0.12644507438E+01 0.11568776247E+01 0.10936732163E+01 0.10649715485E+01 0.10649366897E+01
 0.12256958813E+01 0.12643346310E+01 0.13353543248E+01 0.14484011355E+01 0.16080608626E+01
 0.18107812743E+01 0.20426604430E+01 0.22788522189E+01 0.24859969718E+01 0.26288069441E+01
 0.26798568183E+01 0.26287553487E+01 0.24859216655E+01 0.22787884272E+01 0.20426358058E+01
 0.18108118780E+01 0.16081426944E+01 0.14485048064E+01 0.13354442179E+01 0.12643962721E+01
 0.12257353611E+01 0.12084040975E+01 0.12037144079E+01 0.12083824206E+01 0.14284914771E+01
 0.14269617479E+01 0.14484011355E+01 0.15023303211E+01 0.15921807586E+01 0.17136088994E+01
 0.18538307045E+01 0.19924621903E+01 0.21048147052E+01 0.21679542013E+01 0.21679118144E+01
 0.21047064861E+01 0.19923377328E+01 0.18537519977E+01 0.17136240021E+01 0.15922933108E+01
 0.15024873632E+01 0.14485247423E+01 0.14270063390E+01 0.14284710317E+01 0.14401300359E+01
 0.14497342333E+01 0.14497513527E+01 0.14401682591E+01 0.17133322115E+01 0.16519996087E+01
 0.16080608626E+01 0.15921807586E+01 0.16080658102E+01 0.16520051261E+01 0.17133386300E+01
 0.17762114711E+01 0.18232155225E+01 0.18405958010E+01 0.18231207374E+01 0.17760818271E+01
 0.17132515677E+01 0.16520114085E+01 0.16081694824E+01 0.15923387925E+01 0.16082003025E+01
 0.16520570010E+01 0.17132955225E+01 0.17761153919E+01 0.18231383616E+01 0.18405952773E+01
 0.18232038917E+01 0.17762004388E+01 0.20856504133E+01 0.19390587175E+01 0.18107812743E+01
 0.17136088994E+01 0.16520051261E+01 0.16229805384E+01 0.16177473834E+01 0.16243063896E+01
 0.16311130695E+01 0.16310727565E+01 0.16242214874E+01 0.16176935648E+01 0.16230115141E+01
 0.16521200494E+01 0.17137608950E+01 0.18109036017E+01 0.19390961266E+01 0.20855901941E+01
 0.22298514122E+01 0.23466694555E+01 0.24123665876E+01 0.24124099032E+01 0.23467784617E+01
 0.22299696812E+01 0.25384165524E+01 0.22756988433E+01 0.20426604430E+01 0.18538307045E+01
 0.17133386300E+01 0.16177473834E+01 0.15592309150E+01 0.15288303204E+01 0.15195674253E+01
 0.15288239629E+01 0.15592409273E+01 0.16178001529E+01 0.17134430422E+01 0.18539672531E+01
 0.20427826210E+01 0.22757514201E+01 0.25383686907E+01 0.28042960404E+01 0.30372497454E+01
 0.31979924546E+01 0.32555553797E+01 0.31980881877E+01 0.30373975100E+01 0.28044251590E+01
 0.30454894109E+01 0.26343513369E+01 0.22788522189E+01 0.19924621903E+01 0.17762114711E+01
 0.16243063896E+01 0.15288303204E+01 0.14830016553E+01 0.14830305159E+01 0.15289063372E+01
 0.16244081793E+01 0.17763230360E+01 0.19925742299E+01 0.22789536895E+01 0.26344266215E+01
 0.30455216450E+01 0.34813839311E+01 0.38926251011E+01 0.42177509829E+01 0.43983593402E+01
 0.43983932980E+01 0.42178280984E+01 0.38926936516E+01 0.34814060120E+01 0.35576529705E+01
 0.29726024713E+01 0.24859969718E+01 0.21048147052E+01 0.18232155225E+01 0.16311130695E+01
 0.15195674253E+01 0.14830305159E+01 0.15196658710E+01 0.16312614279E+01 0.18233705364E+01
 0.21049604507E+01 0.24861210063E+01 0.29726948980E+01 0.35577322937E+01 0.42113863090E+01
 0.48735297286E+01 0.54559080417E+01 0.58594114423E+01 0.60041655203E+01 0.58593534530E+01
 0.54558006221E+01 0.48734068497E+01 0.42112860394E+01 0.40058434061E+01 0.32393260208E+01
 0.26288069441E+01 0.21679542013E+01 0.18405958010E+01 0.16310727565E+01 0.15288239629E+01
 0.15289063372E+01 0.16312614279E+01 0.18407964383E+01 0.21681400551E+01 0.26289872571E+01
 0.32394804244E+01 0.40059633294E+01 0.49094179334E+01 0.58886862145E+01 0.68321736123E+01
 0.75906338693E+01 0.80163856816E+01 0.80163025731E+01 0.75904103720E+01 0.68318937273E+01
 0.58884565918E+01 0.49092734876E+01 0.43148903556E+01 0.33871006280E+01 0.26798568183E+01
 0.21679118144E+01 0.18231207374E+01 0.16242214874E+01 0.15592409273E+01 0.16244081793E+01
 0.18233705364E+01 0.21681400551E+01 0.26800668439E+01 0.33872867938E+01 0.43150274316E+01
 0.54665228376E+01 0.67961521517E+01 0.81848095498E+01 0.94372801033E+01 0.10320555659E+02
 0.10640318086E+02 0.10320411562E+02 0.94370025114E+01 0.81844930125E+01 0.67959204113E+01
 0.54663853356E+01 0.44254525231E+01 0.33870860785E+01 0.26287553487E+01 0.21047064861E+01
 0.17760818271E+01 0.16176935648E+01 0.16178001529E+01 0.17763230360E+01 0.21049604507E+01
 0.26289872571E+01 0.33872867938E+01 0.44255752145E+01 0.57776284019E+01 0.74316316043E+01
 0.92877100200E+01 0.11129325223E+02 0.12642862774E+02 0.13504171492E+02 0.13504135692E+02
 0.12642711070E+02 0.11129046837E+02 0.92874397535E+01 0.74314925197E+01 0.57775625597E+01
 0.43148807910E+01 0.32392959518E+01 0.24859216655E+01 0.19923377328E+01 0.17132515677E+01
 0.16230115141E+01 0.17134430422E+01 0.19925742299E+01 0.24861210063E+01 0.32394804244E+01
 0.43150274316E+01 0.57776284019E+01 0.76608010475E+01 0.99120062082E+01 0.12334933247E+02
 0.14572358313E+02 0.16175739216E+02 0.16760946528E+02 0.16175653400E+02 0.14572145199E+02
 0.12334672790E+02 0.99118563456E+01 0.76607710728E+01 0.57775754301E+01 0.40058279182E+01
 0.29725742579E+01 0.22787884272E+01 0.18537519977E+01 0.16520114085E+01 0.16521200494E+01
 0.18539672531E+01 0.22789536895E+01 0.29726948980E+01 0.40059633294E+01 0.54665228376E+01
 0.74316316043E+01 0.99120062082E+01 0.12773606968E+02 0.15677274354E+02 0.18102625352E+02
 0.19496252999E+02 0.19496204481E+02 0.18102454944E+02 0.15677008678E+02 0.12773390639E+02
 0.99119249774E+01 0.74315909956E+01 0.54664174981E+01 0.35576135068E+01 0.26343206648E+01
 0.20426358058E+01 0.17136240021E+01 0.16081694824E+01 0.17137608950E+01 0.20427826210E+01
 0.26344266215E+01 0.35577322937E+01 0.49094179334E+01 0.67961521517E+01 0.92877100200E+01
 0.12334933247E+02 0.15677274354E+02 0.18808082318E+02 0.21072875372E+02 0.21903333883E+02
 0.21072786860E+02 0.18807854698E+02 0.15676978237E+02 0.12334728331E+02 0.92876242506E+01
 0.67960704816E+01 0.49092896106E+01 0.30454037009E+01 0.22756609455E+01 0.18108118780E+01
 0.15922933108E+01 0.15923387925E+01 0.18109036017E+01 0.22757514201E+01 0.30455216450E+01
 0.42113863090E+01 0.58886862145E+01 0.81848095498E+01 0.11129325223E+02 0.14572358313E+02
 0.18102625352E+02 0.21072875372E+02 0.22786869804E+02 0.22786843305E+02 0.21072740688E+02
 0.18102349825E+02 0.14572063735E+02 0.11129140599E+02 0.81846990153E+01 0.58885489995E+01
 0.42112285283E+01 0.25383071826E+01 0.19390371831E+01 0.16081426944E+01 0.15024873632E+01
 0.16082003025E+01 0.19390961266E+01 0.25383686907E+01 0.34813839311E+01 0.48735297286E+01
 0.68321736123E+01 0.94372801033E+01 0.12642862774E+02 0.16175739216E+02 0.19496252999E+02
 0.21903333883E+02 0.22786843305E+02 0.21903256721E+02 0.19496054082E+02 0.16175449989E+02
 0.12642585477E+02 0.94370552906E+01 0.68319654444E+01 0.48733387673E+01 0.34812602724E+01
 0.20855797936E+01 0.16520280701E+01 0.14485048064E+01 0.14485247423E+01 0.16520570010E+01
 0.20855901941E+01 0.28042960404E+01 0.38926251011E+01 0.54559080417E+01 0.75906338693E+01
 0.10320555659E+02 0.13504171492E+02 0.16760946528E+02 0.19496204481E+02 0.21072786860E+02
 0.21072740688E+02 0.19496054082E+02 0.16760691074E+02 0.13503854420E+02 0.10320227364E+02
 0.75903231325E+01 0.54556536011E+01 0.38924778334E+01 0.28042535205E+01 0.17133433458E+01
 0.14270459371E+01 0.13354442179E+01 0.14270063390E+01 0.17132955225E+01 0.22298514122E+01
 0.30372497454E+01 0.42177509829E+01 0.58594114423E+01 0.80163856816E+01 0.10640318086E+02
 0.13504135692E+02 0.16175653400E+02 0.18102454944E+02 0.18807854698E+02 0.18102349825E+02
 0.16175449989E+02 0.13503854420E+02 0.10639992597E+02 0.80160556458E+01 0.58591219887E+01
 0.42175465405E+01 0.30371557827E+01 0.22298533955E+01 0.14285812187E+01 0.12644507438E+01
 0.12643962721E+01 0.14284710317E+01 0.17761153919E+01 0.23466694555E+01 0.31979924546E+01
 0.43983593402E+01 0.60041655203E+01 0.80163025731E+01 0.10320411562E+02 0.12642711070E+02
 0.14572145199E+02 0.15677008678E+02 0.15676978237E+02 0.14572063735E+02 0.12642585477E+02
 0.10320227364E+02 0.80160556458E+01 0.60038950700E+01 0.43981245918E+01 0.31978386639E+01