   2   2   0   0
  0.2001288E+02  0.3839590E-09  0.3839590E-09  0.3839590E-09  0.5000000E-15
  1.000000000000000E-004
  CAR 
 unknown system                          
     17.18136438     -8.13351092  301      6.15891093      1.00000000
     -8.134  0.0000E+00  0.0000E+00
     -8.049  0.0000E+00  0.0000E+00
     -7.965  0.0000E+00  0.0000E+00
     -7.880  0.0000E+00  0.0000E+00
     -7.796  0.0000E+00  0.0000E+00
     -7.712  0.0000E+00  0.0000E+00
     -7.627  0.0000E+00  0.0000E+00
     -7.543  0.0000E+00  0.0000E+00
     -7.458  0.0000E+00  0.0000E+00
     -7.374  0.0000E+00  0.0000E+00
     -7.290  0.7672E-18  0.6474E-19
     -7.205  0.7953E-16  0.6776E-17
     -7.121  0.6622E-14  0.5656E-15
     -7.037  0.3872E-12  0.3324E-13
     -6.952  0.1595E-10  0.1379E-11
     -6.868  0.4630E-09  0.4044E-10
     -6.783  0.9476E-08  0.8400E-09
     -6.699  0.1369E-06  0.1239E-07
     -6.615  0.1397E-05  0.1302E-06
     -6.530  0.1009E-04  0.9815E-06
     -6.446  0.5184E-04  0.5356E-05
     -6.361  0.1921E-03  0.2157E-04
     -6.277  0.5327E-03  0.6652E-04
     -6.193  0.1204E-02  0.1681E-03
     -6.108  0.2518E-02  0.3806E-03
     -6.024  0.5117E-02  0.8124E-03
     -5.940  0.9241E-02  0.1592E-02
     -5.855  0.1335E-01  0.2719E-02
     -5.771  0.1479E-01  0.3967E-02
     -5.686  0.1308E-01  0.5070E-02
     -5.602  0.1118E-01  0.6014E-02
     -5.518  0.1222E-01  0.7044E-02
     -5.433  0.1615E-01  0.8407E-02
     -5.349  0.2157E-01  0.1023E-01
     -5.264  0.2833E-01  0.1262E-01
     -5.180  0.3471E-01  0.1555E-01
     -5.096  0.3543E-01  0.1854E-01
     -5.011  0.2798E-01  0.2090E-01
     -4.927  0.1746E-01  0.2237E-01
     -4.843  0.1124E-01  0.2332E-01
     -4.758  0.1243E-01  0.2437E-01
     -4.674  0.2052E-01  0.2610E-01
     -4.589  0.3341E-01  0.2892E-01
     -4.505  0.4616E-01  0.3281E-01
     -4.421  0.5202E-01  0.3720E-01
     -4.336  0.4931E-01  0.4136E-01
     -4.252  0.4402E-01  0.4508E-01
     -4.168  0.4137E-01  0.4857E-01
     -4.083  0.3962E-01  0.5191E-01
     -3.999  0.3639E-01  0.5498E-01
     -3.914  0.3448E-01  0.5789E-01
     -3.830  0.3680E-01  0.6100E-01
     -3.746  0.4224E-01  0.6456E-01
     -3.661  0.4946E-01  0.6874E-01
     -3.577  0.5819E-01  0.7365E-01
     -3.492  0.6668E-01  0.7927E-01
     -3.408  0.7089E-01  0.8526E-01
     -3.324  0.6571E-01  0.9080E-01
     -3.239  0.5043E-01  0.9506E-01
     -3.155  0.3399E-01  0.9792E-01
     -3.071  0.2823E-01  0.1003E+00
     -2.986  0.3611E-01  0.1034E+00
     -2.902  0.4898E-01  0.1075E+00
     -2.817  0.5373E-01  0.1120E+00
     -2.733  0.4467E-01  0.1158E+00
     -2.649  0.2923E-01  0.1183E+00
     -2.564  0.1956E-01  0.1199E+00
     -2.480  0.2027E-01  0.1216E+00
     -2.395  0.2565E-01  0.1238E+00
     -2.311  0.2745E-01  0.1261E+00
     -2.227  0.2399E-01  0.1281E+00
     -2.142  0.1979E-01  0.1298E+00
     -2.058  0.1759E-01  0.1313E+00
     -1.974  0.1645E-01  0.1327E+00
     -1.889  0.1579E-01  0.1340E+00
     -1.805  0.1555E-01  0.1353E+00
     -1.720  0.1415E-01  0.1365E+00
     -1.636  0.1096E-01  0.1374E+00
     -1.552  0.8961E-02  0.1382E+00
     -1.467  0.1198E-01  0.1392E+00
     -1.383  0.1999E-01  0.1409E+00
     -1.298  0.2862E-01  0.1433E+00
     -1.214  0.3554E-01  0.1463E+00
     -1.130  0.4574E-01  0.1502E+00
     -1.045  0.6346E-01  0.1555E+00
     -0.961  0.8080E-01  0.1623E+00
     -0.877  0.8530E-01  0.1695E+00
     -0.792  0.7759E-01  0.1761E+00
     -0.708  0.6990E-01  0.1820E+00
     -0.623  0.6708E-01  0.1876E+00
     -0.539  0.6127E-01  0.1928E+00
     -0.455  0.4750E-01  0.1968E+00
     -0.370  0.3347E-01  0.1996E+00
     -0.286  0.2863E-01  0.2021E+00
     -0.202  0.3235E-01  0.2048E+00
     -0.117  0.3679E-01  0.2079E+00
     -0.033  0.3671E-01  0.2110E+00
      0.052  0.3400E-01  0.2139E+00
      0.136  0.3229E-01  0.2166E+00
      0.220  0.3020E-01  0.2191E+00
      0.305  0.2513E-01  0.2212E+00
      0.389  0.2036E-01  0.2230E+00
      0.474  0.2105E-01  0.2247E+00
      0.558  0.2560E-01  0.2269E+00
      0.642  0.2733E-01  0.2292E+00
      0.727  0.2449E-01  0.2313E+00
      0.811  0.2260E-01  0.2332E+00
      0.895  0.2507E-01  0.2353E+00
      0.980  0.2739E-01  0.2376E+00
      1.064  0.2434E-01  0.2397E+00
      1.149  0.1789E-01  0.2412E+00
      1.233  0.1341E-01  0.2423E+00
      1.317  0.1287E-01  0.2434E+00
      1.402  0.1635E-01  0.2448E+00
      1.486  0.2581E-01  0.2469E+00
      1.571  0.4177E-01  0.2505E+00
      1.655  0.5781E-01  0.2553E+00
      1.739  0.6409E-01  0.2608E+00
      1.824  0.5814E-01  0.2657E+00
      1.908  0.5089E-01  0.2700E+00
      1.992  0.5839E-01  0.2749E+00
      2.077  0.8348E-01  0.2819E+00
      2.161  0.1073E+00  0.2910E+00
      2.246  0.1066E+00  0.3000E+00
      2.330  0.8014E-01  0.3067E+00
      2.414  0.5041E-01  0.3110E+00
      2.499  0.4165E-01  0.3145E+00
      2.583  0.6150E-01  0.3197E+00
      2.668  0.9536E-01  0.3277E+00
      2.752  0.1146E+00  0.3374E+00
      2.836  0.1026E+00  0.3461E+00
      2.921  0.7446E-01  0.3524E+00
      3.005  0.5846E-01  0.3573E+00
      3.089  0.6441E-01  0.3627E+00
      3.174  0.7805E-01  0.3693E+00
      3.258  0.8388E-01  0.3764E+00
      3.343  0.8564E-01  0.3836E+00
      3.427  0.9738E-01  0.3918E+00
      3.511  0.1181E+00  0.4018E+00
      3.596  0.1285E+00  0.4126E+00
      3.680  0.1152E+00  0.4224E+00
      3.764  0.8701E-01  0.4297E+00
      3.849  0.6397E-01  0.4351E+00
      3.933  0.5805E-01  0.4400E+00
      4.018  0.6811E-01  0.4457E+00
      4.102  0.8666E-01  0.4531E+00
      4.186  0.1053E+00  0.4619E+00
      4.271  0.1157E+00  0.4717E+00
      4.355  0.1100E+00  0.4810E+00
      4.440  0.8634E-01  0.4883E+00
      4.524  0.5652E-01  0.4930E+00
      4.608  0.3752E-01  0.4962E+00
      4.693  0.3594E-01  0.4992E+00
      4.777  0.4587E-01  0.5031E+00
      4.861  0.5667E-01  0.5079E+00
      4.946  0.5864E-01  0.5128E+00
      5.030  0.4816E-01  0.5169E+00
      5.115  0.3082E-01  0.5195E+00
      5.199  0.1647E-01  0.5209E+00
      5.283  0.1150E-01  0.5219E+00
      5.368  0.1620E-01  0.5232E+00
      5.452  0.2523E-01  0.5254E+00
      5.537  0.3008E-01  0.5279E+00
      5.621  0.2599E-01  0.5301E+00
      5.705  0.1667E-01  0.5315E+00
      5.790  0.8913E-02  0.5323E+00
      5.874  0.5167E-02  0.5327E+00
      5.958  0.3597E-02  0.5330E+00
      6.043  0.2359E-02  0.5332E+00
      6.127  0.1315E-02  0.5333E+00
      6.212  0.1058E-02  0.5334E+00
      6.296  0.2029E-02  0.5336E+00
      6.380  0.4178E-02  0.5339E+00
      6.465  0.6744E-02  0.5345E+00
      6.549  0.9118E-02  0.5353E+00
      6.633  0.1222E-01  0.5363E+00
      6.718  0.1718E-01  0.5377E+00
      6.802  0.2268E-01  0.5396E+00
      6.887  0.2660E-01  0.5419E+00
      6.971  0.2983E-01  0.5444E+00
      7.055  0.3408E-01  0.5473E+00
      7.140  0.3798E-01  0.5505E+00
      7.224  0.3985E-01  0.5539E+00
      7.309  0.4059E-01  0.5573E+00
      7.393  0.3968E-01  0.5606E+00
      7.477  0.3421E-01  0.5635E+00
      7.562  0.2533E-01  0.5657E+00
      7.646  0.1969E-01  0.5673E+00
      7.730  0.2333E-01  0.5693E+00
      7.815  0.3865E-01  0.5725E+00
      7.899  0.6546E-01  0.5781E+00
      7.984  0.9766E-01  0.5863E+00
      8.068  0.1198E+00  0.5964E+00
      8.152  0.1181E+00  0.6064E+00
      8.237  0.9730E-01  0.6146E+00
      8.321  0.8073E-01  0.6214E+00
      8.406  0.8727E-01  0.6288E+00
      8.490  0.1118E+00  0.6382E+00
      8.574  0.1296E+00  0.6491E+00
      8.659  0.1220E+00  0.6594E+00
      8.743  0.9630E-01  0.6676E+00
      8.827  0.7763E-01  0.6741E+00
      8.912  0.7975E-01  0.6808E+00
      8.996  0.8997E-01  0.6884E+00
      9.081  0.8898E-01  0.6959E+00
      9.165  0.7854E-01  0.7026E+00
      9.249  0.7654E-01  0.7090E+00
      9.334  0.9004E-01  0.7166E+00
      9.418  0.1063E+00  0.7256E+00
      9.503  0.1120E+00  0.7350E+00
      9.587  0.1130E+00  0.7446E+00
      9.671  0.1253E+00  0.7552E+00
      9.756  0.1485E+00  0.7677E+00
      9.840  0.1612E+00  0.7813E+00
      9.924  0.1489E+00  0.7939E+00
     10.009  0.1204E+00  0.8040E+00
     10.093  0.9138E-01  0.8117E+00
     10.178  0.6691E-01  0.8174E+00
     10.262  0.4864E-01  0.8215E+00
     10.346  0.4264E-01  0.8251E+00
     10.431  0.5093E-01  0.8294E+00
     10.515  0.6540E-01  0.8349E+00
     10.599  0.7616E-01  0.8413E+00
     10.684  0.8128E-01  0.8482E+00
     10.768  0.8295E-01  0.8552E+00
     10.853  0.7897E-01  0.8618E+00
     10.937  0.6521E-01  0.8673E+00
     11.021  0.4421E-01  0.8711E+00
     11.106  0.2621E-01  0.8733E+00
     11.190  0.2209E-01  0.8751E+00
     11.275  0.3636E-01  0.8782E+00
     11.359  0.6328E-01  0.8836E+00
     11.443  0.8859E-01  0.8910E+00
     11.528  0.1014E+00  0.8996E+00
     11.612  0.1034E+00  0.9083E+00
     11.696  0.9997E-01  0.9167E+00
     11.781  0.9004E-01  0.9243E+00
     11.865  0.7334E-01  0.9305E+00
     11.950  0.6080E-01  0.9357E+00
     12.034  0.6433E-01  0.9411E+00
     12.118  0.8078E-01  0.9479E+00
     12.203  0.9626E-01  0.9560E+00
     12.287  0.1028E+00  0.9647E+00
     12.372  0.1060E+00  0.9737E+00
     12.456  0.1167E+00  0.9835E+00
     12.540  0.1327E+00  0.9947E+00
     12.625  0.1352E+00  0.1006E+01
     12.709  0.1124E+00  0.1016E+01
     12.793  0.7531E-01  0.1022E+01
     12.878  0.4142E-01  0.1025E+01
     12.962  0.1888E-01  0.1027E+01
     13.047  0.7398E-02  0.1028E+01
     13.131  0.3866E-02  0.1028E+01
     13.215  0.4978E-02  0.1028E+01
     13.300  0.7676E-02  0.1029E+01
     13.384  0.9327E-02  0.1030E+01
     13.469  0.9240E-02  0.1031E+01
     13.553  0.8954E-02  0.1031E+01
     13.637  0.9414E-02  0.1032E+01
     13.722  0.9459E-02  0.1033E+01
     13.806  0.8655E-02  0.1034E+01
     13.890  0.9576E-02  0.1035E+01
     13.975  0.1492E-01  0.1036E+01
     14.059  0.2259E-01  0.1038E+01
     14.144  0.2605E-01  0.1040E+01
     14.228  0.2176E-01  0.1042E+01
     14.312  0.1398E-01  0.1043E+01
     14.397  0.1019E-01  0.1044E+01
     14.481  0.1425E-01  0.1045E+01
     14.565  0.2397E-01  0.1047E+01
     14.650  0.3262E-01  0.1050E+01
     14.734  0.3434E-01  0.1053E+01
     14.819  0.2946E-01  0.1055E+01
     14.903  0.2358E-01  0.1057E+01
     14.987  0.2164E-01  0.1059E+01
     15.072  0.2336E-01  0.1061E+01
     15.156  0.2419E-01  0.1063E+01
     15.241  0.2062E-01  0.1065E+01
     15.325  0.1359E-01  0.1066E+01
     15.409  0.6732E-02  0.1066E+01
     15.494  0.2461E-02  0.1067E+01
     15.578  0.6543E-03  0.1067E+01
     15.662  0.1252E-03  0.1067E+01
     15.747  0.1711E-04  0.1067E+01
     15.831  0.1663E-05  0.1067E+01
     15.916  0.1146E-06  0.1067E+01
     16.000  0.5580E-08  0.1067E+01
     16.084  0.1919E-09  0.1067E+01
     16.169  0.4654E-11  0.1067E+01
     16.253  0.7953E-13  0.1067E+01
     16.338  0.9513E-15  0.1067E+01
     16.422  0.1227E-16  0.1067E+01
     16.506  0.0000E+00  0.1067E+01
     16.591  0.0000E+00  0.1067E+01
     16.675  0.0000E+00  0.1067E+01
     16.759  0.0000E+00  0.1067E+01
     16.844  0.0000E+00  0.1067E+01
     16.928  0.0000E+00  0.1067E+01
     17.013  0.0000E+00  0.1067E+01
     17.097  0.0000E+00  0.1067E+01
     17.181  0.0000E+00  0.1067E+01
