    2    2   15    1
  0.2001288E+02  0.3839590E-09  0.3839590E-09  0.3839590E-09  0.5000000E-15
  1.000000000000000E-004
  CAR 
 unknown system                          
      8     20      8
 
  0.0000000E+00  0.0000000E+00  0.0000000E+00  0.2915452E-02
    1       -6.133511   1.000000
    2        5.878774   0.976197
    3        5.878774   0.976197
    4        5.879080   0.976075
    5        8.456636   0.000000
    6        8.456636   0.000000
    7        8.456845   0.000000
    8        9.199231   0.000000
 
  0.1428571E+00 -0.2862800E-17 -0.1748977E-16  0.2332362E-01
    1       -5.866928   1.000000
    2        3.927968   1.000000
    3        5.515003   0.999997
    4        5.515248   0.999997
    5        8.324466   0.000000
    6        8.986280   0.000000
    7        8.986558   0.000000
    8       10.888035   0.000000
 
  0.2857143E+00 -0.2269120E-16  0.9741634E-17  0.2332362E-01
    1       -5.098571   1.000000
    2        1.291513   1.000000
    3        4.988276   1.000000
    4        4.988493   1.000000
    5        7.798855   0.000000
    6        9.460936   0.000000
    7        9.461343   0.000000
    8       13.335310   0.000000
 
  0.4285714E+00 -0.2759730E-17  0.1159403E-16  0.2332362E-01
    1       -4.054038   1.000000
    2       -0.752367   1.000000
    3        4.695085   1.000000
    4        4.695303   1.000000
    5        7.456779   0.000000
    6        9.326729   0.000000
    7        9.327100   0.000000
    8       13.664989   0.000000
 
  0.1428571E+00  0.1428571E+00  0.4108522E-18  0.1749271E-01
    1       -5.776734   1.000000
    2        4.232449   1.000000
    3        4.892713   1.000000
    4        4.892877   1.000000
    5        7.773713   0.000000
    6        9.889723   0.000000
    7        9.889913   0.000000
    8       10.312194   0.000000
 
  0.2857143E+00  0.1428571E+00 -0.8512426E-17  0.6997085E-01
    1       -5.168286   1.000000
    2        2.091899   1.000000
    3        4.305127   1.000000
    4        4.340936   1.000000
    5        7.978547   0.000000
    6        9.812411   0.000000
    7       10.530727   0.000000
    8       10.692362   0.000000
 
  0.4285714E+00  0.1428571E+00  0.6714690E-17  0.6997085E-01
    1       -4.155904   1.000000
    2       -0.107256   1.000000
    3        3.611902   1.000000
    4        4.146697   1.000000
    5        8.048886   0.000000
    6        9.741792   0.000000
    7       10.485109   0.000000
    8       11.746837   0.000000
 
 -0.4285714E+00  0.1428571E+00 -0.2538985E-16  0.6997085E-01
    1       -3.593947   1.000000
    2       -0.977901   1.000000
    3        3.190242   1.000000
    4        4.348791   1.000000
    5        8.144689   0.000000
    6        9.655711   0.000000
    7       10.089631   0.000000
    8       14.097557   0.000000
 
 -0.2857143E+00  0.1428571E+00 -0.5704498E-17  0.6997085E-01
    1       -4.525989   1.000000
    2        0.576898   1.000000
    3        3.195092   1.000000
    4        4.867650   1.000000
    5        8.555097   0.000000
    6        9.830414   0.000000
    7        9.862681   0.000000
    8       12.575139   0.000000
 
 -0.1428571E+00  0.1428571E+00 -0.5725601E-17  0.3498542E-01
    1       -5.429641   1.000000
    2        2.717383   1.000000
    3        3.889200   1.000000
    4        5.474268   0.999999
    5        8.955870   0.000000
    6        9.201965   0.000000
    7        9.480074   0.000000
    8       11.544870   0.000000
 
  0.2857143E+00  0.2857143E+00  0.8217044E-18  0.1749271E-01
    1       -4.723163   1.000000
    2        1.689160   1.000000
    3        3.709406   1.000000
    4        3.709548   1.000000
    5        6.825173   0.000001
    6        8.546418   0.000000
    7       12.347945   0.000000
    8       12.348190   0.000000
 
  0.4285714E+00  0.2857143E+00 -0.5710699E-17  0.6997085E-01
    1       -3.817827   1.000000
    2        0.178264   1.000000
    3        2.725488   1.000000
    4        3.445769   1.000000
    5        7.115825   0.000000
    6        8.614777   0.000000
    7       12.562417   0.000000
    8       12.755170   0.000000
 
 -0.4285714E+00  0.2857143E+00  0.1028864E-16  0.6997085E-01
    1       -2.895379   1.000000
    2       -1.009463   1.000000
    3        1.767945   1.000000
    4        3.614269   1.000000
    5        7.360455   0.000000
    6       10.897754   0.000000
    7       12.246124   0.000000
    8       12.281759   0.000000
 
 -0.2857143E+00  0.2857143E+00 -0.7704199E-17  0.3498542E-01
    1       -3.548641   1.000000
    2       -0.255321   1.000000
    3        1.693586   1.000000
    4        4.171554   1.000000
    5        7.977465   0.000000
    6       11.391407   0.000000
    7       11.777410   0.000000
    8       12.507710   0.000000
 
  0.4285714E+00  0.4285714E+00  0.1232557E-17  0.1749271E-01
    1       -3.030401   1.000000
    2       -0.822744   1.000000
    3        3.070351   1.000000
    4        3.070480   1.000000
    5        6.478494   0.011917
    6        6.989190   0.000000
    7       15.049342   0.000000
    8       15.049520   0.000000
 
 -0.4285714E+00  0.4285714E+00 -0.5519460E-17  0.3498542E-01
    1       -2.076353   1.000000
    2       -1.787251   1.000000
    3        2.173664   1.000000
    4        3.131137   1.000000
    5        6.777954   0.000006
    6        8.044493   0.000000
    7       14.774575   0.000000
    8       15.181364   0.000000
 
  0.4285714E+00  0.2857143E+00  0.1428571E+00  0.6997085E-01
    1       -4.413397   1.000000
    2        0.947246   1.000000
    3        2.730751   1.000000
    4        4.064581   1.000000
    5        8.492588   0.000000
    6        9.767059   0.000000
    7       10.073042   0.000000
    8       12.097613   0.000000
 
 -0.4285714E+00  0.2857143E+00  0.1428571E+00  0.1399417E+00
    1       -3.367058   1.000000
    2       -0.595836   1.000000
    3        2.155961   1.000000
    4        3.521568   1.000000
    5        8.986758   0.000000
    6        9.404041   0.000000
    7       11.409803   0.000000
    8       12.567029   0.000000
 
 -0.4285714E+00  0.4285714E+00  0.1428571E+00  0.6997085E-01
    1       -2.825038   1.000000
    2       -0.909749   1.000000
    3        2.241965   1.000000
    4        2.654320   1.000000
    5        8.119545   0.000000
    6        8.487932   0.000000
    7       12.099663   0.000000
    8       14.618258   0.000000
 
 -0.2857143E+00  0.4285714E+00  0.1428571E+00  0.6997085E-01
    1       -2.385353   1.000000
    2       -1.310158   1.000000
    3        1.599319   1.000000
    4        2.747745   1.000000
    5        8.653469   0.000000
    6       10.786141   0.000000
    7       11.577650   0.000000
    8       11.727924   0.000000
