       N       E                     dE             d eps       ncg     rms          rms(c)
DAV:   1    -0.423469456545E+01   -0.42347E+01   -0.18322E+03   344   0.307E+02
DAV:   2    -0.108686461718E+02   -0.66340E+01   -0.64336E+01   512   0.471E+01
DAV:   3    -0.109170001486E+02   -0.48354E-01   -0.48354E-01   352   0.470E+00
DAV:   4    -0.109170969370E+02   -0.96788E-04   -0.96789E-04   560   0.219E-01
DAV:   5    -0.109170969448E+02   -0.78261E-08   -0.78489E-08   344   0.191E-03    0.297E+00
DAV:   6    -0.107921148786E+02    0.12498E+00   -0.77263E-02   400   0.141E+00    0.176E+00
DAV:   7    -0.107333769394E+02    0.58738E-01   -0.14454E-01   392   0.203E+00    0.147E-01
DAV:   8    -0.107346428782E+02   -0.12659E-02   -0.33825E-03   368   0.401E-01    0.242E-02
DAV:   9    -0.107347330128E+02   -0.90135E-04   -0.84482E-05   200   0.711E-02
   1 F= -.10734733E+02 E0= -.10734586E+02  d E =-.107347E+02
