 running on    8 total cores
 distrk:  each k-point on    8 cores,    1 groups
 distr:  one band on    1 cores,    8 groups
 using from now: INCAR     
 vasp.5.4.4.18Apr17-6-g9f103f2a35 (build Dec 09 2018 21:25:21) complex          
  
 POSCAR found type information on POSCAR  Si
 POSCAR found :  1 types and       2 ions
 scaLAPACK will be used

 ----------------------------------------------------------------------------- 
|                                                                             |
|           W    W    AA    RRRRR   N    N  II  N    N   GGGG   !!!           |
|           W    W   A  A   R    R  NN   N  II  NN   N  G    G  !!!           |
|           W    W  A    A  R    R  N N  N  II  N N  N  G       !!!           |
|           W WW W  AAAAAA  RRRRR   N  N N  II  N  N N  G  GGG   !            |
|           WW  WW  A    A  R   R   N   NN  II  N   NN  G    G                |
|           W    W  A    A  R    R  N    N  II  N    N   GGGG   !!!           |
|                                                                             |
|      For optimal performance we recommend to set                            |
|        NCORE= 4 - approx SQRT( number of cores)                             |
|      NCORE specifies how many cores store one orbital (NPAR=cpu/NCORE).     |
|      This setting can  greatly improve the performance of VASP for DFT.     |
|      The default,   NCORE=1            might be grossly inefficient         |
|      on modern multi-core architectures or massively parallel machines.     |
|      Do your own testing !!!!                                               |
|      Unfortunately you need to use the default for GW and RPA calculations. |
|      (for HF NCORE is supported but not extensively tested yet)             |
|                                                                             |
 ----------------------------------------------------------------------------- 

 LDA part: xc-table for Pade appr. of Perdew
 POSCAR, INCAR and KPOINTS ok, starting setup
 FFT: planning ...
 WAVECAR not read
 entering main loop
       N       E                     dE             d eps       ncg     rms          rms(c)
DAV:   1    -0.423469456545E+01   -0.42347E+01   -0.18322E+03   344   0.307E+02
DAV:   2    -0.108686461718E+02   -0.66340E+01   -0.64336E+01   512   0.471E+01
DAV:   3    -0.109170001486E+02   -0.48354E-01   -0.48354E-01   352   0.470E+00
DAV:   4    -0.109170969370E+02   -0.96788E-04   -0.96789E-04   560   0.219E-01
DAV:   5    -0.109170969448E+02   -0.78261E-08   -0.78489E-08   344   0.191E-03    0.297E+00
DAV:   6    -0.107921148786E+02    0.12498E+00   -0.77263E-02   400   0.141E+00    0.176E+00
DAV:   7    -0.107333769394E+02    0.58738E-01   -0.14454E-01   392   0.203E+00    0.147E-01
DAV:   8    -0.107346428782E+02   -0.12659E-02   -0.33825E-03   368   0.401E-01    0.242E-02
DAV:   9    -0.107347330128E+02   -0.90135E-04   -0.84482E-05   200   0.711E-02
   1 F= -.10734733E+02 E0= -.10734586E+02  d E =-.107347E+02
 curvature:   0.00 expect dE= 0.000E+00 dE for cont linesearch  0.000E+00
 trial: gam= 0.00000 g(F)=  0.165E-43 g(S)=  0.000E+00 ort = 0.000E+00 (trialstep = 0.100E+01)
 search vector abs. value=  0.100E-09
 reached required accuracy - stopping structural energy minimisation
 writing wavefunctions
