<?xml version="1.0" encoding="ISO-8859-1"?>
<modeling>
 <generator>
  <i name="program" type="string">vasp </i>
  <i name="version" type="string">5.4.4.18Apr17-6-g9f103f2a35  </i>
  <i name="subversion" type="string">(build Dec 09 2018 21:25:21) complex            parallel </i>
  <i name="platform" type="string">IFC18.0.1.163_CrayMPICH7.7.0_MKL18.0.1.163 </i>
  <i name="date" type="string">2019 03 18 </i>
  <i name="time" type="string">04:50:56 </i>
 </generator>
 <incar>
  <i type="string" name="PREC">normal</i>
  <i type="int" name="IBRION">     2</i>
  <i name="EDIFF">      0.00040000</i>
  <i name="EDIFFG">     -0.01000000</i>
  <i type="int" name="NSW">    15</i>
  <i type="int" name="ISIF">     2</i>
  <i name="ENCUT">    150.00000000</i>
  <i type="int" name="NBANDS">     8</i>
  <i type="logical" name="LREAL"> F  </i>
  <i type="int" name="ISMEAR">     0</i>
  <i name="SIGMA">      0.20000000</i>
  <v type="int" name="KPOINT_BSE">    -1     0     0     0</v>
 </incar>
 <structure name="primitive_cell" >
  <crystal>
   <varray name="basis" >
    <v>       0.00000000       2.71500000       2.71500000 </v>
    <v>       2.71500000       0.00000000       2.71500000 </v>
    <v>       2.71500000       2.71500000       0.00000000 </v>
   </varray>
   <i name="volume">     40.02575175 </i>
   <varray name="rec_basis" >
    <v>      -0.18416206       0.18416206       0.18416206 </v>
    <v>       0.18416206      -0.18416206       0.18416206 </v>
    <v>       0.18416206       0.18416206      -0.18416206 </v>
   </varray>
  </crystal>
  <varray name="positions" >
   <v>      -0.50000000      -0.50000000      -0.50000000 </v>
   <v>      -0.25000000      -0.25000000      -0.25000000 </v>
  </varray>
 </structure>
 <varray name="primitive_index" >
  <v type="int" >        1 </v>
  <v type="int" >        2 </v>
 </varray>
 <kpoints>
  <generation param="Monkhorst-Pack">
   <v type="int" name="divisions">       7        7        7 </v>
   <v name="usershift">      0.00000000       0.00000000       0.00000000 </v>
   <v name="genvec1">      0.14285714      -0.00000000       0.00000000 </v>
   <v name="genvec2">     -0.00000000       0.14285714      -0.00000000 </v>
   <v name="genvec3">      0.00000000       0.00000000       0.14285714 </v>
   <v name="shift">      0.00000000       0.00000000       0.00000000 </v>
  </generation>
  <varray name="kpointlist" >
   <v>       0.00000000       0.00000000       0.00000000 </v>
   <v>       0.14285714      -0.00000000      -0.00000000 </v>
   <v>       0.28571429      -0.00000000       0.00000000 </v>
   <v>       0.42857143      -0.00000000       0.00000000 </v>
   <v>       0.14285714       0.14285714       0.00000000 </v>
   <v>       0.28571429       0.14285714      -0.00000000 </v>
   <v>       0.42857143       0.14285714       0.00000000 </v>
   <v>      -0.42857143       0.14285714      -0.00000000 </v>
   <v>      -0.28571429       0.14285714      -0.00000000 </v>
   <v>      -0.14285714       0.14285714      -0.00000000 </v>
   <v>       0.28571429       0.28571429       0.00000000 </v>
   <v>       0.42857143       0.28571429      -0.00000000 </v>
   <v>      -0.42857143       0.28571429       0.00000000 </v>
   <v>      -0.28571429       0.28571429      -0.00000000 </v>
   <v>       0.42857143       0.42857143       0.00000000 </v>
   <v>      -0.42857143       0.42857143      -0.00000000 </v>
   <v>       0.42857143       0.28571429       0.14285714 </v>
   <v>      -0.42857143       0.28571429       0.14285714 </v>
   <v>      -0.42857143       0.42857143       0.14285714 </v>
   <v>      -0.28571429       0.42857143       0.14285714 </v>
  </varray>
  <varray name="weights" >
   <v>       0.00291545 </v>
   <v>       0.02332362 </v>
   <v>       0.02332362 </v>
   <v>       0.02332362 </v>
   <v>       0.01749271 </v>
   <v>       0.06997085 </v>
   <v>       0.06997085 </v>
   <v>       0.06997085 </v>
   <v>       0.06997085 </v>
   <v>       0.03498542 </v>
   <v>       0.01749271 </v>
   <v>       0.06997085 </v>
   <v>       0.06997085 </v>
   <v>       0.03498542 </v>
   <v>       0.01749271 </v>
   <v>       0.03498542 </v>
   <v>       0.06997085 </v>
   <v>       0.13994169 </v>
   <v>       0.06997085 </v>
   <v>       0.06997085 </v>
  </varray>
 </kpoints>
 <parameters>
  <separator name="general" >
   <i type="string" name="SYSTEM">unknown system</i>
   <i type="logical" name="LCOMPAT"> F  </i>
  </separator>
  <separator name="electronic" >
   <i type="string" name="PREC">normal</i>
   <i name="ENMAX">    150.00000000</i>
   <i name="ENAUG">    322.06900000</i>
   <i name="EDIFF">      0.00040000</i>
   <i type="int" name="IALGO">    38</i>
   <i type="int" name="IWAVPR">    11</i>
   <i type="int" name="NBANDS">     8</i>
   <i name="NELECT">      8.00000000</i>
   <i type="int" name="TURBO">     0</i>
   <i type="int" name="IRESTART">     0</i>
   <i type="int" name="NREBOOT">     0</i>
   <i type="int" name="NMIN">     0</i>
   <i name="EREF">      0.00000000</i>
   <separator name="electronic smearing" >
    <i type="int" name="ISMEAR">     0</i>
    <i name="SIGMA">      0.20000000</i>
    <i name="KSPACING">      0.50000000</i>
    <i type="logical" name="KGAMMA"> T  </i>
   </separator>
   <separator name="electronic projectors" >
    <i type="logical" name="LREAL"> F  </i>
    <v name="ROPT">      0.00000000</v>
    <i type="int" name="LMAXPAW">  -100</i>
    <i type="int" name="LMAXMIX">     2</i>
    <i type="logical" name="NLSPLINE"> F  </i>
   </separator>
   <separator name="electronic startup" >
    <i type="int" name="ISTART">     0</i>
    <i type="int" name="ICHARG">     2</i>
    <i type="int" name="INIWAV">     1</i>
   </separator>
   <separator name="electronic spin" >
    <i type="int" name="ISPIN">     1</i>
    <i type="logical" name="LNONCOLLINEAR"> F  </i>
    <v name="MAGMOM">      1.00000000      1.00000000</v>
    <i name="NUPDOWN">     -1.00000000</i>
    <i type="logical" name="LSORBIT"> F  </i>
    <v name="SAXIS">      0.00000000      0.00000000      1.00000000</v>
    <i type="logical" name="LSPIRAL"> F  </i>
    <v name="QSPIRAL">      0.00000000      0.00000000      0.00000000</v>
    <i type="logical" name="LZEROZ"> F  </i>
   </separator>
   <separator name="electronic exchange-correlation" >
    <i type="logical" name="LASPH"> F  </i>
    <i type="logical" name="LMETAGGA"> F  </i>
   </separator>
   <separator name="electronic convergence" >
    <i type="int" name="NELM">    60</i>
    <i type="int" name="NELMDL">    -5</i>
    <i type="int" name="NELMIN">     2</i>
    <i name="ENINI">    150.00000000</i>
    <separator name="electronic convergence detail" >
     <i type="logical" name="LDIAG"> T  </i>
     <i type="logical" name="LSUBROT"> F  </i>
     <i name="WEIMIN">      0.00100000</i>
     <i name="EBREAK">      0.00001250</i>
     <i name="DEPER">      0.30000000</i>
     <i type="int" name="NRMM">     4</i>
     <i name="TIME">      0.40000000</i>
    </separator>
   </separator>
   <separator name="electronic mixer" >
    <i name="AMIX">      0.40000000</i>
    <i name="BMIX">      1.00000000</i>
    <i name="AMIN">      0.10000000</i>
    <i name="AMIX_MAG">      1.60000000</i>
    <i name="BMIX_MAG">      1.00000000</i>
    <separator name="electronic mixer details" >
     <i type="int" name="IMIX">     4</i>
     <i type="logical" name="MIXFIRST"> F  </i>
     <i type="int" name="MAXMIX">   -45</i>
     <i name="WC">    100.00000000</i>
     <i type="int" name="INIMIX">     1</i>
     <i type="int" name="MIXPRE">     1</i>
     <i type="int" name="MREMOVE">     5</i>
    </separator>
   </separator>
   <separator name="electronic dipolcorrection" >
    <i type="logical" name="LDIPOL"> F  </i>
    <i type="logical" name="LMONO"> F  </i>
    <i type="int" name="IDIPOL">     0</i>
    <i name="EPSILON">      1.00000000</i>
    <v name="DIPOL">   -100.00000000   -100.00000000   -100.00000000</v>
    <i name="EFIELD">      0.00000000</i>
   </separator>
  </separator>
  <separator name="grids" >
   <i type="int" name="NGX">    12</i>
   <i type="int" name="NGY">    12</i>
   <i type="int" name="NGZ">    12</i>
   <i type="int" name="NGXF">    24</i>
   <i type="int" name="NGYF">    24</i>
   <i type="int" name="NGZF">    24</i>
   <i type="logical" name="ADDGRID"> F  </i>
  </separator>
  <separator name="ionic" >
   <i type="int" name="NSW">    15</i>
   <i type="int" name="IBRION">     2</i>
   <i type="int" name="MDALGO">     0</i>
   <i type="int" name="ISIF">     2</i>
   <i name="PSTRESS">      0.00000000</i>
   <i name="EDIFFG">     -0.01000000</i>
   <i type="int" name="NFREE">     1</i>
   <i name="POTIM">      0.50000000</i>
   <i name="SMASS">     -3.00000000</i>
   <i name="SCALEE">      1.00000000</i>
  </separator>
  <separator name="ionic md" >
   <i name="TEBEG">      0.00010000</i>
   <i name="TEEND">      0.00010000</i>
   <i type="int" name="NBLOCK">     1</i>
   <i type="int" name="KBLOCK">    15</i>
   <i type="int" name="NPACO">   256</i>
   <i name="APACO">     16.00000000</i>
  </separator>
  <separator name="symmetry" >
   <i type="int" name="ISYM">     2</i>
   <i name="SYMPREC">      0.00001000</i>
  </separator>
  <separator name="dos" >
   <i type="int" name="LORBIT">     0</i>
   <v name="RWIGS">     -1.00000000</v>
   <i type="int" name="NEDOS">   301</i>
   <i name="EMIN">     10.00000000</i>
   <i name="EMAX">    -10.00000000</i>
   <i name="EFERMI">      0.00000000</i>
  </separator>
  <separator name="writing" >
   <i type="int" name="NWRITE">     2</i>
   <i type="logical" name="LWAVE"> T  </i>
   <i type="logical" name="LDOWNSAMPLE"> F  </i>
   <i type="logical" name="LCHARG"> T  </i>
   <i type="logical" name="LPARD"> F  </i>
   <i type="logical" name="LVTOT"> F  </i>
   <i type="logical" name="LVHAR"> F  </i>
   <i type="logical" name="LELF"> F  </i>
   <i type="logical" name="LOPTICS"> F  </i>
   <v name="STM">      0.00000000      0.00000000      0.00000000      0.00000000      0.00000000      0.00000000      0.00000000</v>
  </separator>
  <separator name="performance" >
   <i type="int" name="NPAR">     8</i>
   <i type="int" name="NSIM">     4</i>
   <i type="int" name="NBLK">    -1</i>
   <i type="logical" name="LPLANE"> T  </i>
   <i type="logical" name="LSCALAPACK"> T  </i>
   <i type="logical" name="LSCAAWARE"> F  </i>
   <i type="logical" name="LSCALU"> F  </i>
   <i type="logical" name="LASYNC"> F  </i>
   <i type="logical" name="LORBITALREAL"> F  </i>
  </separator>
  <separator name="miscellaneous" >
   <i type="int" name="IDIOT">     3</i>
   <i type="int" name="ISPECIAL">     0</i>
   <i type="logical" name="LMUSIC"> F  </i>
   <v name="POMASS">     28.08500000</v>
   <v name="DARWINR">      0.00000000</v>
   <v name="DARWINV">      1.00000000</v>
   <i type="logical" name="LCORR"> T  </i>
  </separator>
  <i type="logical" name="GGA_COMPAT"> T  </i>
  <i type="logical" name="LBERRY"> F  </i>
  <i type="int" name="ICORELEVEL">     0</i>
  <i type="logical" name="LDAU"> F  </i>
  <i type="int" name="I_CONSTRAINED_M">     0</i>
  <separator name="electronic exchange-correlation" >
   <i type="string" name="GGA">--</i>
   <i type="int" name="VOSKOWN">     0</i>
   <i type="logical" name="LHFCALC"> F  </i>
   <i type="string" name="PRECFOCK"></i>
   <i type="logical" name="LSYMGRAD"> F  </i>
   <i type="logical" name="LHFONE"> F  </i>
   <i type="logical" name="LRHFCALC"> F  </i>
   <i type="logical" name="LTHOMAS"> F  </i>
   <i type="logical" name="LMODELHF"> F  </i>
   <i name="ENCUT4O">     -1.00000000</i>
   <i type="int" name="EXXOEP">     0</i>
   <i type="int" name="FOURORBIT">     0</i>
   <i name="AEXX">      0.00000000</i>
   <i name="HFALPHA">      0.00000000</i>
   <i name="MCALPHA">      0.00000000</i>
   <i name="ALDAX">      1.00000000</i>
   <i name="AGGAX">      1.00000000</i>
   <i name="ALDAC">      1.00000000</i>
   <i name="AGGAC">      1.00000000</i>
   <i type="int" name="NKREDX">     1</i>
   <i type="int" name="NKREDY">     1</i>
   <i type="int" name="NKREDZ">     1</i>
   <i type="logical" name="SHIFTRED"> F  </i>
   <i type="logical" name="ODDONLY"> F  </i>
   <i type="logical" name="EVENONLY"> F  </i>
   <i type="int" name="LMAXFOCK">     0</i>
   <i type="int" name="NMAXFOCKAE">     0</i>
   <i type="logical" name="LFOCKAEDFT"> F  </i>
   <i name="HFSCREEN">      0.00000000</i>
   <i name="HFSCREENC">      0.00000000</i>
   <i type="int" name="NBANDSGWLOW">     0</i>
  </separator>
  <separator name="vdW DFT" >
   <i type="logical" name="LUSE_VDW"> F  </i>
   <i name="Zab_VDW">     -0.84910000</i>
   <i name="PARAM1">      0.12340000</i>
   <i name="PARAM2">      1.00000000</i>
   <i name="PARAM3">      0.00000000</i>
  </separator>
  <separator name="model GW" >
   <i type="int" name="MODEL_GW">     0</i>
   <i name="MODEL_EPS0">     12.00772552</i>
   <i name="MODEL_ALPHA">      1.00000000</i>
  </separator>
  <separator name="linear response parameters" >
   <i type="logical" name="LEPSILON"> F  </i>
   <i type="logical" name="LRPA"> F  </i>
   <i type="logical" name="LNABLA"> F  </i>
   <i type="logical" name="LVEL"> F  </i>
   <i type="int" name="KINTER">     0</i>
   <i name="CSHIFT">      0.10000000</i>
   <i name="OMEGAMAX">     -1.00000000</i>
   <i name="DEG_THRESHOLD">      0.00200000</i>
   <i name="RTIME">     -0.10000000</i>
   <i name="WPLASMAI">      0.00000000</i>
   <v name="DFIELD">      0.00000000      0.00000000      0.00000000</v>
   <v name="WPLASMA">      0.00000000      0.00000000      0.00000000      0.00000000      0.00000000      0.00000000      0.00000000      0.00000000      0.00000000</v>
  </separator>
  <separator name="orbital magnetization" >
   <i type="logical" name="NUCIND"> F  </i>
   <v name="MAGPOS">      0.00000000      0.00000000      0.00000000</v>
   <i type="logical" name="LNICSALL"> T  </i>
   <i type="logical" name="ORBITALMAG"> F  </i>
   <i type="logical" name="LMAGBLOCH"> F  </i>
   <i type="logical" name="LCHIMAG"> F  </i>
   <i type="logical" name="LGAUGE"> T  </i>
   <i type="int" name="MAGATOM">     0</i>
   <v name="MAGDIPOL">      0.00000000      0.00000000      0.00000000</v>
   <v name="AVECCONST">      0.00000000      0.00000000      0.00000000</v>
  </separator>
  <separator name="response functions" >
   <i type="logical" name="LADDER"> F  </i>
   <i type="logical" name="LRPAFORCE"> F  </i>
   <i type="logical" name="LFXC"> F  </i>
   <i type="logical" name="LHARTREE"> T  </i>
   <i type="int" name="IBSE">     0</i>
   <v type="int" name="KPOINT">    -1     0     0     0</v>
   <i type="logical" name="LTCTE"> F  </i>
   <i type="logical" name="LTETE"> F  </i>
   <i type="logical" name="LTRIPLET"> F  </i>
   <i type="logical" name="LFXCEPS"> F  </i>
   <i type="logical" name="LFXHEG"> F  </i>
   <i type="int" name="NATURALO">     2</i>
   <i type="logical" name="L2ORDER"> F  </i>
   <i type="logical" name="LMP2LT"> F  </i>
   <i type="logical" name="LUSEW"> F  </i>
   <i name="ENCUTGW">     -2.00000000</i>
   <i name="ENCUTGWSOFT">     -2.00000000</i>
   <i name="ENCUTLF">     -1.00000000</i>
   <i type="int" name="LMAXMP2">    -1</i>
   <i name="SCISSOR">      0.00000000</i>
   <i type="int" name="NOMEGA">     0</i>
   <i type="int" name="NOMEGAR">     0</i>
   <i type="int" name="NBANDSGW">    -1</i>
   <i type="int" name="NBANDSO">    -1</i>
   <i type="int" name="NBANDSV">    -1</i>
   <i type="int" name="NELM">     1</i>
   <i type="int" name="NELMHF">     1</i>
   <i type="int" name="DIM">     3</i>
   <i type="int" name="ANTIRES">     0</i>
   <i name="OMEGAMAX">    -30.00000000</i>
   <i name="OMEGAMIN">    -30.00000000</i>
   <i name="OMEGATL">   -200.00000000</i>
   <i type="int" name="OMEGAGRID">   140</i>
   <i name="CSHIFT">     -0.10000000</i>
   <i type="logical" name="SELFENERGY"> F  </i>
   <i type="logical" name="LSPECTRAL"> F  </i>
   <i type="logical" name="LSPECTRALGW"> F  </i>
   <i type="logical" name="LSINGLES"> F  </i>
   <i type="logical" name="LFERMIGW"> F  </i>
   <i type="logical" name="ODDONLYGW"> F  </i>
   <i type="logical" name="EVENONLYGW"> F  </i>
   <i type="int" name="NKREDLFX">     1</i>
   <i type="int" name="NKREDLFY">     1</i>
   <i type="int" name="NKREDLFZ">     1</i>
   <i type="int" name="MAXMEM">  2800</i>
   <i type="int" name="TELESCOPE">     0</i>
   <i type="int" name="TAUPAR">     1</i>
   <i type="int" name="OMEGAPAR">    -1</i>
   <i name="LAMBDA">      1.00000000</i>
  </separator>
  <separator name="External order field" >
   <i name="OFIELD_KAPPA">      0.00000000</i>
   <v name="OFIELD_K">      0.00000000      0.00000000      0.00000000</v>
   <i name="OFIELD_Q6_NEAR">      0.00000000</i>
   <i name="OFIELD_Q6_FAR">      0.00000000</i>
   <i name="OFIELD_A">      0.00000000</i>
  </separator>
 </parameters>
 <atominfo>
  <atoms>       2 </atoms>
  <types>       1 </types>
  <array name="atoms" >
   <dimension dim="1">ion</dimension>
   <field type="string">element</field>
   <field type="int">atomtype</field>
   <set>
    <rc><c>Si</c><c>   1</c></rc>
    <rc><c>Si</c><c>   1</c></rc>
   </set>
  </array>
  <array name="atomtypes" >
   <dimension dim="1">type</dimension>
   <field type="int">atomspertype</field>
   <field type="string">element</field>
   <field>mass</field>
   <field>valence</field>
   <field type="string">pseudopotential</field>
   <set>
    <rc><c>   2</c><c>Si</c><c>     28.08500000</c><c>      4.00000000</c><c> PAW_PBE Si 05Jan2001                   </c></rc>
   </set>
  </array>
 </atominfo>
 <structure name="initialpos" >
  <crystal>
   <varray name="basis" >
    <v>       0.00000000       2.71500000       2.71500000 </v>
    <v>       2.71500000       0.00000000       2.71500000 </v>
    <v>       2.71500000       2.71500000       0.00000000 </v>
   </varray>
   <i name="volume">     40.02575175 </i>
   <varray name="rec_basis" >
    <v>      -0.18416206       0.18416206       0.18416206 </v>
    <v>       0.18416206      -0.18416206       0.18416206 </v>
    <v>       0.18416206       0.18416206      -0.18416206 </v>
   </varray>
  </crystal>
  <varray name="positions" >
   <v>       0.50000000       0.50000000       0.50000000 </v>
   <v>       0.75000000       0.75000000       0.75000000 </v>
  </varray>
 </structure>
 <calculation>
  <scstep>
   <time name="dav">    0.16    0.17</time>
   <time name="total">    0.20    0.21</time>
   <energy>
    <i name="alphaZ">      3.36414203 </i>
    <i name="ewald">   -228.56352493 </i>
    <i name="hartreedc">    -11.00108243 </i>
    <i name="XCdc">    -18.60155909 </i>
    <i name="pawpsdc">     65.95520812 </i>
    <i name="pawaedc">    -30.76852678 </i>
    <i name="eentropy">     -0.00840438 </i>
    <i name="bandstr">      9.29721647 </i>
    <i name="atom">    206.09183643 </i>
    <i name="e_fr_energy">     -4.23469457 </i>
    <i name="e_wo_entrp">     -4.22629018 </i>
    <i name="e_0_energy">     -4.23049237 </i>
   </energy>
  </scstep>
  <scstep>
   <time name="dav">    0.25    0.29</time>
   <time name="total">    0.25    0.29</time>
   <energy>
    <i name="e_fr_energy">    -10.86864617 </i>
    <i name="e_wo_entrp">    -10.86862652 </i>
    <i name="e_0_energy">    -10.86863635 </i>
   </energy>
  </scstep>
  <scstep>
   <time name="dav">    0.16    0.17</time>
   <time name="total">    0.17    0.17</time>
   <energy>
    <i name="e_fr_energy">    -10.91700015 </i>
    <i name="e_wo_entrp">    -10.91698414 </i>
    <i name="e_0_energy">    -10.91699214 </i>
   </energy>
  </scstep>
  <scstep>
   <time name="dav">    0.28    0.28</time>
   <time name="total">    0.28    0.28</time>
   <energy>
    <i name="e_fr_energy">    -10.91709694 </i>
    <i name="e_wo_entrp">    -10.91708093 </i>
    <i name="e_0_energy">    -10.91708893 </i>
   </energy>
  </scstep>
  <scstep>
   <time name="dav">    0.10    0.11</time>
   <time name="total">    0.10    0.11</time>
   <energy>
    <i name="e_fr_energy">    -10.91709694 </i>
    <i name="e_wo_entrp">    -10.91708094 </i>
    <i name="e_0_energy">    -10.91708894 </i>
   </energy>
  </scstep>
  <scstep>
   <time name="dav">    0.11    0.11</time>
   <time name="total">    0.13    0.13</time>
   <energy>
    <i name="e_fr_energy">    -10.79211488 </i>
    <i name="e_wo_entrp">    -10.79204206 </i>
    <i name="e_0_energy">    -10.79207847 </i>
   </energy>
  </scstep>
  <scstep>
   <time name="dav">    0.10    0.11</time>
   <time name="total">    0.12    0.13</time>
   <energy>
    <i name="e_fr_energy">    -10.73337694 </i>
    <i name="e_wo_entrp">    -10.73302498 </i>
    <i name="e_0_energy">    -10.73320096 </i>
   </energy>
  </scstep>
  <scstep>
   <time name="dav">    0.10    0.10</time>
   <time name="total">    0.12    0.13</time>
   <energy>
    <i name="e_fr_energy">    -10.73464288 </i>
    <i name="e_wo_entrp">    -10.73434876 </i>
    <i name="e_0_energy">    -10.73449582 </i>
   </energy>
  </scstep>
  <scstep>
   <time name="dav">    0.06    0.06</time>
   <time name="total">    0.07    0.08</time>
   <energy>
    <i name="alphaZ">      3.36414203 </i>
    <i name="ewald">   -228.56352493 </i>
    <i name="hartreedc">    -14.89986104 </i>
    <i name="XCdc">    -17.92047253 </i>
    <i name="pawpsdc">     76.71614422 </i>
    <i name="pawaedc">    -41.76800452 </i>
    <i name="eentropy">     -0.00029306 </i>
    <i name="bandstr">      6.24530040 </i>
    <i name="atom">    206.09183643 </i>
    <i name="e_fr_energy">    -10.73473301 </i>
    <i name="e_wo_entrp">    -10.73443996 </i>
    <i name="e_0_energy">    -10.73458648 </i>
   </energy>
  </scstep>
  <structure>
   <crystal>
    <varray name="basis" >
     <v>       0.00000000       2.71500000       2.71500000 </v>
     <v>       2.71500000       0.00000000       2.71500000 </v>
     <v>       2.71500000       2.71500000       0.00000000 </v>
    </varray>
    <i name="volume">     40.02575175 </i>
    <varray name="rec_basis" >
     <v>      -0.18416206       0.18416206       0.18416206 </v>
     <v>       0.18416206      -0.18416206       0.18416206 </v>
     <v>       0.18416206       0.18416206      -0.18416206 </v>
    </varray>
   </crystal>
   <varray name="positions" >
    <v>       0.50000000       0.50000000       0.50000000 </v>
    <v>       0.75000000       0.75000000       0.75000000 </v>
   </varray>
  </structure>
  <varray name="forces" >
   <v>      -0.00000000      -0.00000000      -0.00000000 </v>
   <v>       0.00000000       0.00000000       0.00000000 </v>
  </varray>
  <varray name="stress" >
   <v>      19.80281986      -0.00000000       0.00000000 </v>
   <v>      -0.00000000      19.80281986       0.00000000 </v>
   <v>       0.00000000      -0.00000000      19.80281986 </v>
  </varray>
  <energy>
   <i name="e_fr_energy">    -10.73473301 </i>
   <i name="e_wo_entrp">    -10.73458648 </i>
   <i name="e_0_energy">     -0.00029306 </i>
  </energy>
  <time name="totalsc">    1.75    2.23</time>
  <eigenvalues>
   <array>
    <dimension dim="1">band</dimension>
    <dimension dim="2">kpoint</dimension>
    <dimension dim="3">spin</dimension>
    <field>eigene</field>
    <field>occ</field>
    <set>
     <set comment="spin 1">
      <set comment="kpoint 1">
       <r>   -6.1335    1.0000 </r>
       <r>    5.8788    0.9762 </r>
       <r>    5.8788    0.9762 </r>
       <r>    5.8791    0.9761 </r>
       <r>    8.4566    0.0000 </r>
       <r>    8.4566    0.0000 </r>
       <r>    8.4568    0.0000 </r>
       <r>    9.1992    0.0000 </r>
      </set>
      <set comment="kpoint 2">
       <r>   -5.8669    1.0000 </r>
       <r>    3.9280    1.0000 </r>
       <r>    5.5150    1.0000 </r>
       <r>    5.5152    1.0000 </r>
       <r>    8.3245    0.0000 </r>
       <r>    8.9863    0.0000 </r>
       <r>    8.9866    0.0000 </r>
       <r>   10.8880    0.0000 </r>
      </set>
      <set comment="kpoint 3">
       <r>   -5.0986    1.0000 </r>
       <r>    1.2915    1.0000 </r>
       <r>    4.9883    1.0000 </r>
       <r>    4.9885    1.0000 </r>
       <r>    7.7989    0.0000 </r>
       <r>    9.4609    0.0000 </r>
       <r>    9.4613    0.0000 </r>
       <r>   13.3353    0.0000 </r>
      </set>
      <set comment="kpoint 4">
       <r>   -4.0540    1.0000 </r>
       <r>   -0.7524    1.0000 </r>
       <r>    4.6951    1.0000 </r>
       <r>    4.6953    1.0000 </r>
       <r>    7.4568    0.0000 </r>
       <r>    9.3267    0.0000 </r>
       <r>    9.3271    0.0000 </r>
       <r>   13.6650    0.0000 </r>
      </set>
      <set comment="kpoint 5">
       <r>   -5.7767    1.0000 </r>
       <r>    4.2324    1.0000 </r>
       <r>    4.8927    1.0000 </r>
       <r>    4.8929    1.0000 </r>
       <r>    7.7737    0.0000 </r>
       <r>    9.8897    0.0000 </r>
       <r>    9.8899    0.0000 </r>
       <r>   10.3122    0.0000 </r>
      </set>
      <set comment="kpoint 6">
       <r>   -5.1683    1.0000 </r>
       <r>    2.0919    1.0000 </r>
       <r>    4.3051    1.0000 </r>
       <r>    4.3409    1.0000 </r>
       <r>    7.9785    0.0000 </r>
       <r>    9.8124    0.0000 </r>
       <r>   10.5307    0.0000 </r>
       <r>   10.6924    0.0000 </r>
      </set>
      <set comment="kpoint 7">
       <r>   -4.1559    1.0000 </r>
       <r>   -0.1073    1.0000 </r>
       <r>    3.6119    1.0000 </r>
       <r>    4.1467    1.0000 </r>
       <r>    8.0489    0.0000 </r>
       <r>    9.7418    0.0000 </r>
       <r>   10.4851    0.0000 </r>
       <r>   11.7468    0.0000 </r>
      </set>
      <set comment="kpoint 8">
       <r>   -3.5939    1.0000 </r>
       <r>   -0.9779    1.0000 </r>
       <r>    3.1902    1.0000 </r>
       <r>    4.3488    1.0000 </r>
       <r>    8.1447    0.0000 </r>
       <r>    9.6557    0.0000 </r>
       <r>   10.0896    0.0000 </r>
       <r>   14.0976    0.0000 </r>
      </set>
      <set comment="kpoint 9">
       <r>   -4.5260    1.0000 </r>
       <r>    0.5769    1.0000 </r>
       <r>    3.1951    1.0000 </r>
       <r>    4.8676    1.0000 </r>
       <r>    8.5551    0.0000 </r>
       <r>    9.8304    0.0000 </r>
       <r>    9.8627    0.0000 </r>
       <r>   12.5751    0.0000 </r>
      </set>
      <set comment="kpoint 10">
       <r>   -5.4296    1.0000 </r>
       <r>    2.7174    1.0000 </r>
       <r>    3.8892    1.0000 </r>
       <r>    5.4743    1.0000 </r>
       <r>    8.9559    0.0000 </r>
       <r>    9.2020    0.0000 </r>
       <r>    9.4801    0.0000 </r>
       <r>   11.5449    0.0000 </r>
      </set>
      <set comment="kpoint 11">
       <r>   -4.7232    1.0000 </r>
       <r>    1.6892    1.0000 </r>
       <r>    3.7094    1.0000 </r>
       <r>    3.7095    1.0000 </r>
       <r>    6.8252    0.0000 </r>
       <r>    8.5464    0.0000 </r>
       <r>   12.3479    0.0000 </r>
       <r>   12.3482    0.0000 </r>
      </set>
      <set comment="kpoint 12">
       <r>   -3.8178    1.0000 </r>
       <r>    0.1783    1.0000 </r>
       <r>    2.7255    1.0000 </r>
       <r>    3.4458    1.0000 </r>
       <r>    7.1158    0.0000 </r>
       <r>    8.6148    0.0000 </r>
       <r>   12.5624    0.0000 </r>
       <r>   12.7552    0.0000 </r>
      </set>
      <set comment="kpoint 13">
       <r>   -2.8954    1.0000 </r>
       <r>   -1.0095    1.0000 </r>
       <r>    1.7679    1.0000 </r>
       <r>    3.6143    1.0000 </r>
       <r>    7.3605    0.0000 </r>
       <r>   10.8978    0.0000 </r>
       <r>   12.2461    0.0000 </r>
       <r>   12.2818    0.0000 </r>
      </set>
      <set comment="kpoint 14">
       <r>   -3.5486    1.0000 </r>
       <r>   -0.2553    1.0000 </r>
       <r>    1.6936    1.0000 </r>
       <r>    4.1716    1.0000 </r>
       <r>    7.9775    0.0000 </r>
       <r>   11.3914    0.0000 </r>
       <r>   11.7774    0.0000 </r>
       <r>   12.5077    0.0000 </r>
      </set>
      <set comment="kpoint 15">
       <r>   -3.0304    1.0000 </r>
       <r>   -0.8227    1.0000 </r>
       <r>    3.0704    1.0000 </r>
       <r>    3.0705    1.0000 </r>
       <r>    6.4785    0.0119 </r>
       <r>    6.9892    0.0000 </r>
       <r>   15.0493    0.0000 </r>
       <r>   15.0495    0.0000 </r>
      </set>
      <set comment="kpoint 16">
       <r>   -2.0764    1.0000 </r>
       <r>   -1.7873    1.0000 </r>
       <r>    2.1737    1.0000 </r>
       <r>    3.1311    1.0000 </r>
       <r>    6.7780    0.0000 </r>
       <r>    8.0445    0.0000 </r>
       <r>   14.7746    0.0000 </r>
       <r>   15.1814    0.0000 </r>
      </set>
      <set comment="kpoint 17">
       <r>   -4.4134    1.0000 </r>
       <r>    0.9472    1.0000 </r>
       <r>    2.7308    1.0000 </r>
       <r>    4.0646    1.0000 </r>
       <r>    8.4926    0.0000 </r>
       <r>    9.7671    0.0000 </r>
       <r>   10.0730    0.0000 </r>
       <r>   12.0976    0.0000 </r>
      </set>
      <set comment="kpoint 18">
       <r>   -3.3671    1.0000 </r>
       <r>   -0.5958    1.0000 </r>
       <r>    2.1560    1.0000 </r>
       <r>    3.5216    1.0000 </r>
       <r>    8.9868    0.0000 </r>
       <r>    9.4040    0.0000 </r>
       <r>   11.4098    0.0000 </r>
       <r>   12.5670    0.0000 </r>
      </set>
      <set comment="kpoint 19">
       <r>   -2.8250    1.0000 </r>
       <r>   -0.9097    1.0000 </r>
       <r>    2.2420    1.0000 </r>
       <r>    2.6543    1.0000 </r>
       <r>    8.1195    0.0000 </r>
       <r>    8.4879    0.0000 </r>
       <r>   12.0997    0.0000 </r>
       <r>   14.6183    0.0000 </r>
      </set>
      <set comment="kpoint 20">
       <r>   -2.3854    1.0000 </r>
       <r>   -1.3102    1.0000 </r>
       <r>    1.5993    1.0000 </r>
       <r>    2.7477    1.0000 </r>
       <r>    8.6535    0.0000 </r>
       <r>   10.7861    0.0000 </r>
       <r>   11.5777    0.0000 </r>
       <r>   11.7279    0.0000 </r>
      </set>
     </set>
    </set>
   </array>
  </eigenvalues>
  <separator name="orbital magnetization" >
   <v name="MAGDIPOLOUT">      0.00000000      0.00000000      0.00000000</v>
  </separator>
  <dos>
   <i name="efermi">      6.15891093 </i>
   <total>
    <array>
     <dimension dim="1">gridpoints</dimension>
     <dimension dim="2">spin</dimension>
     <field>energy</field>
     <field>total</field>
     <field>integrated</field>
     <set>
      <set comment="spin 1">
       <r>    -8.1335     0.0000     0.0000 </r>
       <r>    -8.0491     0.0000     0.0000 </r>
       <r>    -7.9647     0.0000     0.0000 </r>
       <r>    -7.8804     0.0000     0.0000 </r>
       <r>    -7.7960     0.0000     0.0000 </r>
       <r>    -7.7116     0.0000     0.0000 </r>
       <r>    -7.6272     0.0000     0.0000 </r>
       <r>    -7.5428     0.0000     0.0000 </r>
       <r>    -7.4584     0.0000     0.0000 </r>
       <r>    -7.3741     0.0000     0.0000 </r>
       <r>    -7.2897     0.0000     0.0000 </r>
       <r>    -7.2053     0.0000     0.0000 </r>
       <r>    -7.1209     0.0000     0.0000 </r>
       <r>    -7.0365     0.0000     0.0000 </r>
       <r>    -6.9522     0.0000     0.0000 </r>
       <r>    -6.8678     0.0000     0.0000 </r>
       <r>    -6.7834     0.0000     0.0000 </r>
       <r>    -6.6990     0.0000     0.0000 </r>
       <r>    -6.6146     0.0000     0.0000 </r>
       <r>    -6.5302     0.0002     0.0000 </r>
       <r>    -6.4459     0.0008     0.0001 </r>
       <r>    -6.3615     0.0029     0.0003 </r>
       <r>    -6.2771     0.0080     0.0010 </r>
       <r>    -6.1927     0.0181     0.0025 </r>
       <r>    -6.1083     0.0378     0.0057 </r>
       <r>    -6.0239     0.0768     0.0122 </r>
       <r>    -5.9396     0.1386     0.0239 </r>
       <r>    -5.8552     0.2002     0.0408 </r>
       <r>    -5.7708     0.2219     0.0595 </r>
       <r>    -5.6864     0.1961     0.0761 </r>
       <r>    -5.6020     0.1677     0.0902 </r>
       <r>    -5.5176     0.1832     0.1057 </r>
       <r>    -5.4333     0.2422     0.1261 </r>
       <r>    -5.3489     0.3236     0.1534 </r>
       <r>    -5.2645     0.4250     0.1893 </r>
       <r>    -5.1801     0.5206     0.2332 </r>
       <r>    -5.0957     0.5314     0.2781 </r>
       <r>    -5.0113     0.4196     0.3135 </r>
       <r>    -4.9270     0.2620     0.3356 </r>
       <r>    -4.8426     0.1686     0.3498 </r>
       <r>    -4.7582     0.1865     0.3655 </r>
       <r>    -4.6738     0.3078     0.3915 </r>
       <r>    -4.5894     0.5012     0.4338 </r>
       <r>    -4.5050     0.6924     0.4922 </r>
       <r>    -4.4207     0.7802     0.5581 </r>
       <r>    -4.3363     0.7396     0.6205 </r>
       <r>    -4.2519     0.6602     0.6762 </r>
       <r>    -4.1675     0.6206     0.7285 </r>
       <r>    -4.0831     0.5943     0.7787 </r>
       <r>    -3.9987     0.5458     0.8248 </r>
       <r>    -3.9144     0.5172     0.8684 </r>
       <r>    -3.8300     0.5519     0.9150 </r>
       <r>    -3.7456     0.6336     0.9684 </r>
       <r>    -3.6612     0.7419     1.0310 </r>
       <r>    -3.5768     0.8729     1.1047 </r>
       <r>    -3.4925     1.0002     1.1891 </r>
       <r>    -3.4081     1.0634     1.2788 </r>
       <r>    -3.3237     0.9856     1.3620 </r>
       <r>    -3.2393     0.7564     1.4258 </r>
       <r>    -3.1549     0.5099     1.4689 </r>
       <r>    -3.0705     0.4234     1.5046 </r>
       <r>    -2.9862     0.5416     1.5503 </r>
       <r>    -2.9018     0.7347     1.6123 </r>
       <r>    -2.8174     0.8060     1.6803 </r>
       <r>    -2.7330     0.6701     1.7368 </r>
       <r>    -2.6486     0.4384     1.7738 </r>
       <r>    -2.5642     0.2934     1.7986 </r>
       <r>    -2.4799     0.3040     1.8242 </r>
       <r>    -2.3955     0.3848     1.8567 </r>
       <r>    -2.3111     0.4118     1.8915 </r>
       <r>    -2.2267     0.3599     1.9218 </r>
       <r>    -2.1423     0.2968     1.9469 </r>
       <r>    -2.0579     0.2639     1.9691 </r>
       <r>    -1.9736     0.2468     1.9900 </r>
       <r>    -1.8892     0.2369     2.0100 </r>
       <r>    -1.8048     0.2333     2.0296 </r>
       <r>    -1.7204     0.2122     2.0475 </r>
       <r>    -1.6360     0.1644     2.0614 </r>
       <r>    -1.5516     0.1344     2.0728 </r>
       <r>    -1.4673     0.1797     2.0879 </r>
       <r>    -1.3829     0.2999     2.1132 </r>
       <r>    -1.2985     0.4293     2.1495 </r>
       <r>    -1.2141     0.5330     2.1944 </r>
       <r>    -1.1297     0.6861     2.2523 </r>
       <r>    -1.0453     0.9519     2.3327 </r>
       <r>    -0.9610     1.2120     2.4349 </r>
       <r>    -0.8766     1.2794     2.5429 </r>
       <r>    -0.7922     1.1639     2.6411 </r>
       <r>    -0.7078     1.0484     2.7296 </r>
       <r>    -0.6234     1.0062     2.8145 </r>
       <r>    -0.5390     0.9191     2.8920 </r>
       <r>    -0.4547     0.7125     2.9522 </r>
       <r>    -0.3703     0.5021     2.9945 </r>
       <r>    -0.2859     0.4294     3.0308 </r>
       <r>    -0.2015     0.4852     3.0717 </r>
       <r>    -0.1171     0.5518     3.1183 </r>
       <r>    -0.0328     0.5507     3.1647 </r>
       <r>     0.0516     0.5100     3.2078 </r>
       <r>     0.1360     0.4844     3.2487 </r>
       <r>     0.2204     0.4530     3.2869 </r>
       <r>     0.3048     0.3770     3.3187 </r>
       <r>     0.3892     0.3054     3.3445 </r>
       <r>     0.4735     0.3157     3.3711 </r>
       <r>     0.5579     0.3840     3.4035 </r>
       <r>     0.6423     0.4100     3.4381 </r>
       <r>     0.7267     0.3673     3.4691 </r>
       <r>     0.8111     0.3390     3.4977 </r>
       <r>     0.8955     0.3761     3.5294 </r>
       <r>     0.9798     0.4108     3.5641 </r>
       <r>     1.0642     0.3651     3.5949 </r>
       <r>     1.1486     0.2684     3.6176 </r>
       <r>     1.2330     0.2011     3.6345 </r>
       <r>     1.3174     0.1931     3.6508 </r>
       <r>     1.4018     0.2452     3.6715 </r>
       <r>     1.4861     0.3871     3.7042 </r>
       <r>     1.5705     0.6265     3.7571 </r>
       <r>     1.6549     0.8672     3.8302 </r>
       <r>     1.7393     0.9613     3.9114 </r>
       <r>     1.8237     0.8720     3.9849 </r>
       <r>     1.9081     0.7633     4.0493 </r>
       <r>     1.9924     0.8759     4.1233 </r>
       <r>     2.0768     1.2523     4.2289 </r>
       <r>     2.1612     1.6092     4.3647 </r>
       <r>     2.2456     1.5987     4.4996 </r>
       <r>     2.3300     1.2021     4.6011 </r>
       <r>     2.4144     0.7562     4.6649 </r>
       <r>     2.4987     0.6247     4.7176 </r>
       <r>     2.5831     0.9225     4.7954 </r>
       <r>     2.6675     1.4304     4.9161 </r>
       <r>     2.7519     1.7185     5.0611 </r>
       <r>     2.8363     1.5395     5.1910 </r>
       <r>     2.9207     1.1169     5.2853 </r>
       <r>     3.0050     0.8769     5.3593 </r>
       <r>     3.0894     0.9662     5.4408 </r>
       <r>     3.1738     1.1707     5.5396 </r>
       <r>     3.2582     1.2583     5.6458 </r>
       <r>     3.3426     1.2845     5.7542 </r>
       <r>     3.4269     1.4607     5.8774 </r>
       <r>     3.5113     1.7715     6.0269 </r>
       <r>     3.5957     1.9279     6.1896 </r>
       <r>     3.6801     1.7283     6.3354 </r>
       <r>     3.7645     1.3052     6.4456 </r>
       <r>     3.8489     0.9596     6.5265 </r>
       <r>     3.9332     0.8707     6.6000 </r>
       <r>     4.0176     1.0217     6.6862 </r>
       <r>     4.1020     1.2998     6.7959 </r>
       <r>     4.1864     1.5791     6.9292 </r>
       <r>     4.2708     1.7358     7.0756 </r>
       <r>     4.3552     1.6496     7.2148 </r>
       <r>     4.4395     1.2951     7.3241 </r>
       <r>     4.5239     0.8478     7.3956 </r>
       <r>     4.6083     0.5628     7.4431 </r>
       <r>     4.6927     0.5391     7.4886 </r>
       <r>     4.7771     0.6881     7.5467 </r>
       <r>     4.8615     0.8501     7.6184 </r>
       <r>     4.9458     0.8796     7.6926 </r>
       <r>     5.0302     0.7223     7.7536 </r>
       <r>     5.1146     0.4622     7.7926 </r>
       <r>     5.1990     0.2470     7.8134 </r>
       <r>     5.2834     0.1725     7.8280 </r>
       <r>     5.3678     0.2430     7.8485 </r>
       <r>     5.4521     0.3785     7.8804 </r>
       <r>     5.5365     0.4511     7.9185 </r>
       <r>     5.6209     0.3899     7.9514 </r>
       <r>     5.7053     0.2500     7.9725 </r>
       <r>     5.7897     0.1337     7.9838 </r>
       <r>     5.8741     0.0775     7.9903 </r>
       <r>     5.9584     0.0540     7.9949 </r>
       <r>     6.0428     0.0354     7.9979 </r>
       <r>     6.1272     0.0197     7.9995 </r>
       <r>     6.2116     0.0159     8.0009 </r>
       <r>     6.2960     0.0304     8.0034 </r>
       <r>     6.3804     0.0627     8.0087 </r>
       <r>     6.4647     0.1012     8.0173 </r>
       <r>     6.5491     0.1368     8.0288 </r>
       <r>     6.6335     0.1833     8.0443 </r>
       <r>     6.7179     0.2578     8.0660 </r>
       <r>     6.8023     0.3402     8.0947 </r>
       <r>     6.8866     0.3990     8.1284 </r>
       <r>     6.9710     0.4474     8.1662 </r>
       <r>     7.0554     0.5112     8.2093 </r>
       <r>     7.1398     0.5697     8.2574 </r>
       <r>     7.2242     0.5977     8.3078 </r>
       <r>     7.3086     0.6088     8.3592 </r>
       <r>     7.3929     0.5952     8.4094 </r>
       <r>     7.4773     0.5132     8.4527 </r>
       <r>     7.5617     0.3799     8.4848 </r>
       <r>     7.6461     0.2953     8.5097 </r>
       <r>     7.7305     0.3500     8.5392 </r>
       <r>     7.8149     0.5798     8.5881 </r>
       <r>     7.8992     0.9820     8.6710 </r>
       <r>     7.9836     1.4649     8.7946 </r>
       <r>     8.0680     1.7977     8.9463 </r>
       <r>     8.1524     1.7709     9.0957 </r>
       <r>     8.2368     1.4595     9.2189 </r>
       <r>     8.3212     1.2110     9.3211 </r>
       <r>     8.4055     1.3090     9.4315 </r>
       <r>     8.4899     1.6766     9.5730 </r>
       <r>     8.5743     1.9439     9.7370 </r>
       <r>     8.6587     1.8296     9.8914 </r>
       <r>     8.7431     1.4445    10.0133 </r>
       <r>     8.8275     1.1645    10.1116 </r>
       <r>     8.9118     1.1962    10.2125 </r>
       <r>     8.9962     1.3495    10.3264 </r>
       <r>     9.0806     1.3348    10.4390 </r>
       <r>     9.1650     1.1781    10.5384 </r>
       <r>     9.2494     1.1481    10.6353 </r>
       <r>     9.3338     1.3505    10.7493 </r>
       <r>     9.4181     1.5952    10.8839 </r>
       <r>     9.5025     1.6807    11.0257 </r>
       <r>     9.5869     1.6946    11.1687 </r>
       <r>     9.6713     1.8797    11.3273 </r>
       <r>     9.7557     2.2269    11.5152 </r>
       <r>     9.8401     2.4184    11.7193 </r>
       <r>     9.9244     2.2339    11.9078 </r>
       <r>    10.0088     1.8060    12.0602 </r>
       <r>    10.0932     1.3707    12.1759 </r>
       <r>    10.1776     1.0036    12.2606 </r>
       <r>    10.2620     0.7296    12.3221 </r>
       <r>    10.3463     0.6396    12.3761 </r>
       <r>    10.4307     0.7640    12.4406 </r>
       <r>    10.5151     0.9810    12.5233 </r>
       <r>    10.5995     1.1424    12.6198 </r>
       <r>    10.6839     1.2193    12.7226 </r>
       <r>    10.7683     1.2443    12.8276 </r>
       <r>    10.8526     1.1845    12.9276 </r>
       <r>    10.9370     0.9782    13.0101 </r>
       <r>    11.0214     0.6631    13.0661 </r>
       <r>    11.1058     0.3932    13.0993 </r>
       <r>    11.1902     0.3313    13.1272 </r>
       <r>    11.2746     0.5454    13.1732 </r>
       <r>    11.3589     0.9493    13.2533 </r>
       <r>    11.4433     1.3288    13.3655 </r>
       <r>    11.5277     1.5213    13.4938 </r>
       <r>    11.6121     1.5508    13.6247 </r>
       <r>    11.6965     1.4996    13.7512 </r>
       <r>    11.7809     1.3506    13.8652 </r>
       <r>    11.8652     1.1001    13.9580 </r>
       <r>    11.9496     0.9121    14.0350 </r>
       <r>    12.0340     0.9649    14.1164 </r>
       <r>    12.1184     1.2117    14.2187 </r>
       <r>    12.2028     1.4439    14.3405 </r>
       <r>    12.2872     1.5419    14.4706 </r>
       <r>    12.3715     1.5898    14.6048 </r>
       <r>    12.4559     1.7506    14.7525 </r>
       <r>    12.5403     1.9912    14.9205 </r>
       <r>    12.6247     2.0277    15.0916 </r>
       <r>    12.7091     1.6862    15.2339 </r>
       <r>    12.7935     1.1297    15.3292 </r>
       <r>    12.8778     0.6213    15.3817 </r>
       <r>    12.9622     0.2832    15.4055 </r>
       <r>    13.0466     0.1110    15.4149 </r>
       <r>    13.1310     0.0580    15.4198 </r>
       <r>    13.2154     0.0747    15.4261 </r>
       <r>    13.2998     0.1151    15.4358 </r>
       <r>    13.3841     0.1399    15.4476 </r>
       <r>    13.4685     0.1386    15.4593 </r>
       <r>    13.5529     0.1343    15.4707 </r>
       <r>    13.6373     0.1412    15.4826 </r>
       <r>    13.7217     0.1419    15.4945 </r>
       <r>    13.8060     0.1298    15.5055 </r>
       <r>    13.8904     0.1436    15.5176 </r>
       <r>    13.9748     0.2238    15.5365 </r>
       <r>    14.0592     0.3388    15.5651 </r>
       <r>    14.1436     0.3907    15.5981 </r>
       <r>    14.2280     0.3264    15.6256 </r>
       <r>    14.3123     0.2097    15.6433 </r>
       <r>    14.3967     0.1529    15.6562 </r>
       <r>    14.4811     0.2138    15.6743 </r>
       <r>    14.5655     0.3596    15.7046 </r>
       <r>    14.6499     0.4893    15.7459 </r>
       <r>    14.7343     0.5151    15.7893 </r>
       <r>    14.8186     0.4419    15.8266 </r>
       <r>    14.9030     0.3537    15.8565 </r>
       <r>    14.9874     0.3246    15.8839 </r>
       <r>    15.0718     0.3504    15.9134 </r>
       <r>    15.1562     0.3629    15.9441 </r>
       <r>    15.2406     0.3093    15.9702 </r>
       <r>    15.3249     0.2038    15.9874 </r>
       <r>    15.4093     0.1010    15.9959 </r>
       <r>    15.4937     0.0369    15.9990 </r>
       <r>    15.5781     0.0098    15.9998 </r>
       <r>    15.6625     0.0019    16.0000 </r>
       <r>    15.7469     0.0003    16.0000 </r>
       <r>    15.8312     0.0000    16.0000 </r>
       <r>    15.9156     0.0000    16.0000 </r>
       <r>    16.0000     0.0000    16.0000 </r>
       <r>    16.0844     0.0000    16.0000 </r>
       <r>    16.1688     0.0000    16.0000 </r>
       <r>    16.2532     0.0000    16.0000 </r>
       <r>    16.3375     0.0000    16.0000 </r>
       <r>    16.4219     0.0000    16.0000 </r>
       <r>    16.5063     0.0000    16.0000 </r>
       <r>    16.5907     0.0000    16.0000 </r>
       <r>    16.6751     0.0000    16.0000 </r>
       <r>    16.7594     0.0000    16.0000 </r>
       <r>    16.8438     0.0000    16.0000 </r>
       <r>    16.9282     0.0000    16.0000 </r>
       <r>    17.0126     0.0000    16.0000 </r>
       <r>    17.0970     0.0000    16.0000 </r>
       <r>    17.1814     0.0000    16.0000 </r>
      </set>
     </set>
    </array>
   </total>
  </dos>
 </calculation>
 <structure name="finalpos" >
  <crystal>
   <varray name="basis" >
    <v>       0.00000000       2.71500000       2.71500000 </v>
    <v>       2.71500000       0.00000000       2.71500000 </v>
    <v>       2.71500000       2.71500000       0.00000000 </v>
   </varray>
   <i name="volume">     40.02575175 </i>
   <varray name="rec_basis" >
    <v>      -0.18416206       0.18416206       0.18416206 </v>
    <v>       0.18416206      -0.18416206       0.18416206 </v>
    <v>       0.18416206       0.18416206      -0.18416206 </v>
   </varray>
  </crystal>
  <varray name="positions" >
   <v>       0.50000000       0.50000000       0.50000000 </v>
   <v>       0.75000000       0.75000000       0.75000000 </v>
  </varray>
 </structure>
</modeling>
