<?xml version="1.0" encoding="ISO-8859-1"?>
<modeling>
 <generator>
  <i name="program" type="string">vasp </i>
  <i name="version" type="string">5.4.4.18Apr17-6-g9f103f2a35  </i>
  <i name="subversion" type="string">(build Dec 09 2018 21:25:21) complex            parallel </i>
  <i name="platform" type="string">IFC18.0.1.163_CrayMPICH7.7.0_MKL18.0.1.163 </i>
  <i name="date" type="string">2019 03 20 </i>
  <i name="time" type="string">09:55:38 </i>
 </generator>
 <incar>
  <i type="string" name="PREC">normal</i>
  <i type="int" name="IBRION">     2</i>
  <i name="EDIFF">      0.00040000</i>
  <i name="EDIFFG">     -0.01000000</i>
  <i type="int" name="NSW">    15</i>
  <i type="int" name="ISIF">     3</i>
  <i name="ENCUT">    300.00000000</i>
  <i type="int" name="NBANDS">     8</i>
  <i type="logical" name="LREAL"> F  </i>
  <i type="int" name="ISMEAR">     0</i>
  <i name="SIGMA">      0.20000000</i>
  <v type="int" name="KPOINT_BSE">    -1     0     0     0</v>
 </incar>
 <structure name="primitive_cell" >
  <crystal>
   <varray name="basis" >
    <v>       0.00000000       2.71500000       2.71500000 </v>
    <v>       2.71500000       0.00000000       2.71500000 </v>
    <v>       2.71500000       2.71500000       0.00000000 </v>
   </varray>
   <i name="volume">     40.02575175 </i>
   <varray name="rec_basis" >
    <v>      -0.18416206       0.18416206       0.18416206 </v>
    <v>       0.18416206      -0.18416206       0.18416206 </v>
    <v>       0.18416206       0.18416206      -0.18416206 </v>
   </varray>
  </crystal>
  <varray name="positions" >
   <v>      -0.50000000      -0.50000000      -0.50000000 </v>
   <v>      -0.25000000      -0.25000000      -0.25000000 </v>
  </varray>
 </structure>
 <varray name="primitive_index" >
  <v type="int" >        1 </v>
  <v type="int" >        2 </v>
 </varray>
 <kpoints>
  <generation param="Monkhorst-Pack">
   <v type="int" name="divisions">      11       11       11 </v>
   <v name="usershift">      0.00000000       0.00000000       0.00000000 </v>
   <v name="genvec1">      0.09090909       0.00000000      -0.00000000 </v>
   <v name="genvec2">      0.00000000       0.09090909       0.00000000 </v>
   <v name="genvec3">     -0.00000000      -0.00000000       0.09090909 </v>
   <v name="shift">      0.00000000       0.00000000       0.00000000 </v>
  </generation>
  <varray name="kpointlist" >
   <v>       0.00000000       0.00000000       0.00000000 </v>
   <v>       0.09090909      -0.00000000       0.00000000 </v>
   <v>       0.18181818      -0.00000000       0.00000000 </v>
   <v>       0.27272727       0.00000000       0.00000000 </v>
   <v>       0.36363636      -0.00000000       0.00000000 </v>
   <v>       0.45454545       0.00000000       0.00000000 </v>
   <v>       0.09090909       0.09090909       0.00000000 </v>
   <v>       0.18181818       0.09090909       0.00000000 </v>
   <v>       0.27272727       0.09090909       0.00000000 </v>
   <v>       0.36363636       0.09090909       0.00000000 </v>
   <v>       0.45454545       0.09090909       0.00000000 </v>
   <v>      -0.45454545       0.09090909      -0.00000000 </v>
   <v>      -0.36363636       0.09090909      -0.00000000 </v>
   <v>      -0.27272727       0.09090909      -0.00000000 </v>
   <v>      -0.18181818       0.09090909      -0.00000000 </v>
   <v>      -0.09090909       0.09090909      -0.00000000 </v>
   <v>       0.18181818       0.18181818       0.00000000 </v>
   <v>       0.27272727       0.18181818       0.00000000 </v>
   <v>       0.36363636       0.18181818       0.00000000 </v>
   <v>       0.45454545       0.18181818       0.00000000 </v>
   <v>      -0.45454545       0.18181818       0.00000000 </v>
   <v>      -0.36363636       0.18181818      -0.00000000 </v>
   <v>      -0.27272727       0.18181818      -0.00000000 </v>
   <v>      -0.18181818       0.18181818      -0.00000000 </v>
   <v>       0.27272727       0.27272727       0.00000000 </v>
   <v>       0.36363636       0.27272727       0.00000000 </v>
   <v>       0.45454545       0.27272727       0.00000000 </v>
   <v>      -0.45454545       0.27272727       0.00000000 </v>
   <v>      -0.36363636       0.27272727       0.00000000 </v>
   <v>      -0.27272727       0.27272727      -0.00000000 </v>
   <v>       0.36363636       0.36363636       0.00000000 </v>
   <v>       0.45454545       0.36363636       0.00000000 </v>
   <v>      -0.45454545       0.36363636      -0.00000000 </v>
   <v>      -0.36363636       0.36363636      -0.00000000 </v>
   <v>       0.45454545       0.45454545       0.00000000 </v>
   <v>      -0.45454545       0.45454545      -0.00000000 </v>
   <v>       0.27272727       0.18181818       0.09090909 </v>
   <v>       0.36363636       0.18181818       0.09090909 </v>
   <v>       0.45454545       0.18181818       0.09090909 </v>
   <v>      -0.45454545       0.18181818       0.09090909 </v>
   <v>       0.36363636       0.27272727       0.09090909 </v>
   <v>       0.45454545       0.27272727       0.09090909 </v>
   <v>      -0.45454545       0.27272727       0.09090909 </v>
   <v>      -0.36363636       0.27272727       0.09090909 </v>
   <v>      -0.27272727       0.27272727       0.09090909 </v>
   <v>      -0.18181818       0.27272727       0.09090909 </v>
   <v>       0.45454545       0.36363636       0.09090909 </v>
   <v>      -0.45454545       0.36363636       0.09090909 </v>
   <v>      -0.36363636       0.36363636       0.09090909 </v>
   <v>      -0.27272727       0.36363636       0.09090909 </v>
   <v>      -0.45454545       0.45454545       0.09090909 </v>
   <v>      -0.36363636       0.45454545       0.09090909 </v>
   <v>      -0.45454545       0.36363636       0.18181818 </v>
   <v>      -0.36363636       0.36363636       0.18181818 </v>
   <v>      -0.36363636       0.45454545       0.18181818 </v>
   <v>      -0.27272727       0.45454545       0.18181818 </v>
  </varray>
  <varray name="weights" >
   <v>       0.00075131 </v>
   <v>       0.00601052 </v>
   <v>       0.00601052 </v>
   <v>       0.00601052 </v>
   <v>       0.00601052 </v>
   <v>       0.00601052 </v>
   <v>       0.00450789 </v>
   <v>       0.01803156 </v>
   <v>       0.01803156 </v>
   <v>       0.01803156 </v>
   <v>       0.01803156 </v>
   <v>       0.01803156 </v>
   <v>       0.01803156 </v>
   <v>       0.01803156 </v>
   <v>       0.01803156 </v>
   <v>       0.00901578 </v>
   <v>       0.00450789 </v>
   <v>       0.01803156 </v>
   <v>       0.01803156 </v>
   <v>       0.01803156 </v>
   <v>       0.01803156 </v>
   <v>       0.01803156 </v>
   <v>       0.01803156 </v>
   <v>       0.00901578 </v>
   <v>       0.00450789 </v>
   <v>       0.01803156 </v>
   <v>       0.01803156 </v>
   <v>       0.01803156 </v>
   <v>       0.01803156 </v>
   <v>       0.00901578 </v>
   <v>       0.00450789 </v>
   <v>       0.01803156 </v>
   <v>       0.01803156 </v>
   <v>       0.00901578 </v>
   <v>       0.00450789 </v>
   <v>       0.00901578 </v>
   <v>       0.01803156 </v>
   <v>       0.03606311 </v>
   <v>       0.03606311 </v>
   <v>       0.03606311 </v>
   <v>       0.01803156 </v>
   <v>       0.03606311 </v>
   <v>       0.03606311 </v>
   <v>       0.03606311 </v>
   <v>       0.03606311 </v>
   <v>       0.01803156 </v>
   <v>       0.01803156 </v>
   <v>       0.03606311 </v>
   <v>       0.03606311 </v>
   <v>       0.01803156 </v>
   <v>       0.01803156 </v>
   <v>       0.01803156 </v>
   <v>       0.01803156 </v>
   <v>       0.03606311 </v>
   <v>       0.01803156 </v>
   <v>       0.01803156 </v>
  </varray>
 </kpoints>
 <parameters>
  <separator name="general" >
   <i type="string" name="SYSTEM">unknown system</i>
   <i type="logical" name="LCOMPAT"> F  </i>
  </separator>
  <separator name="electronic" >
   <i type="string" name="PREC">normal</i>
   <i name="ENMAX">    300.00000000</i>
   <i name="ENAUG">    322.06900000</i>
   <i name="EDIFF">      0.00040000</i>
   <i type="int" name="IALGO">    38</i>
   <i type="int" name="IWAVPR">    11</i>
   <i type="int" name="NBANDS">     8</i>
   <i name="NELECT">      8.00000000</i>
   <i type="int" name="TURBO">     0</i>
   <i type="int" name="IRESTART">     0</i>
   <i type="int" name="NREBOOT">     0</i>
   <i type="int" name="NMIN">     0</i>
   <i name="EREF">      0.00000000</i>
   <separator name="electronic smearing" >
    <i type="int" name="ISMEAR">     0</i>
    <i name="SIGMA">      0.20000000</i>
    <i name="KSPACING">      0.50000000</i>
    <i type="logical" name="KGAMMA"> T  </i>
   </separator>
   <separator name="electronic projectors" >
    <i type="logical" name="LREAL"> F  </i>
    <v name="ROPT">      0.00000000</v>
    <i type="int" name="LMAXPAW">  -100</i>
    <i type="int" name="LMAXMIX">     2</i>
    <i type="logical" name="NLSPLINE"> F  </i>
   </separator>
   <separator name="electronic startup" >
    <i type="int" name="ISTART">     0</i>
    <i type="int" name="ICHARG">     2</i>
    <i type="int" name="INIWAV">     1</i>
   </separator>
   <separator name="electronic spin" >
    <i type="int" name="ISPIN">     1</i>
    <i type="logical" name="LNONCOLLINEAR"> F  </i>
    <v name="MAGMOM">      1.00000000      1.00000000</v>
    <i name="NUPDOWN">     -1.00000000</i>
    <i type="logical" name="LSORBIT"> F  </i>
    <v name="SAXIS">      0.00000000      0.00000000      1.00000000</v>
    <i type="logical" name="LSPIRAL"> F  </i>
    <v name="QSPIRAL">      0.00000000      0.00000000      0.00000000</v>
    <i type="logical" name="LZEROZ"> F  </i>
   </separator>
   <separator name="electronic exchange-correlation" >
    <i type="logical" name="LASPH"> F  </i>
    <i type="logical" name="LMETAGGA"> F  </i>
   </separator>
   <separator name="electronic convergence" >
    <i type="int" name="NELM">    60</i>
    <i type="int" name="NELMDL">    -5</i>
    <i type="int" name="NELMIN">     2</i>
    <i name="ENINI">    300.00000000</i>
    <separator name="electronic convergence detail" >
     <i type="logical" name="LDIAG"> T  </i>
     <i type="logical" name="LSUBROT"> F  </i>
     <i name="WEIMIN">      0.00100000</i>
     <i name="EBREAK">      0.00001250</i>
     <i name="DEPER">      0.30000000</i>
     <i type="int" name="NRMM">     4</i>
     <i name="TIME">      0.40000000</i>
    </separator>
   </separator>
   <separator name="electronic mixer" >
    <i name="AMIX">      0.40000000</i>
    <i name="BMIX">      1.00000000</i>
    <i name="AMIN">      0.10000000</i>
    <i name="AMIX_MAG">      1.60000000</i>
    <i name="BMIX_MAG">      1.00000000</i>
    <separator name="electronic mixer details" >
     <i type="int" name="IMIX">     4</i>
     <i type="logical" name="MIXFIRST"> F  </i>
     <i type="int" name="MAXMIX">   -45</i>
     <i name="WC">    100.00000000</i>
     <i type="int" name="INIMIX">     1</i>
     <i type="int" name="MIXPRE">     1</i>
     <i type="int" name="MREMOVE">     5</i>
    </separator>
   </separator>
   <separator name="electronic dipolcorrection" >
    <i type="logical" name="LDIPOL"> F  </i>
    <i type="logical" name="LMONO"> F  </i>
    <i type="int" name="IDIPOL">     0</i>
    <i name="EPSILON">      1.00000000</i>
    <v name="DIPOL">   -100.00000000   -100.00000000   -100.00000000</v>
    <i name="EFIELD">      0.00000000</i>
   </separator>
  </separator>
  <separator name="grids" >
   <i type="int" name="NGX">    16</i>
   <i type="int" name="NGY">    16</i>
   <i type="int" name="NGZ">    16</i>
   <i type="int" name="NGXF">    32</i>
   <i type="int" name="NGYF">    32</i>
   <i type="int" name="NGZF">    32</i>
   <i type="logical" name="ADDGRID"> F  </i>
  </separator>
  <separator name="ionic" >
   <i type="int" name="NSW">    15</i>
   <i type="int" name="IBRION">     2</i>
   <i type="int" name="MDALGO">     0</i>
   <i type="int" name="ISIF">     3</i>
   <i name="PSTRESS">      0.00000000</i>
   <i name="EDIFFG">     -0.01000000</i>
   <i type="int" name="NFREE">     1</i>
   <i name="POTIM">      0.50000000</i>
   <i name="SMASS">     -3.00000000</i>
   <i name="SCALEE">      1.00000000</i>
  </separator>
  <separator name="ionic md" >
   <i name="TEBEG">      0.00010000</i>
   <i name="TEEND">      0.00010000</i>
   <i type="int" name="NBLOCK">     1</i>
   <i type="int" name="KBLOCK">    15</i>
   <i type="int" name="NPACO">   256</i>
   <i name="APACO">     16.00000000</i>
  </separator>
  <separator name="symmetry" >
   <i type="int" name="ISYM">     2</i>
   <i name="SYMPREC">      0.00001000</i>
  </separator>
  <separator name="dos" >
   <i type="int" name="LORBIT">     0</i>
   <v name="RWIGS">     -1.00000000</v>
   <i type="int" name="NEDOS">   301</i>
   <i name="EMIN">     10.00000000</i>
   <i name="EMAX">    -10.00000000</i>
   <i name="EFERMI">      0.00000000</i>
  </separator>
  <separator name="writing" >
   <i type="int" name="NWRITE">     2</i>
   <i type="logical" name="LWAVE"> T  </i>
   <i type="logical" name="LDOWNSAMPLE"> F  </i>
   <i type="logical" name="LCHARG"> T  </i>
   <i type="logical" name="LPARD"> F  </i>
   <i type="logical" name="LVTOT"> F  </i>
   <i type="logical" name="LVHAR"> F  </i>
   <i type="logical" name="LELF"> F  </i>
   <i type="logical" name="LOPTICS"> F  </i>
   <v name="STM">      0.00000000      0.00000000      0.00000000      0.00000000      0.00000000      0.00000000      0.00000000</v>
  </separator>
  <separator name="performance" >
   <i type="int" name="NPAR">     8</i>
   <i type="int" name="NSIM">     4</i>
   <i type="int" name="NBLK">    -1</i>
   <i type="logical" name="LPLANE"> T  </i>
   <i type="logical" name="LSCALAPACK"> T  </i>
   <i type="logical" name="LSCAAWARE"> F  </i>
   <i type="logical" name="LSCALU"> F  </i>
   <i type="logical" name="LASYNC"> F  </i>
   <i type="logical" name="LORBITALREAL"> F  </i>
  </separator>
  <separator name="miscellaneous" >
   <i type="int" name="IDIOT">     3</i>
   <i type="int" name="ISPECIAL">     0</i>
   <i type="logical" name="LMUSIC"> F  </i>
   <v name="POMASS">     28.08500000</v>
   <v name="DARWINR">      0.00000000</v>
   <v name="DARWINV">      1.00000000</v>
   <i type="logical" name="LCORR"> T  </i>
  </separator>
  <i type="logical" name="GGA_COMPAT"> T  </i>
  <i type="logical" name="LBERRY"> F  </i>
  <i type="int" name="ICORELEVEL">     0</i>
  <i type="logical" name="LDAU"> F  </i>
  <i type="int" name="I_CONSTRAINED_M">     0</i>
  <separator name="electronic exchange-correlation" >
   <i type="string" name="GGA">--</i>
   <i type="int" name="VOSKOWN">     0</i>
   <i type="logical" name="LHFCALC"> F  </i>
   <i type="string" name="PRECFOCK"></i>
   <i type="logical" name="LSYMGRAD"> F  </i>
   <i type="logical" name="LHFONE"> F  </i>
   <i type="logical" name="LRHFCALC"> F  </i>
   <i type="logical" name="LTHOMAS"> F  </i>
   <i type="logical" name="LMODELHF"> F  </i>
   <i name="ENCUT4O">     -1.00000000</i>
   <i type="int" name="EXXOEP">     0</i>
   <i type="int" name="FOURORBIT">     0</i>
   <i name="AEXX">      0.00000000</i>
   <i name="HFALPHA">      0.00000000</i>
   <i name="MCALPHA">      0.00000000</i>
   <i name="ALDAX">      1.00000000</i>
   <i name="AGGAX">      1.00000000</i>
   <i name="ALDAC">      1.00000000</i>
   <i name="AGGAC">      1.00000000</i>
   <i type="int" name="NKREDX">     1</i>
   <i type="int" name="NKREDY">     1</i>
   <i type="int" name="NKREDZ">     1</i>
   <i type="logical" name="SHIFTRED"> F  </i>
   <i type="logical" name="ODDONLY"> F  </i>
   <i type="logical" name="EVENONLY"> F  </i>
   <i type="int" name="LMAXFOCK">     0</i>
   <i type="int" name="NMAXFOCKAE">     0</i>
   <i type="logical" name="LFOCKAEDFT"> F  </i>
   <i name="HFSCREEN">      0.00000000</i>
   <i name="HFSCREENC">      0.00000000</i>
   <i type="int" name="NBANDSGWLOW">     0</i>
  </separator>
  <separator name="vdW DFT" >
   <i type="logical" name="LUSE_VDW"> F  </i>
   <i name="Zab_VDW">     -0.84910000</i>
   <i name="PARAM1">      0.12340000</i>
   <i name="PARAM2">      1.00000000</i>
   <i name="PARAM3">      0.00000000</i>
  </separator>
  <separator name="model GW" >
   <i type="int" name="MODEL_GW">     0</i>
   <i name="MODEL_EPS0">     12.00772552</i>
   <i name="MODEL_ALPHA">      1.00000000</i>
  </separator>
  <separator name="linear response parameters" >
   <i type="logical" name="LEPSILON"> F  </i>
   <i type="logical" name="LRPA"> F  </i>
   <i type="logical" name="LNABLA"> F  </i>
   <i type="logical" name="LVEL"> F  </i>
   <i type="int" name="KINTER">     0</i>
   <i name="CSHIFT">      0.10000000</i>
   <i name="OMEGAMAX">     -1.00000000</i>
   <i name="DEG_THRESHOLD">      0.00200000</i>
   <i name="RTIME">     -0.10000000</i>
   <i name="WPLASMAI">      0.00000000</i>
   <v name="DFIELD">      0.00000000      0.00000000      0.00000000</v>
   <v name="WPLASMA">      0.00000000      0.00000000      0.00000000      0.00000000      0.00000000      0.00000000      0.00000000      0.00000000      0.00000000</v>
  </separator>
  <separator name="orbital magnetization" >
   <i type="logical" name="NUCIND"> F  </i>
   <v name="MAGPOS">      0.00000000      0.00000000      0.00000000</v>
   <i type="logical" name="LNICSALL"> T  </i>
   <i type="logical" name="ORBITALMAG"> F  </i>
   <i type="logical" name="LMAGBLOCH"> F  </i>
   <i type="logical" name="LCHIMAG"> F  </i>
   <i type="logical" name="LGAUGE"> T  </i>
   <i type="int" name="MAGATOM">     0</i>
   <v name="MAGDIPOL">      0.00000000      0.00000000      0.00000000</v>
   <v name="AVECCONST">      0.00000000      0.00000000      0.00000000</v>
  </separator>
  <separator name="response functions" >
   <i type="logical" name="LADDER"> F  </i>
   <i type="logical" name="LRPAFORCE"> F  </i>
   <i type="logical" name="LFXC"> F  </i>
   <i type="logical" name="LHARTREE"> T  </i>
   <i type="int" name="IBSE">     0</i>
   <v type="int" name="KPOINT">    -1     0     0     0</v>
   <i type="logical" name="LTCTE"> F  </i>
   <i type="logical" name="LTETE"> F  </i>
   <i type="logical" name="LTRIPLET"> F  </i>
   <i type="logical" name="LFXCEPS"> F  </i>
   <i type="logical" name="LFXHEG"> F  </i>
   <i type="int" name="NATURALO">     2</i>
   <i type="logical" name="L2ORDER"> F  </i>
   <i type="logical" name="LMP2LT"> F  </i>
   <i type="logical" name="LUSEW"> F  </i>
   <i name="ENCUTGW">     -2.00000000</i>
   <i name="ENCUTGWSOFT">     -2.00000000</i>
   <i name="ENCUTLF">     -1.00000000</i>
   <i type="int" name="LMAXMP2">    -1</i>
   <i name="SCISSOR">      0.00000000</i>
   <i type="int" name="NOMEGA">     0</i>
   <i type="int" name="NOMEGAR">     0</i>
   <i type="int" name="NBANDSGW">    -1</i>
   <i type="int" name="NBANDSO">    -1</i>
   <i type="int" name="NBANDSV">    -1</i>
   <i type="int" name="NELM">     1</i>
   <i type="int" name="NELMHF">     1</i>
   <i type="int" name="DIM">     3</i>
   <i type="int" name="ANTIRES">     0</i>
   <i name="OMEGAMAX">    -30.00000000</i>
   <i name="OMEGAMIN">    -30.00000000</i>
   <i name="OMEGATL">   -200.00000000</i>
   <i type="int" name="OMEGAGRID">   140</i>
   <i name="CSHIFT">     -0.10000000</i>
   <i type="logical" name="SELFENERGY"> F  </i>
   <i type="logical" name="LSPECTRAL"> F  </i>
   <i type="logical" name="LSPECTRALGW"> F  </i>
   <i type="logical" name="LSINGLES"> F  </i>
   <i type="logical" name="LFERMIGW"> F  </i>
   <i type="logical" name="ODDONLYGW"> F  </i>
   <i type="logical" name="EVENONLYGW"> F  </i>
   <i type="int" name="NKREDLFX">     1</i>
   <i type="int" name="NKREDLFY">     1</i>
   <i type="int" name="NKREDLFZ">     1</i>
   <i type="int" name="MAXMEM">  2800</i>
   <i type="int" name="TELESCOPE">     0</i>
   <i type="int" name="TAUPAR">     1</i>
   <i type="int" name="OMEGAPAR">    -1</i>
   <i name="LAMBDA">      1.00000000</i>
  </separator>
  <separator name="External order field" >
   <i name="OFIELD_KAPPA">      0.00000000</i>
   <v name="OFIELD_K">      0.00000000      0.00000000      0.00000000</v>
   <i name="OFIELD_Q6_NEAR">      0.00000000</i>
   <i name="OFIELD_Q6_FAR">      0.00000000</i>
   <i name="OFIELD_A">      0.00000000</i>
  </separator>
 </parameters>
 <atominfo>
  <atoms>       2 </atoms>
  <types>       1 </types>
  <array name="atoms" >
   <dimension dim="1">ion</dimension>
   <field type="string">element</field>
   <field type="int">atomtype</field>
   <set>
    <rc><c>Si</c><c>   1</c></rc>
    <rc><c>Si</c><c>   1</c></rc>
   </set>
  </array>
  <array name="atomtypes" >
   <dimension dim="1">type</dimension>
   <field type="int">atomspertype</field>
   <field type="string">element</field>
   <field>mass</field>
   <field>valence</field>
   <field type="string">pseudopotential</field>
   <set>
    <rc><c>   2</c><c>Si</c><c>     28.08500000</c><c>      4.00000000</c><c> PAW_PBE Si 05Jan2001                   </c></rc>
   </set>
  </array>
 </atominfo>
 <structure name="initialpos" >
  <crystal>
   <varray name="basis" >
    <v>       0.00000000       2.71500000       2.71500000 </v>
    <v>       2.71500000       0.00000000       2.71500000 </v>
    <v>       2.71500000       2.71500000       0.00000000 </v>
   </varray>
   <i name="volume">     40.02575175 </i>
   <varray name="rec_basis" >
    <v>      -0.18416206       0.18416206       0.18416206 </v>
    <v>       0.18416206      -0.18416206       0.18416206 </v>
    <v>       0.18416206       0.18416206      -0.18416206 </v>
   </varray>
  </crystal>
  <varray name="positions" >
   <v>       0.50000000       0.50000000       0.50000000 </v>
   <v>       0.75000000       0.75000000       0.75000000 </v>
  </varray>
 </structure>
 <calculation>
  <scstep>
   <time name="dav">    0.48    0.49</time>
   <time name="total">    0.52    0.55</time>
   <energy>
    <i name="alphaZ">      3.36414203 </i>
    <i name="ewald">   -228.56352493 </i>
    <i name="hartreedc">    -11.00108243 </i>
    <i name="XCdc">    -18.60181216 </i>
    <i name="pawpsdc">     65.95520812 </i>
    <i name="pawaedc">    -30.76852678 </i>
    <i name="eentropy">     -0.01030717 </i>
    <i name="bandstr">     16.85961951 </i>
    <i name="atom">    206.12968587 </i>
    <i name="e_fr_energy">      3.36340205 </i>
    <i name="e_wo_entrp">      3.37370922 </i>
    <i name="e_0_energy">      3.36855564 </i>
   </energy>
  </scstep>
  <scstep>
   <time name="dav">    0.78    0.79</time>
   <time name="total">    0.78    0.79</time>
   <energy>
    <i name="e_fr_energy">    -10.85043057 </i>
    <i name="e_wo_entrp">    -10.85042528 </i>
    <i name="e_0_energy">    -10.85042792 </i>
   </energy>
  </scstep>
  <scstep>
   <time name="dav">    0.63    0.64</time>
   <time name="total">    0.63    0.64</time>
   <energy>
    <i name="e_fr_energy">    -11.01732078 </i>
    <i name="e_wo_entrp">    -11.01731540 </i>
    <i name="e_0_energy">    -11.01731809 </i>
   </energy>
  </scstep>
  <scstep>
   <time name="dav">    0.83    0.84</time>
   <time name="total">    0.83    0.84</time>
   <energy>
    <i name="e_fr_energy">    -11.01795789 </i>
    <i name="e_wo_entrp">    -11.01795252 </i>
    <i name="e_0_energy">    -11.01795520 </i>
   </energy>
  </scstep>
  <scstep>
   <time name="dav">    0.62    0.62</time>
   <time name="total">    0.64    0.65</time>
   <energy>
    <i name="e_fr_energy">    -11.01795840 </i>
    <i name="e_wo_entrp">    -11.01795303 </i>
    <i name="e_0_energy">    -11.01795572 </i>
   </energy>
  </scstep>
  <scstep>
   <time name="dav">    0.56    0.56</time>
   <time name="total">    0.61    0.63</time>
   <energy>
    <i name="e_fr_energy">    -10.89345769 </i>
    <i name="e_wo_entrp">    -10.89343094 </i>
    <i name="e_0_energy">    -10.89344432 </i>
   </energy>
  </scstep>
  <scstep>
   <time name="dav">    0.61    0.61</time>
   <time name="total">    0.66    0.67</time>
   <energy>
    <i name="e_fr_energy">    -10.83659475 </i>
    <i name="e_wo_entrp">    -10.83644678 </i>
    <i name="e_0_energy">    -10.83652077 </i>
   </energy>
  </scstep>
  <scstep>
   <time name="dav">    0.53    0.53</time>
   <time name="total">    0.58    0.59</time>
   <energy>
    <i name="e_fr_energy">    -10.83790315 </i>
    <i name="e_wo_entrp">    -10.83778199 </i>
    <i name="e_0_energy">    -10.83784257 </i>
   </energy>
  </scstep>
  <scstep>
   <time name="dav">    0.42    0.42</time>
   <time name="total">    0.45    0.46</time>
   <energy>
    <i name="alphaZ">      3.36414203 </i>
    <i name="ewald">   -228.56352493 </i>
    <i name="hartreedc">    -14.90529869 </i>
    <i name="XCdc">    -17.95982170 </i>
    <i name="pawpsdc">     74.50913376 </i>
    <i name="pawaedc">    -39.54839524 </i>
    <i name="eentropy">     -0.00012055 </i>
    <i name="bandstr">      6.13620388 </i>
    <i name="atom">    206.12968587 </i>
    <i name="e_fr_energy">    -10.83799557 </i>
    <i name="e_wo_entrp">    -10.83787502 </i>
    <i name="e_0_energy">    -10.83793529 </i>
   </energy>
  </scstep>
  <structure>
   <crystal>
    <varray name="basis" >
     <v>       0.00000000       2.71500000       2.71500000 </v>
     <v>       2.71500000       0.00000000       2.71500000 </v>
     <v>       2.71500000       2.71500000       0.00000000 </v>
    </varray>
    <i name="volume">     40.02575175 </i>
    <varray name="rec_basis" >
     <v>      -0.18416206       0.18416206       0.18416206 </v>
     <v>       0.18416206      -0.18416206       0.18416206 </v>
     <v>       0.18416206       0.18416206      -0.18416206 </v>
    </varray>
   </crystal>
   <varray name="positions" >
    <v>       0.50000000       0.50000000       0.50000000 </v>
    <v>       0.75000000       0.75000000       0.75000000 </v>
   </varray>
  </structure>
  <varray name="forces" >
   <v>      -0.00000000      -0.00000000      -0.00000000 </v>
   <v>       0.00000000       0.00000000       0.00000000 </v>
  </varray>
  <varray name="stress" >
   <v>      18.89304969      -0.00000000       0.00000000 </v>
   <v>      -0.00000000      18.89304969       0.00000000 </v>
   <v>       0.00000000      -0.00000000      18.89304969 </v>
  </varray>
  <energy>
   <i name="e_fr_energy">    -10.83799557 </i>
   <i name="e_wo_entrp">    -10.83793529 </i>
   <i name="e_0_energy">     -0.00012055 </i>
  </energy>
  <time name="totalsc">    6.86    7.74</time>
 </calculation>
 <calculation>
  <scstep>
   <time name="dav">    0.59    0.59</time>
   <time name="total">    0.64    0.65</time>
   <energy>
    <i name="alphaZ">      3.25180749 </i>
    <i name="ewald">   -225.99062671 </i>
    <i name="hartreedc">    -14.74905023 </i>
    <i name="XCdc">    -18.12585655 </i>
    <i name="pawpsdc">     74.50633033 </i>
    <i name="pawaedc">    -39.54654410 </i>
    <i name="eentropy">     -0.00004390 </i>
    <i name="bandstr">      3.67755699 </i>
    <i name="atom">    206.12968587 </i>
    <i name="e_fr_energy">    -10.84674083 </i>
    <i name="e_wo_entrp">    -10.84669692 </i>
    <i name="e_0_energy">    -10.84671888 </i>
   </energy>
  </scstep>
  <scstep>
   <time name="dav">    0.64    0.64</time>
   <time name="total">    0.69    0.70</time>
   <energy>
    <i name="e_fr_energy">    -10.84258200 </i>
    <i name="e_wo_entrp">    -10.84252680 </i>
    <i name="e_0_energy">    -10.84255440 </i>
   </energy>
  </scstep>
  <scstep>
   <time name="dav">    0.56    0.55</time>
   <time name="total">    0.60    0.61</time>
   <energy>
    <i name="e_fr_energy">    -10.84040396 </i>
    <i name="e_wo_entrp">    -10.84033097 </i>
    <i name="e_0_energy">    -10.84036747 </i>
   </energy>
  </scstep>
  <scstep>
   <time name="dav">    0.30    0.30</time>
   <time name="total">    0.33    0.34</time>
   <energy>
    <i name="alphaZ">      3.25180749 </i>
    <i name="ewald">   -225.99062671 </i>
    <i name="hartreedc">    -15.31718288 </i>
    <i name="XCdc">    -18.11428814 </i>
    <i name="pawpsdc">     73.47703963 </i>
    <i name="pawaedc">    -38.48886848 </i>
    <i name="eentropy">     -0.00007184 </i>
    <i name="bandstr">      4.21211174 </i>
    <i name="atom">    206.12968587 </i>
    <i name="e_fr_energy">    -10.84039332 </i>
    <i name="e_wo_entrp">    -10.84032148 </i>
    <i name="e_0_energy">    -10.84035740 </i>
   </energy>
  </scstep>
  <structure>
   <crystal>
    <varray name="basis" >
     <v>       0.00000000       2.74591021       2.74591021 </v>
     <v>       2.74591021      -0.00000000       2.74591021 </v>
     <v>       2.74591021       2.74591021       0.00000000 </v>
    </varray>
    <i name="volume">     41.40845181 </i>
    <varray name="rec_basis" >
     <v>      -0.18208898       0.18208898       0.18208898 </v>
     <v>       0.18208898      -0.18208898       0.18208898 </v>
     <v>       0.18208898       0.18208898      -0.18208898 </v>
    </varray>
   </crystal>
   <varray name="positions" >
    <v>       0.50000000       0.50000000       0.50000000 </v>
    <v>       0.75000000       0.75000000       0.75000000 </v>
   </varray>
  </structure>
  <varray name="forces" >
   <v>       0.00000000       0.00000000       0.00000000 </v>
   <v>      -0.00000000      -0.00000000      -0.00000000 </v>
  </varray>
  <varray name="stress" >
   <v>     -12.04177275       0.00000000      -0.00000000 </v>
   <v>       0.00000000     -12.04177275      -0.00000000 </v>
   <v>      -0.00000000       0.00000000     -12.04177275 </v>
  </varray>
  <energy>
   <i name="e_fr_energy">    -10.84039332 </i>
   <i name="e_wo_entrp">    -10.84035740 </i>
   <i name="e_0_energy">     -0.00007184 </i>
  </energy>
  <time name="totalsc">    2.74    2.91</time>
 </calculation>
 <calculation>
  <scstep>
   <time name="dav">    0.56    0.56</time>
   <time name="total">    0.62    0.62</time>
   <energy>
    <i name="alphaZ">      3.29583760 </i>
    <i name="ewald">   -227.00604335 </i>
    <i name="hartreedc">    -15.38881781 </i>
    <i name="XCdc">    -18.04975310 </i>
    <i name="pawpsdc">     73.43941848 </i>
    <i name="pawaedc">    -38.44961308 </i>
    <i name="eentropy">     -0.00010529 </i>
    <i name="bandstr">      5.18577722 </i>
    <i name="atom">    206.12968587 </i>
    <i name="e_fr_energy">    -10.84361346 </i>
    <i name="e_wo_entrp">    -10.84350817 </i>
    <i name="e_0_energy">    -10.84356081 </i>
   </energy>
  </scstep>
  <scstep>
   <time name="dav">    0.61    0.61</time>
   <time name="total">    0.66    0.67</time>
   <energy>
    <i name="e_fr_energy">    -10.84294853 </i>
    <i name="e_wo_entrp">    -10.84285170 </i>
    <i name="e_0_energy">    -10.84290012 </i>
   </energy>
  </scstep>
  <scstep>
   <time name="dav">    0.40    0.40</time>
   <time name="total">    0.43    0.44</time>
   <energy>
    <i name="alphaZ">      3.29583760 </i>
    <i name="ewald">   -227.00604335 </i>
    <i name="hartreedc">    -15.15751008 </i>
    <i name="XCdc">    -18.05524132 </i>
    <i name="pawpsdc">     73.78786214 </i>
    <i name="pawaedc">    -38.80679912 </i>
    <i name="eentropy">     -0.00008698 </i>
    <i name="bandstr">      4.96968811 </i>
    <i name="atom">    206.12968587 </i>
    <i name="e_fr_energy">    -10.84260713 </i>
    <i name="e_wo_entrp">    -10.84252015 </i>
    <i name="e_0_energy">    -10.84256364 </i>
   </energy>
  </scstep>
  <structure>
   <crystal>
    <varray name="basis" >
     <v>       0.00000000       2.73362753       2.73362753 </v>
     <v>       2.73362753      -0.00000000       2.73362753 </v>
     <v>       2.73362753       2.73362753       0.00000000 </v>
    </varray>
    <i name="volume">     40.85526347 </i>
    <varray name="rec_basis" >
     <v>      -0.18290714       0.18290714       0.18290714 </v>
     <v>       0.18290714      -0.18290714       0.18290714 </v>
     <v>       0.18290714       0.18290714      -0.18290714 </v>
    </varray>
   </crystal>
   <varray name="positions" >
    <v>       0.50000000       0.50000000       0.50000000 </v>
    <v>       0.75000000       0.75000000       0.75000000 </v>
   </varray>
  </structure>
  <varray name="forces" >
   <v>      -0.00000000      -0.00000000      -0.00000000 </v>
   <v>       0.00000000       0.00000000       0.00000000 </v>
  </varray>
  <varray name="stress" >
   <v>      -0.51886321       0.00000000       0.00000000 </v>
   <v>       0.00000000      -0.51886321       0.00000000 </v>
   <v>      -0.00000000       0.00000000      -0.51886321 </v>
  </varray>
  <energy>
   <i name="e_fr_energy">    -10.84260713 </i>
   <i name="e_wo_entrp">    -10.84256364 </i>
   <i name="e_0_energy">     -0.00008698 </i>
  </energy>
  <time name="totalsc">    2.26    2.56</time>
  <eigenvalues>
   <array>
    <dimension dim="1">band</dimension>
    <dimension dim="2">kpoint</dimension>
    <dimension dim="3">spin</dimension>
    <field>eigene</field>
    <field>occ</field>
    <set>
     <set comment="spin 1">
      <set comment="kpoint 1">
       <r>   -6.1964    1.0000 </r>
       <r>    5.6273    0.9821 </r>
       <r>    5.6273    0.9821 </r>
       <r>    5.6273    0.9821 </r>
       <r>    8.1868    0.0000 </r>
       <r>    8.1868    0.0000 </r>
       <r>    8.1868    0.0000 </r>
       <r>    8.7670    0.0000 </r>
      </set>
      <set comment="kpoint 2">
       <r>   -6.0901    1.0000 </r>
       <r>    4.6401    1.0000 </r>
       <r>    5.4615    0.9995 </r>
       <r>    5.4616    0.9995 </r>
       <r>    8.1765    0.0000 </r>
       <r>    8.4273    0.0000 </r>
       <r>    8.4273    0.0000 </r>
       <r>    9.5881    0.0000 </r>
      </set>
      <set comment="kpoint 3">
       <r>   -5.7750    1.0000 </r>
       <r>    2.9789    1.0000 </r>
       <r>    5.1265    1.0000 </r>
       <r>    5.1265    1.0000 </r>
       <r>    7.8560    0.0000 </r>
       <r>    8.8958    0.0000 </r>
       <r>    8.8958    0.0000 </r>
       <r>   11.1854    0.0000 </r>
      </set>
      <set comment="kpoint 4">
       <r>   -5.2680    1.0000 </r>
       <r>    1.3409    1.0000 </r>
       <r>    4.8067    1.0000 </r>
       <r>    4.8067    1.0000 </r>
       <r>    7.5093    0.0000 </r>
       <r>    9.1496    0.0000 </r>
       <r>    9.1497    0.0000 </r>
       <r>   12.7524    0.0000 </r>
      </set>
      <set comment="kpoint 5">
       <r>   -4.6202    1.0000 </r>
       <r>   -0.0929    1.0000 </r>
       <r>    4.5775    1.0000 </r>
       <r>    4.5776    1.0000 </r>
       <r>    7.2499    0.0000 </r>
       <r>    9.0998    0.0000 </r>
       <r>    9.0999    0.0000 </r>
       <r>   13.4740    0.0000 </r>
      </set>
      <set comment="kpoint 6">
       <r>   -4.0241    1.0000 </r>
       <r>   -1.0892    1.0000 </r>
       <r>    4.4605    1.0000 </r>
       <r>    4.4605    1.0000 </r>
       <r>    7.1148    0.0000 </r>
       <r>    8.9976    0.0000 </r>
       <r>    8.9977    0.0000 </r>
       <r>   13.3574    0.0000 </r>
      </set>
      <set comment="kpoint 7">
       <r>   -6.0544    1.0000 </r>
       <r>    4.8069    1.0000 </r>
       <r>    5.1423    1.0000 </r>
       <r>    5.1423    1.0000 </r>
       <r>    7.8703    0.0000 </r>
       <r>    8.8437    0.0000 </r>
       <r>    8.8437    0.0000 </r>
       <r>    9.5164    0.0000 </r>
      </set>
      <set comment="kpoint 8">
       <r>   -5.8080    1.0000 </r>
       <r>    3.4660    1.0000 </r>
       <r>    4.7524    1.0000 </r>
       <r>    4.9263    1.0000 </r>
       <r>    7.9046    0.0000 </r>
       <r>    8.8708    0.0000 </r>
       <r>    9.4299    0.0000 </r>
       <r>   10.5009    0.0000 </r>
      </set>
      <set comment="kpoint 9">
       <r>   -5.3625    1.0000 </r>
       <r>    1.8664    1.0000 </r>
       <r>    4.4373    1.0000 </r>
       <r>    4.5572    1.0000 </r>
       <r>    8.0109    0.0000 </r>
       <r>    8.8773    0.0000 </r>
       <r>    9.7826    0.0000 </r>
       <r>   10.9636    0.0000 </r>
      </set>
      <set comment="kpoint 10">
       <r>   -4.7518    1.0000 </r>
       <r>    0.3806    1.0000 </r>
       <r>    4.1803    1.0000 </r>
       <r>    4.2520    1.0000 </r>
       <r>    7.8474    0.0000 </r>
       <r>    8.9337    0.0000 </r>
       <r>    9.7245    0.0000 </r>
       <r>   11.7310    0.0000 </r>
      </set>
      <set comment="kpoint 11">
       <r>   -4.0965    1.0000 </r>
       <r>   -0.7917    1.0000 </r>
       <r>    3.8861    1.0000 </r>
       <r>    4.2108    1.0000 </r>
       <r>    7.7031    0.0000 </r>
       <r>    8.9021    0.0000 </r>
       <r>    9.4947    0.0000 </r>
       <r>   12.9592    0.0000 </r>
      </set>
      <set comment="kpoint 12">
       <r>   -3.8338    1.0000 </r>
       <r>   -1.1842    1.0000 </r>
       <r>    3.7119    1.0000 </r>
       <r>    4.3101    1.0000 </r>
       <r>    7.6743    0.0000 </r>
       <r>    8.9609    0.0000 </r>
       <r>    9.3129    0.0000 </r>
       <r>   13.6627    0.0000 </r>
      </set>
      <set comment="kpoint 13">
       <r>   -4.3051    1.0000 </r>
       <r>   -0.4507    1.0000 </r>
       <r>    3.6777    1.0000 </r>
       <r>    4.5336    1.0000 </r>
       <r>    7.7728    0.0000 </r>
       <r>    9.1494    0.0000 </r>
       <r>    9.2333    0.0000 </r>
       <r>   13.3394    0.0000 </r>
      </set>
      <set comment="kpoint 14">
       <r>   -4.9711    1.0000 </r>
       <r>    0.8559    1.0000 </r>
       <r>    3.7994    1.0000 </r>
       <r>    4.8531    1.0000 </r>
       <r>    7.9883    0.0000 </r>
       <r>    9.1609    0.0000 </r>
       <r>    9.3552    0.0000 </r>
       <r>   12.2779    0.0000 </r>
      </set>
      <set comment="kpoint 15">
       <r>   -5.5329    1.0000 </r>
       <r>    2.3841    1.0000 </r>
       <r>    4.0947    1.0000 </r>
       <r>    5.2125    1.0000 </r>
       <r>    8.2845    0.0000 </r>
       <r>    8.8766    0.0000 </r>
       <r>    9.2236    0.0000 </r>
       <r>   11.3828    0.0000 </r>
      </set>
      <set comment="kpoint 16">
       <r>   -5.9138    1.0000 </r>
       <r>    3.8369    1.0000 </r>
       <r>    4.6540    1.0000 </r>
       <r>    5.4837    0.9991 </r>
       <r>    8.4783    0.0000 </r>
       <r>    8.5169    0.0000 </r>
       <r>    8.6415    0.0000 </r>
       <r>   10.4799    0.0000 </r>
      </set>
      <set comment="kpoint 17">
       <r>   -5.6307    1.0000 </r>
       <r>    3.3090    1.0000 </r>
       <r>    4.3255    1.0000 </r>
       <r>    4.3256    1.0000 </r>
       <r>    7.2327    0.0000 </r>
       <r>    9.7059    0.0000 </r>
       <r>   10.1774    0.0000 </r>
       <r>   10.1774    0.0000 </r>
      </set>
      <set comment="kpoint 18">
       <r>   -5.2501    1.0000 </r>
       <r>    2.1671    1.0000 </r>
       <r>    3.9103    1.0000 </r>
       <r>    3.9870    1.0000 </r>
       <r>    7.2851    0.0000 </r>
       <r>    9.3119    0.0000 </r>
       <r>   10.4608    0.0000 </r>
       <r>   10.7573    0.0000 </r>
      </set>
      <set comment="kpoint 19">
       <r>   -4.6889    1.0000 </r>
       <r>    0.8169    1.0000 </r>
       <r>    3.3841    1.0000 </r>
       <r>    3.7924    1.0000 </r>
       <r>    7.5196    0.0000 </r>
       <r>    9.6701    0.0000 </r>
       <r>   10.2608    0.0000 </r>
       <r>   10.8439    0.0000 </r>
      </set>
      <set comment="kpoint 20">
       <r>   -4.0220    1.0000 </r>
       <r>   -0.3996    1.0000 </r>
       <r>    2.9133    1.0000 </r>
       <r>    3.7599    1.0000 </r>
       <r>    7.5579    0.0000 </r>
       <r>   10.0280    0.0000 </r>
       <r>   10.5979    0.0000 </r>
       <r>   10.8772    0.0000 </r>
      </set>
      <set comment="kpoint 21">
       <r>   -3.5511    1.0000 </r>
       <r>   -1.0943    1.0000 </r>
       <r>    2.5827    1.0000 </r>
       <r>    3.8882    1.0000 </r>
       <r>    7.6534    0.0000 </r>
       <r>    9.9026    0.0000 </r>
       <r>   10.3113    0.0000 </r>
       <r>   12.4878    0.0000 </r>
      </set>
      <set comment="kpoint 22">
       <r>   -3.8293    1.0000 </r>
       <r>   -0.6917    1.0000 </r>
       <r>    2.4336    1.0000 </r>
       <r>    4.1616    1.0000 </r>
       <r>    7.8978    0.0000 </r>
       <r>    9.8979    0.0000 </r>
       <r>   10.0886    0.0000 </r>
       <r>   13.2945    0.0000 </r>
      </set>
      <set comment="kpoint 23">
       <r>   -4.4873    1.0000 </r>
       <r>    0.4043    1.0000 </r>
       <r>    2.5178    1.0000 </r>
       <r>    4.5427    1.0000 </r>
       <r>    8.2540    0.0000 </r>
       <r>    9.8409    0.0000 </r>
       <r>    9.9525    0.0000 </r>
       <r>   11.9084    0.0000 </r>
      </set>
      <set comment="kpoint 24">
       <r>   -5.0928    1.0000 </r>
       <r>    1.5778    1.0000 </r>
       <r>    2.9974    1.0000 </r>
       <r>    4.9497    1.0000 </r>
       <r>    8.5690    0.0000 </r>
       <r>    9.3529    0.0000 </r>
       <r>    9.6450    0.0000 </r>
       <r>   11.2371    0.0000 </r>
      </set>
      <set comment="kpoint 25">
       <r>   -4.9340    1.0000 </r>
       <r>    1.7032    1.0000 </r>
       <r>    3.6146    1.0000 </r>
       <r>    3.6146    1.0000 </r>
       <r>    6.6512    0.0000 </r>
       <r>    8.4405    0.0000 </r>
       <r>   11.7246    0.0000 </r>
       <r>   11.7247    0.0000 </r>
      </set>
      <set comment="kpoint 26">
       <r>   -4.4290    1.0000 </r>
       <r>    0.7612    1.0000 </r>
       <r>    3.0869    1.0000 </r>
       <r>    3.3861    1.0000 </r>
       <r>    6.7836    0.0000 </r>
       <r>    8.1536    0.0000 </r>
       <r>   12.0035    0.0000 </r>
       <r>   12.1896    0.0000 </r>
      </set>
      <set comment="kpoint 27">
       <r>   -3.7813    1.0000 </r>
       <r>   -0.2515    1.0000 </r>
       <r>    2.3725    1.0000 </r>
       <r>    3.3253    1.0000 </r>
       <r>    6.9836    0.0000 </r>
       <r>    8.8945    0.0000 </r>
       <r>   11.8391    0.0000 </r>
       <r>   12.0619    0.0000 </r>
      </set>
      <set comment="kpoint 28">
       <r>   -3.1804    1.0000 </r>
       <r>   -1.0374    1.0000 </r>
       <r>    1.8091    1.0000 </r>
       <r>    3.4356    1.0000 </r>
       <r>    7.1162    0.0000 </r>
       <r>   10.3603    0.0000 </r>
       <r>   11.6687    0.0000 </r>
       <r>   11.7402    0.0000 </r>
      </set>
      <set comment="kpoint 29">
       <r>   -3.2362    1.0000 </r>
       <r>   -0.9590    1.0000 </r>
       <r>    1.5301    1.0000 </r>
       <r>    3.7056    1.0000 </r>
       <r>    7.4004    0.0000 </r>
       <r>   11.3900    0.0000 </r>
       <r>   11.4088    0.0000 </r>
       <r>   12.2914    0.0000 </r>
      </set>
      <set comment="kpoint 30">
       <r>   -3.8581    1.0000 </r>
       <r>   -0.2125    1.0000 </r>
       <r>    1.6895    1.0000 </r>
       <r>    4.1012    1.0000 </r>
       <r>    7.8348    0.0000 </r>
       <r>   10.7926    0.0000 </r>
       <r>   11.1365    0.0000 </r>
       <r>   11.9557    0.0000 </r>
      </set>
      <set comment="kpoint 31">
       <r>   -3.9798    1.0000 </r>
       <r>    0.1065    1.0000 </r>
       <r>    3.1152    1.0000 </r>
       <r>    3.1152    1.0000 </r>
       <r>    6.3011    0.0038 </r>
       <r>    7.3178    0.0000 </r>
       <r>   13.3678    0.0000 </r>
       <r>   13.3678    0.0000 </r>
      </set>
      <set comment="kpoint 32">
       <r>   -3.3683    1.0000 </r>
       <r>   -0.6967    1.0000 </r>
       <r>    2.5923    1.0000 </r>
       <r>    3.0114    1.0000 </r>
       <r>    6.5090    0.0000 </r>
       <r>    7.3290    0.0000 </r>
       <r>   13.6880    0.0000 </r>
       <r>   13.7006    0.0000 </r>
      </set>
      <set comment="kpoint 33">
       <r>   -2.7071    1.0000 </r>
       <r>   -1.4026    1.0000 </r>
       <r>    1.8308    1.0000 </r>
       <r>    3.0833    1.0000 </r>
       <r>    6.6788    0.0000 </r>
       <r>    8.4960    0.0000 </r>
       <r>   13.4193    0.0000 </r>
       <r>   13.5515    0.0000 </r>
      </set>
      <set comment="kpoint 34">
       <r>   -2.6470    1.0000 </r>
       <r>   -1.4318    1.0000 </r>
       <r>    1.3557    1.0000 </r>
       <r>    3.3235    1.0000 </r>
       <r>    6.9520    0.0000 </r>
       <r>   10.2006    0.0000 </r>
       <r>   12.7453    0.0000 </r>
       <r>   13.2771    0.0000 </r>
      </set>
      <set comment="kpoint 35">
       <r>   -2.7936    1.0000 </r>
       <r>   -1.4137    1.0000 </r>
       <r>    2.8599    1.0000 </r>
       <r>    2.8599    1.0000 </r>
       <r>    6.2639    0.0081 </r>
       <r>    6.5910    0.0000 </r>
       <r>   15.0402    0.0000 </r>
       <r>   15.0402    0.0000 </r>
      </set>
      <set comment="kpoint 36">
       <r>   -2.1595    1.0000 </r>
       <r>   -2.0476    1.0000 </r>
       <r>    2.4293    1.0000 </r>
       <r>    2.8846    1.0000 </r>
       <r>    6.4448    0.0001 </r>
       <r>    7.0203    0.0000 </r>
       <r>   14.9640    0.0000 </r>
       <r>   15.1925    0.0000 </r>
      </set>
      <set comment="kpoint 37">
       <r>   -5.4951    1.0000 </r>
       <r>    2.6095    1.0000 </r>
       <r>    3.8282    1.0000 </r>
       <r>    4.8151    1.0000 </r>
       <r>    7.9637    0.0000 </r>
       <r>    9.1857    0.0000 </r>
       <r>    9.9733    0.0000 </r>
       <r>   10.3934    0.0000 </r>
      </set>
      <set comment="kpoint 38">
       <r>   -4.9909    1.0000 </r>
       <r>    1.3085    1.0000 </r>
       <r>    3.2709    1.0000 </r>
       <r>    4.5017    1.0000 </r>
       <r>    8.2678    0.0000 </r>
       <r>    9.1491    0.0000 </r>
       <r>   10.3021    0.0000 </r>
       <r>   10.5109    0.0000 </r>
      </set>
      <set comment="kpoint 39">
       <r>   -4.3446    1.0000 </r>
       <r>   -0.0124    1.0000 </r>
       <r>    3.0137    1.0000 </r>
       <r>    4.1644    1.0000 </r>
       <r>    8.2919    0.0000 </r>
       <r>    8.9701    0.0000 </r>
       <r>   10.3980    0.0000 </r>
       <r>   11.3432    0.0000 </r>
      </set>
      <set comment="kpoint 40">
       <r>   -3.7437    1.0000 </r>
       <r>   -0.9748    1.0000 </r>
       <r>    2.9134    1.0000 </r>
       <r>    3.9581    1.0000 </r>
       <r>    8.2605    0.0000 </r>
       <r>    8.7809    0.0000 </r>
       <r>   10.3341    0.0000 </r>
       <r>   12.7931    0.0000 </r>
      </set>
      <set comment="kpoint 41">
       <r>   -4.8083    1.0000 </r>
       <r>    1.3281    1.0000 </r>
       <r>    3.1236    1.0000 </r>
       <r>    3.8269    1.0000 </r>
       <r>    7.4101    0.0000 </r>
       <r>    8.9319    0.0000 </r>
       <r>   10.5704    0.0000 </r>
       <r>   11.6088    0.0000 </r>
      </set>
      <set comment="kpoint 42">
       <r>   -4.2014    1.0000 </r>
       <r>    0.2641    1.0000 </r>
       <r>    2.5558    1.0000 </r>
       <r>    3.5201    1.0000 </r>
       <r>    7.7684    0.0000 </r>
       <r>    9.3404    0.0000 </r>
       <r>   10.2584    0.0000 </r>
       <r>   11.9973    0.0000 </r>
      </set>
      <set comment="kpoint 43">
       <r>   -3.5419    1.0000 </r>
       <r>   -0.7263    1.0000 </r>
       <r>    2.1740    1.0000 </r>
       <r>    3.3679    1.0000 </r>
       <r>    7.9005    0.0000 </r>
       <r>    9.8754    0.0000 </r>
       <r>   10.6860    0.0000 </r>
       <r>   11.9531    0.0000 </r>
      </set>
      <set comment="kpoint 44">
       <r>   -3.2819    1.0000 </r>
       <r>   -1.0673    1.0000 </r>
       <r>    1.9479    1.0000 </r>
       <r>    3.4558    1.0000 </r>
       <r>    8.1098    0.0000 </r>
       <r>    9.6139    0.0000 </r>
       <r>   11.8402    0.0000 </r>
       <r>   12.3582    0.0000 </r>
      </set>
      <set comment="kpoint 45">
       <r>   -3.7770    1.0000 </r>
       <r>   -0.3927    1.0000 </r>
       <r>    1.9404    1.0000 </r>
       <r>    3.7454    1.0000 </r>
       <r>    8.4633    0.0000 </r>
       <r>    9.4264    0.0000 </r>
       <r>   11.1386    0.0000 </r>
       <r>   11.7741    0.0000 </r>
      </set>
      <set comment="kpoint 46">
       <r>   -4.4398    1.0000 </r>
       <r>    0.5732    1.0000 </r>
       <r>    2.3147    1.0000 </r>
       <r>    4.1523    1.0000 </r>
       <r>    8.8897    0.0000 </r>
       <r>    9.0132    0.0000 </r>
       <r>   10.2671    0.0000 </r>
       <r>   11.3204    0.0000 </r>
      </set>
      <set comment="kpoint 47">
       <r>   -3.8728    1.0000 </r>
       <r>   -0.0286    1.0000 </r>
       <r>    2.6555    1.0000 </r>
       <r>    3.0409    1.0000 </r>
       <r>    7.0593    0.0000 </r>
       <r>    7.9109    0.0000 </r>
       <r>   11.9367    0.0000 </r>
       <r>   13.3345    0.0000 </r>
      </set>
      <set comment="kpoint 48">
       <r>   -3.2046    1.0000 </r>
       <r>   -0.8393    1.0000 </r>
       <r>    2.0256    1.0000 </r>
       <r>    2.8662    1.0000 </r>
       <r>    7.4023    0.0000 </r>
       <r>    8.7134    0.0000 </r>
       <r>   11.5898    0.0000 </r>
       <r>   13.6926    0.0000 </r>
      </set>
      <set comment="kpoint 49">
       <r>   -2.7461    1.0000 </r>
       <r>   -1.3282    1.0000 </r>
       <r>    1.5147    1.0000 </r>
       <r>    2.9801    1.0000 </r>
       <r>    7.6146    0.0000 </r>
       <r>   10.2706    0.0000 </r>
       <r>   11.2913    0.0000 </r>
       <r>   12.8783    0.0000 </r>
      </set>
      <set comment="kpoint 50">
       <r>   -3.1256    1.0000 </r>
       <r>   -0.9333    1.0000 </r>
       <r>    1.4123    1.0000 </r>
       <r>    3.2976    1.0000 </r>
       <r>    7.9801    0.0000 </r>
       <r>   10.6788    0.0000 </r>
       <r>   11.4018    0.0000 </r>
       <r>   12.2904    0.0000 </r>
      </set>
      <set comment="kpoint 51">
       <r>   -2.7221    1.0000 </r>
       <r>   -1.4121    1.0000 </r>
       <r>    2.4675    1.0000 </r>
       <r>    2.5875    1.0000 </r>
       <r>    6.9936    0.0000 </r>
       <r>    7.2642    0.0000 </r>
       <r>   13.4581    0.0000 </r>
       <r>   14.8474    0.0000 </r>
      </set>
      <set comment="kpoint 52">
       <r>   -2.2280    1.0000 </r>
       <r>   -1.8515    1.0000 </r>
       <r>    1.8224    1.0000 </r>
       <r>    2.6585    1.0000 </r>
       <r>    7.2720    0.0000 </r>
       <r>    8.5069    0.0000 </r>
       <r>   13.0088    0.0000 </r>
       <r>   13.2376    0.0000 </r>
      </set>
      <set comment="kpoint 53">
       <r>   -3.5689    1.0000 </r>
       <r>   -0.4157    1.0000 </r>
       <r>    1.9133    1.0000 </r>
       <r>    3.0651    1.0000 </r>
       <r>    8.6974    0.0000 </r>
       <r>    9.3476    0.0000 </r>
       <r>    9.8868    0.0000 </r>
       <r>   13.2341    0.0000 </r>
      </set>
      <set comment="kpoint 54">
       <r>   -2.9466    1.0000 </r>
       <r>   -1.1053    1.0000 </r>
       <r>    1.6374    1.0000 </r>
       <r>    2.7515    1.0000 </r>
       <r>    9.0716    0.0000 </r>
       <r>    9.4178    0.0000 </r>
       <r>   10.6775    0.0000 </r>
       <r>   12.5265    0.0000 </r>
      </set>
      <set comment="kpoint 55">
       <r>   -2.5414    1.0000 </r>
       <r>   -1.4566    1.0000 </r>
       <r>    1.8659    1.0000 </r>
       <r>    2.2426    1.0000 </r>
       <r>    8.6180    0.0000 </r>
       <r>    8.8274    0.0000 </r>
       <r>   11.1854    0.0000 </r>
       <r>   12.7626    0.0000 </r>
      </set>
      <set comment="kpoint 56">
       <r>   -2.3464    1.0000 </r>
       <r>   -1.6183    1.0000 </r>
       <r>    1.5928    1.0000 </r>
       <r>    2.2782    1.0000 </r>
       <r>    8.9656    0.0000 </r>
       <r>   10.2433    0.0000 </r>
       <r>   10.9550    0.0000 </r>
       <r>   10.9636    0.0000 </r>
      </set>
     </set>
    </set>
   </array>
  </eigenvalues>
  <separator name="orbital magnetization" >
   <v name="MAGDIPOLOUT">      0.00000000      0.00000000      0.00000000</v>
  </separator>
  <dos>
   <i name="efermi">      5.92402055 </i>
   <total>
    <array>
     <dimension dim="1">gridpoints</dimension>
     <dimension dim="2">spin</dimension>
     <field>energy</field>
     <field>total</field>
     <field>integrated</field>
     <set>
      <set comment="spin 1">
       <r>    -8.1964     0.0000     0.0000 </r>
       <r>    -8.1118     0.0000     0.0000 </r>
       <r>    -8.0272     0.0000     0.0000 </r>
       <r>    -7.9425     0.0000     0.0000 </r>
       <r>    -7.8579     0.0000     0.0000 </r>
       <r>    -7.7733     0.0000     0.0000 </r>
       <r>    -7.6886     0.0000     0.0000 </r>
       <r>    -7.6040     0.0000     0.0000 </r>
       <r>    -7.5194     0.0000     0.0000 </r>
       <r>    -7.4348     0.0000     0.0000 </r>
       <r>    -7.3501     0.0000     0.0000 </r>
       <r>    -7.2655     0.0000     0.0000 </r>
       <r>    -7.1809     0.0000     0.0000 </r>
       <r>    -7.0962     0.0000     0.0000 </r>
       <r>    -7.0116     0.0000     0.0000 </r>
       <r>    -6.9270     0.0000     0.0000 </r>
       <r>    -6.8423     0.0000     0.0000 </r>
       <r>    -6.7577     0.0000     0.0000 </r>
       <r>    -6.6731     0.0000     0.0000 </r>
       <r>    -6.5885     0.0001     0.0000 </r>
       <r>    -6.5038     0.0005     0.0000 </r>
       <r>    -6.4192     0.0024     0.0003 </r>
       <r>    -6.3346     0.0088     0.0010 </r>
       <r>    -6.2499     0.0240     0.0030 </r>
       <r>    -6.1653     0.0508     0.0073 </r>
       <r>    -6.0807     0.0868     0.0147 </r>
       <r>    -5.9961     0.1275     0.0255 </r>
       <r>    -5.9114     0.1693     0.0398 </r>
       <r>    -5.8268     0.2040     0.0571 </r>
       <r>    -5.7422     0.2237     0.0760 </r>
       <r>    -5.6575     0.2401     0.0963 </r>
       <r>    -5.5729     0.2724     0.1194 </r>
       <r>    -5.4883     0.3142     0.1460 </r>
       <r>    -5.4036     0.3396     0.1747 </r>
       <r>    -5.3190     0.3399     0.2035 </r>
       <r>    -5.2344     0.3311     0.2315 </r>
       <r>    -5.1498     0.3421     0.2604 </r>
       <r>    -5.0651     0.3912     0.2935 </r>
       <r>    -4.9805     0.4550     0.3320 </r>
       <r>    -4.8959     0.4873     0.3733 </r>
       <r>    -4.8112     0.4767     0.4136 </r>
       <r>    -4.7266     0.4476     0.4515 </r>
       <r>    -4.6420     0.4288     0.4878 </r>
       <r>    -4.5573     0.4531     0.5261 </r>
       <r>    -4.4727     0.5369     0.5716 </r>
       <r>    -4.3881     0.6399     0.6257 </r>
       <r>    -4.3035     0.6933     0.6844 </r>
       <r>    -4.2188     0.6739     0.7414 </r>
       <r>    -4.1342     0.6211     0.7940 </r>
       <r>    -4.0496     0.5991     0.8447 </r>
       <r>    -3.9649     0.6603     0.9006 </r>
       <r>    -3.8803     0.8042     0.9686 </r>
       <r>    -3.7957     0.9427     1.0484 </r>
       <r>    -3.7111     0.9686     1.1304 </r>
       <r>    -3.6264     0.8775     1.2046 </r>
       <r>    -3.5418     0.7545     1.2685 </r>
       <r>    -3.4572     0.6718     1.3253 </r>
       <r>    -3.3725     0.6674     1.3818 </r>
       <r>    -3.2879     0.7334     1.4439 </r>
       <r>    -3.2033     0.7840     1.5102 </r>
       <r>    -3.1186     0.7330     1.5723 </r>
       <r>    -3.0340     0.6064     1.6236 </r>
       <r>    -2.9494     0.5083     1.6666 </r>
       <r>    -2.8648     0.4992     1.7089 </r>
       <r>    -2.7801     0.5504     1.7555 </r>
       <r>    -2.6955     0.5784     1.8044 </r>
       <r>    -2.6109     0.5220     1.8486 </r>
       <r>    -2.5262     0.4052     1.8829 </r>
       <r>    -2.4416     0.3036     1.9086 </r>
       <r>    -2.3570     0.2601     1.9306 </r>
       <r>    -2.2723     0.2574     1.9524 </r>
       <r>    -2.1877     0.2535     1.9738 </r>
       <r>    -2.1031     0.2270     1.9930 </r>
       <r>    -2.0185     0.1900     2.0091 </r>
       <r>    -1.9338     0.1651     2.0231 </r>
       <r>    -1.8492     0.1586     2.0365 </r>
       <r>    -1.7646     0.1663     2.0506 </r>
       <r>    -1.6799     0.1984     2.0674 </r>
       <r>    -1.5953     0.2800     2.0911 </r>
       <r>    -1.5107     0.4183     2.1265 </r>
       <r>    -1.4261     0.5728     2.1749 </r>
       <r>    -1.3414     0.6852     2.2329 </r>
       <r>    -1.2568     0.7630     2.2975 </r>
       <r>    -1.1722     0.8801     2.3720 </r>
       <r>    -1.0875     1.0474     2.4606 </r>
       <r>    -1.0029     1.1672     2.5594 </r>
       <r>    -0.9183     1.1641     2.6579 </r>
       <r>    -0.8336     1.0690     2.7484 </r>
       <r>    -0.7490     0.9370     2.8277 </r>
       <r>    -0.6644     0.7848     2.8941 </r>
       <r>    -0.5798     0.6500     2.9491 </r>
       <r>    -0.4951     0.5994     2.9999 </r>
       <r>    -0.4105     0.6226     3.0525 </r>
       <r>    -0.3259     0.6224     3.1052 </r>
       <r>    -0.2412     0.5553     3.1522 </r>
       <r>    -0.1566     0.4812     3.1929 </r>
       <r>    -0.0720     0.4522     3.2312 </r>
       <r>     0.0127     0.4414     3.2686 </r>
       <r>     0.0973     0.4116     3.3034 </r>
       <r>     0.1819     0.3850     3.3360 </r>
       <r>     0.2665     0.3937     3.3693 </r>
       <r>     0.3512     0.4119     3.4042 </r>
       <r>     0.4358     0.3932     3.4374 </r>
       <r>     0.5204     0.3392     3.4661 </r>
       <r>     0.6051     0.2944     3.4911 </r>
       <r>     0.6897     0.2931     3.5159 </r>
       <r>     0.7743     0.3192     3.5429 </r>
       <r>     0.8589     0.3172     3.5697 </r>
       <r>     0.9436     0.2553     3.5913 </r>
       <r>     1.0282     0.1745     3.6061 </r>
       <r>     1.1128     0.1557     3.6193 </r>
       <r>     1.1975     0.2496     3.6404 </r>
       <r>     1.2821     0.4350     3.6772 </r>
       <r>     1.3667     0.6349     3.7309 </r>
       <r>     1.4514     0.7857     3.7974 </r>
       <r>     1.5360     0.8751     3.8715 </r>
       <r>     1.6206     0.9189     3.9493 </r>
       <r>     1.7052     0.9578     4.0303 </r>
       <r>     1.7899     1.0470     4.1189 </r>
       <r>     1.8745     1.1704     4.2180 </r>
       <r>     1.9591     1.2209     4.3213 </r>
       <r>     2.0438     1.1420     4.4180 </r>
       <r>     2.1284     1.0140     4.5038 </r>
       <r>     2.2130     0.9463     4.5839 </r>
       <r>     2.2977     0.9668     4.6657 </r>
       <r>     2.3823     1.0516     4.7547 </r>
       <r>     2.4669     1.1728     4.8539 </r>
       <r>     2.5515     1.2789     4.9621 </r>
       <r>     2.6362     1.3054     5.0726 </r>
       <r>     2.7208     1.2673     5.1799 </r>
       <r>     2.8054     1.2822     5.2884 </r>
       <r>     2.8901     1.4234     5.4088 </r>
       <r>     2.9747     1.5923     5.5436 </r>
       <r>     3.0593     1.6210     5.6808 </r>
       <r>     3.1439     1.4882     5.8067 </r>
       <r>     3.2286     1.3566     5.9215 </r>
       <r>     3.3132     1.3556     6.0363 </r>
       <r>     3.3978     1.4129     6.1558 </r>
       <r>     3.4825     1.3841     6.2730 </r>
       <r>     3.5671     1.2788     6.3812 </r>
       <r>     3.6517     1.2449     6.4866 </r>
       <r>     3.7364     1.3458     6.6004 </r>
       <r>     3.8210     1.4631     6.7243 </r>
       <r>     3.9056     1.4581     6.8477 </r>
       <r>     3.9902     1.3442     6.9614 </r>
       <r>     4.0749     1.2368     7.0661 </r>
       <r>     4.1595     1.1800     7.1660 </r>
       <r>     4.2441     1.1117     7.2600 </r>
       <r>     4.3288     1.0078     7.3453 </r>
       <r>     4.4134     0.9389     7.4248 </r>
       <r>     4.4980     0.9341     7.5038 </r>
       <r>     4.5827     0.9169     7.5814 </r>
       <r>     4.6673     0.8350     7.6521 </r>
       <r>     4.7519     0.7341     7.7142 </r>
       <r>     4.8365     0.6538     7.7696 </r>
       <r>     4.9212     0.5677     7.8176 </r>
       <r>     5.0058     0.4604     7.8566 </r>
       <r>     5.0904     0.3650     7.8875 </r>
       <r>     5.1751     0.3020     7.9130 </r>
       <r>     5.2597     0.2532     7.9344 </r>
       <r>     5.3443     0.2077     7.9520 </r>
       <r>     5.4289     0.1752     7.9669 </r>
       <r>     5.5136     0.1508     7.9796 </r>
       <r>     5.5982     0.1164     7.9895 </r>
       <r>     5.6828     0.0722     7.9956 </r>
       <r>     5.7675     0.0347     7.9985 </r>
       <r>     5.8521     0.0132     7.9996 </r>
       <r>     5.9367     0.0052     8.0001 </r>
       <r>     6.0214     0.0067     8.0006 </r>
       <r>     6.1060     0.0183     8.0022 </r>
       <r>     6.1906     0.0429     8.0058 </r>
       <r>     6.2752     0.0818     8.0127 </r>
       <r>     6.3599     0.1338     8.0241 </r>
       <r>     6.4445     0.1941     8.0405 </r>
       <r>     6.5291     0.2513     8.0617 </r>
       <r>     6.6138     0.2929     8.0865 </r>
       <r>     6.6984     0.3167     8.1133 </r>
       <r>     6.7830     0.3390     8.1420 </r>
       <r>     6.8677     0.3908     8.1751 </r>
       <r>     6.9523     0.4878     8.2164 </r>
       <r>     7.0369     0.6013     8.2673 </r>
       <r>     7.1215     0.6994     8.3265 </r>
       <r>     7.2062     0.7994     8.3941 </r>
       <r>     7.2908     0.9192     8.4719 </r>
       <r>     7.3754     1.0189     8.5581 </r>
       <r>     7.4601     1.0586     8.6477 </r>
       <r>     7.5447     1.0711     8.7384 </r>
       <r>     7.6293     1.1204     8.8332 </r>
       <r>     7.7139     1.2283     8.9371 </r>
       <r>     7.7986     1.3669     9.0528 </r>
       <r>     7.8832     1.4715     9.1773 </r>
       <r>     7.9678     1.4723     9.3019 </r>
       <r>     8.0525     1.3809     9.4188 </r>
       <r>     8.1371     1.3052     9.5293 </r>
       <r>     8.2217     1.3089     9.6400 </r>
       <r>     8.3064     1.3261     9.7523 </r>
       <r>     8.3910     1.2799     9.8606 </r>
       <r>     8.4756     1.1908     9.9614 </r>
       <r>     8.5602     1.1278    10.0568 </r>
       <r>     8.6449     1.1560    10.1546 </r>
       <r>     8.7295     1.3317    10.2673 </r>
       <r>     8.8141     1.6406    10.4062 </r>
       <r>     8.8988     1.9463    10.5709 </r>
       <r>     8.9834     2.0827    10.7472 </r>
       <r>     9.0680     2.0223    10.9183 </r>
       <r>     9.1527     1.8876    11.0780 </r>
       <r>     9.2373     1.7937    11.2299 </r>
       <r>     9.3219     1.7415    11.3772 </r>
       <r>     9.4065     1.6453    11.5165 </r>
       <r>     9.4912     1.4471    11.6389 </r>
       <r>     9.5758     1.2084    11.7412 </r>
       <r>     9.6604     1.0496    11.8300 </r>
       <r>     9.7451     1.0249    11.9168 </r>
       <r>     9.8297     1.0885    12.0089 </r>
       <r>     9.9143     1.1374    12.1051 </r>
       <r>     9.9989     1.1138    12.1994 </r>
       <r>    10.0836     1.1084    12.2932 </r>
       <r>    10.1682     1.2769    12.4013 </r>
       <r>    10.2528     1.6063    12.5372 </r>
       <r>    10.3375     1.8675    12.6953 </r>
       <r>    10.4221     1.8741    12.8539 </r>
       <r>    10.5067     1.6809    12.9961 </r>
       <r>    10.5914     1.4583    13.1195 </r>
       <r>    10.6760     1.2842    13.2282 </r>
       <r>    10.7606     1.1325    13.3241 </r>
       <r>    10.8452     0.9828    13.4072 </r>
       <r>    10.9299     0.8585    13.4799 </r>
       <r>    11.0145     0.7910    13.5468 </r>
       <r>    11.0991     0.8071    13.6151 </r>
       <r>    11.1838     0.9159    13.6927 </r>
       <r>    11.2684     1.0674    13.7830 </r>
       <r>    11.3530     1.1550    13.8807 </r>
       <r>    11.4377     1.1104    13.9747 </r>
       <r>    11.5223     0.9989    14.0592 </r>
       <r>    11.6069     0.9606    14.1405 </r>
       <r>    11.6915     1.0527    14.2296 </r>
       <r>    11.7762     1.2111    14.3321 </r>
       <r>    11.8608     1.3339    14.4450 </r>
       <r>    11.9454     1.3408    14.5585 </r>
       <r>    12.0301     1.2017    14.6602 </r>
       <r>    12.1147     0.9822    14.7433 </r>
       <r>    12.1993     0.8127    14.8121 </r>
       <r>    12.2839     0.7519    14.8757 </r>
       <r>    12.3686     0.7352    14.9379 </r>
       <r>    12.4532     0.6860    14.9960 </r>
       <r>    12.5378     0.6049    15.0472 </r>
       <r>    12.6225     0.5500    15.0937 </r>
       <r>    12.7071     0.5720    15.1421 </r>
       <r>    12.7917     0.6492    15.1971 </r>
       <r>    12.8764     0.6905    15.2555 </r>
       <r>    12.9610     0.6376    15.3095 </r>
       <r>    13.0456     0.5386    15.3550 </r>
       <r>    13.1302     0.5037    15.3977 </r>
       <r>    13.2149     0.5919    15.4478 </r>
       <r>    13.2995     0.7410    15.5105 </r>
       <r>    13.3841     0.8300    15.5807 </r>
       <r>    13.4688     0.8161    15.6498 </r>
       <r>    13.5534     0.7633    15.7144 </r>
       <r>    13.6380     0.7233    15.7756 </r>
       <r>    13.7227     0.6510    15.8307 </r>
       <r>    13.8073     0.4898    15.8721 </r>
       <r>    13.8919     0.2818    15.8960 </r>
       <r>    13.9765     0.1187    15.9060 </r>
       <r>    14.0612     0.0359    15.9091 </r>
       <r>    14.1458     0.0078    15.9097 </r>
       <r>    14.2304     0.0012    15.9098 </r>
       <r>    14.3151     0.0002    15.9098 </r>
       <r>    14.3997     0.0003    15.9099 </r>
       <r>    14.4843     0.0019    15.9100 </r>
       <r>    14.5689     0.0088    15.9108 </r>
       <r>    14.6536     0.0289    15.9132 </r>
       <r>    14.7382     0.0691    15.9191 </r>
       <r>    14.8228     0.1226    15.9295 </r>
       <r>    14.9075     0.1666    15.9435 </r>
       <r>    14.9921     0.1807    15.9588 </r>
       <r>    15.0767     0.1648    15.9728 </r>
       <r>    15.1614     0.1318    15.9839 </r>
       <r>    15.2460     0.0932    15.9918 </r>
       <r>    15.3306     0.0562    15.9966 </r>
       <r>    15.4152     0.0271    15.9989 </r>
       <r>    15.4999     0.0100    15.9997 </r>
       <r>    15.5845     0.0027    15.9999 </r>
       <r>    15.6691     0.0005    16.0000 </r>
       <r>    15.7538     0.0001    16.0000 </r>
       <r>    15.8384     0.0000    16.0000 </r>
       <r>    15.9230     0.0000    16.0000 </r>
       <r>    16.0077     0.0000    16.0000 </r>
       <r>    16.0923     0.0000    16.0000 </r>
       <r>    16.1769     0.0000    16.0000 </r>
       <r>    16.2615     0.0000    16.0000 </r>
       <r>    16.3462     0.0000    16.0000 </r>
       <r>    16.4308     0.0000    16.0000 </r>
       <r>    16.5154     0.0000    16.0000 </r>
       <r>    16.6001     0.0000    16.0000 </r>
       <r>    16.6847     0.0000    16.0000 </r>
       <r>    16.7693     0.0000    16.0000 </r>
       <r>    16.8539     0.0000    16.0000 </r>
       <r>    16.9386     0.0000    16.0000 </r>
       <r>    17.0232     0.0000    16.0000 </r>
       <r>    17.1078     0.0000    16.0000 </r>
       <r>    17.1925     0.0000    16.0000 </r>
      </set>
     </set>
    </array>
   </total>
  </dos>
 </calculation>
 <structure name="finalpos" >
  <crystal>
   <varray name="basis" >
    <v>       0.00000000       2.73362753       2.73362753 </v>
    <v>       2.73362753      -0.00000000       2.73362753 </v>
    <v>       2.73362753       2.73362753       0.00000000 </v>
   </varray>
   <i name="volume">     40.85526347 </i>
   <varray name="rec_basis" >
    <v>      -0.18290714       0.18290714       0.18290714 </v>
    <v>       0.18290714      -0.18290714       0.18290714 </v>
    <v>       0.18290714       0.18290714      -0.18290714 </v>
   </varray>
  </crystal>
  <varray name="positions" >
   <v>       0.50000000       0.50000000       0.50000000 </v>
   <v>       0.75000000       0.75000000       0.75000000 </v>
  </varray>
 </structure>
</modeling>
