unknown system                          
   1.00000000000000     
    -2.450000    2.450000    1.274000
     2.450000   -2.450000    1.274000
     2.450000    2.450000   -1.274000
   Si
     2
Direct
  0.250000  0.750000  0.500000
  0.000000  0.000000  0.000000
 
   28   28   28
 -.54691451815E+01 -.39343310665E+01 0.55501507366E-01 0.49744693406E+01 0.91361667806E+01
 0.11432487082E+02 0.11682708611E+02 0.10496039250E+02 0.88060992583E+01 0.71948894868E+01
 0.58371272140E+01 0.47991677632E+01 0.40840480202E+01 0.36690777305E+01 0.35332548956E+01
 0.36689984694E+01 0.40840931384E+01 0.47993299604E+01 0.58371836337E+01 0.71948153915E+01
 0.88060865778E+01 0.10496109136E+02 0.11682705174E+02 0.11432437123E+02 0.91362341643E+01
 0.49745761320E+01 0.55421630273E-01 -.39345206776E+01 -.39345206776E+01 -.47270430413E+01
 -.25765270509E+01 0.16515047750E+01 0.63575827115E+01 0.99817802048E+01 0.11656525877E+02
 0.11427657475E+02 0.10022108317E+02 0.83319553948E+01 0.67835707605E+01 0.55129303413E+01
 0.45661104683E+01 0.39357816497E+01 0.35975231739E+01 0.35331484013E+01 0.37388825297E+01
 0.42259403924E+01 0.50167820038E+01 0.61305859935E+01 0.75533935585E+01 0.92006618596E+01
 0.10852958147E+02 0.11816534020E+02 0.11192463146E+02 0.85243530390E+01 0.42007738383E+01
 -.51381489254E+00 0.55421630273E-01 -.25766635028E+01 -.26386937942E+01 -.11461725290E+00
 0.39670607193E+01 0.80632940141E+01 0.10850612655E+02 0.11751271450E+02 0.11022823849E+02
 0.94549980414E+01 0.78029971159E+01 0.63418605854E+01 0.51753102983E+01 0.43293128454E+01
 0.37881928146E+01 0.35276392003E+01 0.35329176160E+01 0.38038167437E+01 0.43542866616E+01
 0.52072592830E+01 0.63774091585E+01 0.78400715249E+01 0.94961488505E+01 0.11086746058E+02
 0.11872049268E+02 0.11041298082E+02 0.83013766858E+01 0.42007738383E+01 0.49745761320E+01
 0.16514671257E+01 -.11466903702E+00 0.41544139028E+00 0.30055952842E+01 0.65750073587E+01
 0.97557790223E+01 0.11534646446E+02 0.11631506490E+02 0.10471043940E+02 0.88321035538E+01
 0.72481314628E+01 0.58939363754E+01 0.48420473741E+01 0.41006340039E+01 0.36484853516E+01
 0.34629480758E+01 0.35327866209E+01 0.38607194277E+01 0.44625380886E+01 0.53605078718E+01
 0.65642025927E+01 0.80398207687E+01 0.96788216651E+01 0.11201278308E+02 0.11885816873E+02
 0.11041298082E+02 0.85243530390E+01 0.91362341643E+01 0.63576329430E+01 0.39670717507E+01
 0.30056279191E+01 0.39036350397E+01 0.62526553455E+01 0.90308787921E+01 0.11132851372E+02
 0.11883375567E+02 0.11268343090E+02 0.98144326107E+01 0.81887616203E+01 0.66981821724E+01
 0.54639225005E+01 0.45302051006E+01 0.38913539504E+01 0.35235906279E+01 0.34068476921E+01
 0.35329245073E+01 0.39066638862E+01 0.45447831027E+01 0.54679433668E+01 0.66806423164E+01
 0.81423217209E+01 0.97405992842E+01 0.11201278308E+02 0.11872049268E+02 0.11192463146E+02
 0.11432437123E+02 0.99817654750E+01 0.80632835477E+01 0.65750543784E+01 0.62527457475E+01
 0.72670295013E+01 0.91313862886E+01 0.10973866274E+02 0.11995143385E+02 0.11840449466E+02
 0.10700073512E+02 0.91245105855E+01 0.75614136586E+01 0.61831088561E+01 0.50739097141E+01
 0.42549866953E+01 0.37115435971E+01 0.34197238622E+01 0.33622720550E+01 0.35333043814E+01
 0.39390246689E+01 0.45962378537E+01 0.55233156709E+01 0.67202013244E+01 0.81423217209E+01
 0.96788216651E+01 0.11086746058E+02 0.11816534020E+02 0.11682705174E+02 0.11656496083E+02
 0.10850534611E+02 0.97557214858E+01 0.90309392437E+01 0.91314968479E+01 0.10042395139E+02
 0.11286780431E+02 0.12198730697E+02 0.12283343962E+02 0.11452393027E+02 0.10022871458E+02
 0.84559926199E+01 0.69851594108E+01 0.57293189587E+01 0.47423379933E+01 0.40288701845E+01
 0.35695133624E+01 0.33419414329E+01 0.33314209372E+01 0.35337091162E+01 0.39557664824E+01
 0.46137562859E+01 0.55233156709E+01 0.66806423164E+01 0.80398207687E+01 0.94961488505E+01
 0.10852958147E+02 0.10496109136E+02 0.11427734165E+02 0.11751270682E+02 0.11534542307E+02
 0.11132771008E+02 0.10973919296E+02 0.11286878418E+02 0.11950632864E+02 0.12563345254E+02
 0.12681879409E+02 0.12076294812E+02 0.10849211422E+02 0.93503508051E+01 0.78497853029E+01
 0.64904523600E+01 0.53577956856E+01 0.44831452055E+01 0.38612037474E+01 0.34714770885E+01
 0.32938615794E+01 0.33156754752E+01 0.35338816560E+01 0.39557664824E+01 0.45962378537E+01
 0.54679433668E+01 0.65642025927E+01 0.78400715249E+01 0.92006618596E+01 0.88060865778E+01
 0.10022187218E+02 0.11022945957E+02 0.11631535720E+02 0.11883282412E+02 0.11995065032E+02
 0.12198764313E+02 0.12563411906E+02 0.12930830468E+02 0.13009343585E+02 0.12560428386E+02
 0.11555189746E+02 0.10201170705E+02 0.87451322034E+01 0.73416134271E+01 0.61010185261E+01
 0.50834509861E+01 0.43057799442E+01 0.37582605752E+01 0.34214760773E+01 0.32776045952E+01
 0.33156754752E+01 0.35337091162E+01 0.39390246689E+01 0.45447831027E+01 0.53605078718E+01
 0.63774091585E+01 0.75533935585E+01 0.71948153915E+01 0.83318954450E+01 0.94550545569E+01
 0.10471169824E+02 0.11268393744E+02 0.11840390372E+02 0.12283284775E+02 0.12681891448E+02
 0.13009375133E+02 0.13118447670E+02 0.12833129591E+02 0.12076768890E+02 0.10946036333E+02
 0.96214830606E+01 0.82508680678E+01 0.69594781557E+01 0.58333113019E+01 0.49156194239E+01
 0.42158321511E+01 0.37235698157E+01 0.34214760773E+01 0.32938615794E+01 0.33314209372E+01
 0.35333043814E+01 0.39066638862E+01 0.44625380886E+01 0.52072592830E+01 0.61305859935E+01
 0.58371836337E+01 0.67834995866E+01 0.78029083756E+01 0.88321202064E+01 0.98145295192E+01
 0.10700131353E+02 0.11452372913E+02 0.12076260879E+02 0.12560423540E+02 0.12833133105E+02
 0.12782511036E+02 0.12330684894E+02 0.11505069146E+02 0.10408876505E+02 0.91654577603E+01
 0.79019139930E+01 0.67227861155E+01 0.56972071419E+01 0.48591807319E+01 0.42158321511E+01
 0.37582605752E+01 0.34714770885E+01 0.33419414329E+01 0.33622720550E+01 0.35329245073E+01
 0.38607194277E+01 0.43542866616E+01 0.50167820038E+01 0.47993299604E+01 0.55130178496E+01
 0.63418152995E+01 0.72480397613E+01 0.81887397081E+01 0.91245636164E+01 0.10022922747E+02
 0.10849221188E+02 0.11555177881E+02 0.12076755009E+02 0.12330672410E+02 0.12244241535E+02
 0.11796410869E+02 0.11023589807E+02 0.10012138244E+02 0.88745142673E+01 0.77215861031E+01
 0.66426872900E+01 0.56972071419E+01 0.49156194239E+01 0.43057799442E+01 0.38612037474E+01
 0.35695133624E+01 0.34197238622E+01 0.34068476921E+01 0.35327866209E+01 0.38038167437E+01
 0.42259403924E+01 0.40840931384E+01 0.45662287763E+01 0.51754026972E+01 0.58939267015E+01
 0.66981099787E+01 0.75613681098E+01 0.84560044437E+01 0.93503865657E+01 0.10201194980E+02
 0.10946038805E+02 0.11505054131E+02 0.11796393865E+02 0.11761051655E+02 0.11384718158E+02
 0.10705107154E+02 0.98017474148E+01 0.87745915009E+01 0.77215861031E+01 0.67227861155E+01
 0.58333113019E+01 0.50834509861E+01 0.44831452055E+01 0.40288701845E+01 0.37115435971E+01
 0.35235906279E+01 0.34629480758E+01 0.35329176160E+01 0.37388825297E+01 0.36689984694E+01
 0.39357314324E+01 0.43293523950E+01 0.48421196105E+01 0.54639431589E+01 0.61830675881E+01
 0.69851092830E+01 0.78497691233E+01 0.87451490229E+01 0.96215075015E+01 0.10408885705E+02
 0.11023579051E+02 0.11384703535E+02 0.11435721658E+02 0.11161604071E+02 0.10593852197E+02
 0.98017474148E+01 0.88745142673E+01 0.79019139930E+01 0.69594781557E+01 0.61010185261E+01
 0.53577956856E+01 0.47423379933E+01 0.42549866953E+01 0.38913539504E+01 0.36484853516E+01
 0.35276392003E+01 0.35331484013E+01 0.35332548956E+01 0.35973993167E+01 0.37880617233E+01
 0.41005944592E+01 0.45302433140E+01 0.50739461538E+01 0.57293082681E+01 0.64904128439E+01
 0.73415842309E+01 0.82508668545E+01 0.91654738695E+01 0.10012149308E+02 0.10705101792E+02
 0.11161592731E+02 0.11321167993E+02 0.11161604071E+02 0.10705107154E+02 0.10012138244E+02
 0.91654577603E+01 0.82508680678E+01 0.73416134271E+01 0.64904523600E+01 0.57293189587E+01
 0.50739097141E+01 0.45302051006E+01 0.41006340039E+01 0.37881928146E+01 0.35975231739E+01
 0.36690777305E+01 0.35331374218E+01 0.35275050781E+01 0.36483206880E+01 0.38912663921E+01
 0.42549920598E+01 0.47423751972E+01 0.53578082194E+01 0.61009970380E+01 0.69594465528E+01
 0.79018987154E+01 0.88745211441E+01 0.98017585040E+01 0.10593849215E+02 0.11161592731E+02
 0.11435721658E+02 0.11384718158E+02 0.11023589807E+02 0.10408876505E+02 0.96214830606E+01
 0.87451322034E+01 0.78497853029E+01 0.69851594108E+01 0.61831088561E+01 0.54639225005E+01
 0.48420473741E+01 0.43293128454E+01 0.39357816497E+01 0.40840480202E+01 0.37389011943E+01
 0.35329012576E+01 0.34628443824E+01 0.35234525264E+01 0.37114533178E+01 0.40288547439E+01
 0.44831741367E+01 0.50834780000E+01 0.58333071632E+01 0.67227563792E+01 0.77215630685E+01
 0.87745944961E+01 0.98017585040E+01 0.10705101792E+02 0.11384703535E+02 0.11761051655E+02
 0.11796410869E+02 0.11505069146E+02 0.10946036333E+02 0.10201170705E+02 0.93503508051E+01
 0.84559926199E+01 0.75614136586E+01 0.66981821724E+01 0.58939363754E+01 0.51753102983E+01
 0.45661104683E+01 0.47991677632E+01 0.42258245812E+01 0.38037827493E+01 0.35327756256E+01
 0.34068082242E+01 0.34196609139E+01 0.35694576874E+01 0.38611814846E+01 0.43057990404E+01
 0.49156538430E+01 0.56972133806E+01 0.66426587732E+01 0.77215630685E+01 0.88745211441E+01
 0.10012149308E+02 0.11023579051E+02 0.11796393865E+02 0.12244241535E+02 0.12330684894E+02
 0.12076768890E+02 0.11555189746E+02 0.10849211422E+02 0.10022871458E+02 0.91245105855E+01
 0.81887616203E+01 0.72481314628E+01 0.63418605854E+01 0.55129303413E+01 0.58371272140E+01
 0.50166322628E+01 0.43541526254E+01 0.38606597569E+01 0.35329316584E+01 0.33623128909E+01
 0.33419720479E+01 0.34714690367E+01 0.37582396285E+01 0.42158451598E+01 0.48592173771E+01
 0.56972133806E+01 0.67227563792E+01 0.79018987154E+01 0.91654738695E+01 0.10408885705E+02
 0.11505054131E+02 0.12330672410E+02 0.12782511036E+02 0.12833129591E+02 0.12560428386E+02
 0.12076294812E+02 0.11452393027E+02 0.10700073512E+02 0.98144326107E+01 0.88321035538E+01
 0.78029971159E+01 0.67835707605E+01 0.71948894868E+01 0.61305775743E+01 0.52071768818E+01
 0.44624417508E+01 0.39066098305E+01 0.35333380243E+01 0.33315346667E+01 0.32939677802E+01
 0.34215008426E+01 0.37235504788E+01 0.42158451598E+01 0.49156538430E+01 0.58333071632E+01
 0.69594465528E+01 0.82508668545E+01 0.96215075015E+01 0.10946038805E+02 0.12076755009E+02
 0.12833133105E+02 0.13118447670E+02 0.13009343585E+02 0.12681879409E+02 0.12283343962E+02
 0.11840449466E+02 0.11268343090E+02 0.10471043940E+02 0.94549980414E+01 0.83319553948E+01
 0.88060992583E+01 0.75534436437E+01 0.63774513485E+01 0.53605242033E+01 0.45447576228E+01
 0.39389946026E+01 0.35337667441E+01 0.33158324474E+01 0.32777396120E+01 0.34215008426E+01
 0.37582396285E+01 0.43057990404E+01 0.50834780000E+01 0.61009970380E+01 0.73415842309E+01
 0.87451490229E+01 0.10201194980E+02 0.11555177881E+02 0.12560423540E+02 0.13009375133E+02
 0.12930830468E+02 0.12563345254E+02 0.12198730697E+02 0.11995143385E+02 0.11883375567E+02
 0.11631506490E+02 0.11022823849E+02 0.10022108317E+02 0.10496039250E+02 0.92006230514E+01
 0.78400788634E+01 0.65642857925E+01 0.54680544614E+01 0.45962783744E+01 0.39557567407E+01
 0.35339489837E+01 0.33158324474E+01 0.32939677802E+01 0.34714690367E+01 0.38611814846E+01
 0.44831741367E+01 0.53578082194E+01 0.64904128439E+01 0.78497691233E+01 0.93503865657E+01
 0.10849221188E+02 0.12076260879E+02 0.12681891448E+02 0.12563411906E+02 0.11950632864E+02
 0.11286780431E+02 0.10973866274E+02 0.11132851372E+02 0.11534646446E+02 0.11751271450E+02
 0.11427657475E+02 0.11682708611E+02 0.10852927560E+02 0.94960677383E+01 0.80397836166E+01
 0.66807507713E+01 0.55234840979E+01 0.46138234155E+01 0.39557567407E+01 0.35337667441E+01
 0.33315346667E+01 0.33419720479E+01 0.35694576874E+01 0.40288547439E+01 0.47423751972E+01
 0.57293082681E+01 0.69851092830E+01 0.84560044437E+01 0.10022922747E+02 0.11452372913E+02
 0.12283284775E+02 0.12198764313E+02 0.11286878418E+02 0.10042395139E+02 0.91313862886E+01
 0.90308787921E+01 0.97557790223E+01 0.10850612655E+02 0.11656525877E+02 0.11432487082E+02
 0.11816629463E+02 0.11086766403E+02 0.96787145069E+01 0.81422565583E+01 0.67203181190E+01
 0.55234840979E+01 0.45962783744E+01 0.39389946026E+01 0.35333380243E+01 0.33623128909E+01
 0.34196609139E+01 0.37114533178E+01 0.42549920598E+01 0.50739461538E+01 0.61830675881E+01
 0.75613681098E+01 0.91245636164E+01 0.10700131353E+02 0.11840390372E+02 0.11995065032E+02
 0.10973919296E+02 0.91314968479E+01 0.72670295013E+01 0.62526553455E+01 0.65750073587E+01
 0.80632940141E+01 0.99817802048E+01 0.91361667806E+01 0.11192522612E+02 0.11872217739E+02
 0.11201334013E+02 0.97404835719E+01 0.81422565583E+01 0.66807507713E+01 0.54680544614E+01
 0.45447576228E+01 0.39066098305E+01 0.35329316584E+01 0.34068082242E+01 0.35234525264E+01
 0.38912663921E+01 0.45302433140E+01 0.54639431589E+01 0.66981099787E+01 0.81887397081E+01
 0.98145295192E+01 0.11268393744E+02 0.11883282412E+02 0.11132771008E+02 0.90309392437E+01
 0.62527457475E+01 0.39036350397E+01 0.30055952842E+01 0.39670607193E+01 0.63575827115E+01
 0.49744693406E+01 0.85242161590E+01 0.11041360163E+02 0.11886013115E+02 0.11201334013E+02
 0.96787145069E+01 0.80397836166E+01 0.65642857925E+01 0.53605242033E+01 0.44624417508E+01
 0.38606597569E+01 0.35327756256E+01 0.34628443824E+01 0.36483206880E+01 0.41005944592E+01
 0.48421196105E+01 0.58939267015E+01 0.72480397613E+01 0.88321202064E+01 0.10471169824E+02
 0.11631535720E+02 0.11534542307E+02 0.97557214858E+01 0.65750543784E+01 0.30056279191E+01
 0.41544139028E+00 -.11461725290E+00 0.16515047750E+01 0.55501507366E-01 0.42006329812E+01
 0.83012125936E+01 0.11041360163E+02 0.11872217739E+02 0.11086766403E+02 0.94960677383E+01
 0.78400788634E+01 0.63774513485E+01 0.52071768818E+01 0.43541526254E+01 0.38037827493E+01
 0.35329012576E+01 0.35275050781E+01 0.37880617233E+01 0.43293523950E+01 0.51754026972E+01
 0.63418152995E+01 0.78029083756E+01 0.94550545569E+01 0.11022945957E+02 0.11751270682E+02
 0.10850534611E+02 0.80632835477E+01 0.39670717507E+01 -.11466903702E+00 -.26386937942E+01
 -.25765270509E+01 -.39343310665E+01 -.51371828369E+00 0.42006329812E+01 0.85242161590E+01
 0.11192522612E+02 0.11816629463E+02 0.10852927560E+02 0.92006230514E+01 0.75534436437E+01
 0.61305775743E+01 0.50166322628E+01 0.42258245812E+01 0.37389011943E+01 0.35331374218E+01
 0.35973993167E+01 0.39357314324E+01 0.45662287763E+01 0.55130178496E+01 0.67834995866E+01
 0.83318954450E+01 0.10022187218E+02 0.11427734165E+02 0.11656496083E+02 0.99817654750E+01
 0.63576329430E+01 0.16514671257E+01 -.25766635028E+01 -.47270430413E+01 -.39339982350E+01
 -.28224118448E+01 0.65322520814E+00 0.51413063381E+01 0.90524370712E+01 0.11272901070E+02
 0.11547769878E+02 0.10402090547E+02 0.87226405723E+01 0.71033622014E+01 0.57275192481E+01
 0.46669540377E+01 0.39273665666E+01 0.34849697831E+01 0.33154356340E+01 0.34080542979E+01
 0.37691241169E+01 0.44200474964E+01 0.53868630938E+01 0.66747251220E+01 0.82308754816E+01
 0.99086767684E+01 0.11245347726E+02 0.11361983644E+02 0.96076331907E+01 0.60353519000E+01
 0.15761700748E+01 -.22373702662E+01 -.28225848069E+01 -.39340329404E+01 -.22372779725E+01
 0.15761935092E+01 0.60353216886E+01 0.96077220486E+01 0.11362154431E+02 0.11245418385E+02
 0.99086780041E+01 0.82309762768E+01 0.66748769894E+01 0.53868801097E+01 0.44199652374E+01
 0.37691253095E+01 0.34081174490E+01 0.33154054325E+01 0.34848877771E+01 0.39273821752E+01
 0.46669993061E+01 0.57274212014E+01 0.71031824778E+01 0.87225583022E+01 0.10402056697E+02
 0.11547630306E+02 0.11272743851E+02 0.90524471960E+01 0.51413884101E+01 0.65315075935E+00
 0.77319228467E+00 -.21057311156E+01 -.25762901259E+01 -.46437478604E+00 0.33529704604E+01
 0.73996278244E+01 0.10312441672E+02 0.11407861117E+02 0.10838508682E+02 0.93396960475E+01
 0.76979529066E+01 0.62281594354E+01 0.50453432708E+01 0.41825413474E+01 0.36255197336E+01
 0.33476129857E+01 0.33312324050E+01 0.35749552852E+01 0.40933739697E+01 0.49118457927E+01
 0.60500549805E+01 0.74916629956E+01 0.91489693233E+01 0.10800923069E+02 0.11774051702E+02
 0.11237386193E+02 0.88124299982E+01 0.49222210061E+01 0.54372986011E+01 0.19183888251E+01
 -.22083853959E+00 -.11446034315E+00 0.21614747934E+01 0.56343150967E+01 0.89382771461E+01
 0.10967490702E+02 0.11316076785E+02 0.10316287856E+02 0.87271482988E+01 0.71495080284E+01
 0.57854058531E+01 0.47192390274E+01 0.39652338381E+01 0.35024845638E+01 0.33058679651E+01
 0.33622442281E+01 0.36742924665E+01 0.42592319478E+01 0.51421812644E+01 0.63377675012E+01
 0.78197100770E+01 0.94887067925E+01 0.11096376817E+02 0.11952458245E+02 0.11322443401E+02
 0.89720723051E+01 0.95099712282E+01 0.65855180570E+01 0.38685824253E+01 0.24828772534E+01
 0.30056545159E+01 0.51663034953E+01 0.79975734307E+01 0.10340597217E+02 0.11396985382E+02
 0.11029778405E+02 0.96995224224E+01 0.81020778613E+01 0.66125799755E+01 0.53680966853E+01
 0.44234773075E+01 0.37772796966E+01 0.34050238844E+01 0.32845725968E+01 0.34069995039E+01
 0.37780671768E+01 0.44163489801E+01 0.53454427621E+01 0.65744965457E+01 0.80691012650E+01
 0.97233611165E+01 0.11281819486E+02 0.12093229304E+02 0.11539831074E+02 0.11841203026E+02
 0.10304270307E+02 0.81316259803E+01 0.62563539806E+01 0.55256994832E+01 0.62526090080E+01
 0.80498337016E+01 0.10048362665E+02 0.11358524708E+02 0.11496220188E+02 0.10550373957E+02
 0.90426511737E+01 0.74949849472E+01 0.61135143616E+01 0.49957406592E+01 0.41709274738E+01
 0.36264420089E+01 0.33371723939E+01 0.32846100398E+01 0.34632431212E+01 0.38807640515E+01
 0.45559171356E+01 0.55097975898E+01 0.67461986488E+01 0.82248733155E+01 0.98382751274E+01
 0.11347354469E+02 0.12181044759E+02 0.12178091381E+02 0.12132013899E+02 0.11166127440E+02
 0.97665159149E+01 0.86565637139E+01 0.84102942371E+01 0.91312501350E+01 0.10398139392E+02
 0.11508430907E+02 0.11862250096E+02 0.11256820018E+02 0.99404035493E+01 0.84019578991E+01
 0.69365982781E+01 0.56761632321E+01 0.46847407351E+01 0.39719773017E+01 0.35188781572E+01
 0.33018795586E+01 0.33059628547E+01 0.35280101623E+01 0.39766171737E+01 0.46697085808E+01
 0.56251960388E+01 0.68420153772E+01 0.82764573028E+01 0.98237277758E+01 0.11279118360E+02
 0.11064137582E+02 0.12037644159E+02 0.12300690568E+02 0.11891120708E+02 0.11184231301E+02
 0.10685596948E+02 0.10731713068E+02 0.11286595860E+02 0.11965371543E+02 0.12266197360E+02
 0.11859890755E+02 0.10763109852E+02 0.93038335964E+01 0.78147197088E+01 0.64551722657E+01
 0.53202342565E+01 0.44477109447E+01 0.38343766899E+01 0.34590664278E+01 0.33008979662E+01
 0.33477139425E+01 0.35978943696E+01 0.40601779743E+01 0.47508964428E+01 0.56843527627E+01
 0.68553009042E+01 0.82187594203E+01 0.96763789112E+01 0.94006315566E+01 0.10698925157E+02
 0.11723321513E+02 0.12253734992E+02 0.12313572125E+02 0.12154167428E+02 0.12083313047E+02
 0.12255298589E+02 0.12563163819E+02 0.12705322273E+02 0.12380038397E+02 0.11479485814E+02
 0.10163191479E+02 0.87170765060E+01 0.73151000364E+01 0.60741765703E+01 0.50604011034E+01
 0.42934157859E+01 0.37633618619E+01 0.34497995038E+01 0.33347319297E+01 0.34081493789E+01
 0.36693770693E+01 0.41268310157E+01 0.47946903960E+01 0.56834189332E+01 0.67842920556E+01
 0.80529821649E+01 0.77870362789E+01 0.90094971338E+01 0.10198289837E+02 0.11227264105E+02
 0.11945862943E+02 0.12348303607E+02 0.12569132256E+02 0.12757127993E+02 0.12944910782E+02
 0.13009204486E+02 0.12751042948E+02 0.12039930556E+02 0.10923059049E+02 0.95969531786E+01
 0.82240447723E+01 0.69320806871E+01 0.58110427010E+01 0.49063522949E+01 0.42272182765E+01
 0.37619107128E+01 0.34921829828E+01 0.34026081734E+01 0.34848637467E+01 0.37390680109E+01
 0.41731086677E+01 0.47986503167E+01 0.56222269810E+01 0.66323283926E+01 0.64076730231E+01
 0.74354438181E+01 0.85245523530E+01 0.95974835037E+01 0.10580688204E+02 0.11395992227E+02
 0.12008680653E+02 0.12458215940E+02 0.12780642263E+02 0.12940651923E+02 0.12833046107E+02
 0.12356092006E+02 0.11503848358E+02 0.10386256036E+02 0.91300654622E+01 0.78617488399E+01
 0.66874752670E+01 0.56771145394E+01 0.48635286393E+01 0.42516907220E+01 0.38309074373E+01
 0.35855343550E+01 0.35023747270E+01 0.35747590866E+01 0.38037790130E+01 0.41967719232E+01
 0.47626826251E+01 0.55041559521E+01 0.53357755882E+01 0.61230310565E+01 0.70186256747E+01
 0.79746788642E+01 0.89359308955E+01 0.98519623007E+01 0.10684532438E+02 0.11397527522E+02
 0.11964737544E+02 0.12353328384E+02 0.12499751298E+02 0.12330646810E+02 0.11817656068E+02
 0.10999858878E+02 0.99599821435E+01 0.88089996292E+01 0.76579040363E+01 0.65953850595E+01
 0.56784038812E+01 0.49340023634E+01 0.43669899434E+01 0.39690415973E+01 0.37271197187E+01
 0.36302930870E+01 0.36739395374E+01 0.38604813799E+01 0.41967405585E+01 0.46888404582E+01
 0.45810852941E+01 0.51264156032E+01 0.57947952659E+01 0.65614716377E+01 0.73935438589E+01
 0.82549041374E+01 0.91111183740E+01 0.99299849474E+01 0.10675554141E+02 0.11299302703E+02
 0.11737263264E+02 0.11920356699E+02 0.11796396984E+02 0.11352805607E+02 0.10626976037E+02
 0.96983560136E+01 0.86669727749E+01 0.76294963091E+01 0.66625353124E+01 0.58164200693E+01
 0.51169153081E+01 0.45707285253E+01 0.41724054061E+01 0.39117874850E+01 0.37808291043E+01
 0.37776406442E+01 0.39062875191E+01 0.41730082624E+01 0.41266448516E+01 0.44451058329E+01
 0.48876929489E+01 0.54419681867E+01 0.60912167433E+01 0.68161851841E+01 0.75958833098E+01
 0.84066442999E+01 0.92184834328E+01 0.99892831356E+01 0.10660590530E+02 0.11160804369E+02
 0.11418850564E+02 0.11384709117E+02 0.11047389300E+02 0.10441070443E+02 0.96363636182E+01
 0.87214984195E+01 0.77823673378E+01 0.68886838475E+01 0.60883727840E+01 0.54081238266E+01
 0.48573128294E+01 0.44339205274E+01 0.41316868847E+01 0.39466469945E+01 0.38803699461E+01
 0.39385808971E+01 0.39553086188E+01 0.40598892789E+01 0.42881663300E+01 0.46329120171E+01
 0.50847346574E+01 0.56348998674E+01 0.62754359055E+01 0.69962663181E+01 0.77805154967E+01
 0.85991742668E+01 0.94065250129E+01 0.10139046383E+02 0.10721252081E+02 0.11079696436E+02
 0.11161589663E+02 0.10950533741E+02 0.10472115526E+02 0.97867483699E+01 0.89733415479E+01
 0.81111622365E+01 0.72664698012E+01 0.64864365962E+01 0.57990960687E+01 0.52169787547E+01
 0.47428575313E+01 0.43763024447E+01 0.41189671853E+01 0.39763287164E+01 0.40600093504E+01
 0.39553265465E+01 0.39762306253E+01 0.41188516525E+01 0.43762344762E+01 0.47428100366E+01
 0.52169206478E+01 0.57990416663E+01 0.64863931075E+01 0.72664196360E+01 0.81111141400E+01
 0.89733288171E+01 0.97867662498E+01 0.10472123915E+02 0.10950523521E+02 0.11161584581E+02
 0.11079695866E+02 0.10721237410E+02 0.10139035619E+02 0.94065550656E+01 0.85992387079E+01
 0.77805814133E+01 0.69963333761E+01 0.62755141006E+01 0.56349590058E+01 0.50847534874E+01
 0.46329454962E+01 0.42882718611E+01 0.44451566702E+01 0.41267528776E+01 0.39386310399E+01
 0.38803267923E+01 0.39465742217E+01 0.41316272548E+01 0.44338611315E+01 0.48572554635E+01
 0.54080922525E+01 0.60883553822E+01 0.68886507649E+01 0.77823341133E+01 0.87214994723E+01
 0.96363814799E+01 0.10441063043E+02 0.11047364025E+02 0.11384700076E+02 0.11418851763E+02
 0.11160795959E+02 0.10660597666E+02 0.99893370368E+01 0.92185603801E+01 0.84067123580E+01
 0.75959626234E+01 0.68162867908E+01 0.60912786158E+01 0.54419448977E+01 0.48876572773E+01
 0.51263078795E+01 0.45810691407E+01 0.41730832615E+01 0.39063586450E+01 0.37776669686E+01
 0.37808299053E+01 0.39117608190E+01 0.41723453645E+01 0.45706775042E+01 0.51169091366E+01
 0.58164251111E+01 0.66625138368E+01 0.76294783019E+01 0.86669909540E+01 0.96983733026E+01
 0.10626952471E+02 0.11352773354E+02 0.11796397064E+02 0.11920368856E+02 0.11737267647E+02
 0.11299336154E+02 0.10675634511E+02 0.99300601563E+01 0.91111626553E+01 0.82549743625E+01
 0.73936587634E+01 0.65615325936E+01 0.57947285289E+01 0.61229339537E+01 0.53356293680E+01
 0.46887802871E+01 0.41967772993E+01 0.38605550700E+01 0.36740225112E+01 0.36303598472E+01
 0.37271205953E+01 0.39689846217E+01 0.43669570889E+01 0.49340258977E+01 0.56784229516E+01
 0.65953693101E+01 0.76579074092E+01 0.88090432287E+01 0.99600026583E+01 0.10999827265E+02
 0.11817631675E+02 0.12330663716E+02 0.12499769015E+02 0.12353339832E+02 0.11964797735E+02
 0.11397627968E+02 0.10684583474E+02 0.98519533814E+01 0.89359649618E+01 0.79747826981E+01
 0.70186722687E+01 0.74354551474E+01 0.64075674788E+01 0.55040240791E+01 0.47626177063E+01
 0.41967734133E+01 0.38038331997E+01 0.35748644569E+01 0.35024680849E+01 0.35855363560E+01
 0.38308552150E+01 0.42516904810E+01 0.48635821492E+01 0.56771360090E+01 0.66874638846E+01
 0.78617839977E+01 0.91301404853E+01 0.10386281913E+02 0.11503819405E+02 0.12356087016E+02
 0.12833072718E+02 0.12940653173E+02 0.12780644186E+02 0.12458293453E+02 0.12008785410E+02
 0.11395997896E+02 0.10580608581E+02 0.95974599672E+01 0.85246121166E+01 0.90094856804E+01
 0.77869938320E+01 0.66322368022E+01 0.56221546237E+01 0.47986098718E+01 0.41730772634E+01
 0.37390849637E+01 0.34849536618E+01 0.34026806846E+01 0.34921600953E+01 0.37618704552E+01
 0.42272622533E+01 0.49064278185E+01 0.58110553012E+01 0.69320789626E+01 0.82241203069E+01
 0.95970550454E+01 0.10923085230E+02 0.12039911310E+02 0.12751059253E+02 0.13009220997E+02
 0.12944868421E+02 0.12757102566E+02 0.12569210214E+02 0.12348391109E+02 0.11945814394E+02
 0.11227122231E+02 0.10198206220E+02 0.10698803976E+02 0.94005426400E+01 0.80528827348E+01
 0.67842321316E+01 0.56834239840E+01 0.47946782385E+01 0.41267670815E+01 0.36693532134E+01
 0.34082010743E+01 0.33347527472E+01 0.34497447862E+01 0.37633489302E+01 0.42935071297E+01
 0.50604828073E+01 0.60741744672E+01 0.73151186467E+01 0.87171917099E+01 0.10163300396E+02
 0.11479499162E+02 0.12380030721E+02 0.12705354752E+02 0.12563152136E+02 0.12255200449E+02
 0.12083254193E+02 0.12154226645E+02 0.12313620125E+02 0.12253641164E+02 0.11723154468E+02
 0.12037505253E+02 0.11064018993E+02 0.96762329130E+01 0.82186230838E+01 0.68552854714E+01
 0.56844235561E+01 0.47508950574E+01 0.40600868277E+01 0.35978458198E+01 0.33477282504E+01
 0.33008645390E+01 0.34589966055E+01 0.38344088752E+01 0.44478402756E+01 0.53203030335E+01
 0.64551585217E+01 0.78147693575E+01 0.93039728276E+01 0.10763193462E+02 0.11859875747E+02
 0.12266201563E+02 0.11965416285E+02 0.11286556473E+02 0.10731578366E+02 0.10685518867E+02
 0.11184255643E+02 0.11891111048E+02 0.12300574765E+02 0.12131905092E+02 0.12178028334E+02
 0.11279041851E+02 0.98235641953E+01 0.82763244215E+01 0.68420534888E+01 0.56253031375E+01
 0.46696963348E+01 0.39765167338E+01 0.35279682092E+01 0.33059578713E+01 0.33018121914E+01
 0.35188234439E+01 0.39720640185E+01 0.46848853611E+01 0.56762023981E+01 0.69365833940E+01
 0.84020414854E+01 0.99405362768E+01 0.11256843980E+02 0.11862198156E+02 0.11508449510E+02
 0.10398198496E+02 0.91312077716E+01 0.84101731165E+01 0.86564977349E+01 0.97664959719E+01
 0.11166051165E+02 0.10304133644E+02 0.11841127832E+02 0.12181080147E+02 0.11347340203E+02
 0.98381365324E+01 0.82247903337E+01 0.67462933986E+01 0.55099088352E+01 0.45558843895E+01
 0.38806835593E+01 0.34632388736E+01 0.32846049036E+01 0.33370987285E+01 0.36264293080E+01
 0.41710603560E+01 0.49958680538E+01 0.61135138741E+01 0.74949808120E+01 0.90427576355E+01
 0.10550462432E+02 0.11496163296E+02 0.11358441798E+02 0.10048399047E+02 0.80499097915E+01
 0.62525992747E+01 0.55256512993E+01 0.62563334009E+01 0.81315610287E+01 0.65854167299E+01
 0.95098000296E+01 0.11539809697E+02 0.12093353070E+02 0.11281860276E+02 0.97232777976E+01
 0.80691018740E+01 0.65746394116E+01 0.53455324669E+01 0.44163021660E+01 0.37780345865E+01
 0.34070452899E+01 0.32845727217E+01 0.34049643110E+01 0.37773190303E+01 0.44236281940E+01
 0.53681725223E+01 0.66125382636E+01 0.81020901992E+01 0.96996264318E+01 0.11029791637E+02
 0.11396852908E+02 0.10340504655E+02 0.79976247059E+01 0.51663868838E+01 0.30056985561E+01
 0.24829380562E+01 0.38686231910E+01 0.19184782596E+01 0.54371785926E+01 0.89719100976E+01
 0.11322487516E+02 0.11952634001E+02 0.11096444675E+02 0.94886894688E+01 0.78198009364E+01
 0.63379339305E+01 0.51422322314E+01 0.42591858842E+01 0.36743183495E+01 0.33623235220E+01
 0.33058616901E+01 0.35024465363E+01 0.39653144648E+01 0.47193673801E+01 0.57854046071E+01
 0.71494316419E+01 0.87271720251E+01 0.10316356937E+02 0.11316004693E+02 0.10967318016E+02
 0.89382043192E+01 0.56343658248E+01 0.21615358985E+01 -.11437500076E+00 -.22067950781E+00
 -.21055292151E+01 0.77329433690E+00 0.49221068833E+01 0.88123259870E+01 0.11237495398E+02
 0.11774231429E+02 0.10800985102E+02 0.91490108675E+01 0.74918206430E+01 0.60502071534E+01
 0.49118487776E+01 0.40933409142E+01 0.35750251696E+01 0.33313066715E+01 0.33475821579E+01
 0.36255016483E+01 0.41826375665E+01 0.50454101688E+01 0.62280742820E+01 0.76978551529E+01
 0.93397162911E+01 0.10838514573E+02 0.11407720671E+02 0.10312283989E+02 0.73996005259E+01
 0.33529952195E+01 -.46437663247E+00 -.25762064246E+01 0.56409280743E-01 0.77388113516E+00
 0.34472172712E+01 0.69915069593E+01 0.10069413664E+02 0.11714637148E+02 0.11691726489E+02
 0.10453500674E+02 0.87797565893E+01 0.71738508012E+01 0.58015607885E+01 0.47326812294E+01
 0.39740382466E+01 0.35027519633E+01 0.32939330226E+01 0.33348429474E+01 0.36287352741E+01
 0.41942484632E+01 0.50578123248E+01 0.62319389336E+01 0.76812964794E+01 0.92911781139E+01
 0.10769092577E+02 0.11397840908E+02 0.10527157927E+02 0.80626769852E+01 0.46674251884E+01
 0.15766724387E+01 0.65376291123E+00 -.51270441808E+00 0.65386396119E+00 0.36611123566E+01
 0.72895456692E+01 0.10203696271E+02 0.11555254479E+02 0.11265558041E+02 0.99004239831E+01
 0.82447506891E+01 0.67058024091E+01 0.54235969050E+01 0.44516851246E+01 0.37867181213E+01
 0.34028836149E+01 0.32776112999E+01 0.34027804871E+01 0.37866859655E+01 0.44517272541E+01
 0.54235474823E+01 0.67056740979E+01 0.82447319880E+01 0.99005211869E+01 0.11265582823E+02
 0.11555177454E+02 0.10203674519E+02 0.72895924903E+01 0.36610798546E+01 0.34471621091E+01
 0.77380289055E+00 0.56455486458E-01 0.15767626708E+01 0.46674123485E+01 0.80626381848E+01