unknown system                          
   1.00000000000000     
    -2.429839    2.429839    1.338279
     2.429839   -2.429839    1.338279
     2.429839    2.429839   -1.338279
   Si
     2
Direct
  0.750000  0.250000  0.500000
  0.500000  0.500000  0.000000
 
   36   36   36
  9.7194      9.6498      9.4473      9.1292      8.7205      8.2488      7.7398      7.2148      6.6902      6.1784    
  5.6907      5.2380      4.8307      4.4779      4.1863      3.9594      3.7983      3.7023      3.6705      3.7023    
  3.7983      3.9594      4.1863      4.4779      4.8307      5.2380      5.6908      6.1784      6.6902      7.2148    
  7.7398      8.2488      8.7205      9.1292      9.4473      9.6498      9.6498      9.8043      9.8176      9.6927    
  9.4440      9.0938      8.6671      8.1878      7.6759      7.1474      6.6161      6.0956      5.5999      5.1429    
  4.7369      4.3909      4.1103      3.8971      3.7508      3.6703      3.6548      3.7041      3.8190      4.0001    
  4.2469      4.5571      4.9263      5.3481      5.8153      6.3205      6.8546      7.4063      7.9585      8.4884    
  8.9671      9.3638      9.4473      9.8176      10.053      10.142      10.084      9.8920      9.5869      9.1922    
  8.7304      8.2202      7.6774      7.1163      6.5526      6.0034      5.4862      5.0171      4.6083      4.2672    
  3.9973      3.7986      3.6699      3.6097      3.6173      3.6929      3.8368      4.0489      4.3278      4.6710    
  5.0751      5.5360      6.0493      6.6080      7.2009      7.8101      8.4096      8.9671      9.1292      9.6927    
  10.142      10.449      10.600      10.593      10.443      10.169      9.7952      9.3417      8.8258      8.2618    
  7.6639      7.0490      6.4374      5.8511      5.3105      4.8316      4.4251      4.0958      3.8444      3.6695    
  3.5687      3.5405      3.5842      3.6999      3.8874      4.1465      4.4765      4.8769      5.3467      5.8838    
  6.4827      7.1316      7.8101      8.4884      8.7205      9.4440      10.084      10.600      10.961      11.155    
  11.182      11.057      10.803      10.441      9.9917      9.4675      8.8798      8.2412      7.5696      6.8890    
  6.2262      5.6074      5.0536      4.5786      4.1893      3.8869      3.6692      3.5330      3.4756      3.4953    
  3.5917      3.7648      4.0157      4.3457      4.7569      5.2512      5.8282      6.4827      7.2009      7.9585    
  8.2488      9.0938      9.8920      10.593      11.155      11.548      11.755      11.782      11.659      11.416    
  11.076      10.643      10.119      9.5092      8.8290      8.0977      7.3431      6.5988      5.8976      5.2662    
  4.7224      4.2748      3.9247      3.6692      3.5037      3.4240      3.4277      3.5136      3.6826      3.9367    
  4.2799      4.7167      5.2512      5.8838      6.6080      7.4063      7.7398      8.6671      9.5869      10.443    
  11.182      11.755      12.117      12.270      12.249      12.108      11.888      11.599      11.227      10.741    
  10.128      9.4078      8.6152      7.7841      6.9556      6.1705      5.4619      4.8515      4.3494      3.9568    
  3.6695      3.4813      3.3867      3.3822      3.4665      3.6413      3.9103      4.2799      4.7569      5.3467    
  6.0493      6.8546      7.2148      8.1878      9.1922      10.169      11.057      11.782      12.270      12.503    
  12.526      12.419      12.262      12.099      11.919      11.669      11.278      10.704      9.9581      9.1044    
  8.1960      7.2833      6.4159      5.6333      4.9610      4.4105      3.9820      3.6700      3.4663      3.3642    
  3.3593      3.4508      3.6413      3.9367      4.3457      4.8769      5.5360      6.3205      6.6902      7.6759    
  8.7304      9.7952      10.803      11.659      12.249      12.526      12.526      12.357      12.149      12.006    
  11.963      11.971      11.921      11.691      11.203      10.460      9.5484      8.5639      7.5697      6.6243    
  5.7738      5.0471      4.4558      3.9995      3.6704      3.4588      3.3567      3.3593      3.4665      3.6826    
  4.0157      4.4765      5.0751      5.8153      6.1784      7.1474      8.2202      9.3417      10.441      11.416    
  12.108      12.419      12.357      12.035      11.636      11.342      11.275      11.441      11.733      11.967    
  11.962      11.604      10.891      9.9323      8.8746      7.8039      6.7879      5.8783      5.1063      4.4838    
  4.0084      3.6705      3.4588      3.3642      3.3822      3.5136      3.7648      4.1465      4.6710      5.3481    
  5.6908      6.6162      7.6774      8.8258      9.9917      11.076      11.888      12.262      12.149      11.636    
  10.931      10.299      9.9736      10.074      10.555      11.229      11.826      12.099      11.903      11.239    
  10.244      9.1172      7.9775      6.9004      5.9426      5.1365      4.4932      4.0084      3.6704      3.4663    
  3.3867      3.4277      3.5917      3.8874      4.3278      4.9263      5.2380      6.0956      7.1164      8.2618    
  9.4676      10.643      11.599      12.099      12.006      11.342      10.299      9.1912      8.3691      8.1017    
  8.4818      9.3895      10.533      11.550      12.130      12.107      11.496      10.472      9.2835      8.0842    
  6.9578      5.9643      5.1365      4.4838      3.9995      3.6700      3.4813      3.4240      3.4953      3.6999    
  4.0489      4.5571      4.8307      5.5999      6.5526      7.6639      8.8798      10.119      11.227      11.919    
  11.963      11.275      9.9736      8.3691      6.8911      5.9647      5.8720      6.6514      8.0805      9.7521    
  11.211      12.095      12.232      11.665      10.611      9.3680      8.1201      6.9578      5.9426      5.1063    
  4.4558      3.9820      3.6695      3.5037      3.4756      3.5842      3.8368      4.2469      4.4779      5.1429    
  6.0034      7.0490      8.2412      9.5092      10.741      11.669      11.971      11.441      10.074      8.1017    
  5.9647      4.2015      3.2930      3.5038      4.7874      6.7992      9.0134      10.892      12.041      12.298    
  11.748      10.658      9.3680      8.0842      6.9004      5.8783      5.0471      4.4105      3.9568      3.6692    
  3.5330      3.5405      3.6929      4.0001      4.1863      4.7369      5.4862      6.4374      7.5696      8.8291    
  10.128      11.278      11.921      11.733      10.555      8.4819      5.8720      3.2930      1.3764     0.62859    
  1.2622      3.1191      5.7232      8.4389      10.667      12.003      12.319      11.748      10.611      9.2835    
  7.9775      6.7879      5.7738      4.9610      4.3494      3.9247      3.6692      3.5687      3.6173      3.8190    
  3.9594      4.3909      5.0171      5.8511      6.8890      8.0977      9.4078      10.704      11.691      11.967    
  11.229      9.3896      6.6514      3.5038     0.62859     -1.2792     -1.7250     -.58173      1.8636      5.0072    
  8.1250      10.585      12.003      12.298      11.665      10.472      9.1172      7.8039      6.6243      5.6333    
  4.8515      4.2748      3.8869      3.6695      3.6097      3.7041      3.7983      4.1103      4.6083      5.3105    
  6.2262      7.3431      8.6152      9.9581      11.203      11.962      11.826      10.533      8.0805      4.7874    
  1.2622     -1.7250     -3.4541     -3.4820     -1.7941      1.1897      4.7562      8.1250      10.667      12.041    
  12.232      11.496      10.244      8.8746      7.5697      6.4159      5.4619      4.7224      4.1893      3.8444    
  3.6699      3.6548      3.7023      3.8971      4.2672      4.8316      5.6074      6.5988      7.7841      9.1044    
  10.460      11.604      12.099      11.550      9.7521      6.7992      3.1191     -.58175     -3.4820     -4.8803    
 -4.4209     -2.2168      1.1897      5.0072      8.4389      10.892      12.095      12.107      11.239      9.9323    
  8.5639      7.2833      6.1705      5.2662      4.5786      4.0958      3.7986      3.6703      3.6705      3.7508    
  3.9973      4.4251      5.0536      5.8976      6.9556      8.1960      9.5484      10.891      11.903      12.130    
  11.211      9.0134      5.7232      1.8636     -1.7941     -4.4210     -5.3769     -4.4209     -1.7941      1.8636    
  5.7232      9.0134      11.211      12.130      11.903      10.891      9.5484      8.1960      6.9556      5.8976    
  5.0536      4.4251      3.9973      3.7508      3.7023      3.6703      3.7986      4.0958      4.5786      5.2662    
  6.1705      7.2833      8.5639      9.9323      11.239      12.107      12.095      10.892      8.4388      5.0072    
  1.1897     -2.2168     -4.4210     -4.8803     -3.4820     -.58173      3.1191      6.7992      9.7521      11.550    
  12.099      11.604      10.460      9.1044      7.7841      6.5988      5.6074      4.8316      4.2672      3.8971    
  3.7983      3.6548      3.6699      3.8444      4.1893      4.7224      5.4619      6.4159      7.5697      8.8746    
  10.244      11.496      12.232      12.041      10.667      8.1250      4.7561      1.1897     -1.7941     -3.4820    
 -3.4541     -1.7250      1.2622      4.7874      8.0805      10.533      11.826      11.962      11.203      9.9581    
  8.6152      7.3431      6.2262      5.3105      4.6083      4.1103      3.9594      3.7041      3.6097      3.6695    
  3.8869      4.2748      4.8515      5.6333      6.6243      7.8039      9.1172      10.472      11.665      12.298    
  12.003      10.585      8.1250      5.0072      1.8636     -.58175     -1.7250     -1.2792     0.62859      3.5038    
  6.6514      9.3895      11.229      11.967      11.691      10.704      9.4078      8.0977      6.8890      5.8511    
  5.0171      4.3909      4.1863      3.8190      3.6173      3.5687      3.6692      3.9247      4.3494      4.9610    
  5.7738      6.7878      7.9775      9.2834      10.611      11.748      12.319      12.003      10.667      8.4388    
  5.7232      3.1191      1.2622     0.62859      1.3764      3.2930      5.8720      8.4818      10.555      11.733    
  11.921      11.278      10.128      8.8290      7.5696      6.4374      5.4862      4.7369      4.4779      4.0001    
  3.6929      3.5405      3.5330      3.6692      3.9568      4.4105      5.0471      5.8782      6.9004      8.0841    
  9.3679      10.658      11.748      12.298      12.041      10.892      9.0134      6.7992      4.7874      3.5038    
  3.2930      4.2015      5.9647      8.1017      10.074      11.441      11.971      11.669      10.741      9.5092    
  8.2412      7.0490      6.0034      5.1429      4.8307      4.2469      3.8368      3.5843      3.4756      3.5037    
  3.6695      3.9821      4.4558      5.1063      5.9425      6.9577      8.1201      9.3679      10.611      11.665    
  12.232      12.095      11.211      9.7521      8.0805      6.6514      5.8720      5.9647      6.8911      8.3691    
  9.9736      11.275      11.963      11.919      11.227      10.119      8.8798      7.6639      6.5526      5.5999    
  5.2380      4.5571      4.0489      3.6999      3.4954      3.4241      3.4813      3.6700      3.9995      4.4838    
  5.1365      5.9642      6.9577      8.0841      9.2834      10.472      11.496      12.107      12.130      11.550    
  10.533      9.3896      8.4819      8.1017      8.3691      9.1912      10.299      11.342      12.006      12.099    
  11.599      10.643      9.4675      8.2618      7.1163      6.0956      5.6907      4.9263      4.3278      3.8874    
  3.5917      3.4277      3.3868      3.4664      3.6704      4.0084      4.4932      5.1365      5.9425      6.9004    
  7.9775      9.1172      10.244      11.239      11.903      12.099      11.826      11.229      10.555      10.074    
  9.9736      10.299      10.931      11.636      12.149      12.262      11.888      11.076      9.9917      8.8258    
  7.6774      6.6161      6.1784      5.3480      4.6710      4.1465      3.7648      3.5136      3.3822      3.3642    
  3.4589      3.6706      4.0084      4.4838      5.1063      5.8782      6.7878      7.8039      8.8746      9.9323    
  10.891      11.604      11.962      11.967      11.733      11.441      11.275      11.342      11.636      12.035    
  12.357      12.419      12.108      11.416      10.441      9.3417      8.2202      7.1474      6.6902      5.8153    
  5.0750      4.4765      4.0156      3.6825      3.4665      3.3594      3.3567      3.4589      3.6704      3.9995    
  4.4558      5.0471      5.7738      6.6243      7.5697      8.5639      9.5484      10.460      11.203      11.691    
  11.921      11.971      11.963      12.006      12.149      12.357      12.526      12.526      12.249      11.659    
  10.803      9.7952      8.7304      7.6759      7.2148      6.3205      5.5360      4.8769      4.3456      3.9367    
  3.6412      3.4508      3.3594      3.3642      3.4664      3.6700      3.9821      4.4105      4.9610      5.6333    
  6.4159      7.2833      8.1960      9.1044      9.9581      10.704      11.278      11.669      11.919      12.099    
  12.262      12.419      12.526      12.503      12.270      11.782      11.057      10.169      9.1922      8.1878    
  7.7398      6.8546      6.0493      5.3467      4.7569      4.2798      3.9103      3.6412      3.4665      3.3822    
  3.3868      3.4813      3.6695      3.9568      4.3494      4.8515      5.4619      6.1705      6.9556      7.7841    
  8.6152      9.4078      10.128      10.741      11.227      11.599      11.888      12.108      12.249      12.270    
  12.117      11.755      11.182      10.443      9.5869      8.6671      8.2488      7.4063      6.6080      5.8838    
  5.2512      4.7167      4.2798      3.9367      3.6825      3.5136      3.4277      3.4241      3.5037      3.6692    
  3.9247      4.2748      4.7224      5.2662      5.8976      6.5988      7.3431      8.0977      8.8291      9.5092    
  10.119      10.643      11.076      11.416      11.659      11.782      11.755      11.548      11.155      10.593    
  9.8920      9.0938      8.7205      7.9585      7.2009      6.4827      5.8282      5.2512      4.7569      4.3456    
  4.0156      3.7648      3.5917      3.4954      3.4756      3.5330      3.6692      3.8869      4.1893      4.5786    
  5.0536      5.6074      6.2262      6.8890      7.5696      8.2412      8.8798      9.4676      9.9917      10.441    
  10.803      11.057      11.182      11.155      10.961      10.600      10.084      9.4440      9.1292      8.4884    
  7.8101      7.1316      6.4827      5.8838      5.3467      4.8769      4.4765      4.1465      3.8874      3.6999    
  3.5843      3.5405      3.5687      3.6695      3.8444      4.0958      4.4251      4.8316      5.3105      5.8511    
  6.4374      7.0490      7.6639      8.2618      8.8258      9.3417      9.7952      10.169      10.443      10.593    
  10.600      10.449      10.142      9.6927      9.4473      8.9671      8.4096      7.8101      7.2009      6.6080    
  6.0493      5.5360      5.0750      4.6710      4.3278      4.0489      3.8368      3.6929      3.6173      3.6097    
  3.6699      3.7986      3.9973      4.2672      4.6083      5.0171      5.4862      6.0034      6.5526      7.1164    
  7.6774      8.2202      8.7304      9.1922      9.5869      9.8920      10.084      10.142      10.053      9.8176    
  9.6498      9.3637      8.9671      8.4884      7.9585      7.4063      6.8546      6.3205      5.8153      5.3480    
  4.9263      4.5571      4.2469      4.0001      3.8190      3.7041      3.6548      3.6703      3.7508      3.8971    
  4.1103      4.3909      4.7369      5.1429      5.5999      6.0956      6.6162      7.1474      7.6759      8.1878    
  8.6671      9.0938      9.4440      9.6927      9.8176      9.8043      9.6498      9.5399      9.3101      8.9781    
  8.5681      8.1068      7.6188      7.1239      6.6368      6.1680      5.7264      5.3204      4.9585      4.6485    
  4.3963      4.2055      4.0775      4.0119      4.0084      4.0667      4.1873      4.3710      4.6177      4.9250    
  5.2879      5.6978      6.1439      6.6139      7.0959      7.5788      8.0509      8.4981      8.9022      9.2412    
  9.4915      9.6324      9.5399      9.6498      9.6324      9.4915      9.2412      8.9022      8.4981      8.0509    
  7.5788      7.0959      6.6139      6.1439      5.6979      5.2879      4.9250      4.6177      4.3710      4.1873    
  4.0667      4.0084      4.0119      4.0775      4.2056      4.3963      4.6485      4.9585      5.3203      5.7264    
  6.1680      6.6368      7.1239      7.6188      8.1068      8.5681      8.9781      9.3101      9.2940      9.6159    
  9.8176      9.8881      9.8282      9.6490      9.3689      9.0092      8.5896      8.1271      7.6353      7.1270    
  6.6158      6.1170      5.6467      5.2196      4.8471      4.5367      4.2917      4.1129      3.9995      3.9506    
  3.9658      4.0455      4.1896      4.3973      4.6666      4.9935      5.3734      5.8011      6.2713      6.7774    
  7.3095      7.8519      8.3826      8.8734      8.9314      9.4428      9.8547      10.142      10.290      10.299    
  10.178      9.9434      9.6154      9.2121      8.7484      8.2374      7.6922      7.1288      6.5662      6.0246    
  5.5233      5.0773      4.6968      4.3869      4.1489      3.9820      3.8848      3.8560      3.8954      4.0026    
  4.1772      4.4182      4.7238      5.0922      5.5214      6.0088      6.5494      7.1332      7.7429      8.3531    
  8.4791      9.1470      9.7461      10.240      10.600      10.811      10.872      10.794      10.592      10.286    
  9.8902      9.4183      8.8810      8.2913      7.6672      7.0314      6.4095      5.8259      5.3001      4.8456    
  4.4695      4.1736      3.9568      3.8167      3.7513      3.7591      3.8395      3.9924      4.2176      4.5158    
  4.8876      5.3341      5.8548      6.4453      7.0947      7.7826      7.9672      8.7525      9.5059      10.182    
  10.741      11.155      11.409      11.503      11.450      11.270      10.981      10.592      10.110      9.5427    
  8.9038      8.2127      7.4968      6.7878      6.1162      5.5071      4.9775      4.5364      4.1861      3.9247    
  3.7486      3.6544      3.6397      3.7034      3.8455      4.0676      4.3720      4.7623      5.2418      5.8115    
  6.4665      7.1933      7.4237      8.2865      9.1563      9.9833      10.718      11.320      11.755      12.007    
  12.091      12.039      11.881      11.626      11.268      10.792      10.198      9.5078      8.7459      7.9454    
  7.1451      6.3831      5.6902      5.0874      4.5853      4.1861      3.8869      3.6824      3.5678      3.5395    
  3.5962      3.7386      3.9696      4.2939      4.7174      5.2452      5.8785      6.6106      6.8719      7.7750    
  8.7231      9.6649      10.544      11.308      11.895      12.270      12.448      12.479      12.419      12.301    
  12.121      11.840      11.415      10.821      10.081      9.2470      8.3599      7.4675      6.6158      5.8420    
  5.1709      4.6142      4.1736      3.8445      3.6198      3.4932      3.4603      3.5196      3.6728      3.9245    
  4.2818      4.7527      5.3431      6.0530      6.3295      7.2402      8.2310      9.2522      10.244      11.141    
  11.852      12.311      12.526      12.562      12.513      12.458      12.426      12.381      12.244      11.925    
  11.373      10.604      9.6972      8.7242      7.7419      6.8049      5.9566      5.2249      4.6222      4.1489    
  3.7987      3.5624      3.4323      3.4034      3.4745      3.6487      3.9327      4.3356      4.8672      5.5329    
  5.8099      6.6995      7.7011      8.7692      9.8424      10.848      11.667      12.191      12.398      12.357    
  12.200      12.070      12.062      12.185      12.358      12.440      12.289      11.822      11.052      10.080    
  9.0242      7.9576      6.9430      6.0294      5.2473      4.6088      4.1129      3.7508      3.5117      3.3865    
  3.3699      3.4618      3.6668      3.9940      4.4545      5.0586      5.3236      6.1674      7.1511      8.2359    
  9.3626      10.456      11.382      11.978      12.172      12.007      11.636      11.265      11.084      11.194    
  11.565      12.046      12.423      12.497      12.154      11.406      10.381      9.2488      8.1064      7.0247    
  6.0577      5.2372      4.5746      4.0667      3.7023      3.4690      3.3567      3.3606      3.4818      3.7272    
  4.1079      4.6369      4.8801      5.6568      6.5961      7.6692      8.8224      9.9816      11.019      11.723    
  11.947      11.675      11.043      10.299      9.7303      9.5649      9.8877      10.607      11.485      12.223    
  12.562      12.366      11.656      10.591      9.3903      8.1831      7.0474      6.0407      5.1954      4.5210    
  4.0119      3.6548      3.4355      3.3440      3.3762      3.5349      3.8295      4.2734      4.4881      5.1800    
  6.0510      7.0840      8.2359      9.4366      10.579      11.434      11.771      11.483      10.639      9.4827    
  8.3692      7.6608      7.6059      8.2492      9.4128      10.757      11.896      12.517      12.472      11.802    
  10.704      9.4448      8.1857      7.0107      5.9795      5.1235      4.4500      3.9506      3.6097      3.4125    
  3.3490      3.4166      3.6206      3.9726      4.1548      4.7488      5.5308      6.4965      7.6167      8.8318    
  10.052      11.083      11.625      11.464      10.558      9.0806      7.3955      5.9647      5.2116      5.3799    
  6.4469      8.1283      9.9748      11.517      12.405      12.491      11.848      10.718      9.4118      8.1151    
  6.9167      5.8767      5.0245      4.3643      3.8848      3.5687      3.4008      3.3720      3.4817      3.7379    
  3.8850      4.3728      5.0502      5.9243      6.9814      8.1779      9.4370      10.624      11.434      11.550    
  10.795      9.2155      7.1020      4.9419      3.2930      2.6160      3.1205      4.6904      6.9225      9.2603    
  11.167      12.271      12.444      11.802      10.636      9.2939      7.9748      6.7694      5.7366      4.9023    
  4.2671      3.8167      3.5330      3.4008      3.4126      3.5704      3.6809      4.0589      4.6221      5.3854    
  6.3502      7.4916      8.7503      10.030      11.106      11.603      11.214      9.8221      7.5743      4.8861    
  2.3604     0.62862     0.15687      1.0899      3.1995      5.9616      8.7264      10.912      12.148      12.346    
  11.670      10.462      9.0964      7.7705      6.5748      5.5646      4.7614      4.1616      3.7486      3.5037    
  3.4126      3.4700      3.5426      3.8106      4.2555      4.8964      5.7454      6.7962      8.0115      9.3165    
  10.580      11.472      11.594      10.669      8.6567      5.8138      2.6744     -.62785E-01 -1.7250     -1.8755    
 -.46111      2.1691      5.3809      8.4560      10.795      12.058      12.204      11.458      10.203      8.8268    
  7.5101      6.3403      5.3672      4.6068      4.0513      3.6824      3.4813      3.4356      3.4690      3.6285    
  3.9560      4.4697      5.1881      6.1194      7.2484      8.5249      9.8597      11.059      11.718      11.444    
  10.007      7.4545      4.1508     0.73222     -2.0373     -3.4820     -3.2288     -1.3338      1.7369      5.2618    
  8.4868      10.829      11.997      12.016      11.167      9.8682      8.4950      7.2033      6.0745      5.1515    
  4.4436      3.9396      3.6198      3.4663      3.4588      3.5117      3.7251      4.1131      4.6951      5.4883    
  6.4955      7.6921      9.0156      10.360      11.455      11.864      11.216      9.3452      6.3878      2.8044    
 -.69331     -3.3148     -4.4209     -3.7302     -1.4143      1.9599      5.6169      8.8046      10.987      11.944    
  11.771      10.800      9.4681      8.1124      6.8610      5.7872      4.9249      4.2773      3.8299      3.5625    
  3.5117      3.4588      3.5624      3.8298      4.2773      4.9249      5.7871      6.8610      8.1124      9.4680    
  10.799      11.771      11.944      10.987      8.8046      5.6169      1.9599     -1.4144     -3.7302     -4.4210    
 -3.3148     -.69331      2.8044      6.3878      9.3452      11.216      11.864      11.455      10.360      9.0156    
  7.6921      6.4955      5.4883      4.6951      4.1131      3.7251      3.6285      3.4690      3.4663      3.6198    
  3.9396      4.4436      5.1514      6.0745      7.2033      8.4950      9.8681      11.167      12.016      11.997    
  10.829      8.4868      5.2617      1.7369     -1.3338     -3.2289     -3.4821     -2.0373     0.73219      4.1508    
  7.4545      10.007      11.444      11.718      11.059      9.8597      8.5250      7.2484      6.1194      5.1881    
  4.4697      3.9560      3.8106      3.5426      3.4356      3.4813      3.6824      4.0513      4.6068      5.3672    
  6.3403      7.5101      8.8268      10.203      11.458      12.204      12.058      10.795      8.4560      5.3809    
  2.1691     -.46115     -1.8756     -1.7250     -.62837E-01  2.6744      5.8138      8.6567      10.669      11.594    
  11.472      10.580      9.3166      8.0115      6.7962      5.7454      4.8964      4.2555      4.0589      3.6809    
  3.4700      3.4126      3.5037      3.7487      4.1616      4.7614      5.5646      6.5748      7.7704      9.0963    
  10.462      11.670      12.346      12.148      10.912      8.7264      5.9616      3.1995      1.0899     0.15681    
 0.62856      2.3604      4.8861      7.5743      9.8221      11.214      11.603      11.106      10.030      8.7504    
  7.4916      6.3502      5.3854      4.6220      4.3728      3.8850      3.5704      3.4126      3.4008      3.5330    
  3.8168      4.2671      4.9023      5.7366      6.7694      7.9747      9.2939      10.636      11.802      12.444    
  12.271      11.167      9.2603      6.9225      4.6904      3.1204      2.6160      3.2930      4.9418      7.1020    
  9.2155      10.795      11.550      11.434      10.624      9.4370      8.1779      6.9814      5.9243      5.0502    
  4.7488      4.1548      3.7379      3.4818      3.3720      3.4008      3.5687      3.8848      4.3644      5.0245    
  5.8767      6.9167      8.1151      9.4118      10.718      11.848      12.491      12.405      11.517      9.9748    
  8.1283      6.4468      5.3798      5.2115      5.9647      7.3954      9.0805      10.558      11.464      11.625    
  11.083      10.052      8.8318      7.6167      6.4965      5.5308      5.1800      4.4881      3.9726      3.6206    
  3.4167      3.3491      3.4126      3.6098      3.9506      4.4500      5.1235      5.9795      7.0107      8.1857    
  9.4448      10.704      11.802      12.472      12.517      11.896      10.757      9.4128      8.2492      7.6059    
  7.6608      8.3691      9.4826      10.639      11.483      11.771      11.434      10.579      9.4366      8.2359    
  7.0840      6.0510      5.6568      4.8801      4.2733      3.8294      3.5349      3.3762      3.3441      3.4356    
  3.6548      4.0119      4.5210      5.1954      6.0407      7.0474      8.1831      9.3903      10.591      11.656    
  12.366      12.562      12.223      11.485      10.607      9.8877      9.5649      9.7302      10.299      11.043    
  11.675      11.947      11.723      11.019      9.9816      8.8224      7.6692      6.5961      6.1674      5.3236    
  4.6369      4.1079      3.7272      3.4819      3.3607      3.3567      3.4690      3.7024      4.0667      4.5746    
  5.2372      6.0577      7.0247      8.1064      9.2488      10.381      11.406      12.154      12.497      12.423    
  12.046      11.565      11.194      11.084      11.265      11.636      12.007      12.172      11.978      11.382    
  10.456      9.3626      8.2359      7.1511      6.6995      5.8099      5.0586      4.4545      3.9940      3.6668    
  3.4618      3.3699      3.3865      3.5117      3.7508      4.1129      4.6088      5.2473      6.0294      6.9430    
  7.9576      9.0242      10.080      11.052      11.822      12.289      12.440      12.358      12.185      12.062    
  12.070      12.200      12.357      12.398      12.191      11.667      10.848      9.8424      8.7692      7.7011    
  7.2402      6.3295      5.5328      4.8671      4.3356      3.9326      3.6487      3.4745      3.4034      3.4324    
  3.5625      3.7987      4.1489      4.6222      5.2249      5.9566      6.8049      7.7419      8.7242      9.6972    
  10.604      11.373      11.925      12.244      12.381      12.426      12.458      12.513      12.562      12.526    
  12.311      11.852      11.141      10.244      9.2522      8.2310      7.7750      6.8719      6.0530      5.3431    
  4.7527      4.2818      3.9245      3.6728      3.5196      3.4603      3.4932      3.6198      3.8444      4.1736    
  4.6142      5.1709      5.8421      6.6158      7.4675      8.3599      9.2470      10.081      10.821      11.415    
  11.840      12.121      12.301      12.419      12.479      12.448      12.270      11.895      11.308      10.544    
  9.6649      8.7231      8.2865      7.4237      6.6106      5.8785      5.2452      4.7174      4.2939      3.9696    
  3.7386      3.5962      3.5395      3.5677      3.6824      3.8869      4.1861      4.5853      5.0874      5.6902    
  6.3831      7.1452      7.9454      8.7459      9.5078      10.198      10.792      11.268      11.626      11.881    
  12.039      12.091      12.007      11.755      11.319      10.718      9.9833      9.1563      8.7525      7.9672    