unknown system                          
   1.00000000000000     
    -2.429839    2.429839    1.338279
     2.429839   -2.429839    1.338279
     2.429839    2.429839   -1.338279
   Si
     2
Direct
  0.750000  0.250000  0.500000
  0.500000  0.500000  0.000000
 
   36   36   36
 0.97194195425E+01 0.96498224110E+01 0.94472898467E+01 0.91292238252E+01 0.87205249061E+01
 0.82487808710E+01 0.77397994081E+01 0.72148382410E+01 0.66901515846E+01 0.61784132306E+01
 0.56907453098E+01 0.52380016195E+01 0.48306902385E+01 0.44779181981E+01 0.41862776628E+01
 0.39593885638E+01 0.37982722009E+01 0.37023206401E+01 0.36704945656E+01 0.37023199378E+01
 0.37982723219E+01 0.39593914639E+01 0.41862831503E+01 0.44779228896E+01 0.48306916336E+01
 0.52380025275E+01 0.56907503554E+01 0.61784218065E+01 0.66901583392E+01 0.72148398986E+01
 0.77397974304E+01 0.82487780992E+01 0.87205232350E+01 0.91292249429E+01 0.94472941468E+01
 0.96498267118E+01 0.96498267118E+01 0.98043303469E+01 0.98175975823E+01 0.96926861089E+01
 0.94440337327E+01 0.90938067779E+01 0.86671373347E+01 0.81878271935E+01 0.76758801788E+01
 0.71473855677E+01 0.66161469113E+01 0.60956379108E+01 0.55999015781E+01 0.51428954441E+01
 0.47368758664E+01 0.43909165609E+01 0.41103233105E+01 0.38970503500E+01 0.37507914568E+01
 0.36703357667E+01 0.36547662165E+01 0.37040678850E+01 0.38189535504E+01 0.40000553694E+01
 0.42469030447E+01 0.45571364347E+01 0.49262619263E+01 0.53480567772E+01 0.58153456420E+01
 0.63204615646E+01 0.68546467129E+01 0.74062521379E+01 0.79585264854E+01 0.84883558718E+01
 0.89670942118E+01 0.93637543853E+01 0.94472941468E+01 0.98176005842E+01 0.10053361510E+02
 0.10141888977E+02 0.10083896975E+02 0.98920169921E+01 0.95868989192E+01 0.91922246869E+01
 0.87303767769E+01 0.82202089828E+01 0.76773680259E+01 0.71163486804E+01 0.65526270138E+01
 0.60033601474E+01 0.54862147348E+01 0.50171214582E+01 0.46082709233E+01 0.42672299741E+01
 0.39972870058E+01 0.37986374034E+01 0.36699299401E+01 0.36097150943E+01 0.36173145223E+01
 0.36928797277E+01 0.38367962992E+01 0.40488766610E+01 0.43277945559E+01 0.46709985079E+01
 0.50750561111E+01 0.55360320634E+01 0.60492545316E+01 0.66079534540E+01 0.72009128138E+01
 0.78100999702E+01 0.84096327715E+01 0.89670942118E+01 0.91292249429E+01 0.96926882750E+01
 0.10141890124E+02 0.10449032740E+02 0.10599546508E+02 0.10593392729E+02 0.10443131582E+02
 0.10169376528E+02 0.97952189392E+01 0.93416797905E+01 0.88258134179E+01 0.82618043937E+01
 0.76638826215E+01 0.70489874393E+01 0.64374229646E+01 0.58511040111E+01 0.53104588558E+01
 0.48316305998E+01 0.44250804924E+01 0.40957617918E+01 0.38444286317E+01 0.36694688806E+01
 0.35686870994E+01 0.35404959602E+01 0.35842491842E+01 0.36998945138E+01 0.38874147588E+01
 0.41464942332E+01 0.44765492574E+01 0.48769177854E+01 0.53467181198E+01 0.58838250253E+01
 0.64827163444E+01 0.71316232462E+01 0.78100999702E+01 0.84883558718E+01 0.87205232350E+01
 0.94440334683E+01 0.10083897191E+02 0.10599546088E+02 0.10961402005E+02 0.11155076231E+02
 0.11182182054E+02 0.11057253229E+02 0.10802637578E+02 0.10441362352E+02 0.99917412172E+01
 0.94675483122E+01 0.88797944643E+01 0.82411733617E+01 0.75696274812E+01 0.68889534997E+01
 0.62262106541E+01 0.56074034772E+01 0.50535522107E+01 0.45785800244E+01 0.41892815711E+01
 0.38868559446E+01 0.36691716464E+01 0.35329997769E+01 0.34755928060E+01 0.34953362088E+01
 0.35916818958E+01 0.37648459721E+01 0.40156677070E+01 0.43456574895E+01 0.47568862880E+01
 0.52511842042E+01 0.58282486807E+01 0.64827163444E+01 0.72009128138E+01 0.79585264854E+01
 0.82487780992E+01 0.90938049406E+01 0.98920165206E+01 0.10593392004E+02 0.11155074915E+02
 0.11547682939E+02 0.11754598974E+02 0.11782315454E+02 0.11658848592E+02 0.11416174353E+02
 0.11075594685E+02 0.10643422155E+02 0.10118925941E+02 0.95091685338E+01 0.88290437417E+01
 0.80976531989E+01 0.73431063229E+01 0.65988370087E+01 0.58976272448E+01 0.52662288794E+01
 0.47224086506E+01 0.42747749575E+01 0.39246969761E+01 0.36691787008E+01 0.35036590732E+01
 0.34240367188E+01 0.34276738501E+01 0.35136228291E+01 0.36825528269E+01 0.39367163486E+01
 0.42798711445E+01 0.47166960830E+01 0.52511842042E+01 0.58838250253E+01 0.66079534540E+01
 0.74062521379E+01 0.77397974304E+01 0.86671348662E+01 0.95868983304E+01 0.10443132117E+02
 0.11182181328E+02 0.11754597386E+02 0.12117279208E+02 0.12269598888E+02 0.12249114160E+02
 0.12108157128E+02 0.11887577072E+02 0.11599392440E+02 0.11226639059E+02 0.10740700104E+02
 0.10127564815E+02 0.94077515319E+01 0.86151957774E+01 0.77840711135E+01 0.69556209393E+01
 0.61705307083E+01 0.54619017181E+01 0.48514538364E+01 0.43493657968E+01 0.39567866351E+01
 0.36694870476E+01 0.34813217630E+01 0.33867457573E+01 0.33821843940E+01 0.34665353385E+01
 0.36412586864E+01 0.39103315199E+01 0.42798711445E+01 0.47568862880E+01 0.53467181198E+01
 0.60492545316E+01 0.68546467129E+01 0.72148398986E+01 0.81878257123E+01 0.91922234707E+01
 0.10169378000E+02 0.11057255290E+02 0.11782315314E+02 0.12269597673E+02 0.12502660132E+02
 0.12525674429E+02 0.12419001154E+02 0.12262166435E+02 0.12098899107E+02 0.11919448755E+02
 0.11668854002E+02 0.11278064458E+02 0.10703726041E+02 0.99580711650E+01 0.91043996097E+01
 0.81959923370E+01 0.72833337758E+01 0.64158579053E+01 0.56332655874E+01 0.49610264563E+01
 0.44104556225E+01 0.39820317619E+01 0.36699540753E+01 0.34663344565E+01 0.33642251280E+01
 0.33593451306E+01 0.34508032607E+01 0.36412586864E+01 0.39367163486E+01 0.43456574895E+01
 0.48769177854E+01 0.55360320634E+01 0.63204615646E+01 0.66901583392E+01 0.76758825644E+01
 0.87303758879E+01 0.97952193903E+01 0.10802641247E+02 0.11658852196E+02 0.12249115164E+02
 0.12525674465E+02 0.12526384925E+02 0.12356964146E+02 0.12148680424E+02 0.12005776595E+02
 0.11962916254E+02 0.11971334922E+02 0.11921162686E+02 0.11690952865E+02 0.11202877643E+02
 0.10459959697E+02 0.95484250529E+01 0.85639164795E+01 0.75696726671E+01 0.66242747851E+01
 0.57738369787E+01 0.50470646430E+01 0.44558305514E+01 0.39994756316E+01 0.36703638498E+01
 0.34588272723E+01 0.33566988328E+01 0.33593451306E+01 0.34665353385E+01 0.36825528269E+01
 0.40156677070E+01 0.44765492574E+01 0.50750561111E+01 0.58153456420E+01 0.61784218065E+01
 0.71473923579E+01 0.82202113463E+01 0.93416795996E+01 0.10441364937E+02 0.11416180266E+02
 0.12108162322E+02 0.12419004208E+02 0.12356966564E+02 0.12035485703E+02 0.11635601638E+02
 0.11342162174E+02 0.11274871086E+02 0.11441198250E+02 0.11732553459E+02 0.11967210759E+02
 0.11962230255E+02 0.11604250516E+02 0.10891438352E+02 0.99323129539E+01 0.88746207256E+01
 0.78039361784E+01 0.67878524213E+01 0.58782624239E+01 0.51063237492E+01 0.44837815236E+01
 0.40083947329E+01 0.36705255657E+01 0.34588272723E+01 0.33642251280E+01 0.33821843940E+01
 0.35136228291E+01 0.37648459721E+01 0.41464942332E+01 0.46709985079E+01 0.53480567772E+01
 0.56907503554E+01 0.66161536421E+01 0.76773742012E+01 0.88258155504E+01 0.99917426089E+01
 0.11075600315E+02 0.11887585371E+02 0.12262173440E+02 0.12148686683E+02 0.11635607514E+02
 0.10930675689E+02 0.10298744603E+02 0.99735833649E+01 0.10073532008E+02 0.10555460725E+02
 0.11228932311E+02 0.11826266763E+02 0.12099108540E+02 0.11902765168E+02 0.11238594461E+02
 0.10243572742E+02 0.91172139703E+01 0.79775137589E+01 0.69004155568E+01 0.59425568247E+01
 0.51365366695E+01 0.44932229377E+01 0.40083947329E+01 0.36703638498E+01 0.34663344565E+01
 0.33867457573E+01 0.34276738501E+01 0.35916818958E+01 0.38874147588E+01 0.43277945559E+01
 0.49262619263E+01 0.52380025275E+01 0.60956397679E+01 0.71163547464E+01 0.82618101169E+01
 0.94675509496E+01 0.10643426731E+02 0.11599402091E+02 0.12098909688E+02 0.12005785549E+02
 0.11342172432E+02 0.10298754340E+02 0.91912375057E+01 0.83691360076E+01 0.81016836888E+01
 0.84818416248E+01 0.93895438002E+01 0.10532735747E+02 0.11549678056E+02 0.12129709450E+02
 0.12106653710E+02 0.11496206145E+02 0.10472123375E+02 0.92834745429E+01 0.80841648015E+01
 0.69577593037E+01 0.59642647701E+01 0.51365366695E+01 0.44837815236E+01 0.39994756316E+01
 0.36699540753E+01 0.34813217630E+01 0.34240367188E+01 0.34953362088E+01 0.36998945138E+01
 0.40488766610E+01 0.45571364347E+01 0.48306916336E+01 0.55998998302E+01 0.65526292715E+01
 0.76638896671E+01 0.88798000784E+01 0.10118930166E+02 0.11226648245E+02 0.11919462631E+02
 0.11962928392E+02 0.11274881666E+02 0.99735972767E+01 0.83691486484E+01 0.68911069789E+01
 0.59646944666E+01 0.58719862314E+01 0.66513961667E+01 0.80805016150E+01 0.97521333226E+01
 0.11211107637E+02 0.12095458759E+02 0.12232422482E+02 0.11664992435E+02 0.10611333864E+02
 0.93679549012E+01 0.81201323535E+01 0.69577593037E+01 0.59425568247E+01 0.51063237492E+01
 0.44558305514E+01 0.39820317619E+01 0.36694870476E+01 0.35036590732E+01 0.34755928060E+01
 0.35842491842E+01 0.38367962992E+01 0.42469030447E+01 0.44779228896E+01 0.51428963030E+01
 0.60033599521E+01 0.70489932314E+01 0.82411818898E+01 0.95091738637E+01 0.10740706609E+02
 0.11668868116E+02 0.11971351832E+02 0.11441210499E+02 0.10073543109E+02 0.81016991843E+01
 0.59647073505E+01 0.42014748696E+01 0.32929985404E+01 0.35038311239E+01 0.47874039156E+01
 0.67991943057E+01 0.90133886254E+01 0.10892235091E+02 0.12040903684E+02 0.12298433256E+02
 0.11748131705E+02 0.10658036350E+02 0.93679549012E+01 0.80841648015E+01 0.69004155568E+01
 0.58782624239E+01 0.50470646430E+01 0.44104556225E+01 0.39567866351E+01 0.36691787008E+01
 0.35329997769E+01 0.35404959602E+01 0.36928797277E+01 0.40000553694E+01 0.41862831503E+01
 0.47368829097E+01 0.54862170574E+01 0.64374271819E+01 0.75696376233E+01 0.88290524709E+01
 0.10127568965E+02 0.11278073051E+02 0.11921180303E+02 0.11732570818E+02 0.10555471111E+02
 0.84818512508E+01 0.58719994237E+01 0.32930076534E+01 0.13763558568E+01 0.62859036666E+00
 0.12622054915E+01 0.31191224986E+01 0.57232298730E+01 0.84388588301E+01 0.10666685113E+02
 0.12003137813E+02 0.12318700090E+02 0.11748131705E+02 0.10611333864E+02 0.92834745429E+01
 0.79775137589E+01 0.67878524213E+01 0.57738369787E+01 0.49610264563E+01 0.43493657968E+01
 0.39246969761E+01 0.36691716464E+01 0.35686870994E+01 0.36173145223E+01 0.38189535504E+01
 0.39593914639E+01 0.43909273586E+01 0.50171296804E+01 0.58511086544E+01 0.68889629893E+01
 0.80976660419E+01 0.94077578963E+01 0.10703727684E+02 0.11690962189E+02 0.11967228670E+02
 0.11228946658E+02 0.93895501522E+01 0.66514015053E+01 0.35038369450E+01 0.62859143434E+00
 -.12792268551E+01 -.17249912349E+01 -.58173317390E+00 0.18635899343E+01 0.50072146347E+01
 0.81250442157E+01 0.10585435446E+02 0.12003137813E+02 0.12298433256E+02 0.11664992435E+02
 0.10472123375E+02 0.91172139703E+01 0.78039361784E+01 0.66242747851E+01 0.56332655874E+01
 0.48514538364E+01 0.42747749575E+01 0.38868559446E+01 0.36694688806E+01 0.36097150943E+01
 0.37040678850E+01 0.37982723219E+01 0.41103326253E+01 0.46082841180E+01 0.53104669402E+01
 0.62262180454E+01 0.73431197458E+01 0.86152076494E+01 0.99580722021E+01 0.11202875629E+02
 0.11962238055E+02 0.11826280665E+02 0.10532743363E+02 0.80805017055E+01 0.47874016984E+01
 0.12621992641E+01 -.17250010996E+01 -.34540856842E+01 -.34820199342E+01 -.17940692184E+01
 0.11896937924E+01 0.47561560736E+01 0.81250442157E+01 0.10666685113E+02 0.12040903684E+02
 0.12232422482E+02 0.11496206145E+02 0.10243572742E+02 0.88746207256E+01 0.75696726671E+01
 0.64158579053E+01 0.54619017181E+01 0.47224086506E+01 0.41892815711E+01 0.38444286317E+01
 0.36699299401E+01 0.36547662165E+01 0.37023199378E+01 0.38970544112E+01 0.42672437452E+01
 0.48316446558E+01 0.56074116735E+01 0.65988466538E+01 0.77840846973E+01 0.91044056410E+01
 0.10459953384E+02 0.11604244559E+02 0.12099112379E+02 0.11549683470E+02 0.97521307988E+01
 0.67991859865E+01 0.31191100974E+01 -.58175350142E+00 -.34820405042E+01 -.48802550590E+01
 -.44209312058E+01 -.22167747834E+01 0.11896937924E+01 0.50072146347E+01 0.84388588301E+01
 0.10892235091E+02 0.12095458759E+02 0.12106653710E+02 0.11238594461E+02 0.99323129539E+01
 0.85639164795E+01 0.72833337758E+01 0.61705307083E+01 0.52662288794E+01 0.45785800244E+01
 0.40957617918E+01 0.37986374034E+01 0.36703357667E+01 0.36704945656E+01 0.37507902555E+01
 0.39972957429E+01 0.44250987972E+01 0.50535671346E+01 0.58976353903E+01 0.69556299736E+01
 0.81960003209E+01 0.95484212163E+01 0.10891424932E+02 0.11902756184E+02 0.12129707166E+02
 0.11211100910E+02 0.90133736746E+01 0.57232120286E+01 0.18635671698E+01 -.17941011494E+01
 -.44209584520E+01 -.53769087447E+01 -.44209312058E+01 -.17940692184E+01 0.18635899343E+01
 0.57232298730E+01 0.90133886254E+01 0.11211107637E+02 0.12129709450E+02 0.11902765168E+02
 0.10891438352E+02 0.95484250529E+01 0.81959923370E+01 0.69556209393E+01 0.58976272448E+01
 0.50535522107E+01 0.44250804924E+01 0.39972870058E+01 0.37507914568E+01 0.37023206401E+01
 0.36703334717E+01 0.37986395744E+01 0.40957784292E+01 0.45786029558E+01 0.52662432201E+01
 0.61705361833E+01 0.72833369464E+01 0.85639133948E+01 0.99322980182E+01 0.11238576548E+02
 0.12106643095E+02 0.12095448833E+02 0.10892214755E+02 0.84388318445E+01 0.50071888065E+01
 0.11896643327E+01 -.22168112382E+01 -.44209584520E+01 -.48802550590E+01 -.34820199342E+01
 -.58173317390E+00 0.31191224986E+01 0.67991943057E+01 0.97521333226E+01 0.11549678056E+02
 0.12099108540E+02 0.11604250516E+02 0.10459959697E+02 0.91043996097E+01 0.77840711135E+01
 0.65988370087E+01 0.56074034772E+01 0.48316305998E+01 0.42672299741E+01 0.38970503500E+01
 0.37982722009E+01 0.36547679131E+01 0.36699312918E+01 0.38444405604E+01 0.41893073111E+01
 0.47224330762E+01 0.54619116813E+01 0.64158565357E+01 0.75696652287E+01 0.88746039818E+01
 0.10243548559E+02 0.11496186945E+02 0.12232411114E+02 0.12040886124E+02 0.10666653628E+02
 0.81250095917E+01 0.47561270829E+01 0.11896643327E+01 -.17941011494E+01 -.34820405042E+01
 -.34540856842E+01 -.17249912349E+01 0.12622054915E+01 0.47874039156E+01 0.80805016150E+01
 0.10532735747E+02 0.11826266763E+02 0.11962230255E+02 0.11202877643E+02 0.99580711650E+01
 0.86151957774E+01 0.73431063229E+01 0.62262106541E+01 0.53104588558E+01 0.46082709233E+01
 0.41103233105E+01 0.39593885638E+01 0.37040741198E+01 0.36097230853E+01 0.36694801987E+01
 0.38868791887E+01 0.42748052280E+01 0.48514734146E+01 0.56332667494E+01 0.66242637824E+01
 0.78039164354E+01 0.91171846634E+01 0.10472093160E+02 0.11664973864E+02 0.12298421361E+02
 0.12003115301E+02 0.10585399595E+02 0.81250095917E+01 0.50071888065E+01 0.18635671698E+01
 -.58175350142E+00 -.17250010996E+01 -.12792268551E+01 0.62859036666E+00 0.35038311239E+01
 0.66513961667E+01 0.93895438002E+01 0.11228932311E+02 0.11967210759E+02 0.11690952865E+02
 0.10703726041E+02 0.94077515319E+01 0.80976531989E+01 0.68889534997E+01 0.58511040111E+01
 0.50171214582E+01 0.43909165609E+01 0.41862776628E+01 0.38189592311E+01 0.36173291435E+01
 0.35687038153E+01 0.36691933651E+01 0.39247269394E+01 0.43493927585E+01 0.49610354335E+01
 0.57738274756E+01 0.67878318688E+01 0.79774833401E+01 0.92834361174E+01 0.10611300548E+02
 0.11748113929E+02 0.12318687952E+02 0.12003115301E+02 0.10666653628E+02 0.84388318445E+01
 0.57232120286E+01 0.31191100974E+01 0.12621992641E+01 0.62859143434E+00 0.13763558568E+01
 0.32929985404E+01 0.58719862314E+01 0.84818416248E+01 0.10555460725E+02 0.11732553459E+02
 0.11921162686E+02 0.11278064458E+02 0.10127564815E+02 0.88290437417E+01 0.75696274812E+01
 0.64374229646E+01 0.54862147348E+01 0.47368758664E+01 0.44779181981E+01 0.40000561656E+01
 0.36928930968E+01 0.35405169615E+01 0.35330231605E+01 0.36692068198E+01 0.39568165872E+01
 0.44104735409E+01 0.50470615393E+01 0.58782438179E+01 0.69003878980E+01 0.80841273672E+01
 0.93679117643E+01 0.10658002113E+02 0.11748113929E+02 0.12298421361E+02 0.12040886124E+02
 0.10892214755E+02 0.90133736746E+01 0.67991859865E+01 0.47874016984E+01 0.35038369450E+01
 0.32930076534E+01 0.42014748696E+01 0.59646944666E+01 0.81016836888E+01 0.10073532008E+02
 0.11441198250E+02 0.11971334922E+02 0.11668854002E+02 0.10740700104E+02 0.95091685338E+01
 0.82411733617E+01 0.70489874393E+01 0.60033601474E+01 0.51428954441E+01 0.48306902385E+01
 0.42468997613E+01 0.38368012597E+01 0.35842659690E+01 0.34756157699E+01 0.35036854730E+01
 0.36695171894E+01 0.39820574729E+01 0.44558383738E+01 0.51063111546E+01 0.59425325981E+01
 0.69577280071E+01 0.81200924904E+01 0.93679117643E+01 0.10611300548E+02 0.11664973864E+02
 0.12232411114E+02 0.12095448833E+02 0.11211100910E+02 0.97521307988E+01 0.80805017055E+01
 0.66514015053E+01 0.58719994237E+01 0.59647073505E+01 0.68911069789E+01 0.83691360076E+01
 0.99735833649E+01 0.11274871086E+02 0.11962916254E+02 0.11919448755E+02 0.11226639059E+02
 0.10118925941E+02 0.88797944643E+01 0.76638826215E+01 0.65526270138E+01 0.55999015781E+01
 0.52380016195E+01 0.45571314506E+01 0.40488723935E+01 0.36998999347E+01 0.34953519627E+01
 0.34240586968E+01 0.34813491266E+01 0.36699840812E+01 0.39994964950E+01 0.44837820317E+01
 0.51365191047E+01 0.59642387103E+01 0.69577280071E+01 0.80841273672E+01 0.92834361174E+01
 0.10472093160E+02 0.11496186945E+02 0.12106643095E+02 0.12129707166E+02 0.11549683470E+02
 0.10532743363E+02 0.93895501522E+01 0.84818512508E+01 0.81016991843E+01 0.83691486484E+01
 0.91912375057E+01 0.10298744603E+02 0.11342162174E+02 0.12005776595E+02 0.12098899107E+02
 0.11599392440E+02 0.10643422155E+02 0.94675483122E+01 0.82618043937E+01 0.71163486804E+01
 0.60956379108E+01 0.56907453098E+01 0.49262549031E+01 0.43277841154E+01 0.38874080747E+01
 0.35916855415E+01 0.34276870270E+01 0.33867664340E+01 0.34663623740E+01 0.36703933553E+01
 0.40084126469E+01 0.44932208396E+01 0.51365191047E+01 0.59425325981E+01 0.69003878980E+01
 0.79774833401E+01 0.91171846634E+01 0.10243548559E+02 0.11238576548E+02 0.11902756184E+02
 0.12099112379E+02 0.11826280665E+02 0.11228946658E+02 0.10555471111E+02 0.10073543109E+02
 0.99735972767E+01 0.10298754340E+02 0.10930675689E+02 0.11635601638E+02 0.12148680424E+02
 0.12262166435E+02 0.11887577072E+02 0.11075594685E+02 0.99917412172E+01 0.88258134179E+01
 0.76773680259E+01 0.66161469113E+01 0.61784132306E+01 0.53480467332E+01 0.46709846219E+01
 0.41464789833E+01 0.37648372501E+01 0.35136247719E+01 0.33821957976E+01 0.33642453097E+01
 0.34588556484E+01 0.36705548713E+01 0.40084126469E+01 0.44837820317E+01 0.51063111546E+01
 0.58782438179E+01 0.67878318688E+01 0.78039164354E+01 0.88746039818E+01 0.99322980182E+01
 0.10891424932E+02 0.11604244559E+02 0.11962238055E+02 0.11967228670E+02 0.11732570818E+02
 0.11441210499E+02 0.11274881666E+02 0.11342172432E+02 0.11635607514E+02 0.12035485703E+02
 0.12356964146E+02 0.12419001154E+02 0.12108157128E+02 0.11416174353E+02 0.10441362352E+02
 0.93416797905E+01 0.82202089828E+01 0.71473855677E+01 0.66901515846E+01 0.58153355675E+01
 0.50750417765E+01 0.44765304186E+01 0.40156498540E+01 0.36825433055E+01 0.34665365719E+01
 0.33593559017E+01 0.33567189757E+01 0.34588556484E+01 0.36703933553E+01 0.39994964950E+01
 0.44558383738E+01 0.50470615393E+01 0.57738274756E+01 0.66242637824E+01 0.75696652287E+01
 0.85639133948E+01 0.95484212163E+01 0.10459953384E+02 0.11202875629E+02 0.11690962189E+02
 0.11921180303E+02 0.11971351832E+02 0.11962928392E+02 0.12005785549E+02 0.12148686683E+02
 0.12356966564E+02 0.12526384925E+02 0.12525674429E+02 0.12249114160E+02 0.11658848592E+02
 0.10802637578E+02 0.97952189392E+01 0.87303767769E+01 0.76758801788E+01 0.72148382410E+01
 0.63204558546E+01 0.55360216486E+01 0.48769010198E+01 0.43456362302E+01 0.39366977234E+01
 0.36412491426E+01 0.34508043818E+01 0.33593559017E+01 0.33642453097E+01 0.34663623740E+01
 0.36699840812E+01 0.39820574729E+01 0.44104735409E+01 0.49610354335E+01 0.56332667494E+01
 0.64158565357E+01 0.72833369464E+01 0.81960003209E+01 0.91044056410E+01 0.99580722021E+01
 0.10703727684E+02 0.11278073051E+02 0.11668868116E+02 0.11919462631E+02 0.12098909688E+02
 0.12262173440E+02 0.12419004208E+02 0.12525674465E+02 0.12502660132E+02 0.12269598888E+02
 0.11782315454E+02 0.11057253229E+02 0.10169376528E+02 0.91922246869E+01 0.81878271935E+01
 0.77397994081E+01 0.68546460815E+01 0.60492502727E+01 0.53467081153E+01 0.47568686047E+01
 0.42798491165E+01 0.39103128163E+01 0.36412491426E+01 0.34665365719E+01 0.33821957976E+01
 0.33867664340E+01 0.34813491266E+01 0.36695171894E+01 0.39568165872E+01 0.43493927585E+01
 0.48514734146E+01 0.54619116813E+01 0.61705361833E+01 0.69556299736E+01 0.77840846973E+01
 0.86152076494E+01 0.94077578963E+01 0.10127568965E+02 0.10740706609E+02 0.11226648245E+02
 0.11599402091E+02 0.11887585371E+02 0.12108162322E+02 0.12249115164E+02 0.12269597673E+02
 0.12117279208E+02 0.11754598974E+02 0.11182182054E+02 0.10443131582E+02 0.95868989192E+01
 0.86671373347E+01 0.82487808710E+01 0.74062539422E+01 0.66079533484E+01 0.58838217564E+01
 0.52511745823E+01 0.47166782108E+01 0.42798491165E+01 0.39366977234E+01 0.36825433055E+01
 0.35136247719E+01 0.34276870270E+01 0.34240586968E+01 0.35036854730E+01 0.36692068198E+01
 0.39247269394E+01 0.42748052280E+01 0.47224330762E+01 0.52662432201E+01 0.58976353903E+01
 0.65988466538E+01 0.73431197458E+01 0.80976660419E+01 0.88290524709E+01 0.95091738637E+01
 0.10118930166E+02 0.10643426731E+02 0.11075600315E+02 0.11416180266E+02 0.11658852196E+02
 0.11782315314E+02 0.11754597386E+02 0.11547682939E+02 0.11155076231E+02 0.10593392729E+02
 0.98920169921E+01 0.90938067779E+01 0.87205249061E+01 0.79585284401E+01 0.72009138323E+01
 0.64827162603E+01 0.58282457157E+01 0.52511745823E+01 0.47568686047E+01 0.43456362302E+01
 0.40156498540E+01 0.37648372501E+01 0.35916855415E+01 0.34953519627E+01 0.34756157699E+01
 0.35330231605E+01 0.36691933651E+01 0.38868791887E+01 0.41893073111E+01 0.45786029558E+01
 0.50535671346E+01 0.56074116735E+01 0.62262180454E+01 0.68889629893E+01 0.75696376233E+01
 0.82411818898E+01 0.88798000784E+01 0.94675509496E+01 0.99917426089E+01 0.10441364937E+02
 0.10802641247E+02 0.11057255290E+02 0.11182181328E+02 0.11155074915E+02 0.10961402005E+02
 0.10599546508E+02 0.10083896975E+02 0.94440337327E+01 0.91292238252E+01 0.84883564534E+01
 0.78101009013E+01 0.71316238010E+01 0.64827162603E+01 0.58838217564E+01 0.53467081153E+01
 0.48769010198E+01 0.44765304186E+01 0.41464789833E+01 0.38874080747E+01 0.36998999347E+01
 0.35842659690E+01 0.35405169615E+01 0.35687038153E+01 0.36694801987E+01 0.38444405604E+01
 0.40957784292E+01 0.44250987972E+01 0.48316446558E+01 0.53104669402E+01 0.58511086544E+01
 0.64374271819E+01 0.70489932314E+01 0.76638896671E+01 0.82618101169E+01 0.88258155504E+01
 0.93416795996E+01 0.97952193903E+01 0.10169378000E+02 0.10443132117E+02 0.10593392004E+02
 0.10599546088E+02 0.10449032740E+02 0.10141888977E+02 0.96926861089E+01 0.94472898467E+01
 0.89670917487E+01 0.84096327376E+01 0.78101009013E+01 0.72009138323E+01 0.66079533484E+01
 0.60492502727E+01 0.55360216486E+01 0.50750417765E+01 0.46709846219E+01 0.43277841154E+01
 0.40488723935E+01 0.38368012597E+01 0.36928930968E+01 0.36173291435E+01 0.36097230853E+01
 0.36699312918E+01 0.37986395744E+01 0.39972957429E+01 0.42672437452E+01 0.46082841180E+01
 0.50171296804E+01 0.54862170574E+01 0.60033599521E+01 0.65526292715E+01 0.71163547464E+01
 0.76773742012E+01 0.82202113463E+01 0.87303758879E+01 0.91922234707E+01 0.95868983304E+01
 0.98920165206E+01 0.10083897191E+02 0.10141890124E+02 0.10053361510E+02 0.98175975823E+01
 0.96498224110E+01 0.93637491388E+01 0.89670917487E+01 0.84883564534E+01 0.79585284401E+01
 0.74062539422E+01 0.68546460815E+01 0.63204558546E+01 0.58153355675E+01 0.53480467332E+01
 0.49262549031E+01 0.45571314506E+01 0.42468997613E+01 0.40000561656E+01 0.38189592311E+01
 0.37040741198E+01 0.36547679131E+01 0.36703334717E+01 0.37507902555E+01 0.38970544112E+01
 0.41103326253E+01 0.43909273586E+01 0.47368829097E+01 0.51428963030E+01 0.55998998302E+01
 0.60956397679E+01 0.66161536421E+01 0.71473923579E+01 0.76758825644E+01 0.81878257123E+01
 0.86671348662E+01 0.90938049406E+01 0.94440334683E+01 0.96926882750E+01 0.98176005842E+01
 0.98043303469E+01 0.96498270035E+01 0.95398918248E+01 0.93101153648E+01 0.89780754652E+01
 0.85680967651E+01 0.81067832422E+01 0.76187576056E+01 0.71239002597E+01 0.66367828951E+01
 0.61680161579E+01 0.57263731603E+01 0.53203563085E+01 0.49584813783E+01 0.46484954917E+01
 0.43963346579E+01 0.42055465257E+01 0.40774528347E+01 0.40119159594E+01 0.40083700001E+01
 0.40666652344E+01 0.41873203133E+01 0.43710413540E+01 0.46176777282E+01 0.49250231193E+01
 0.52878889544E+01 0.56978427919E+01 0.61438812460E+01 0.66138616780E+01 0.70959156739E+01
 0.75788316500E+01 0.80509452615E+01 0.84981226761E+01 0.89021980866E+01 0.92411582287E+01
 0.94915363122E+01 0.96324272742E+01 0.95398951985E+01 0.96498265322E+01 0.96324234191E+01
 0.94915327211E+01 0.92411573498E+01 0.89021991731E+01 0.84981236987E+01 0.80509453627E+01
 0.75788314004E+01 0.70959166718E+01 0.66138668932E+01 0.61438937498E+01 0.56978615818E+01
 0.52879065018E+01 0.49250300009E+01 0.46176724751E+01 0.43710332485E+01 0.41873193754E+01
 0.40666714051E+01 0.40083756196E+01 0.40119174303E+01 0.40774541152E+01 0.42055506351E+01
 0.43963367258E+01 0.46484887343E+01 0.49584670191E+01 0.53203424540E+01 0.57263654115E+01
 0.61680137011E+01 0.66367825302E+01 0.71239003166E+01 0.76187573694E+01 0.81067819846E+01
 0.85680953470E+01 0.89780763441E+01 0.93101190956E+01 0.92939754000E+01 0.96158629472E+01
 0.98176003293E+01 0.98881409467E+01 0.98281928849E+01 0.96489946679E+01 0.93689383329E+01
 0.90091588334E+01 0.85896262545E+01 0.81270821593E+01 0.76352986304E+01 0.71269729305E+01
 0.66157555860E+01 0.61169901269E+01 0.56467128405E+01 0.52196110719E+01 0.48471464528E+01
 0.45366743590E+01 0.42916901115E+01 0.41128704073E+01 0.39994616721E+01 0.39505594425E+01
 0.39658262668E+01 0.40454576120E+01 0.41895580540E+01 0.43973378452E+01 0.46665581561E+01
 0.49934860583E+01 0.53733762172E+01 0.58011144511E+01 0.62713371790E+01 0.67774309571E+01
 0.73094613716E+01 0.78519145904E+01 0.83825581398E+01 0.88734144729E+01 0.89313752182E+01
 0.94428386136E+01 0.98547286613E+01 0.10141890562E+02 0.10290470240E+02 0.10299189814E+02
 0.10177825323E+02 0.99434006667E+01 0.96154465477E+01 0.92120936097E+01 0.87484171933E+01
 0.82373547336E+01 0.76921907446E+01 0.71288079882E+01 0.65661629886E+01 0.60246495859E+01
 0.55233069162E+01 0.50773256509E+01 0.46968023002E+01 0.43868829438E+01 0.41489076586E+01
 0.39820234868E+01 0.38847537937E+01 0.38560158033E+01 0.38953591896E+01 0.40025967756E+01
 0.41772495477E+01 0.44182150270E+01 0.47238315997E+01 0.50922154638E+01 0.55214232581E+01
 0.60088398888E+01 0.65494418631E+01 0.71332437621E+01 0.77429442405E+01 0.83530529084E+01
 0.84791423770E+01 0.91470145670E+01 0.97461068677E+01 0.10239579713E+02 0.10599549206E+02
 0.10810917190E+02 0.10872287762E+02 0.10793717961E+02 0.10592056041E+02 0.10285602811E+02
 0.98902129008E+01 0.94183301253E+01 0.88809931273E+01 0.82913079617E+01 0.76671512925E+01
 0.70314067675E+01 0.64095490227E+01 0.58258643266E+01 0.53000885250E+01 0.48456148816E+01
 0.44694652862E+01 0.41735839029E+01 0.39567882818E+01 0.38167277556E+01 0.37512741295E+01
 0.37590855809E+01 0.38395258804E+01 0.39923664788E+01 0.42176487794E+01 0.45157836077E+01
 0.48876390019E+01 0.53341213614E+01 0.58547770418E+01 0.64453263088E+01 0.70946815263E+01
 0.77825857500E+01 0.79671874258E+01 0.87524906938E+01 0.95058702556E+01 0.10182193496E+02
 0.10741493497E+02 0.11155082250E+02 0.11409032638E+02 0.11502797869E+02 0.11449570571E+02
 0.11270059283E+02 0.10981219139E+02 0.10592220568E+02 0.10109634694E+02 0.95427328712E+01
 0.89037923536E+01 0.82126712475E+01 0.74968240770E+01 0.67878104940E+01 0.61162001730E+01
 0.55070668817E+01 0.49775032802E+01 0.45364214505E+01 0.41861167068E+01 0.39247117980E+01
 0.37486256375E+01 0.36544105217E+01 0.36396844618E+01 0.37033523895E+01 0.38455390049E+01
 0.40675723343E+01 0.43720055290E+01 0.47623253162E+01 0.52418418858E+01 0.58114539125E+01
 0.64664724120E+01 0.71932936175E+01 0.74236538614E+01 0.82864967375E+01 0.91563102566E+01
 0.99832813529E+01 0.10718039328E+02 0.11319500560E+02 0.11754607453E+02 0.12006680285E+02
 0.12090921013E+02 0.12039479201E+02 0.11881015725E+02 0.11626481889E+02 0.11268088370E+02
 0.10792003361E+02 0.10198126212E+02 0.95078215108E+01 0.87458780915E+01 0.79453695324E+01
 0.71451406798E+01 0.63830620224E+01 0.56901594616E+01 0.50873726953E+01 0.45852824698E+01
 0.41861208772E+01 0.38868799795E+01 0.36824094727E+01 0.35677581374E+01 0.35394947189E+01
 0.35962109492E+01 0.37386246633E+01 0.39695814504E+01 0.42938639051E+01 0.47173709000E+01
 0.52451947681E+01 0.58784932634E+01 0.66106330080E+01 0.68718696314E+01 0.77750372393E+01
 0.87230960918E+01 0.96648569284E+01 0.10544336300E+02 0.11308042549E+02 0.11894917771E+02
 0.12269607089E+02 0.12447655202E+02 0.12479020253E+02 0.12419300788E+02 0.12301470057E+02
 0.12120797656E+02 0.11840292613E+02 0.11414532724E+02 0.10820701988E+02 0.10081471297E+02
 0.92469907686E+01 0.83598698903E+01 0.74674680894E+01 0.66157672207E+01 0.58420446346E+01
 0.51709278250E+01 0.46142263340E+01 0.41735917008E+01 0.38444520867E+01 0.36198287741E+01
 0.34932171758E+01 0.34602816238E+01 0.35195870338E+01 0.36727824416E+01 0.39245032656E+01
 0.42818125402E+01 0.47526802659E+01 0.53431038452E+01 0.60530278726E+01 0.63295433996E+01
 0.72401760313E+01 0.82309530037E+01 0.92521738337E+01 0.10243888049E+02 0.11141019768E+02
 0.11851598147E+02 0.12311128193E+02 0.12525680225E+02 0.12561593016E+02 0.12512745161E+02
 0.12457963971E+02 0.12425657204E+02 0.12381215712E+02 0.12243635702E+02 0.11924584488E+02
 0.11372718160E+02 0.10603762692E+02 0.96971525772E+01 0.87241590165E+01 0.77419013752E+01
 0.68049157934E+01 0.59566347470E+01 0.52249075829E+01 0.46221604331E+01 0.41489107584E+01
 0.37986528393E+01 0.35624490869E+01 0.34323461551E+01 0.34033951052E+01 0.34745272114E+01
 0.36487184392E+01 0.39326570913E+01 0.43356410301E+01 0.48671508363E+01 0.55328580065E+01
 0.58098921088E+01 0.66995158731E+01 0.77011206474E+01 0.87691514082E+01 0.98423789791E+01
 0.10848199986E+02 0.11666929607E+02 0.12190752416E+02 0.12397759435E+02 0.12356968812E+02