 running on    8 total cores
 distrk:  each k-point on    8 cores,    1 groups
 distr:  one band on    1 cores,    8 groups
 using from now: INCAR     
 vasp.5.4.4.18Apr17-6-g9f103f2a35 (build Dec 09 2018 21:25:21) complex          
  
 POSCAR found type information on POSCAR  Si
 POSCAR found :  1 types and       2 ions
 scaLAPACK will be used

 ----------------------------------------------------------------------------- 
|                                                                             |
|           W    W    AA    RRRRR   N    N  II  N    N   GGGG   !!!           |
|           W    W   A  A   R    R  NN   N  II  NN   N  G    G  !!!           |
|           W    W  A    A  R    R  N N  N  II  N N  N  G       !!!           |
|           W WW W  AAAAAA  RRRRR   N  N N  II  N  N N  G  GGG   !            |
|           WW  WW  A    A  R   R   N   NN  II  N   NN  G    G                |
|           W    W  A    A  R    R  N    N  II  N    N   GGGG   !!!           |
|                                                                             |
|      For optimal performance we recommend to set                            |
|        NCORE= 4 - approx SQRT( number of cores)                             |
|      NCORE specifies how many cores store one orbital (NPAR=cpu/NCORE).     |
|      This setting can  greatly improve the performance of VASP for DFT.     |
|      The default,   NCORE=1            might be grossly inefficient         |
|      on modern multi-core architectures or massively parallel machines.     |
|      Do your own testing !!!!                                               |
|      Unfortunately you need to use the default for GW and RPA calculations. |
|      (for HF NCORE is supported but not extensively tested yet)             |
|                                                                             |
 ----------------------------------------------------------------------------- 

 LDA part: xc-table for Pade appr. of Perdew
 POSCAR, INCAR and KPOINTS ok, starting setup
 FFT: planning ...
 WAVECAR not read
 entering main loop
       N       E                     dE             d eps       ncg     rms          rms(c)
DAV:   1     0.146443419175E+01    0.14644E+01   -0.26637E+03   896   0.598E+02
DAV:   2    -0.101448746604E+02   -0.11609E+02   -0.11063E+02  1368   0.641E+01
DAV:   3    -0.102679076260E+02   -0.12303E+00   -0.12278E+00  1184   0.827E+00
DAV:   4    -0.102682259408E+02   -0.31831E-03   -0.31831E-03  1384   0.417E-01
DAV:   5    -0.102682263819E+02   -0.44105E-06   -0.44047E-06  1184   0.884E-03    0.154E+00
DAV:   6    -0.102619085230E+02    0.63179E-02   -0.36289E-03  1128   0.402E-01    0.956E-01
DAV:   7    -0.102574613898E+02    0.44471E-02   -0.94636E-03  1104   0.676E-01    0.503E-02
DAV:   8    -0.102574101465E+02    0.51243E-04   -0.37745E-04   600   0.141E-01
   1 F= -.10257410E+02 E0= -.10247225E+02  d E =-.102574E+02
 curvature:   0.00 expect dE= 0.000E+00 dE for cont linesearch  0.000E+00
 trial: gam= 0.00000 g(F)=  0.126E-47 g(S)=  0.000E+00 ort = 0.000E+00 (trialstep = 0.100E+01)
 search vector abs. value=  0.100E-09
 reached required accuracy - stopping structural energy minimisation
 writing wavefunctions
