unknown system                          
           1
    -2.429839    2.429839    1.338279
     2.429839   -2.429839    1.338279
     2.429839    2.429839   -1.338279
   Si
   2
Direct configuration=     1
   0.75000000  0.25000000  0.50000000
   0.50000000  0.50000000  0.00000000
