unknown system                          
   1.00000000000000     
    -2.489875    2.489875    1.246514
     2.489875   -2.489875    1.246514
     2.489875    2.489875   -1.246514
   Si
     2
Direct
  0.250000  0.750000  0.500000
 -0.000000  0.000000 -0.000000
 
   28   28   28
 -.56286623453E+01 -.40498907679E+01 0.48259868823E-01 0.50780353992E+01 0.92836878125E+01
 0.11523027962E+02 0.11642952630E+02 0.10325633913E+02 0.85642978622E+01 0.69284071217E+01
 0.55819055718E+01 0.45731666691E+01 0.38887301763E+01 0.34957949191E+01 0.33679896265E+01
 0.34957964647E+01 0.38887433159E+01 0.45731899496E+01 0.55819232467E+01 0.69284112511E+01
 0.85642971691E+01 0.10325636843E+02 0.11642956117E+02 0.11523027115E+02 0.92836837278E+01
 0.50780293278E+01 0.48250971727E-01 -.40498987231E+01 -.40498987231E+01 -.49039860523E+01
 -.27217577958E+01 0.16124836909E+01 0.64346938178E+01 0.10110157243E+02 0.11736111798E+02
 0.11388833048E+02 0.98680398808E+01 0.81134436716E+01 0.65426172875E+01 0.52815419546E+01
 0.43587203216E+01 0.37526231888E+01 0.34301559967E+01 0.33679972285E+01 0.35603466351E+01
 0.40201184285E+01 0.47756695467E+01 0.58578104136E+01 0.72704460517E+01 0.89460468099E+01
 0.10679392354E+02 0.11787286344E+02 0.11301846592E+02 0.86937213465E+01 0.43252007874E+01
 -.50680871510E+00 0.48250971727E-01 -.27217616576E+01 -.28544095084E+01 -.29515628037E+00
 0.39061360594E+01 0.81328469917E+01 0.10980883272E+02 0.11839924377E+02 0.11003492495E+02
 0.93333215410E+01 0.76195931344E+01 0.61358332574E+01 0.49740776167E+01 0.41443086345E+01
 0.36191641320E+01 0.33669189061E+01 0.33680159538E+01 0.36203038441E+01 0.41393954895E+01
 0.49543733651E+01 0.60925569763E+01 0.75477796119E+01 0.92361821171E+01 0.10917016914E+02
 0.11854740612E+02 0.11164224569E+02 0.84800552345E+01 0.43252007874E+01 0.50780293278E+01
 0.16124791728E+01 -.29515342212E+00 0.17430648876E+00 0.28217320299E+01 0.65341967887E+01
 0.98588741216E+01 0.11700517876E+02 0.11755049941E+02 0.10490962656E+02 0.87554581487E+01
 0.71103930743E+01 0.57307237278E+01 0.46761585540E+01 0.39411696036E+01 0.34951944664E+01
 0.33093144093E+01 0.33680454421E+01 0.36724388072E+01 0.42398330073E+01 0.50986709922E+01
 0.62716221342E+01 0.77430474711E+01 0.94174655692E+01 0.11035591060E+02 0.11873561041E+02
 0.11164224569E+02 0.86937213465E+01 0.92836837278E+01 0.64346864220E+01 0.39061373184E+01
 0.28217418056E+01 0.36910578034E+01 0.61317788635E+01 0.90741960776E+01 0.11320147332E+02
 0.12119558964E+02 0.11449084971E+02 0.98876411421E+01 0.81654045659E+01 0.66129192307E+01
 0.53481447708E+01 0.44024963570E+01 0.37590051651E+01 0.33865624513E+01 0.32600982746E+01
 0.33680827156E+01 0.37140097149E+01 0.43157939604E+01 0.51999300326E+01 0.63837792741E+01
 0.78438875942E+01 0.94791147204E+01 0.11035591060E+02 0.11854740612E+02 0.11301846592E+02
 0.11523027115E+02 0.10110150429E+02 0.81328390570E+01 0.65342034324E+01 0.61317932201E+01
 0.71649093212E+01 0.91546087569E+01 0.11166248685E+02 0.12308942419E+02 0.12169793298E+02
 0.10948468825E+02 0.92549135333E+01 0.75939559449E+01 0.61518350240E+01 0.50058638745E+01
 0.41650752326E+01 0.36055208746E+01 0.32978693983E+01 0.32214316592E+01 0.33681206868E+01
 0.37429040695E+01 0.43630832592E+01 0.52521088286E+01 0.64219670458E+01 0.78438875942E+01
 0.94174655692E+01 0.10917016914E+02 0.11787286344E+02 0.11642956117E+02 0.11736115823E+02
 0.10980875400E+02 0.98588673775E+01 0.90742060673E+01 0.91546236474E+01 0.10134096295E+02
 0.11522409783E+02 0.12583140696E+02 0.12742200680E+02 0.11877324021E+02 0.10333642696E+02
 0.86396309348E+01 0.70701100236E+01 0.57480957198E+01 0.47178882404E+01 0.39728614503E+01
 0.34863209588E+01 0.32324280931E+01 0.31948564023E+01 0.33681494641E+01 0.37577046770E+01
 0.43791336800E+01 0.52521088286E+01 0.63837792741E+01 0.77430474711E+01 0.92361821171E+01
 0.10679392354E+02 0.10325636843E+02 0.11388847893E+02 0.11839932944E+02 0.11700511855E+02
 0.11320143809E+02 0.11166259046E+02 0.11522420927E+02 0.12292239745E+02 0.13043319592E+02
 0.13264548869E+02 0.12668640827E+02 0.11350920042E+02 0.97090859067E+01 0.80775709459E+01
 0.66194042097E+01 0.54183114702E+01 0.44943998484E+01 0.38319725638E+01 0.34051016746E+01
 0.31923847903E+01 0.31813390638E+01 0.33681602361E+01 0.37577046770E+01 0.43630832592E+01
 0.51999300326E+01 0.62716221342E+01 0.75477796119E+01 0.89460468099E+01 0.85642971691E+01
 0.98680518518E+01 0.11003514161E+02 0.11755061759E+02 0.12119557752E+02 0.12308943566E+02
 0.12583148561E+02 0.13043324043E+02 0.13532642926E+02 0.13719615963E+02 0.13309968066E+02
 0.12244016673E+02 0.10748846325E+02 0.91376372420E+01 0.76018432845E+01 0.62628302493E+01
 0.51747037528E+01 0.43421577782E+01 0.37461542651E+01 0.33640108426E+01 0.31789137765E+01
 0.31813390638E+01 0.33681494641E+01 0.37429040695E+01 0.43157939604E+01 0.50986709922E+01
 0.60925569763E+01 0.72704460517E+01 0.69284112511E+01 0.81134470344E+01 0.93333377369E+01
 0.10490984890E+02 0.11449098076E+02 0.12169798493E+02 0.12742206629E+02 0.13264552465E+02
 0.13719613130E+02 0.13943786101E+02 0.13720705751E+02 0.12936106960E+02 0.11683271010E+02
 0.10194872680E+02 0.86638364921E+01 0.72405285039E+01 0.60162816723E+01 0.50254565687E+01
 0.42651357517E+01 0.37173508991E+01 0.33640108426E+01 0.31923847903E+01 0.31948564023E+01
 0.33681206868E+01 0.37140097149E+01 0.42398330073E+01 0.49543733651E+01 0.58578104136E+01
 0.55819232467E+01 0.65426237978E+01 0.76195992904E+01 0.87554731551E+01 0.98876581570E+01
 0.10948480894E+02 0.11877334864E+02 0.12668650151E+02 0.13309967226E+02 0.13720697417E+02
 0.13762294349E+02 0.13322352880E+02 0.12412378773E+02 0.11167515480E+02 0.97509762109E+01
 0.83252431139E+01 0.70148958321E+01 0.58903614942E+01 0.49752089807E+01 0.42651357517E+01
 0.37461542651E+01 0.34051016746E+01 0.32324280931E+01 0.32214316592E+01 0.33680827156E+01
 0.36724388072E+01 0.41393954895E+01 0.47756695467E+01 0.45731899496E+01 0.52815593265E+01
 0.61358414299E+01 0.71104003727E+01 0.81654143370E+01 0.92549218405E+01 0.10333651375E+02
 0.11350933362E+02 0.12244026801E+02 0.12936102943E+02 0.13322342209E+02 0.13299448759E+02
 0.12827414284E+02 0.11949915980E+02 0.10779051296E+02 0.94643072054E+01 0.81488876716E+01
 0.69381868719E+01 0.58903614942E+01 0.50254565687E+01 0.43421577782E+01 0.38319725638E+01
 0.34863209588E+01 0.32978693983E+01 0.32600982746E+01 0.33680454421E+01 0.36203038441E+01
 0.40201184285E+01 0.38887433159E+01 0.43587370752E+01 0.49740906038E+01 0.57307322978E+01
 0.66129261062E+01 0.75939591221E+01 0.86396301205E+01 0.97090891789E+01 0.10748857599E+02
 0.11683279166E+02 0.12412373486E+02 0.12827404286E+02 0.12843097302E+02 0.12431533986E+02
 0.11638290017E+02 0.10570819245E+02 0.93652574776E+01 0.81488876716E+01 0.70148958321E+01
 0.60162816723E+01 0.51747037528E+01 0.44943998484E+01 0.39728614503E+01 0.36055208746E+01
 0.33865624513E+01 0.33093144093E+01 0.33680159538E+01 0.35603466351E+01 0.34957964647E+01
 0.37526267292E+01 0.41443141679E+01 0.46761648529E+01 0.53481519968E+01 0.61518403972E+01
 0.70701080615E+01 0.80775631885E+01 0.91376338363E+01 0.10194877838E+02 0.11167519768E+02
 0.11949911002E+02 0.12431526188E+02 0.12528548224E+02 0.12213719635E+02 0.11528528699E+02
 0.10570819245E+02 0.94643072054E+01 0.83252431139E+01 0.72405285039E+01 0.62628302493E+01
 0.54183114702E+01 0.47178882404E+01 0.41650752326E+01 0.37590051651E+01 0.34951944664E+01
 0.33669189061E+01 0.33679972285E+01 0.33679896265E+01 0.34301510991E+01 0.36191571564E+01
 0.39411643064E+01 0.44024956965E+01 0.50058678311E+01 0.57480991764E+01 0.66194002860E+01
 0.76018319327E+01 0.86638262738E+01 0.97509734280E+01 0.10779051468E+02 0.11638285926E+02
 0.12213713609E+02 0.12416677317E+02 0.12213719635E+02 0.11638290017E+02 0.10779051296E+02
 0.97509762109E+01 0.86638364921E+01 0.76018432845E+01 0.66194042097E+01 0.57480957198E+01
 0.50058638745E+01 0.44024963570E+01 0.39411696036E+01 0.36191641320E+01 0.34301559967E+01
 0.34957949191E+01 0.33679933160E+01 0.33669090464E+01 0.34951811688E+01 0.37589937808E+01
 0.41650688725E+01 0.47178873366E+01 0.54183131789E+01 0.62628275055E+01 0.72405164422E+01
 0.83252272928E+01 0.94642978114E+01 0.10570816805E+02 0.11528525046E+02 0.12213713609E+02
 0.12528548224E+02 0.12431533986E+02 0.11949915980E+02 0.11167515480E+02 0.10194872680E+02
 0.91376372420E+01 0.80775709459E+01 0.70701100236E+01 0.61518350240E+01 0.53481447708E+01
 0.46761585540E+01 0.41443086345E+01 0.37526231888E+01 0.38887301763E+01 0.35603399111E+01
 0.33680092679E+01 0.33093033639E+01 0.33865502023E+01 0.36055099850E+01 0.39728513109E+01
 0.44943934225E+01 0.51747042085E+01 0.60162816608E+01 0.70148844146E+01 0.81488686818E+01
 0.93652455238E+01 0.10570816805E+02 0.11638285926E+02 0.12431526188E+02 0.12843097302E+02
 0.12827414284E+02 0.12412378773E+02 0.11683271010E+02 0.10748846325E+02 0.97090859067E+01
 0.86396309348E+01 0.75939559449E+01 0.66129192307E+01 0.57307237278E+01 0.49740776167E+01
 0.43587203216E+01 0.45731666691E+01 0.40201013735E+01 0.36202952078E+01 0.33680377925E+01
 0.32600905745E+01 0.32978653619E+01 0.34863158704E+01 0.38319604222E+01 0.43421465083E+01
 0.50254563271E+01 0.58903636012E+01 0.69381758858E+01 0.81488686818E+01 0.94642978114E+01
 0.10779051468E+02 0.11949911002E+02 0.12827404286E+02 0.13299448759E+02 0.13322352880E+02
 0.12936106960E+02 0.12244016673E+02 0.11350920042E+02 0.10333642696E+02 0.92549135333E+01
 0.81654045659E+01 0.71103930743E+01 0.61358332574E+01 0.52815419546E+01 0.55819055718E+01
 0.47756480172E+01 0.41393825380E+01 0.36724320025E+01 0.33680758479E+01 0.32214305977E+01
 0.32324359065E+01 0.34051040997E+01 0.37461413157E+01 0.42651216454E+01 0.49752085228E+01
 0.58903636012E+01 0.70148844146E+01 0.83252272928E+01 0.97509734280E+01 0.11167519768E+02
 0.12412373486E+02 0.13322342209E+02 0.13762294349E+02 0.13720705751E+02 0.13309968066E+02
 0.12668640827E+02 0.11877324021E+02 0.10948468825E+02 0.98876411421E+01 0.87554581487E+01
 0.76195931344E+01 0.65426172875E+01 0.69284071217E+01 0.58577971850E+01 0.49543622544E+01
 0.42398310737E+01 0.37140073609E+01 0.33681156007E+01 0.31948625019E+01 0.31924028302E+01
 0.33640183702E+01 0.37173377584E+01 0.42651216454E+01 0.50254563271E+01 0.60162816608E+01
 0.72405164422E+01 0.86638262738E+01 0.10194877838E+02 0.11683279166E+02 0.12936102943E+02
 0.13720697417E+02 0.13943786101E+02 0.13719615963E+02 0.13264548869E+02 0.12742200680E+02
 0.12169793298E+02 0.11449084971E+02 0.10490962656E+02 0.93333215410E+01 0.81134436716E+01
 0.85642978622E+01 0.72704445283E+01 0.60925519593E+01 0.50986757732E+01 0.43158058771E+01
 0.37429066348E+01 0.33681460776E+01 0.31813497509E+01 0.31789358282E+01 0.33640183702E+01
 0.37461413157E+01 0.43421465083E+01 0.51747042085E+01 0.62628275055E+01 0.76018319327E+01
 0.91376338363E+01 0.10748857599E+02 0.12244026801E+02 0.13309967226E+02 0.13719613130E+02
 0.13532642926E+02 0.13043319592E+02 0.12583140696E+02 0.12308942419E+02 0.12119558964E+02
 0.11755049941E+02 0.11003492495E+02 0.98680398808E+01 0.10325633913E+02 0.89460520592E+01
 0.75477804992E+01 0.62716265758E+01 0.51999505395E+01 0.43631064942E+01 0.37577103986E+01
 0.33681575375E+01 0.31813497509E+01 0.31924028302E+01 0.34051040997E+01 0.38319604222E+01
 0.44943934225E+01 0.54183131789E+01 0.66194002860E+01 0.80775631885E+01 0.97090891789E+01
 0.11350933362E+02 0.12668650151E+02 0.13264552465E+02 0.13043324043E+02 0.12292239745E+02
 0.11522409783E+02 0.11166248685E+02 0.11320147332E+02 0.11700517876E+02 0.11839924377E+02
 0.11388833048E+02 0.11642952630E+02 0.10679400858E+02 0.92361915008E+01 0.77430502132E+01
 0.63837912037E+01 0.52521390415E+01 0.43791612585E+01 0.37577103986E+01 0.33681460776E+01
 0.31948625019E+01 0.32324359065E+01 0.34863158704E+01 0.39728513109E+01 0.47178873366E+01
 0.57480991764E+01 0.70701080615E+01 0.86396301205E+01 0.10333651375E+02 0.11877334864E+02
 0.12742206629E+02 0.12583148561E+02 0.11522420927E+02 0.10134096295E+02 0.91546087569E+01
 0.90741960776E+01 0.98588741216E+01 0.10980883272E+02 0.11736111798E+02 0.11523027962E+02
 0.11787295326E+02 0.10917035834E+02 0.94174778214E+01 0.78438913470E+01 0.64219818172E+01
 0.52521390415E+01 0.43631064942E+01 0.37429066348E+01 0.33681156007E+01 0.32214305977E+01
 0.32978653619E+01 0.36055099850E+01 0.41650688725E+01 0.50058678311E+01 0.61518403972E+01
 0.75939591221E+01 0.92549218405E+01 0.10948480894E+02 0.12169798493E+02 0.12308943566E+02
 0.11166259046E+02 0.91546236474E+01 0.71649093212E+01 0.61317788635E+01 0.65341967887E+01
 0.81328469917E+01 0.10110157243E+02 0.92836878125E+01 0.11301851546E+02 0.11854759197E+02
 0.11035616153E+02 0.94791279967E+01 0.78438913470E+01 0.63837912037E+01 0.51999505395E+01
 0.43158058771E+01 0.37140073609E+01 0.33680758479E+01 0.32600905745E+01 0.33865502023E+01
 0.37589937808E+01 0.44024956965E+01 0.53481519968E+01 0.66129261062E+01 0.81654143370E+01
 0.98876581570E+01 0.11449098076E+02 0.12119557752E+02 0.11320143809E+02 0.90742060673E+01
 0.61317932201E+01 0.36910578034E+01 0.28217320299E+01 0.39061360594E+01 0.64346938178E+01
 0.50780353992E+01 0.86937227922E+01 0.11164231871E+02 0.11873583222E+02 0.11035616153E+02
 0.94174778214E+01 0.77430502132E+01 0.62716265758E+01 0.50986757732E+01 0.42398310737E+01
 0.36724320025E+01 0.33680377925E+01 0.33093033639E+01 0.34951811688E+01 0.39411643064E+01
 0.46761648529E+01 0.57307322978E+01 0.71104003727E+01 0.87554731551E+01 0.10490984890E+02
 0.11755061759E+02 0.11700511855E+02 0.98588673775E+01 0.65342034324E+01 0.28217418056E+01
 0.17430648876E+00 -.29515628037E+00 0.16124836909E+01 0.48259868823E-01 0.43252058404E+01
 0.84800556103E+01 0.11164231871E+02 0.11854759197E+02 0.10917035834E+02 0.92361915008E+01
 0.75477804992E+01 0.60925519593E+01 0.49543622544E+01 0.41393825380E+01 0.36202952078E+01
 0.33680092679E+01 0.33669090464E+01 0.36191571564E+01 0.41443141679E+01 0.49740906038E+01
 0.61358414299E+01 0.76195992904E+01 0.93333377369E+01 0.11003514161E+02 0.11839932944E+02
 0.10980875400E+02 0.81328390570E+01 0.39061373184E+01 -.29515342212E+00 -.28544095084E+01
 -.27217577958E+01 -.40498907679E+01 -.50679819123E+00 0.43252058404E+01 0.86937227922E+01
 0.11301851546E+02 0.11787295326E+02 0.10679400858E+02 0.89460520592E+01 0.72704445283E+01
 0.58577971850E+01 0.47756480172E+01 0.40201013735E+01 0.35603399111E+01 0.33679933160E+01
 0.34301510991E+01 0.37526267292E+01 0.43587370752E+01 0.52815593265E+01 0.65426237978E+01
 0.81134470344E+01 0.98680518518E+01 0.11388847893E+02 0.11736115823E+02 0.10110150429E+02
 0.64346864220E+01 0.16124791728E+01 -.27217616576E+01 -.49039860523E+01 -.40498354116E+01
 -.28908738290E+01 0.70214117062E+00 0.53046364176E+01 0.92518139267E+01 0.11399316550E+02
 0.11528137002E+02 0.10242683536E+02 0.84919153277E+01 0.68528828362E+01 0.54939187133E+01
 0.44668108581E+01 0.37600504795E+01 0.33407885547E+01 0.31812823776E+01 0.32700751628E+01
 0.36145892933E+01 0.42395311020E+01 0.51782791185E+01 0.64503819922E+01 0.80226785632E+01
 0.97627912222E+01 0.11224788741E+02 0.11481156692E+02 0.98023468410E+01 0.61999488198E+01
 0.16298595558E+01 -.23019742967E+01 -.28908774747E+01 -.40498470483E+01 -.23019950853E+01
 0.16298304110E+01 0.61999205376E+01 0.98023245521E+01 0.11481131966E+02 0.11224757135E+02
 0.97627670945E+01 0.80226742037E+01 0.64503842489E+01 0.51782680320E+01 0.42395110248E+01
 0.36145789468E+01 0.32700769951E+01 0.31812864586E+01 0.33407980980E+01 0.37600761616E+01
 0.44668443195E+01 0.54939386094E+01 0.68528867552E+01 0.84919222778E+01 0.10242704494E+02
 0.11528164005E+02 0.11399340997E+02 0.92518357204E+01 0.53046537593E+01 0.70214834605E+00
 0.78952139485E+00 -.22088932958E+01 -.27217253846E+01 -.54874395530E+00 0.33964392085E+01
 0.75587150493E+01 0.10502403154E+02 0.11525646985E+02 0.10827813547E+02 0.92197743546E+01
 0.75210344550E+01 0.60360383726E+01 0.48646973212E+01 0.40221024410E+01 0.34825508874E+01
 0.32137348349E+01 0.31948189862E+01 0.34225513395E+01 0.39119002635E+01 0.46924182094E+01
 0.57947609327E+01 0.72212969450E+01 0.89030269073E+01 0.10635847075E+02 0.11757620524E+02
 0.11365121474E+02 0.90019549149E+01 0.50622379956E+01 0.55320099326E+01 0.18814399059E+01
 -.37382340229E+00 -.29513412859E+00 0.20620939536E+01 0.56799204424E+01 0.91078206280E+01
 0.11169840035E+02 0.11449963330E+02 0.10332159097E+02 0.86453054255E+01 0.70129073062E+01
 0.56313149044E+01 0.45690150558E+01 0.38251798550E+01 0.33702652546E+01 0.31745119437E+01
 0.32214205942E+01 0.35115738166E+01 0.40625292904E+01 0.49042539374E+01 0.60637469634E+01
 0.75339732526E+01 0.92318943723E+01 0.10927200558E+02 0.11932748668E+02 0.11436992033E+02
 0.91318850206E+01 0.96270341709E+01 0.66283627010E+01 0.37829206523E+01 0.22986781613E+01
 0.28217437308E+01 0.50920951645E+01 0.80859819487E+01 0.10555749976E+02 0.11639568963E+02
 0.11201325614E+02 0.97579691961E+01 0.80673130675E+01 0.65230280737E+01 0.52556929599E+01
 0.43050432514E+01 0.36577332423E+01 0.32828706817E+01 0.31543842392E+01 0.32601227902E+01
 0.36037922893E+01 0.42043400001E+01 0.50906442765E+01 0.62848975191E+01 0.77713733001E+01
 0.94576621561E+01 0.11105546185E+02 0.12060203124E+02 0.11627071675E+02 0.11895678505E+02
 0.10382015581E+02 0.81410778287E+01 0.61591729885E+01 0.53653969074E+01 0.61317789802E+01
 0.80672657109E+01 0.10235767491E+02 0.11660289413E+02 0.11806055543E+02 0.10776336914E+02
 0.91528308820E+01 0.75123283201E+01 0.60737901111E+01 0.49257335208E+01 0.40839832559E+01
 0.35267384054E+01 0.32241019989E+01 0.31543873423E+01 0.33093778227E+01 0.36948940992E+01
 0.43299210383E+01 0.52408236805E+01 0.64443130468E+01 0.79175835165E+01 0.95644211708E+01
 0.11160013644E+02 0.12127250334E+02 0.12104130712E+02 0.12162070394E+02 0.11227557915E+02
 0.97853268859E+01 0.86111779763E+01 0.83520664730E+01 0.91545971231E+01 0.10577517277E+02
 0.11845370410E+02 0.12280575983E+02 0.11648319097E+02 0.10225463975E+02 0.85646093884E+01
 0.70056248408E+01 0.56843635159E+01 0.46545313922E+01 0.39141081348E+01 0.34369802588E+01
 0.31961565271E+01 0.31745191974E+01 0.33670147649E+01 0.37804062749E+01 0.44323795606E+01
 0.53456271491E+01 0.65312930242E+01 0.79618246691E+01 0.95429548410E+01 0.11080034481E+02
 0.10859060426E+02 0.11954534816E+02 0.12328127098E+02 0.11973888380E+02 0.11268265141E+02
 0.10763059461E+02 0.10852097698E+02 0.11522388865E+02 0.12355215304E+02 0.12777826507E+02
 0.12401069365E+02 0.11231514285E+02 0.96396969971E+01 0.80245479290E+01 0.65701035980E+01
 0.53701842202E+01 0.44515830130E+01 0.38008000430E+01 0.33911203727E+01 0.31997255109E+01
 0.32137408687E+01 0.34302671499E+01 0.38558379516E+01 0.45057070640E+01 0.53981816174E+01
 0.65393845032E+01 0.78997737746E+01 0.93922240916E+01 0.91201921108E+01 0.10500652158E+02
 0.11650683767E+02 0.12307941878E+02 0.12458742920E+02 0.12355002337E+02 0.12339477398E+02
 0.12603619401E+02 0.13043294410E+02 0.13315044332E+02 0.13056620156E+02 0.12123222141E+02
 0.10685965248E+02 0.90923493224E+01 0.75623494767E+01 0.62253606872E+01 0.51428266280E+01
 0.43230253638E+01 0.37468748799E+01 0.33899571885E+01 0.32341512103E+01 0.32700751432E+01
 0.34958970644E+01 0.39169245183E+01 0.45452304939E+01 0.53945995622E+01 0.64672467219E+01
 0.77344400919E+01 0.74762964097E+01 0.87436086385E+01 0.10024324687E+02 0.11187883173E+02
 0.12054610105E+02 0.12587123553E+02 0.12917375576E+02 0.13214656831E+02 0.13527668174E+02
 0.13719592219E+02 0.13548820432E+02 0.12840783252E+02 0.11629672864E+02 0.10152057031E+02
 0.86257819186E+01 0.72050039810E+01 0.59870297968E+01 0.50101839985E+01 0.42721234780E+01
 0.37530684094E+01 0.34327759703E+01 0.32976444942E+01 0.33407732667E+01 0.35604086549E+01
 0.39599680162E+01 0.45481096694E+01 0.53345610865E+01 0.63191210347E+01 0.61046922648E+01
 0.71424663607E+01 0.82865929334E+01 0.94640792667E+01 0.10593475072E+02 0.11576415026E+02
 0.12352543426E+02 0.12954199772E+02 0.13423103032E+02 0.13721653548E+02 0.13720687495E+02
 0.13281129279E+02 0.12371606046E+02 0.11120852790E+02 0.97024673540E+01 0.82779259691E+01
 0.69747758311E+01 0.58663742934E+01 0.49768113659E+01 0.42998275570E+01 0.38185152955E+01
 0.35176610565E+01 0.33874826033E+01 0.34225019686E+01 0.36203135808E+01 0.39822180614E+01
 0.45137741648E+01 0.52216112199E+01 0.50630119868E+01 0.58382346486E+01 0.67549950163E+01
 0.77781905267E+01 0.88549524173E+01 0.99260876639E+01 0.10937808347E+02 0.11834969476E+02
 0.12579891064E+02 0.13132761391E+02 0.13414223026E+02 0.13322341310E+02 0.12800799332E+02
 0.11892686550E+02 0.10706461514E+02 0.93877291535E+01 0.80793834390E+01 0.68875903383E+01
 0.58700341492E+01 0.50442532430E+01 0.44051993227E+01 0.39410496783E+01 0.36416545748E+01
 0.35001185470E+01 0.35115042789E+01 0.36723951350E+01 0.39822040257E+01 0.44441605662E+01
 0.43436381519E+01 0.48690858231E+01 0.55371239858E+01 0.63384935369E+01 0.72493827575E+01
 0.82329093031E+01 0.92456458584E+01 0.10243070936E+02 0.11177229423E+02 0.11986840539E+02
 0.12590841485E+02 0.12896525203E+02 0.12827408259E+02 0.12357265486E+02 0.11529124278E+02
 0.10447282482E+02 0.92457493409E+01 0.80502702432E+01 0.69518324177E+01 0.59998230964E+01
 0.52111868175E+01 0.45855349881E+01 0.41172036915E+01 0.38006969453E+01 0.36311733768E+01
 0.36037101790E+01 0.37139226598E+01 0.39599285731E+01 0.39168668776E+01 0.42185922550E+01
 0.46521333494E+01 0.52199879113E+01 0.59176312048E+01 0.67301665098E+01 0.76329129002E+01
 0.85942856751E+01 0.95761903559E+01 0.10528577446E+02 0.11381430081E+02 0.12043852506E+02
 0.12418757678E+02 0.12431531455E+02 0.12059359941E+02 0.11344561542E+02 0.10383596425E+02
 0.92973712293E+01 0.81981083155E+01 0.71675577111E+01 0.62524955703E+01 0.54732633097E+01
 0.48360975456E+01 0.43418776351E+01 0.39893678693E+01 0.37753416517E+01 0.36948089943E+01
 0.37427902700E+01 0.37575824530E+01 0.38557718143E+01 0.40767380146E+01 0.44251416323E+01
 0.49048738971E+01 0.55149721840E+01 0.62472472555E+01 0.70863615324E+01 0.80102009606E+01
 0.89868012570E+01 0.99667232773E+01 0.10875806509E+02 0.11617310959E+02 0.12089334929E+02
 0.12213718566E+02 0.11963366130E+02 0.11373498726E+02 0.10530451805E+02 0.95439176419E+01
 0.85168150795E+01 0.75261186773E+01 0.66194429970E+01 0.58226272429E+01 0.51495035212E+01
 0.46077810269E+01 0.42005400840E+01 0.39262991540E+01 0.37803283772E+01 0.38557766839E+01
 0.37575908823E+01 0.37803413192E+01 0.39263194969E+01 0.42005608128E+01 0.46077957337E+01
 0.51495204173E+01 0.58226530042E+01 0.66194632832E+01 0.75261179961E+01 0.85168055565E+01
 0.95439221189E+01 0.10530467725E+02 0.11373506223E+02 0.11963363073E+02 0.12213717694E+02
 0.12089333239E+02 0.11617294089E+02 0.10875780610E+02 0.99667109673E+01 0.89868051680E+01
 0.80101998553E+01 0.70863444173E+01 0.62472252938E+01 0.55149550002E+01 0.49048587085E+01
 0.44251284449E+01 0.40767336869E+01 0.42186036690E+01 0.39168871204E+01 0.37428130749E+01
 0.36948378766E+01 0.37753757077E+01 0.39893927729E+01 0.43418876488E+01 0.48361091331E+01
 0.54732876940E+01 0.62525161860E+01 0.71675567841E+01 0.81980973684E+01 0.92973705924E+01
 0.10383601759E+02 0.11344557235E+02 0.12059349814E+02 0.12431527582E+02 0.12418751977E+02
 0.12043829173E+02 0.11381396994E+02 0.10528557083E+02 0.95761859184E+01 0.85942811727E+01
 0.76329008588E+01 0.67301529137E+01 0.59176190760E+01 0.52199770257E+01 0.46521305015E+01
 0.48690950773E+01 0.43436628704E+01 0.39599582985E+01 0.37139531875E+01 0.36037491131E+01
 0.36312161568E+01 0.38007223287E+01 0.41172065591E+01 0.45855383324E+01 0.52112053655E+01
 0.59998403741E+01 0.69518314879E+01 0.80502614298E+01 0.92457468946E+01 0.10447278155E+02
 0.11529107057E+02 0.12357245793E+02 0.12827398451E+02 0.12896514641E+02 0.12590814821E+02
 0.11986805402E+02 0.11177204199E+02 0.10243058408E+02 0.92456377132E+01 0.82329035846E+01
 0.72493802397E+01 0.63384901464E+01 0.55371212494E+01 0.58382416707E+01 0.50630334036E+01
 0.44441944852E+01 0.39822356289E+01 0.36724246871E+01 0.35115447460E+01 0.35001627964E+01
 0.36416765502E+01 0.39410451611E+01 0.44051944275E+01 0.50442632409E+01 0.58700443072E+01
 0.68875879983E+01 0.80793780493E+01 0.93877268739E+01 0.10706449290E+02 0.11892657691E+02
 0.12800769521E+02 0.13322323092E+02 0.13414206565E+02 0.13132734997E+02 0.12579860691E+02
 0.11834945409E+02 0.10937791284E+02 0.99260778253E+01 0.88549538849E+01 0.77781991693E+01
 0.67550010150E+01 0.71424791287E+01 0.61047077423E+01 0.52216425386E+01 0.45138120556E+01
 0.39822443011E+01 0.36203340812E+01 0.34225349162E+01 0.33875199473E+01 0.35176758216E+01
 0.38185049779E+01 0.42998169640E+01 0.49768122983E+01 0.58663746338E+01 0.69747697735E+01
 0.82779225870E+01 0.97024649194E+01 0.11120834884E+02 0.12371569886E+02 0.13281092420E+02
 0.13720661163E+02 0.13721631880E+02 0.13423081255E+02 0.12954181179E+02 0.12352527430E+02
 0.11576399146E+02 0.10593467367E+02 0.94640883724E+01 0.82866101718E+01 0.87436300159E+01
 0.74763110166E+01 0.63191409579E+01 0.53345975346E+01 0.45481457656E+01 0.39599837536E+01
 0.35604149423E+01 0.33407913849E+01 0.32976672380E+01 0.34327803557E+01 0.37530547001E+01
 0.42721108840E+01 0.50101773670E+01 0.59870198949E+01 0.72049924623E+01 0.86257774046E+01
 0.10152052312E+02 0.11629651967E+02 0.12840746921E+02 0.13548783459E+02 0.13719562084E+02
 0.13527645000E+02 0.13214644540E+02 0.12917374043E+02 0.12587120921E+02 0.12054601132E+02
 0.11187881884E+02 0.10024341121E+02 0.10500674406E+02 0.91202125971E+01 0.77344510724E+01
 0.64672654151E+01 0.53946343820E+01 0.45452591762E+01 0.39169276214E+01 0.34958880643E+01
 0.32700746800E+01 0.32341543775E+01 0.33899494684E+01 0.37468599514E+01 0.43230139328E+01
 0.51428152330E+01 0.62253429790E+01 0.75623327796E+01 0.90923407677E+01 0.10685955962E+02
 0.12123201602E+02 0.13056592194E+02 0.13315016510E+02 0.13043268171E+02 0.12603601115E+02
 0.12339478967E+02 0.12355019657E+02 0.12458755224E+02 0.12307943233E+02 0.11650691674E+02
 0.11954551607E+02 0.10859085576E+02 0.93922395038E+01 0.78997770217E+01 0.65393962380E+01
 0.53982074119E+01 0.45057236462E+01 0.38558291729E+01 0.34302456374E+01 0.32137224915E+01
 0.31997084807E+01 0.33911010919E+01 0.38007852205E+01 0.44515741822E+01 0.53701712181E+01
 0.65700829890E+01 0.80245290307E+01 0.96396836728E+01 0.11231499925E+02 0.12401053172E+02
 0.12777814664E+02 0.12355205333E+02 0.11522375135E+02 0.10852091352E+02 0.10763077208E+02
 0.11268298700E+02 0.11973912607E+02 0.12328138352E+02 0.12162087176E+02 0.12104152516E+02
 0.11080058499E+02 0.95429628899E+01 0.79618187844E+01 0.65312937394E+01 0.53456377547E+01
 0.44323811116E+01 0.37803883765E+01 0.33669859967E+01 0.31744876351E+01 0.31961235779E+01
 0.34369527083E+01 0.39140940274E+01 0.46545247027E+01 0.56843515719E+01 0.70056073530E+01
 0.85645934180E+01 0.10225448294E+02 0.11648302043E+02 0.12280568230E+02 0.11845379308E+02
 0.10577530116E+02 0.91546020394E+01 0.83520767934E+01 0.86112106816E+01 0.97853699787E+01
 0.11227587222E+02 0.10382041432E+02 0.11895693966E+02 0.12127270697E+02 0.11160032141E+02
 0.95644217995E+01 0.79175701399E+01 0.64443016178E+01 0.52408160288E+01 0.43299071327E+01
 0.36948707429E+01 0.33093476644E+01 0.31543499278E+01 0.32240614305E+01 0.35267084072E+01
 0.40839704440E+01 0.49257274429E+01 0.60737809276E+01 0.75123192704E+01 0.91528234825E+01
 0.10776323817E+02 0.11806040656E+02 0.11660293235E+02 0.10235796961E+02 0.80673003403E+01
 0.61318032946E+01 0.53654236866E+01 0.61592152749E+01 0.81411212317E+01 0.66283970603E+01
 0.96270491357E+01 0.11627079015E+02 0.12060215121E+02 0.11105555448E+02 0.94576571168E+01
 0.77713563699E+01 0.62848761420E+01 0.50906195707E+01 0.42043131772E+01 0.36037672142E+01
 0.32600961153E+01 0.31543488484E+01 0.32828326564E+01 0.36577080656E+01 0.43050330246E+01
 0.52556862295E+01 0.65230223817E+01 0.80673154305E+01 0.97579743928E+01 0.11201320585E+02
 0.11639561757E+02 0.10555766282E+02 0.80860266170E+01 0.50921442297E+01 0.28217817226E+01
 0.22987153286E+01 0.37829637253E+01 0.18814736137E+01 0.55320282664E+01 0.91318852574E+01
 0.11436987120E+02 0.11932747342E+02 0.10927198562E+02 0.92318863258E+01 0.75339575029E+01
 0.60637204514E+01 0.49042176428E+01 0.40624950114E+01 0.35115505522E+01 0.32214004638E+01
 0.31744850047E+01 0.33702390340E+01 0.38251664457E+01 0.45690096376E+01 0.56313076137E+01
 0.70129051822E+01 0.86453189791E+01 0.10332177548E+02 0.11449969897E+02 0.11169844188E+02
 0.91078471592E+01 0.56799708246E+01 0.20621455753E+01 -.29509329617E+00 -.37378644710E+00
 -.22088684204E+01 0.78953701537E+00 0.50622375077E+01 0.90019414280E+01 0.11365104515E+02
 0.11757604744E+02 0.10635834169E+02 0.89030184531E+01 0.72212862278E+01 0.57947351699E+01
 0.46923787575E+01 0.39118661482E+01 0.34225332797E+01 0.31948067341E+01 0.32137200681E+01
 0.34825423724E+01 0.40221054149E+01 0.48646992846E+01 0.60360322549E+01 0.75210357127E+01
 0.92197958366E+01 0.10827841882E+02 0.11525664849E+02 0.10502418563E+02 0.75587463105E+01
 0.33964840341E+01 -.54870273052E+00 -.27216942148E+01 0.48384327930E-01 0.78960728186E+00
 0.35520833649E+01 0.71838252652E+01 0.10275836925E+02 0.11834308506E+02 0.11661454975E+02
 0.10288263122E+02 0.85503293914E+01 0.69312808139E+01 0.55828112250E+01 0.45534418949E+01
 0.38322034951E+01 0.33875806237E+01 0.31924128093E+01 0.32342195462E+01 0.35174497514E+01
 0.40627410877E+01 0.49011260680E+01 0.60564011061E+01 0.75122418436E+01 0.91713389355E+01
 0.10756362837E+02 0.11526411162E+02 0.10757322131E+02 0.83015700406E+01 0.48274652730E+01
 0.16299237027E+01 0.70222978518E+00 -.50666675689E+00 0.70222514954E+00 0.38067854908E+01
 0.75165531331E+01 0.10429890132E+02 0.11682569862E+02 0.11242879194E+02 0.97544267471E+01
 0.80430516498E+01 0.64955437557E+01 0.52364943544E+01 0.42982805034E+01 0.36627210783E+01
 0.32977367832E+01 0.31789408759E+01 0.32977283566E+01 0.36627181863E+01 0.42982794364E+01
 0.52364760539E+01 0.64955116948E+01 0.80430348926E+01 0.97544374557E+01 0.11242895850E+02
 0.11682571883E+02 0.10429883678E+02 0.75165526184E+01 0.38067913043E+01 0.35520869891E+01
 0.78961362714E+00 0.48389354335E-01 0.16299197347E+01 0.48274560148E+01 0.83015719987E+01