   2   2   0   0
  0.1529437E+02  0.3691622E-09  0.3691622E-09  0.3691622E-09  0.5000000E-15
  1.000000000000000E-004
  CAR 
 unknown system                          
     21.99011347     -6.67349062  301      8.99958450      1.00000000
     -6.673  0.0000E+00  0.0000E+00
     -6.578  0.0000E+00  0.0000E+00
     -6.482  0.0000E+00  0.0000E+00
     -6.387  0.0000E+00  0.0000E+00
     -6.291  0.0000E+00  0.0000E+00
     -6.196  0.0000E+00  0.0000E+00
     -6.100  0.0000E+00  0.0000E+00
     -6.005  0.0000E+00  0.0000E+00
     -5.909  0.0000E+00  0.0000E+00
     -5.814  0.4338E-17  0.4145E-18
     -5.718  0.8397E-15  0.8065E-16
     -5.622  0.1075E-12  0.1035E-13
     -5.527  0.8774E-11  0.8486E-12
     -5.431  0.4576E-09  0.4457E-10
     -5.336  0.1527E-07  0.1503E-08
     -5.240  0.3261E-06  0.3266E-07
     -5.145  0.4464E-05  0.4592E-06
     -5.049  0.3923E-04  0.4207E-05
     -4.954  0.2215E-03  0.2537E-04
     -4.858  0.8046E-03  0.1022E-03
     -4.763  0.1883E-02  0.2822E-03
     -4.667  0.2862E-02  0.5557E-03
     -4.571  0.2979E-02  0.8403E-03
     -4.476  0.2903E-02  0.1118E-02
     -4.380  0.4631E-02  0.1560E-02
     -4.285  0.8628E-02  0.2385E-02
     -4.189  0.1175E-01  0.3507E-02
     -4.094  0.1074E-01  0.4533E-02
     -3.998  0.7607E-02  0.5260E-02
     -3.903  0.7321E-02  0.5959E-02
     -3.807  0.1142E-01  0.7051E-02
     -3.712  0.1745E-01  0.8718E-02
     -3.616  0.2330E-01  0.1094E-01
     -3.520  0.2695E-01  0.1352E-01
     -3.425  0.2431E-01  0.1584E-01
     -3.329  0.1540E-01  0.1731E-01
     -3.234  0.6601E-02  0.1794E-01
     -3.138  0.2526E-02  0.1819E-01
     -3.043  0.3302E-02  0.1850E-01
     -2.947  0.8206E-02  0.1928E-01
     -2.852  0.1693E-01  0.2090E-01
     -2.756  0.2993E-01  0.2376E-01
     -2.661  0.4646E-01  0.2820E-01
     -2.565  0.5872E-01  0.3381E-01
     -2.469  0.5772E-01  0.3933E-01
     -2.374  0.4479E-01  0.4361E-01
     -2.278  0.2765E-01  0.4625E-01
     -2.183  0.1298E-01  0.4749E-01
     -2.087  0.4608E-02  0.4793E-01
     -1.992  0.2748E-02  0.4819E-01
     -1.896  0.6622E-02  0.4882E-01
     -1.801  0.1513E-01  0.5027E-01
     -1.705  0.2270E-01  0.5244E-01
     -1.610  0.2199E-01  0.5454E-01
     -1.514  0.1383E-01  0.5586E-01
     -1.418  0.6278E-02  0.5646E-01
     -1.323  0.4457E-02  0.5689E-01
     -1.227  0.8232E-02  0.5767E-01
     -1.132  0.1511E-01  0.5912E-01
     -1.036  0.2350E-01  0.6136E-01
     -0.941  0.3542E-01  0.6474E-01
     -0.845  0.5042E-01  0.6956E-01
     -0.750  0.5977E-01  0.7527E-01
     -0.654  0.5826E-01  0.8084E-01
     -0.559  0.5097E-01  0.8571E-01
     -0.463  0.4199E-01  0.8972E-01
     -0.367  0.3502E-01  0.9307E-01
     -0.272  0.3807E-01  0.9670E-01
     -0.176  0.5324E-01  0.1018E+00
     -0.081  0.7124E-01  0.1086E+00
      0.015  0.7744E-01  0.1160E+00
      0.110  0.6377E-01  0.1221E+00
      0.206  0.4011E-01  0.1259E+00
      0.301  0.2301E-01  0.1281E+00
      0.397  0.1539E-01  0.1296E+00
      0.492  0.1102E-01  0.1306E+00
      0.588  0.9178E-02  0.1315E+00
      0.684  0.1346E-01  0.1328E+00
      0.779  0.2228E-01  0.1349E+00
      0.875  0.2857E-01  0.1377E+00
      0.970  0.3040E-01  0.1406E+00
      1.066  0.3467E-01  0.1439E+00
      1.161  0.4510E-01  0.1482E+00
      1.257  0.5236E-01  0.1532E+00
      1.352  0.4464E-01  0.1575E+00
      1.448  0.2667E-01  0.1600E+00
      1.543  0.1526E-01  0.1615E+00
      1.639  0.2095E-01  0.1635E+00
      1.734  0.4101E-01  0.1674E+00
      1.830  0.6031E-01  0.1731E+00
      1.926  0.6311E-01  0.1792E+00
      2.021  0.5010E-01  0.1840E+00
      2.117  0.3539E-01  0.1873E+00
      2.212  0.3004E-01  0.1902E+00
      2.308  0.3575E-01  0.1936E+00
      2.403  0.4557E-01  0.1980E+00
      2.499  0.4682E-01  0.2025E+00
      2.594  0.3438E-01  0.2057E+00
      2.690  0.1844E-01  0.2075E+00
      2.785  0.1192E-01  0.2086E+00
      2.881  0.1829E-01  0.2104E+00
      2.977  0.3068E-01  0.2133E+00
      3.072  0.3795E-01  0.2169E+00
      3.168  0.3884E-01  0.2207E+00
      3.263  0.4317E-01  0.2248E+00
      3.359  0.5125E-01  0.2297E+00
      3.454  0.5163E-01  0.2346E+00
      3.550  0.4432E-01  0.2388E+00
      3.645  0.4036E-01  0.2427E+00
      3.741  0.4353E-01  0.2469E+00
      3.836  0.5046E-01  0.2517E+00
      3.932  0.5614E-01  0.2570E+00
      4.028  0.5560E-01  0.2624E+00
      4.123  0.4685E-01  0.2668E+00
      4.219  0.3195E-01  0.2699E+00
      4.314  0.1873E-01  0.2717E+00
      4.410  0.1905E-01  0.2735E+00
      4.505  0.4110E-01  0.2774E+00
      4.601  0.7718E-01  0.2848E+00
      4.696  0.1011E+00  0.2945E+00
      4.792  0.9740E-01  0.3038E+00
      4.887  0.7980E-01  0.3114E+00
      4.983  0.6081E-01  0.3172E+00
      5.079  0.3979E-01  0.3210E+00
      5.174  0.2272E-01  0.3232E+00
      5.270  0.1870E-01  0.3250E+00
      5.365  0.2429E-01  0.3273E+00
      5.461  0.2848E-01  0.3300E+00
      5.556  0.2958E-01  0.3328E+00
      5.652  0.3754E-01  0.3364E+00
      5.747  0.5592E-01  0.3418E+00
      5.843  0.7211E-01  0.3486E+00
      5.938  0.7360E-01  0.3557E+00
      6.034  0.6556E-01  0.3619E+00
      6.130  0.6214E-01  0.3679E+00
      6.225  0.6900E-01  0.3745E+00
      6.321  0.8055E-01  0.3822E+00
      6.416  0.8698E-01  0.3905E+00
      6.512  0.8077E-01  0.3982E+00
      6.607  0.6245E-01  0.4042E+00
      6.703  0.4521E-01  0.4085E+00
      6.798  0.4237E-01  0.4125E+00
      6.894  0.5232E-01  0.4175E+00
      6.989  0.6418E-01  0.4237E+00
      7.085  0.6975E-01  0.4303E+00
      7.181  0.6988E-01  0.4370E+00
      7.276  0.6887E-01  0.4436E+00
      7.372  0.6663E-01  0.4499E+00
      7.467  0.6518E-01  0.4562E+00
      7.563  0.6967E-01  0.4628E+00
      7.658  0.7637E-01  0.4701E+00
      7.754  0.7259E-01  0.4771E+00
      7.849  0.5597E-01  0.4824E+00
      7.945  0.4125E-01  0.4863E+00
      8.040  0.4129E-01  0.4903E+00
      8.136  0.5033E-01  0.4951E+00
      8.232  0.5117E-01  0.5000E+00
      8.327  0.3839E-01  0.5037E+00
      8.423  0.2392E-01  0.5059E+00
      8.518  0.1749E-01  0.5076E+00
      8.614  0.1845E-01  0.5094E+00
      8.709  0.2825E-01  0.5121E+00
      8.805  0.5170E-01  0.5170E+00
      8.900  0.7966E-01  0.5246E+00
      8.996  0.8801E-01  0.5330E+00
      9.091  0.6688E-01  0.5394E+00
      9.187  0.3553E-01  0.5428E+00
      9.283  0.1684E-01  0.5444E+00
      9.378  0.1482E-01  0.5458E+00
      9.474  0.2209E-01  0.5480E+00
      9.569  0.3304E-01  0.5511E+00
      9.665  0.4396E-01  0.5553E+00
      9.760  0.5009E-01  0.5601E+00
      9.856  0.4943E-01  0.5648E+00
      9.951  0.4520E-01  0.5691E+00
     10.047  0.4219E-01  0.5732E+00
     10.142  0.4435E-01  0.5774E+00
     10.238  0.5537E-01  0.5827E+00
     10.334  0.7079E-01  0.5895E+00
     10.429  0.7481E-01  0.5966E+00
     10.525  0.6444E-01  0.6028E+00
     10.620  0.6091E-01  0.6086E+00
     10.716  0.7957E-01  0.6162E+00
     10.811  0.1065E+00  0.6264E+00
     10.907  0.1147E+00  0.6373E+00
     11.002  0.9441E-01  0.6463E+00
     11.098  0.6345E-01  0.6524E+00
     11.193  0.4109E-01  0.6563E+00
     11.289  0.3006E-01  0.6592E+00
     11.385  0.3149E-01  0.6622E+00
     11.480  0.4826E-01  0.6668E+00
     11.576  0.6716E-01  0.6732E+00
     11.671  0.6643E-01  0.6796E+00
     11.767  0.4678E-01  0.6841E+00
     11.862  0.3000E-01  0.6869E+00
     11.958  0.2668E-01  0.6895E+00
     12.053  0.2945E-01  0.6923E+00
     12.149  0.3514E-01  0.6956E+00
     12.244  0.5058E-01  0.7005E+00
     12.340  0.7373E-01  0.7075E+00
     12.436  0.9083E-01  0.7162E+00
     12.531  0.9600E-01  0.7254E+00
     12.627  0.9617E-01  0.7346E+00
     12.722  0.9538E-01  0.7437E+00
     12.818  0.8901E-01  0.7522E+00
     12.913  0.7724E-01  0.7596E+00
     13.009  0.6803E-01  0.7661E+00
     13.104  0.6293E-01  0.7721E+00
     13.200  0.5746E-01  0.7776E+00
     13.295  0.5541E-01  0.7829E+00
     13.391  0.6137E-01  0.7887E+00
     13.487  0.6944E-01  0.7954E+00
     13.582  0.7713E-01  0.8027E+00
     13.678  0.9055E-01  0.8114E+00
     13.773  0.1080E+00  0.8217E+00
     13.869  0.1174E+00  0.8329E+00
     13.964  0.1130E+00  0.8437E+00
     14.060  0.1056E+00  0.8538E+00
     14.155  0.1062E+00  0.8639E+00
     14.251  0.1052E+00  0.8740E+00
     14.346  0.8603E-01  0.8822E+00
     14.442  0.5310E-01  0.8873E+00
     14.538  0.2445E-01  0.8896E+00
     14.633  0.8929E-02  0.8905E+00
     14.729  0.4813E-02  0.8909E+00
     14.824  0.9189E-02  0.8918E+00
     14.920  0.1956E-01  0.8937E+00
     15.015  0.3115E-01  0.8967E+00
     15.111  0.4102E-01  0.9006E+00
     15.206  0.5239E-01  0.9056E+00
     15.302  0.6697E-01  0.9120E+00
     15.397  0.7694E-01  0.9193E+00
     15.493  0.7042E-01  0.9261E+00
     15.589  0.4819E-01  0.9307E+00
     15.684  0.2891E-01  0.9334E+00
     15.780  0.3102E-01  0.9364E+00
     15.875  0.5298E-01  0.9415E+00
     15.971  0.7110E-01  0.9482E+00
     16.066  0.6579E-01  0.9545E+00
     16.162  0.5012E-01  0.9593E+00
     16.257  0.4889E-01  0.9640E+00
     16.353  0.5877E-01  0.9696E+00
     16.448  0.5706E-01  0.9751E+00
     16.544  0.3964E-01  0.9788E+00
     16.640  0.2227E-01  0.9810E+00
     16.735  0.1325E-01  0.9822E+00
     16.831  0.9530E-02  0.9832E+00
     16.926  0.1071E-01  0.9842E+00
     17.022  0.1994E-01  0.9861E+00
     17.117  0.3457E-01  0.9894E+00
     17.213  0.4575E-01  0.9938E+00
     17.308  0.4893E-01  0.9984E+00
     17.404  0.4536E-01  0.1003E+01
     17.499  0.3610E-01  0.1006E+01
     17.595  0.2646E-01  0.1009E+01
     17.691  0.2649E-01  0.1011E+01
     17.786  0.3740E-01  0.1015E+01
     17.882  0.4639E-01  0.1019E+01
     17.977  0.4373E-01  0.1023E+01
     18.073  0.3653E-01  0.1027E+01
     18.168  0.3414E-01  0.1030E+01
     18.264  0.3216E-01  0.1033E+01
     18.359  0.2499E-01  0.1036E+01
     18.455  0.1940E-01  0.1038E+01
     18.550  0.2291E-01  0.1040E+01
     18.646  0.3049E-01  0.1043E+01
     18.742  0.3146E-01  0.1046E+01
     18.837  0.2328E-01  0.1048E+01
     18.933  0.1228E-01  0.1049E+01
     19.028  0.4598E-02  0.1049E+01
     19.124  0.1411E-02  0.1050E+01
     19.219  0.1605E-02  0.1050E+01
     19.315  0.5589E-02  0.1050E+01
     19.410  0.1491E-01  0.1052E+01
     19.506  0.2711E-01  0.1054E+01
     19.601  0.3358E-01  0.1058E+01
     19.697  0.2869E-01  0.1060E+01
     19.793  0.1848E-01  0.1062E+01
     19.888  0.1276E-01  0.1063E+01
     19.984  0.1246E-01  0.1064E+01
     20.079  0.1157E-01  0.1066E+01
     20.175  0.7550E-02  0.1066E+01
     20.270  0.3220E-02  0.1067E+01
     20.366  0.8861E-03  0.1067E+01
     20.461  0.1569E-03  0.1067E+01
     20.557  0.1786E-04  0.1067E+01
     20.652  0.1304E-05  0.1067E+01
     20.748  0.6106E-07  0.1067E+01
     20.844  0.1831E-08  0.1067E+01
     20.939  0.3509E-10  0.1067E+01
     21.035  0.4298E-12  0.1067E+01
     21.130  0.3356E-14  0.1067E+01
     21.226  0.1983E-16  0.1067E+01
     21.321  0.0000E+00  0.1067E+01
     21.417  0.0000E+00  0.1067E+01
     21.512  0.0000E+00  0.1067E+01
     21.608  0.0000E+00  0.1067E+01
     21.703  0.0000E+00  0.1067E+01
     21.799  0.0000E+00  0.1067E+01
     21.895  0.0000E+00  0.1067E+01
     21.990  0.0000E+00  0.1067E+01
