 vasp.5.4.4.18Apr17-6-g9f103f2a35 (build Dec 09 2018 21:25:21) complex          
  
 executed on IFC18.0.1.163_CrayMP date 2019.03.20  09:14:38
 running on    8 total cores
 distrk:  each k-point on    8 cores,    1 groups
 distr:  one band on NCORES_PER_BAND=   1 cores,    8 groups


--------------------------------------------------------------------------------------------------------


 INCAR:
 POTCAR:   PAW_PBE Si 05Jan2001                   

 ----------------------------------------------------------------------------- 
|                                                                             |
|           W    W    AA    RRRRR   N    N  II  N    N   GGGG   !!!           |
|           W    W   A  A   R    R  NN   N  II  NN   N  G    G  !!!           |
|           W    W  A    A  R    R  N N  N  II  N N  N  G       !!!           |
|           W WW W  AAAAAA  RRRRR   N  N N  II  N  N N  G  GGG   !            |
|           WW  WW  A    A  R   R   N   NN  II  N   NN  G    G                |
|           W    W  A    A  R    R  N    N  II  N    N   GGGG   !!!           |
|                                                                             |
|      For optimal performance we recommend to set                            |
|        NCORE= 4 - approx SQRT( number of cores)                             |
|      NCORE specifies how many cores store one orbital (NPAR=cpu/NCORE).     |
|      This setting can  greatly improve the performance of VASP for DFT.     |
|      The default,   NCORE=1            might be grossly inefficient         |
|      on modern multi-core architectures or massively parallel machines.     |
|      Do your own testing !!!!                                               |
|      Unfortunately you need to use the default for GW and RPA calculations. |
|      (for HF NCORE is supported but not extensively tested yet)             |
|                                                                             |
 ----------------------------------------------------------------------------- 

 POTCAR:   PAW_PBE Si 05Jan2001                   
   VRHFIN =Si: s2p2                                                             
   LEXCH  = PE                                                                  
   EATOM  =   103.0669 eV,    7.5752 Ry                                         
                                                                                
   TITEL  = PAW_PBE Si 05Jan2001                                                
   LULTRA =        F    use ultrasoft PP ?                                      
   IUNSCR =        1    unscreen: 0-lin 1-nonlin 2-no                           
   RPACOR =    1.500    partial core radius                                     
   POMASS =   28.085; ZVAL   =    4.000    mass and valenz                      
   RCORE  =    1.900    outmost cutoff radius                                   
   RWIGS  =    2.480; RWIGS  =    1.312    wigner-seitz radius (au A)           
   ENMAX  =  245.345; ENMIN  =  184.009 eV                                      
   ICORE  =        2    local potential                                         
   LCOR   =        T    correct aug charges                                     
   LPAW   =        T    paw PP                                                  
   EAUG   =  322.069                                                            
   DEXC   =    -.007                                                            
   RMAX   =    2.944    core radius for proj-oper                               
   RAUG   =    1.300    factor for augmentation sphere                          
   RDEP   =    1.993    radius for radial grids                                 
   QCUT   =   -4.246; QGAM   =    8.493    optimization parameters              
                                                                                
   Description                                                                  
     l     E      TYP  RCUT    TYP  RCUT                                        
     0   .000     23  1.900                                                     
     0   .000     23  1.900                                                     
     1   .000     23  1.900                                                     
     1   .000     23  1.900                                                     
     2   .000      7  1.900                                                     
  local pseudopotential read in
  partial core-charges read in
  atomic valenz-charges read in
  non local Contribution for L=           0  read in
    real space projection operators read in
  non local Contribution for L=           0  read in
    real space projection operators read in
  non local Contribution for L=           1  read in
    real space projection operators read in
  non local Contribution for L=           1  read in
    real space projection operators read in
    PAW grid and wavefunctions read in
 
   number of l-projection  operators is LMAX  =           4
   number of lm-projection operators is LMMAX =           8
 
 PAW_PBE Si 05Jan2001                   :
 energy of atom  1       EATOM= -103.0669
 kinetic energy error for atom=    0.0107 (will be added to EATOM!!)
 
 
 POSCAR: Si2                                     
  positions in direct lattice
  No initial velocities read in
 exchange correlation table for  LEXCH =        8
   RHO(1)=    0.500       N(1)  =     2000
   RHO(2)=  100.500       N(2)  =     4000
 


--------------------------------------------------------------------------------------------------------


 ion  position               nearest neighbor table
   1  0.250  0.750  0.500-   2 2.53   2 2.53   2 2.53   2 2.53   2 3.11   2 3.11   2 3.11   2 3.11

   2  0.000  0.000  0.000-   1 2.53   1 2.53   1 2.53   1 2.53   1 3.11   1 3.11   1 3.11   1 3.11

 
  LATTYP: Found a body centered tetragonal cell.
 ALAT       =     4.9000000000
 C/A-ratio  =     0.5200000000
  
  Lattice vectors:
  
 A1 = (  -2.4500000000,   2.4500000000,   1.2740000000)
 A2 = (   2.4500000000,  -2.4500000000,   1.2740000000)
 A3 = (   2.4500000000,   2.4500000000,  -1.2740000000)


Analysis of symmetry for initial positions (statically):
=====================================================================
 Subroutine PRICEL returns:
 Original cell was already a primitive cell.
 

 Routine SETGRP: Setting up the symmetry group for a 
 body centered tetragonal supercell.


 Subroutine GETGRP returns: Found 16 space group operations
 (whereof  8 operations were pure point group operations)
 out of a pool of 16 trial point group operations.


The static configuration has the point symmetry D_2d.
 The point group associated with its full space group is D_4h.


Analysis of symmetry for dynamics (positions and initial velocities):
=====================================================================
 Subroutine PRICEL returns:
 Original cell was already a primitive cell.
 

 Routine SETGRP: Setting up the symmetry group for a 
 body centered tetragonal supercell.


 Subroutine GETGRP returns: Found 16 space group operations
 (whereof  8 operations were pure point group operations)
 out of a pool of 16 trial point group operations.


The dynamic configuration has the point symmetry D_2d.
 The point group associated with its full space group is D_4h.


 Subroutine INISYM returns: Found 16 space group operations
 (whereof  8 operations are pure point group operations),
 and found     1 'primitive' translations

 
 
 KPOINTS: Automatic kpoint scheme                 

Automatic generation of k-mesh.
Space group operators:
 irot       det(A)        alpha          n_x          n_y          n_z        tau_x        tau_y        tau_z
    1     1.000000     0.000000     1.000000     0.000000     0.000000     0.000000     0.000000     0.000000
    2    -1.000000    90.000000    -0.000000    -0.000000    -1.000000     0.000000     0.000000     0.000000
    3     1.000000   180.000000    -0.000000    -0.000000    -1.000000     0.000000     0.000000     0.000000
    4    -1.000000    90.000000    -0.000000     0.000000     1.000000     0.000000     0.000000     0.000000
    5    -1.000000   180.000000     0.000000    -1.000000     0.000000     0.000000     0.000000     0.000000
    6     1.000000   180.000000     0.707107     0.707107    -0.000000     0.000000     0.000000     0.000000
    7    -1.000000   180.000000     1.000000     0.000000     0.000000     0.000000     0.000000     0.000000
    8     1.000000   180.000000     0.707107    -0.707107     0.000000     0.000000     0.000000     0.000000
    9    -1.000000     0.000000     1.000000     0.000000     0.000000     0.250000     0.750000     0.500000
   10     1.000000    90.000000    -0.000000    -0.000000    -1.000000     0.250000     0.750000     0.500000
   11    -1.000000   180.000000    -0.000000    -0.000000    -1.000000     0.250000     0.750000     0.500000
   12     1.000000    90.000000    -0.000000     0.000000     1.000000     0.250000     0.750000     0.500000
   13     1.000000   180.000000     0.000000    -1.000000     0.000000     0.250000     0.750000     0.500000
   14    -1.000000   180.000000     0.707107     0.707107    -0.000000     0.250000     0.750000     0.500000
   15     1.000000   180.000000     1.000000     0.000000     0.000000     0.250000     0.750000     0.500000
   16    -1.000000   180.000000     0.707107    -0.707107     0.000000     0.250000     0.750000     0.500000
 
 Subroutine IBZKPT returns following result:
 ===========================================
 
 Found     18 irreducible k-points:
 
 Following reciprocal coordinates:
            Coordinates               Weight
  0.000000  0.000000  0.000000      1.000000
  0.200000  0.000000 -0.000000      8.000000
  0.400000  0.000000 -0.000000      8.000000
  0.200000  0.200000 -0.000000      8.000000
  0.400000  0.200000 -0.000000     16.000000
 -0.400000  0.200000  0.000000     16.000000
 -0.200000  0.200000  0.000000      4.000000
  0.400000  0.400000 -0.000000      8.000000
 -0.400000  0.400000  0.000000      4.000000
  0.200000  0.200000  0.200000      8.000000
 -0.200000  0.200000  0.200000      4.000000
 -0.400000  0.400000  0.200000      8.000000
 -0.200000  0.400000  0.200000      8.000000
 -0.400000 -0.400000  0.200000      8.000000
 -0.200000 -0.400000  0.200000      8.000000
 -0.200000 -0.200000  0.200000      2.000000
 -0.400000  0.400000  0.400000      4.000000
 -0.400000 -0.400000  0.400000      2.000000
 
 Following cartesian coordinates:
            Coordinates               Weight
  0.000000  0.000000  0.000000      1.000000
  0.000000  0.040816  0.078493      8.000000
  0.000000  0.081633  0.156986      8.000000
  0.040816  0.040816  0.156986      8.000000
  0.040816  0.081633  0.235479     16.000000
  0.040816 -0.081633 -0.078493     16.000000
  0.040816 -0.040816  0.000000      4.000000
  0.081633  0.081633  0.313972      8.000000
  0.081633 -0.081633  0.000000      4.000000
  0.081633  0.081633  0.156986      8.000000
  0.081633  0.000000 -0.000000      4.000000
  0.122449 -0.040816  0.000000      8.000000
  0.122449  0.000000  0.078493      8.000000
 -0.040816 -0.040816 -0.313972      8.000000
 -0.040816  0.000000 -0.235479      8.000000
 -0.000000  0.000000 -0.156986      2.000000
  0.163265  0.000000 -0.000000      4.000000
 -0.000000  0.000000 -0.313972      2.000000
 


--------------------------------------------------------------------------------------------------------




 Dimension of arrays:
   k-points           NKPTS =     18   k-points in BZ     NKDIM =     18   number of bands    NBANDS=      8
   number of dos      NEDOS =    301   number of ions     NIONS =      2
   non local maximal  LDIM  =      4   non local SUM 2l+1 LMDIM =      8
   total plane-waves  NPLWV =   2744
   max r-space proj   IRMAX =      1   max aug-charges    IRDMAX=   3198
   dimension x,y,z NGX =    14 NGY =   14 NGZ =   14
   dimension x,y,z NGXF=    28 NGYF=   28 NGZF=   28
   support grid    NGXF=    28 NGYF=   28 NGZF=   28
   ions per type =               2
   NGX,Y,Z   is equivalent  to a cutoff of   6.30,  6.30,  6.30 a.u.
   NGXF,Y,Z  is equivalent  to a cutoff of  12.61, 12.61, 12.61 a.u.

 SYSTEM =  unknown system                          
 POSCAR =  Si2                                     

 Startparameter for this run:
   NWRITE =      2    write-flag & timer
   PREC   = normal    normal or accurate (medium, high low for compatibility)
   ISTART =      0    job   : 0-new  1-cont  2-samecut
   ICHARG =      2    charge: 1-file 2-atom 10-const
   ISPIN  =      1    spin polarized calculation?
   LNONCOLLINEAR =      F non collinear calculations
   LSORBIT =      F    spin-orbit coupling
   INIWAV =      1    electr: 0-lowe 1-rand  2-diag
   LASPH  =      F    aspherical Exc in radial PAW
   METAGGA=      F    non-selfconsistent MetaGGA calc.

 Electronic Relaxation 1
   ENCUT  =  200.0 eV  14.70 Ry    3.83 a.u.   4.26  4.26  4.26*2*pi/ulx,y,z
   ENINI  =  200.0     initial cutoff
   ENAUG  =  322.1 eV  augmentation charge cutoff
   NELM   =     60;   NELMIN=  2; NELMDL= -5     # of ELM steps 
   EDIFF  = 0.4E-03   stopping-criterion for ELM
   LREAL  =      F    real-space projection
   NLSPLINE    = F    spline interpolate recip. space projectors
   LCOMPAT=      F    compatible to vasp.4.4
   GGA_COMPAT  = T    GGA compatible to vasp.4.4-vasp.4.6
   LMAXPAW     = -100 max onsite density
   LMAXMIX     =    2 max onsite mixed and CHGCAR
   VOSKOWN=      0    Vosko Wilk Nusair interpolation
   ROPT   =    0.00000
 Ionic relaxation
   EDIFFG = -.1E-01   stopping-criterion for IOM
   NSW    =     15    number of steps for IOM
   NBLOCK =      1;   KBLOCK =     15    inner block; outer block 
   IBRION =      2    ionic relax: 0-MD 1-quasi-New 2-CG
   NFREE  =      1    steps in history (QN), initial steepest desc. (CG)
   ISIF   =      3    stress and relaxation
   IWAVPR =     11    prediction:  0-non 1-charg 2-wave 3-comb
   ISYM   =      2    0-nonsym 1-usesym 2-fastsym
   LCORR  =      T    Harris-Foulkes like correction to forces

   POTIM  = 0.5000    time-step for ionic-motion
   TEIN   =    0.0    initial temperature
   TEBEG  =    0.0;   TEEND  =   0.0 temperature during run
   SMASS  =  -3.00    Nose mass-parameter (am)
   estimated Nose-frequenzy (Omega)   =  0.10E-29 period in steps =****** mass=  -0.311E-27a.u.
   SCALEE = 1.0000    scale energy and forces
   NPACO  =    256;   APACO  = 16.0  distance and # of slots for P.C.
   PSTRESS=    0.0 pullay stress

  Mass of Ions in am
   POMASS =  28.09
  Ionic Valenz
   ZVAL   =   4.00
  Atomic Wigner-Seitz radii
   RWIGS  =  -1.00
  virtual crystal weights 
   VCA    =   1.00
   NELECT =       8.0000    total number of electrons
   NUPDOWN=      -1.0000    fix difference up-down

 DOS related values:
   EMIN   =  10.00;   EMAX   =-10.00  energy-range for DOS
   EFERMI =   0.00
   ISMEAR =     0;   SIGMA  =   0.20  broadening in eV -4-tet -1-fermi 0-gaus

 Electronic relaxation 2 (details)
   IALGO  =     38    algorithm
   LDIAG  =      T    sub-space diagonalisation (order eigenvalues)
   LSUBROT=      F    optimize rotation matrix (better conditioning)
   TURBO    =      0    0=normal 1=particle mesh
   IRESTART =      0    0=no restart 2=restart with 2 vectors
   NREBOOT  =      0    no. of reboots
   NMIN     =      0    reboot dimension
   EREF     =   0.00    reference energy to select bands
   IMIX   =      4    mixing-type and parameters
     AMIX     =   0.40;   BMIX     =  1.00
     AMIX_MAG =   1.60;   BMIX_MAG =  1.00
     AMIN     =   0.10
     WC   =   100.;   INIMIX=   1;  MIXPRE=   1;  MAXMIX= -45

 Intra band minimization:
   WEIMIN = 0.0010     energy-eigenvalue tresh-hold
   EBREAK =  0.13E-04  absolut break condition
   DEPER  =   0.30     relativ break condition  

   TIME   =   0.40     timestep for ELM

  volume/ion in A,a.u.               =      15.29       103.21
  Fermi-wavevector in a.u.,A,eV,Ry     =   1.046930  1.978411 14.912834  1.096062
  Thomas-Fermi vector in A             =   2.181789
 
 Write flags
   LWAVE        =      T    write WAVECAR
   LDOWNSAMPLE  =      F    k-point downsampling of WAVECAR
   LCHARG       =      T    write CHGCAR
   LVTOT        =      F    write LOCPOT, total local potential
   LVHAR        =      F    write LOCPOT, Hartree potential only
   LELF         =      F    write electronic localiz. function (ELF)
   LORBIT       =      0    0 simple, 1 ext, 2 COOP (PROOUT), +10 PAW based schemes


 Dipole corrections
   LMONO  =      F    monopole corrections only (constant potential shift)
   LDIPOL =      F    correct potential (dipole corrections)
   IDIPOL =      0    1-x, 2-y, 3-z, 4-all directions 
   EPSILON=  1.0000000 bulk dielectric constant

 Exchange correlation treatment:
   GGA     =    --    GGA type
   LEXCH   =     8    internal setting for exchange type
   VOSKOWN=      0    Vosko Wilk Nusair interpolation
   LHFCALC =     F    Hartree Fock is set to
   LHFONE  =     F    Hartree Fock one center treatment
   AEXX    =    0.0000 exact exchange contribution

 Linear response parameters
   LEPSILON=     F    determine dielectric tensor
   LRPA    =     F    only Hartree local field effects (RPA)
   LNABLA  =     F    use nabla operator in PAW spheres
   LVEL    =     F    velocity operator in full k-point grid
   LINTERFAST=   F  fast interpolation
   KINTER  =     0    interpolate to denser k-point grid
   CSHIFT  =0.1000    complex shift for real part using Kramers Kronig
   OMEGAMAX=  -1.0    maximum frequency
   DEG_THRESHOLD= 0.2000000E-02 threshold for treating states as degnerate
   RTIME   =   -0.100 relaxation time in fs
  (WPLASMAI=    0.000 imaginary part of plasma frequency in eV, 0.658/RTIME)
   DFIELD  = 0.0000000 0.0000000 0.0000000 field for delta impulse in time
 
 Orbital magnetization related:
   ORBITALMAG=     F  switch on orbital magnetization
   LCHIMAG   =     F  perturbation theory with respect to B field
   DQ        =  0.001000  dq finite difference perturbation B field
   LLRAUG    =     F  two centre corrections for induced B field



--------------------------------------------------------------------------------------------------------


 conjugate gradient relaxation of ions
 charge density and potential will be updated during run
 non-spin polarized calculation
 Variant of blocked Davidson
 Davidson routine will perform the subspace rotation
 perform sub-space diagonalisation
    after iterative eigenvector-optimisation
 modified Broyden-mixing scheme, WC =      100.0
 initial mixing is a Kerker type mixing with AMIX =  0.4000 and BMIX =      1.0000
 Hartree-type preconditioning will be used
 using additional bands            4
 reciprocal scheme for non local part
 use partial core corrections
 calculate Harris-corrections to forces 
   (improved forces if not selfconsistent)
 use gradient corrections 
 use of overlap-Matrix (Vanderbilt PP)
 Gauss-broadening in eV      SIGMA  =   0.20


--------------------------------------------------------------------------------------------------------


  energy-cutoff  :      200.00
  volume of cell :       30.59
      direct lattice vectors                 reciprocal lattice vectors
    -2.450000000  2.450000000  1.274000000     0.000000000  0.204081633  0.392464678
     2.450000000 -2.450000000  1.274000000     0.204081633  0.000000000  0.392464678
     2.450000000  2.450000000 -1.274000000     0.204081633  0.204081633 -0.000000000

  length of vectors
     3.691622408  3.691622408  3.691622408     0.442354876  0.442354876  0.288615013


 
 k-points in units of 2pi/SCALE and weight: Automatic kpoint scheme                 
   0.00000000  0.00000000  0.00000000       0.008
   0.00000000  0.04081633  0.07849294       0.064
   0.00000000  0.08163265  0.15698587       0.064
   0.04081633  0.04081633  0.15698587       0.064
   0.04081633  0.08163265  0.23547881       0.128
   0.04081633 -0.08163265 -0.07849294       0.128
   0.04081633 -0.04081633  0.00000000       0.032
   0.08163265  0.08163265  0.31397174       0.064
   0.08163265 -0.08163265  0.00000000       0.032
   0.08163265  0.08163265  0.15698587       0.064
   0.08163265  0.00000000  0.00000000       0.032
   0.12244898 -0.04081633  0.00000000       0.064
   0.12244898  0.00000000  0.07849294       0.064
  -0.04081633 -0.04081633 -0.31397174       0.064
  -0.04081633  0.00000000 -0.23547881       0.064
   0.00000000  0.00000000 -0.15698587       0.016
   0.16326531  0.00000000  0.00000000       0.032
   0.00000000  0.00000000 -0.31397174       0.016
 
 k-points in reciprocal lattice and weights: Automatic kpoint scheme                 
   0.00000000  0.00000000  0.00000000       0.008
   0.20000000  0.00000000 -0.00000000       0.064
   0.40000000  0.00000000 -0.00000000       0.064
   0.20000000  0.20000000 -0.00000000       0.064
   0.40000000  0.20000000 -0.00000000       0.128
  -0.40000000  0.20000000  0.00000000       0.128
  -0.20000000  0.20000000  0.00000000       0.032
   0.40000000  0.40000000 -0.00000000       0.064
  -0.40000000  0.40000000  0.00000000       0.032
   0.20000000  0.20000000  0.20000000       0.064
  -0.20000000  0.20000000  0.20000000       0.032
  -0.40000000  0.40000000  0.20000000       0.064
  -0.20000000  0.40000000  0.20000000       0.064
  -0.40000000 -0.40000000  0.20000000       0.064
  -0.20000000 -0.40000000  0.20000000       0.064
  -0.20000000 -0.20000000  0.20000000       0.016
  -0.40000000  0.40000000  0.40000000       0.032
  -0.40000000 -0.40000000  0.40000000       0.016
 
 position of ions in fractional coordinates (direct lattice) 
   0.25000000  0.75000000  0.50000000
   0.00000000  0.00000000  0.00000000
 
 position of ions in cartesian coordinates  (Angst):
   2.45000000  0.00000000  0.63700000
   0.00000000  0.00000000  0.00000000
 


--------------------------------------------------------------------------------------------------------


 k-point  1 :   0.0000 0.0000 0.0000  plane waves:     183
 k-point  2 :   0.2000 0.0000-0.0000  plane waves:     194
 k-point  3 :   0.4000 0.0000-0.0000  plane waves:     201
 k-point  4 :   0.2000 0.2000-0.0000  plane waves:     198
 k-point  5 :   0.4000 0.2000-0.0000  plane waves:     198
 k-point  6 :  -0.4000 0.2000 0.0000  plane waves:     197
 k-point  7 :  -0.2000 0.2000 0.0000  plane waves:     192
 k-point  8 :   0.4000 0.4000-0.0000  plane waves:     200
 k-point  9 :  -0.4000 0.4000 0.0000  plane waves:     190
 k-point 10 :   0.2000 0.2000 0.2000  plane waves:     198
 k-point 11 :  -0.2000 0.2000 0.2000  plane waves:     198
 k-point 12 :  -0.4000 0.4000 0.2000  plane waves:     191
 k-point 13 :  -0.2000 0.4000 0.2000  plane waves:     192
 k-point 14 :  -0.4000-0.4000 0.2000  plane waves:     196
 k-point 15 :  -0.2000-0.4000 0.2000  plane waves:     195
 k-point 16 :  -0.2000-0.2000 0.2000  plane waves:     199
 k-point 17 :  -0.4000 0.4000 0.4000  plane waves:     198
 k-point 18 :  -0.4000-0.4000 0.4000  plane waves:     203

 maximum and minimum number of plane-waves per node :       203      183

 maximum number of plane-waves:       203
 maximum index in each direction: 
   IXMAX=    4   IYMAX=    4   IZMAX=    4
   IXMIN=   -4   IYMIN=   -4   IZMIN=   -4


 serial   3D FFT for wavefunctions
 parallel 3D FFT for charge:
    minimum data exchange during FFTs selected (reduces bandwidth)


 total amount of memory used by VASP MPI-rank0    30705. kBytes
=======================================================================

   base      :      30000. kBytes
   nonl-proj :        246. kBytes
   fftplans  :        119. kBytes
   grid      :        270. kBytes
   one-center:          6. kBytes
   wavefun   :         64. kBytes
 
     INWAV:  cpu time    0.0000: real time    0.0004
 Broyden mixing: mesh for mixing (old mesh)
   NGX =  9   NGY =  9   NGZ =  9
  (NGX  = 28   NGY  = 28   NGZ  = 28)
  gives a total of    729 points

 initial charge density was supplied:
 charge density of overlapping atoms calculated
 number of electron       8.0000000 magnetization 
 keeping initial charge density in first step


--------------------------------------------------------------------------------------------------------


 Maximum index for augmentation-charges          442 (set IRDMAX)


--------------------------------------------------------------------------------------------------------


 First call to EWALD:  gamma=   0.567
 Maximum number of real-space cells 4x 4x 3
 Maximum number of reciprocal cells 3x 3x 3

    FEWALD:  cpu time    0.0080: real time    0.0071


--------------------------------------- Iteration      1(   1)  ---------------------------------------


    POTLOK:  cpu time    0.0280: real time    0.0457
    SETDIJ:  cpu time    0.0080: real time    0.0092
     EDDAV:  cpu time    0.1520: real time    0.1548
       DOS:  cpu time    0.0000: real time    0.0022
    --------------------------------------------
      LOOP:  cpu time    0.1880: real time    0.2128

 eigenvalue-minimisations  :   296
 total energy-change (2. order) :-0.2865475E+01  (-0.2031349E+03)
 number of electron       8.0000000 magnetization 
 augmentation part        8.0000000 magnetization 

 Free energy of the ion-electron system (eV)
  ---------------------------------------------------
  alpha Z        PSCENC =         4.40202223
  Ewald energy   TEWEN  =      -265.18101312
  -Hartree energ DENC   =        -2.30415367
  -exchange      EXHF   =         0.00000000
  -V(xc)+E(xc)   XCENC  =       -17.81545108
  PAW double counting   =        65.95520812      -30.76852678
  entropy T*S    EENTRO =        -0.01589035
  eigenvalues    EBANDS =        36.74985708
  atomic energy  EATOM  =       206.11247263
  Solvation  Ediel_sol  =         0.00000000
  ---------------------------------------------------
  free energy    TOTEN  =        -2.86547494 eV

  energy without entropy =       -2.84958459  energy(sigma->0) =       -2.85752976


--------------------------------------------------------------------------------------------------------




--------------------------------------- Iteration      1(   2)  ---------------------------------------


     EDDAV:  cpu time    0.2280: real time    0.2359
       DOS:  cpu time    0.0000: real time    0.0019
    --------------------------------------------
      LOOP:  cpu time    0.2280: real time    0.2376

 eigenvalue-minimisations  :   440
 total energy-change (2. order) :-0.7290429E+01  (-0.6542524E+01)
 number of electron       8.0000000 magnetization 
 augmentation part        8.0000000 magnetization 

 Free energy of the ion-electron system (eV)
  ---------------------------------------------------
  alpha Z        PSCENC =         4.40202223
  Ewald energy   TEWEN  =      -265.18101312
  -Hartree energ DENC   =        -2.30415367
  -exchange      EXHF   =         0.00000000
  -V(xc)+E(xc)   XCENC  =       -17.81545108
  PAW double counting   =        65.95520812      -30.76852678
  entropy T*S    EENTRO =        -0.01637054
  eigenvalues    EBANDS =        29.45990857
  atomic energy  EATOM  =       206.11247263
  Solvation  Ediel_sol  =         0.00000000
  ---------------------------------------------------
  free energy    TOTEN  =       -10.15590365 eV

  energy without entropy =      -10.13953310  energy(sigma->0) =      -10.14771837


--------------------------------------------------------------------------------------------------------




--------------------------------------- Iteration      1(   3)  ---------------------------------------


     EDDAV:  cpu time    0.1680: real time    0.1738
       DOS:  cpu time    0.0040: real time    0.0020
    --------------------------------------------
      LOOP:  cpu time    0.1720: real time    0.1758

 eigenvalue-minimisations  :   336
 total energy-change (2. order) :-0.5239054E-01  (-0.5210324E-01)
 number of electron       8.0000000 magnetization 
 augmentation part        8.0000000 magnetization 

 Free energy of the ion-electron system (eV)
  ---------------------------------------------------
  alpha Z        PSCENC =         4.40202223
  Ewald energy   TEWEN  =      -265.18101312
  -Hartree energ DENC   =        -2.30415367
  -exchange      EXHF   =         0.00000000
  -V(xc)+E(xc)   XCENC  =       -17.81545108
  PAW double counting   =        65.95520812      -30.76852678
  entropy T*S    EENTRO =        -0.01879573
  eigenvalues    EBANDS =        29.40994322
  atomic energy  EATOM  =       206.11247263
  Solvation  Ediel_sol  =         0.00000000
  ---------------------------------------------------
  free energy    TOTEN  =       -10.20829418 eV

  energy without entropy =      -10.18949845  energy(sigma->0) =      -10.19889631


--------------------------------------------------------------------------------------------------------




--------------------------------------- Iteration      1(   4)  ---------------------------------------


     EDDAV:  cpu time    0.2520: real time    0.2571
       DOS:  cpu time    0.0000: real time    0.0019
    --------------------------------------------
      LOOP:  cpu time    0.2520: real time    0.2590

 eigenvalue-minimisations  :   480
 total energy-change (2. order) :-0.8243571E-04  (-0.8243456E-04)
 number of electron       8.0000000 magnetization 
 augmentation part        8.0000000 magnetization 

 Free energy of the ion-electron system (eV)
  ---------------------------------------------------
  alpha Z        PSCENC =         4.40202223
  Ewald energy   TEWEN  =      -265.18101312
  -Hartree energ DENC   =        -2.30415367
  -exchange      EXHF   =         0.00000000
  -V(xc)+E(xc)   XCENC  =       -17.81545108
  PAW double counting   =        65.95520812      -30.76852678
  entropy T*S    EENTRO =        -0.01879461
  eigenvalues    EBANDS =        29.40985966
  atomic energy  EATOM  =       206.11247263
  Solvation  Ediel_sol  =         0.00000000
  ---------------------------------------------------
  free energy    TOTEN  =       -10.20837662 eV

  energy without entropy =      -10.18958201  energy(sigma->0) =      -10.19897931


--------------------------------------------------------------------------------------------------------




--------------------------------------- Iteration      1(   5)  ---------------------------------------


     EDDAV:  cpu time    0.1680: real time    0.1730
       DOS:  cpu time    0.0040: real time    0.0020
    CHARGE:  cpu time    0.0080: real time    0.0107
    MIXING:  cpu time    0.0040: real time    0.0019
    --------------------------------------------
      LOOP:  cpu time    0.1840: real time    0.1876

 eigenvalue-minimisations  :   328
 total energy-change (2. order) :-0.6860449E-07  (-0.6929790E-07)
 number of electron       7.9999993 magnetization 
 augmentation part       -0.4693238 magnetization 

 Broyden mixing:
  rms(total) = 0.14616E+00    rms(broyden)= 0.14615E+00
  rms(prec ) = 0.32808E+00
  weight for this iteration     100.00

 Free energy of the ion-electron system (eV)
  ---------------------------------------------------
  alpha Z        PSCENC =         4.40202223
  Ewald energy   TEWEN  =      -265.18101312
  -Hartree energ DENC   =        -2.30415367
  -exchange      EXHF   =         0.00000000
  -V(xc)+E(xc)   XCENC  =       -17.81545108
  PAW double counting   =        65.95520812      -30.76852678
  entropy T*S    EENTRO =        -0.01879461
  eigenvalues    EBANDS =        29.40985959
  atomic energy  EATOM  =       206.11247263
  Solvation  Ediel_sol  =         0.00000000
  ---------------------------------------------------
  free energy    TOTEN  =       -10.20837668 eV

  energy without entropy =      -10.18958208  energy(sigma->0) =      -10.19897938


--------------------------------------------------------------------------------------------------------




--------------------------------------- Iteration      1(   6)  ---------------------------------------


    POTLOK:  cpu time    0.0160: real time    0.0303
    SETDIJ:  cpu time    0.0080: real time    0.0086
     EDDAV:  cpu time    0.1920: real time    0.1902
       DOS:  cpu time    0.0000: real time    0.0021
    CHARGE:  cpu time    0.0080: real time    0.0096
    MIXING:  cpu time    0.0040: real time    0.0017
    --------------------------------------------
      LOOP:  cpu time    0.2280: real time    0.2426

 eigenvalue-minimisations  :   384
 total energy-change (2. order) : 0.6487763E-02  (-0.1855691E-03)
 number of electron       7.9999993 magnetization 
 augmentation part       -0.4710021 magnetization 

 Broyden mixing:
  rms(total) = 0.91396E-01    rms(broyden)= 0.91395E-01
  rms(prec ) = 0.20534E+00
  weight for this iteration     100.00

 eigenvalues of (default mixing * dielectric matrix)
  average eigenvalue GAMMA=   2.6642
  2.6642

 Free energy of the ion-electron system (eV)
  ---------------------------------------------------
  alpha Z        PSCENC =         4.40202223
  Ewald energy   TEWEN  =      -265.18101312
  -Hartree energ DENC   =        -2.32803913
  -exchange      EXHF   =         0.00000000
  -V(xc)+E(xc)   XCENC  =       -17.72802427
  PAW double counting   =        68.13360996      -32.98702723
  entropy T*S    EENTRO =        -0.01891366
  eigenvalues    EBANDS =        29.39302366
  atomic energy  EATOM  =       206.11247263
  Solvation  Ediel_sol  =         0.00000000
  ---------------------------------------------------
  free energy    TOTEN  =       -10.20188892 eV

  energy without entropy =      -10.18297526  energy(sigma->0) =      -10.19243209


--------------------------------------------------------------------------------------------------------




--------------------------------------- Iteration      1(   7)  ---------------------------------------


    POTLOK:  cpu time    0.0160: real time    0.0241
    SETDIJ:  cpu time    0.0080: real time    0.0086
     EDDAV:  cpu time    0.1400: real time    0.1365
       DOS:  cpu time    0.0000: real time    0.0020
    CHARGE:  cpu time    0.0080: real time    0.0095
    MIXING:  cpu time    0.0040: real time    0.0014
    --------------------------------------------
      LOOP:  cpu time    0.1760: real time    0.1830

 eigenvalue-minimisations  :   288
 total energy-change (2. order) : 0.4933881E-02  (-0.5407259E-03)
 number of electron       7.9999993 magnetization 
 augmentation part       -0.4740977 magnetization 

 Broyden mixing:
  rms(total) = 0.34586E-02    rms(broyden)= 0.34544E-02
  rms(prec ) = 0.91023E-02
  weight for this iteration     100.00

 eigenvalues of (default mixing * dielectric matrix)
  average eigenvalue GAMMA=   2.6081
  2.6081  2.6081

 Free energy of the ion-electron system (eV)
  ---------------------------------------------------
  alpha Z        PSCENC =         4.40202223
  Ewald energy   TEWEN  =      -265.18101312
  -Hartree energ DENC   =        -2.46141545
  -exchange      EXHF   =         0.00000000
  -V(xc)+E(xc)   XCENC  =       -17.56722402
  PAW double counting   =        71.64339695      -36.56565713
  entropy T*S    EENTRO =        -0.01909380
  eigenvalues    EBANDS =        29.43955667
  atomic energy  EATOM  =       206.11247263
  Solvation  Ediel_sol  =         0.00000000
  ---------------------------------------------------
  free energy    TOTEN  =       -10.19695504 eV

  energy without entropy =      -10.17786124  energy(sigma->0) =      -10.18740814


--------------------------------------------------------------------------------------------------------




--------------------------------------- Iteration      1(   8)  ---------------------------------------


    POTLOK:  cpu time    0.0160: real time    0.0264
    SETDIJ:  cpu time    0.0080: real time    0.0086
     EDDAV:  cpu time    0.1240: real time    0.1213
       DOS:  cpu time    0.0000: real time    0.0019
    --------------------------------------------
      LOOP:  cpu time    0.1480: real time    0.1573

 eigenvalue-minimisations  :   224
 total energy-change (2. order) : 0.2061308E-04  (-0.9030898E-05)
 number of electron       7.9999993 magnetization 
 augmentation part       -0.4740977 magnetization 

 Free energy of the ion-electron system (eV)
  ---------------------------------------------------
  alpha Z        PSCENC =         4.40202223
  Ewald energy   TEWEN  =      -265.18101312
  -Hartree energ DENC   =        -2.48243227
  -exchange      EXHF   =         0.00000000
  -V(xc)+E(xc)   XCENC  =       -17.56746564
  PAW double counting   =        71.44191625      -36.36485321
  entropy T*S    EENTRO =        -0.01906260
  eigenvalues    EBANDS =        29.46148130
  atomic energy  EATOM  =       206.11247263
  Solvation  Ediel_sol  =         0.00000000
  ---------------------------------------------------
  free energy    TOTEN  =       -10.19693443 eV

  energy without entropy =      -10.17787182  energy(sigma->0) =      -10.18740313


--------------------------------------------------------------------------------------------------------




 average (electrostatic) potential at core
  the test charge radii are     0.9892
  (the norm of the test charge is              1.0000)
       1 -80.5488       2 -80.5488
 
 
 
 E-fermi :   9.1676     XC(G=0): -10.8942     alpha+bet :-15.6819


 k-point     1 :       0.0000    0.0000    0.0000
  band No.  band energies     occupation 
      1      -4.6160      2.00000
      2       6.1960      2.00000
      3       6.3020      2.00000
      4       6.3020      2.00000
      5      10.6017      0.00000
      6      16.9501      0.00000
      7      17.3752      0.00000
      8      17.3753      0.00000

 k-point     2 :       0.2000    0.0000   -0.0000
  band No.  band energies     occupation 
      1      -3.4892      2.00000
      2       5.0285      2.00000
      3       6.2854      2.00000
      4       9.3163      0.29303
      5      12.6912      0.00000
      6      12.8483      0.00000
      7      13.4550      0.00000
      8      15.5307      0.00000

 k-point     3 :       0.4000    0.0000   -0.0000
  band No.  band energies     occupation 
      1      -0.1571      2.00000
      2       5.1789      2.00000
      3       6.0114      2.00000
      4       7.2645      2.00000
      5       8.9617      1.85463
      6      11.4191      0.00000
      7      13.6824      0.00000
      8      14.3317      0.00000

 k-point     4 :       0.2000    0.2000   -0.0000
  band No.  band energies     occupation 
      1      -0.6195      2.00000
      2       6.0029      2.00000
      3       6.8976      2.00000
      4       6.9392      2.00000
      5       9.7527      0.00004
      6      11.8737      0.00000
      7      12.4406      0.00000
      8      12.7078      0.00000

 k-point     5 :       0.4000    0.2000   -0.0000
  band No.  band energies     occupation 
      1       1.2131      2.00000
      2       3.3953      2.00000
      3       4.4739      2.00000
      4       7.7149      2.00000
      5       9.0560      1.56994
      6      11.0486      0.00000
      7      13.9060      0.00000
      8      16.2792      0.00000

 k-point     6 :      -0.4000    0.2000    0.0000
  band No.  band energies     occupation 
      1      -2.5454      2.00000
      2       2.0347      2.00000
      3       6.7542      2.00000
      4      10.4626      0.00000
      5      11.1150      0.00000
      6      12.3172      0.00000
      7      14.0162      0.00000
      8      15.9236      0.00000

 k-point     7 :      -0.2000    0.2000    0.0000
  band No.  band energies     occupation 
      1      -4.1401      2.00000
      2       2.7438      2.00000
      3       6.7454      2.00000
      4       8.3777      2.00000
      5      13.2136      0.00000
      6      13.3389      0.00000
      7      15.0559      0.00000
      8      19.2783      0.00000

 k-point     8 :       0.4000    0.4000   -0.0000
  band No.  band energies     occupation 
      1      -0.6818      2.00000
      2      -0.6782      2.00000
      3       8.4318      2.00000
      4       8.4950      2.00000
      5      10.7010      0.00000
      6      13.2264      0.00000
      7      13.6157      0.00000
      8      14.0792      0.00000

 k-point     9 :      -0.4000    0.4000    0.0000
  band No.  band energies     occupation 
      1      -2.7214      2.00000
      2      -0.3952      2.00000
      3       8.0750      2.00000
      4       9.9736      0.00000
      5      10.2822      0.00000
      6      12.2108      0.00000
      7      18.1903      0.00000
      8      18.8329      0.00000

 k-point    10 :       0.2000    0.2000    0.2000
  band No.  band energies     occupation 
      1       0.7676      2.00000
      2       3.0284      2.00000
      3       6.1270      2.00000
      4       6.1500      2.00000
      5      11.3758      0.00000
      6      13.0968      0.00000
      7      14.0337      0.00000
      8      14.4850      0.00000

 k-point    11 :      -0.2000    0.2000    0.2000
  band No.  band energies     occupation 
      1      -3.6670      2.00000
      2       2.5751      2.00000
      3       4.1987      2.00000
      4      10.2449      0.00000
      5      11.4662      0.00000
      6      14.5208      0.00000
      7      17.7157      0.00000
      8      18.1600      0.00000

 k-point    12 :      -0.4000    0.4000    0.2000
  band No.  band energies     occupation 
      1      -2.2608      2.00000
      2       0.0195      2.00000
      3       4.9581      2.00000
      4       7.1706      2.00000
      5      13.6350      0.00000
      6      15.6874      0.00000
      7      17.8678      0.00000
      8      18.1036      0.00000

 k-point    13 :      -0.2000    0.4000    0.2000
  band No.  band energies     occupation 
      1      -1.6169      2.00000
      2       2.2649      2.00000
      3       3.9897      2.00000
      4       7.7416      2.00000
      5      10.0179      0.00000
      6      15.5209      0.00000
      7      16.3155      0.00000
      8      17.2863      0.00000

 k-point    14 :      -0.4000   -0.4000    0.2000
  band No.  band energies     occupation 
      1       0.1838      2.00000
      2       0.1957      2.00000
      3       5.1358      2.00000
      4       5.1398      2.00000
      5       9.6092      0.00179
      6      16.2265      0.00000
      7      17.6627      0.00000
      8      18.4893      0.00000

 k-point    15 :      -0.2000   -0.4000    0.2000
  band No.  band energies     occupation 
      1       2.4718      2.00000
      2       3.4307      2.00000
      3       4.2986      2.00000
      4       5.7963      2.00000
      5       7.3088      2.00000
      6      12.1463      0.00000
      7      13.5423      0.00000
      8      16.1791      0.00000

 k-point    16 :      -0.2000   -0.2000    0.2000
  band No.  band energies     occupation 
      1      -1.0873      2.00000
      2       7.7768      2.00000
      3       8.1101      2.00000
      4       8.4533      2.00000
      5       8.4533      2.00000
      6      10.0926      0.00000
      7      11.5967      0.00000
      8      11.5967      0.00000

 k-point    17 :      -0.4000    0.4000    0.4000
  band No.  band energies     occupation 
      1      -0.9182      2.00000
      2       0.6910      2.00000
      3       2.5059      2.00000
      4       4.0906      2.00000
      5      16.1965      0.00000
      6      16.5286      0.00000
      7      19.0056      0.00000
      8      20.3108      0.00000

 k-point    18 :      -0.4000   -0.4000    0.4000
  band No.  band energies     occupation 
      1       1.3125      2.00000
      2       1.3362      2.00000
      3       3.1274      2.00000
      4       3.1274      2.00000
      5       9.1957      0.84256
      6      18.4151      0.00000
      7      19.6209      0.00000
      8      19.6210      0.00000


--------------------------------------------------------------------------------------------------------


 soft charge-density along one line, spin component           1
         0         1         2         3         4         5         6         7         8         9
 total charge-density along one line
 
 pseudopotential strength for first ion, spin component:           1
 18.067  -0.003   0.000  -0.000  -0.000  -0.000   0.000   0.000
 -0.003   0.005  -0.000   0.000   0.000   0.000  -0.000  -0.000
  0.000  -0.000   4.117   0.000   0.000  -0.006  -0.000  -0.000
 -0.000   0.000   0.000   4.118   0.000  -0.000  -0.006  -0.000
 -0.000   0.000   0.000   0.000   4.117  -0.000  -0.000  -0.006
 -0.000   0.000  -0.006  -0.000  -0.000   0.005   0.000   0.000
  0.000  -0.000  -0.000  -0.006  -0.000   0.000   0.005   0.000
  0.000  -0.000  -0.000  -0.000  -0.006   0.000   0.000   0.005
 total augmentation occupancy for first ion, spin component:           1
  1.627  -0.618  -0.000   0.000   0.000   0.000   0.000   0.000
 -0.618   1.089   0.000   0.000   0.000   0.000   0.000  -0.000
 -0.000  -0.000   0.894   0.000  -0.000  -0.634  -0.000   0.000
  0.000   0.000   0.000   0.837   0.000   0.000  -0.631  -0.000
  0.000   0.000  -0.000   0.000   0.894   0.000  -0.000  -0.634
  0.000   0.000  -0.634   0.000   0.000   0.533   0.000  -0.000
  0.000   0.000  -0.000  -0.631  -0.000  -0.000   0.575  -0.000
  0.000  -0.000   0.000  -0.000  -0.634  -0.000  -0.000   0.533


------------------------ aborting loop because EDIFF is reached ----------------------------------------


    CHARGE:  cpu time    0.0080: real time    0.0089
    FORLOC:  cpu time    0.0000: real time    0.0005
    FORNL :  cpu time    0.0080: real time    0.0076
    STRESS:  cpu time    0.0440: real time    0.0450
    FORCOR:  cpu time    0.0120: real time    0.0124
    FORHAR:  cpu time    0.0040: real time    0.0035
    MIXING:  cpu time    0.0040: real time    0.0010
    OFIELD:  cpu time    0.0000: real time    0.0005

  FORCE on cell =-STRESS in cart. coord.  units (eV):
  Direction    XX          YY          ZZ          XY          YZ          ZX
  --------------------------------------------------------------------------------------
  Alpha Z     4.40202     4.40202     4.40202
  Ewald     -90.96023   -90.96023   -83.26083    -0.00000     0.00000     0.00000
  Hartree     0.55055     0.55055     1.38436     0.00000     0.00000     0.00000
  E(xc)     -25.44219   -25.44219   -25.38918     0.00002     0.00001     0.00001
  Local     -11.42384   -11.42384   -17.44540    -0.00005    -0.00005    -0.00005
  n-local    77.19343    77.48019    77.03103     1.05915    -0.49002    -0.37986
  augment   -12.11368   -12.11368   -11.94902     0.00005     0.00005     0.00005
  Kinetic    63.65262    52.71533    54.51994     5.01058    -4.08000    -5.33965
  Fock        0.00000     0.00000     0.00000     0.00000     0.00000     0.00000
  -------------------------------------------------------------------------------------
  Total       0.53342     0.53342    -0.70709    -0.00000     0.00000     0.00000
  in kB      27.93948    27.93948   -37.03577    -0.00000     0.00000     0.00000
  external pressure =        6.28 kB  Pullay stress =        0.00 kB


 VOLUME and BASIS-vectors are now :
 -----------------------------------------------------------------------------
  energy-cutoff  :      200.00
  volume of cell :       30.59
      direct lattice vectors                 reciprocal lattice vectors
    -2.450000000  2.450000000  1.274000000     0.000000000  0.204081633  0.392464678
     2.450000000 -2.450000000  1.274000000     0.204081633  0.000000000  0.392464678
     2.450000000  2.450000000 -1.274000000     0.204081633  0.204081633 -0.000000000

  length of vectors
     3.691622408  3.691622408  3.691622408     0.442354876  0.442354876  0.288615013


 FORCES acting on ions
    electron-ion (+dipol)            ewald-force                    non-local-force                 convergence-correction
 -----------------------------------------------------------------------------------------------
   0.932E-06 -.932E-06 0.697E-15   0.198E-14 0.156E-15 0.342E-17   0.397E-16 -.891E-17 -.240E-17   -.345E-07 0.345E-07 0.226E-16
   -.932E-06 0.932E-06 0.453E-14   -.185E-14 0.943E-16 0.891E-15   -.760E-16 0.281E-16 -.174E-17   0.345E-07 -.345E-07 -.130E-16
 -----------------------------------------------------------------------------------------------
   -.160E-13 0.123E-13 0.523E-14   0.139E-15 0.250E-15 0.894E-15   -.363E-16 0.192E-16 -.414E-17   0.978E-16 0.774E-16 0.957E-17
 
 
 POSITION                                       TOTAL-FORCE (eV/Angst)
 -----------------------------------------------------------------------------------
      2.45000      0.00000      0.63700        -0.000000      0.000000     -0.000000
      0.00000      0.00000      0.00000         0.000000     -0.000000      0.000000
 -----------------------------------------------------------------------------------
    total drift:                               -0.000000      0.000000      0.000000


--------------------------------------------------------------------------------------------------------



  FREE ENERGIE OF THE ION-ELECTRON SYSTEM (eV)
  ---------------------------------------------------
  free  energy   TOTEN  =       -10.19693443 eV

  energy  without entropy=      -10.17787182  energy(sigma->0) =      -10.18740313
 


--------------------------------------------------------------------------------------------------------


    POTLOK:  cpu time    0.0280: real time    0.0434


--------------------------------------------------------------------------------------------------------




--------------------------------------------------------------------------------------------------------


    WAVPRE:  cpu time    0.4600: real time    0.6974
    FEWALD:  cpu time    0.0000: real time    0.0008
    GENKIN:  cpu time    0.0040: real time    0.0060
    ORTHCH:  cpu time    0.0120: real time    0.0112
     LOOP+:  cpu time    2.2120: real time    2.5907


--------------------------------------- Iteration      2(   1)  ---------------------------------------


    POTLOK:  cpu time    0.0160: real time    0.0240
    SETDIJ:  cpu time    0.0120: real time    0.0086
     EDDAV:  cpu time    0.2080: real time    0.2111
       DOS:  cpu time    0.0040: real time    0.0019
    CHARGE:  cpu time    0.0080: real time    0.0094
    MIXING:  cpu time    0.0000: real time    0.0014
    --------------------------------------------
      LOOP:  cpu time    0.2480: real time    0.2575

 eigenvalue-minimisations  :   424
 total energy-change (2. order) :-0.3194843E-01  (-0.6751705E-01)
 number of electron       8.0000012 magnetization 
 augmentation part       -0.4744246 magnetization 

 Broyden mixing:
  rms(total) = 0.55461E-01    rms(broyden)= 0.55441E-01
  rms(prec ) = 0.16642E+00
  weight for this iteration     100.00

 Free energy of the ion-electron system (eV)
  ---------------------------------------------------
  alpha Z        PSCENC =         4.36534650
  Ewald energy   TEWEN  =      -264.23604872
  -Hartree energ DENC   =        -2.49531958
  -exchange      EXHF   =         0.00000000
  -V(xc)+E(xc)   XCENC  =       -17.60857575
  PAW double counting   =        71.44851562      -36.37179710
  entropy T*S    EENTRO =        -0.02461457
  eigenvalues    EBANDS =        28.58111750
  atomic energy  EATOM  =       206.11247263
  Solvation  Ediel_sol  =         0.00000000
  ---------------------------------------------------
  free energy    TOTEN  =       -10.22890347 eV

  energy without entropy =      -10.20428890  energy(sigma->0) =      -10.21659619


--------------------------------------------------------------------------------------------------------




--------------------------------------- Iteration      2(   2)  ---------------------------------------


    POTLOK:  cpu time    0.0200: real time    0.0258
    SETDIJ:  cpu time    0.0080: real time    0.0086
     EDDAV:  cpu time    0.1520: real time    0.1540
       DOS:  cpu time    0.0040: real time    0.0020
    CHARGE:  cpu time    0.0080: real time    0.0094
    MIXING:  cpu time    0.0000: real time    0.0011
    --------------------------------------------
      LOOP:  cpu time    0.1920: real time    0.2013

 eigenvalue-minimisations  :   320
 total energy-change (2. order) : 0.9071338E-02  (-0.1478843E-02)
 number of electron       8.0000012 magnetization 
 augmentation part       -0.4745502 magnetization 

 Broyden mixing:
  rms(total) = 0.30931E-01    rms(broyden)= 0.30930E-01
  rms(prec ) = 0.92906E-01
  weight for this iteration     100.00

 eigenvalues of (default mixing * dielectric matrix)
  average eigenvalue GAMMA=   2.2558
  2.2558

 Free energy of the ion-electron system (eV)
  ---------------------------------------------------
  alpha Z        PSCENC =         4.36534650
  Ewald energy   TEWEN  =      -264.23604872
  -Hartree energ DENC   =        -2.55452022
  -exchange      EXHF   =         0.00000000
  -V(xc)+E(xc)   XCENC  =       -17.60573912
  PAW double counting   =        71.45259005      -36.37608944
  entropy T*S    EENTRO =        -0.02489352
  eigenvalues    EBANDS =        28.64704971
  atomic energy  EATOM  =       206.11247263
  Solvation  Ediel_sol  =         0.00000000
  ---------------------------------------------------
  free energy    TOTEN  =       -10.21983213 eV

  energy without entropy =      -10.19493861  energy(sigma->0) =      -10.20738537


--------------------------------------------------------------------------------------------------------




--------------------------------------- Iteration      2(   3)  ---------------------------------------


    POTLOK:  cpu time    0.0200: real time    0.0282
    SETDIJ:  cpu time    0.0080: real time    0.0087
     EDDAV:  cpu time    0.1960: real time    0.1950
       DOS:  cpu time    0.0000: real time    0.0020
    CHARGE:  cpu time    0.0120: real time    0.0093
    MIXING:  cpu time    0.0000: real time    0.0012
    --------------------------------------------
      LOOP:  cpu time    0.2360: real time    0.2438

 eigenvalue-minimisations  :   392
 total energy-change (2. order) : 0.4277036E-02  (-0.1212041E-02)
 number of electron       8.0000012 magnetization 
 augmentation part       -0.4737894 magnetization 

 Broyden mixing:
  rms(total) = 0.28343E-02    rms(broyden)= 0.28340E-02
  rms(prec ) = 0.67749E-02
  weight for this iteration     100.00

 eigenvalues of (default mixing * dielectric matrix)
  average eigenvalue GAMMA=   1.3651
  2.2109  0.5192

 Free energy of the ion-electron system (eV)
  ---------------------------------------------------
  alpha Z        PSCENC =         4.36534650
  Ewald energy   TEWEN  =      -264.23604872
  -Hartree energ DENC   =        -2.64436840
  -exchange      EXHF   =         0.00000000
  -V(xc)+E(xc)   XCENC  =       -17.60102195
  PAW double counting   =        71.42855212      -36.35174988
  entropy T*S    EENTRO =        -0.02519360
  eigenvalues    EBANDS =        28.73645621
  atomic energy  EATOM  =       206.11247263
  Solvation  Ediel_sol  =         0.00000000
  ---------------------------------------------------
  free energy    TOTEN  =       -10.21555510 eV

  energy without entropy =      -10.19036150  energy(sigma->0) =      -10.20295830


--------------------------------------------------------------------------------------------------------




--------------------------------------- Iteration      2(   4)  ---------------------------------------


    POTLOK:  cpu time    0.0160: real time    0.0258
    SETDIJ:  cpu time    0.0120: real time    0.0086
     EDDAV:  cpu time    0.0840: real time    0.0842
       DOS:  cpu time    0.0000: real time    0.0020
    --------------------------------------------
      LOOP:  cpu time    0.1120: real time    0.1204

 eigenvalue-minimisations  :   152
 total energy-change (2. order) :-0.2261392E-04  (-0.3678677E-04)
 number of electron       8.0000012 magnetization 
 augmentation part       -0.4737894 magnetization 

 Free energy of the ion-electron system (eV)
  ---------------------------------------------------
  alpha Z        PSCENC =         4.36534650
  Ewald energy   TEWEN  =      -264.23604872
  -Hartree energ DENC   =        -2.64248700
  -exchange      EXHF   =         0.00000000
  -V(xc)+E(xc)   XCENC  =       -17.60130438
  PAW double counting   =        71.41476340      -36.33743436
  entropy T*S    EENTRO =        -0.02518521
  eigenvalues    EBANDS =        28.73429943
  atomic energy  EATOM  =       206.11247263
  Solvation  Ediel_sol  =         0.00000000
  ---------------------------------------------------
  free energy    TOTEN  =       -10.21557771 eV

  energy without entropy =      -10.19039250  energy(sigma->0) =      -10.20298511


--------------------------------------------------------------------------------------------------------




 average (electrostatic) potential at core
  the test charge radii are     0.9892
  (the norm of the test charge is              1.0000)
       1 -80.6637       2 -80.6637
 
 
 
 E-fermi :   9.0299     XC(G=0): -10.8565     alpha+bet :-15.5513


 k-point     1 :       0.0000    0.0000    0.0000
  band No.  band energies     occupation 
      1      -4.6610      2.00000
      2       5.6396      2.00000
      3       6.0531      2.00000
      4       6.0531      2.00000
      5      10.4360      0.00000
      6      16.7345      0.00000
      7      16.8397      0.00000
      8      16.8397      0.00000

 k-point     2 :       0.2000    0.0000   -0.0000
  band No.  band energies     occupation 
      1      -3.5087      2.00000
      2       4.6991      2.00000
      3       6.1215      2.00000
      4       8.9404      1.47329
      5      12.5213      0.00000
      6      13.0551      0.00000
      7      13.3998      0.00000
      8      15.3608      0.00000

 k-point     3 :       0.4000    0.0000   -0.0000
  band No.  band energies     occupation 
      1      -0.0994      2.00000
      2       5.3403      2.00000
      3       5.7853      2.00000
      4       7.2772      2.00000
      5       8.9254      1.53980
      6      11.5118      0.00000
      7      13.4725      0.00000
      8      14.1065      0.00000

 k-point     4 :       0.2000    0.2000   -0.0000
  band No.  band energies     occupation 
      1      -0.5490      2.00000
      2       5.8850      2.00000
      3       6.9823      2.00000
      4       6.9827      2.00000
      5       9.6598      0.00001
      6      11.6586      0.00000
      7      12.4457      0.00000
      8      12.6516      0.00000

 k-point     5 :       0.4000    0.2000   -0.0000
  band No.  band energies     occupation 
      1       1.2328      2.00000
      2       3.3646      2.00000
      3       4.6131      2.00000
      4       7.6687      2.00000
      5       8.9860      1.24342
      6      10.9219      0.00000
      7      13.8597      0.00000
      8      16.0126      0.00000

 k-point     6 :      -0.4000    0.2000    0.0000
  band No.  band energies     occupation 
      1      -2.5918      2.00000
      2       1.8458      2.00000
      3       6.5435      2.00000
      4      10.3701      0.00000
      5      10.8093      0.00000
      6      12.2976      0.00000
      7      14.1877      0.00000
      8      15.5385      0.00000

 k-point     7 :      -0.2000    0.2000    0.0000
  band No.  band energies     occupation 
      1      -4.1985      2.00000
      2       2.4730      2.00000
      3       6.4879      2.00000
      4       7.9541      2.00000
      5      12.9209      0.00000
      6      12.9778      0.00000
      7      14.5305      0.00000
      8      19.8351      0.00000

 k-point     8 :       0.4000    0.4000   -0.0000
  band No.  band energies     occupation 
      1      -0.7824      2.00000
      2      -0.7800      2.00000
      3       8.1885      2.00000
      4       8.2610      2.00000
      5      10.8522      0.00000
      6      12.8001      0.00000
      7      13.7939      0.00000
      8      13.8578      0.00000

 k-point     9 :      -0.4000    0.4000    0.0000
  band No.  band energies     occupation 
      1      -2.8202      2.00000
      2      -0.5626      2.00000
      3       7.7926      2.00000
      4       9.5400      0.00031
      5       9.9616      0.00000
      6      11.7341      0.00000
      7      17.8842      0.00000
      8      19.4130      0.00000

 k-point    10 :       0.2000    0.2000    0.2000
  band No.  band energies     occupation 
      1       0.7995      2.00000
      2       2.9967      2.00000
      3       6.2428      2.00000
      4       6.2536      2.00000
      5      11.2070      0.00000
      6      12.8354      0.00000
      7      13.7815      0.00000
      8      14.2692      0.00000

 k-point    11 :      -0.2000    0.2000    0.2000
  band No.  band energies     occupation 
      1      -3.7391      2.00000
      2       2.2553      2.00000
      3       4.0465      2.00000
      4       9.8893      0.00000
      5      10.9712      0.00000
      6      14.2236      0.00000
      7      17.6025      0.00000
      8      17.9031      0.00000

 k-point    12 :      -0.4000    0.4000    0.2000
  band No.  band energies     occupation 
      1      -2.3748      2.00000
      2      -0.1705      2.00000
      3       4.7330      2.00000
      4       6.8821      2.00000
      5      13.1765      0.00000
      6      15.3127      0.00000
      7      18.1753      0.00000
      8      18.4978      0.00000

 k-point    13 :      -0.2000    0.4000    0.2000
  band No.  band energies     occupation 
      1      -1.6920      2.00000
      2       2.0091      2.00000
      3       3.9047      2.00000
      4       7.5033      2.00000
      5      10.3326      0.00000
      6      15.1029      0.00000
      7      16.3242      0.00000
      8      17.3500      0.00000

 k-point    14 :      -0.4000   -0.4000    0.2000
  band No.  band energies     occupation 
      1       0.0475      2.00000
      2       0.0551      2.00000
      3       4.9643      2.00000
      4       4.9673      2.00000
      5       9.9647      0.00000
      6      16.3298      0.00000
      7      17.2241      0.00000
      8      17.9741      0.00000

 k-point    15 :      -0.2000   -0.4000    0.2000
  band No.  band energies     occupation 
      1       2.4740      2.00000
      2       3.5963      2.00000
      3       4.1406      2.00000
      4       5.8331      2.00000
      5       7.2311      2.00000
      6      12.0175      0.00000
      7      13.5670      0.00000
      8      15.9823      0.00000

 k-point    16 :      -0.2000   -0.2000    0.2000
  band No.  band energies     occupation 
      1      -1.0038      2.00000
      2       7.6032      2.00000
      3       8.0793      2.00000
      4       8.5114      1.99975
      5       8.5114      1.99975
      6       9.8603      0.00000
      7      11.5499      0.00000
      8      11.5499      0.00000

 k-point    17 :      -0.4000    0.4000    0.4000
  band No.  band energies     occupation 
      1      -1.0834      2.00000
      2       0.4207      2.00000
      3       2.4060      2.00000
      4       3.8891      2.00000
      5      16.3906      0.00000
      6      17.0489      0.00000
      7      18.7659      0.00000
      8      19.6632      0.00000

 k-point    18 :      -0.4000   -0.4000    0.4000
  band No.  band energies     occupation 
      1       1.0868      2.00000
      2       1.1002      2.00000
      3       3.0668      2.00000
      4       3.0668      2.00000
      5       9.5781      0.00011
      6      18.2663      0.00000
      7      19.6197      0.00000
      8      19.6198      0.00000


--------------------------------------------------------------------------------------------------------


 soft charge-density along one line, spin component           1
         0         1         2         3         4         5         6         7         8         9
 total charge-density along one line
 
 pseudopotential strength for first ion, spin component:           1
 18.080  -0.003   0.000  -0.000  -0.000  -0.000   0.000   0.000
 -0.003   0.005  -0.000   0.000   0.000   0.000  -0.000  -0.000
  0.000  -0.000   4.119   0.000   0.000  -0.006  -0.000  -0.000
 -0.000   0.000   0.000   4.120   0.000  -0.000  -0.006  -0.000
 -0.000   0.000   0.000   0.000   4.119  -0.000  -0.000  -0.006
 -0.000   0.000  -0.006  -0.000  -0.000   0.005   0.000   0.000
  0.000  -0.000  -0.000  -0.006  -0.000   0.000   0.005   0.000
  0.000  -0.000  -0.000  -0.000  -0.006   0.000   0.000   0.005
 total augmentation occupancy for first ion, spin component:           1
  1.627  -0.617  -0.000   0.000   0.000   0.000   0.000   0.000
 -0.617   1.078   0.000   0.000   0.000  -0.000   0.000   0.000
  0.000   0.000   0.879   0.000  -0.000  -0.625   0.000   0.000
  0.000   0.000  -0.000   0.861   0.000  -0.000  -0.650  -0.000
  0.000   0.000  -0.000   0.000   0.879   0.000  -0.000  -0.625
  0.000  -0.000  -0.625  -0.000   0.000   0.526  -0.000  -0.000
  0.000   0.000  -0.000  -0.650  -0.000   0.000   0.588  -0.000
  0.000  -0.000   0.000  -0.000  -0.625  -0.000  -0.000   0.526


------------------------ aborting loop because EDIFF is reached ----------------------------------------


    CHARGE:  cpu time    0.0120: real time    0.0093
    FORLOC:  cpu time    0.0000: real time    0.0005
    FORNL :  cpu time    0.0080: real time    0.0071
    STRESS:  cpu time    0.0440: real time    0.0438
    FORCOR:  cpu time    0.0120: real time    0.0121
    FORHAR:  cpu time    0.0000: real time    0.0033
    MIXING:  cpu time    0.0000: real time    0.0009
    OFIELD:  cpu time    0.0000: real time    0.0004

  FORCE on cell =-STRESS in cart. coord.  units (eV):
  Direction    XX          YY          ZZ          XY          YZ          ZX
  --------------------------------------------------------------------------------------
  Alpha Z     4.36535     4.36535     4.36535
  Ewald     -92.41913   -92.41913   -79.39784    -0.00000     0.00000    -0.00000
  Hartree     0.46501     0.46501     1.71404     0.00000     0.00000     0.00000
  E(xc)     -25.38211   -25.38211   -25.39037     0.00003     0.00001     0.00001
  Local      -9.64746    -9.64746   -21.81295    -0.00005    -0.00005    -0.00005
  n-local    76.78404    76.90965    77.89005     1.01230    -0.38014    -0.46977
  augment   -12.07999   -12.07999   -12.01516     0.00005     0.00005     0.00005
  Kinetic    62.91150    53.04582    54.40505     4.64910    -3.15301    -5.09042
  Fock        0.00000     0.00000     0.00000     0.00000     0.00000     0.00000
  -------------------------------------------------------------------------------------
  Total       0.12718     0.12718    -0.24183    -0.00000     0.00000     0.00000
  in kB       6.60582     6.60582   -12.56117    -0.00000     0.00000     0.00000
  external pressure =        0.22 kB  Pullay stress =        0.00 kB


 VOLUME and BASIS-vectors are now :
 -----------------------------------------------------------------------------
  energy-cutoff  :      200.00
  volume of cell :       30.85
      direct lattice vectors                 reciprocal lattice vectors
    -2.481523657  2.481523657  1.252270838     0.000000000  0.201489113  0.399274650
     2.481523657 -2.481523657  1.252270838     0.201489113  0.000000000  0.399274650
     2.481523657  2.481523657 -1.252270838     0.201489113  0.201489113  0.000000000

  length of vectors
     3.726137622  3.726137622  3.726137622     0.447233841  0.447233841  0.284948636


 FORCES acting on ions
    electron-ion (+dipol)            ewald-force                    non-local-force                 convergence-correction
 -----------------------------------------------------------------------------------------------
   0.905E-06 -.905E-06 0.621E-14   -.116E-13 0.160E-14 -.618E-14   -.108E-15 0.833E-16 0.372E-17   -.153E-06 0.153E-06 -.123E-15
   -.905E-06 0.905E-06 -.355E-15   0.116E-13 -.156E-14 0.581E-14   0.954E-16 -.850E-16 0.238E-17   0.153E-06 -.153E-06 0.265E-16
 -----------------------------------------------------------------------------------------------
   -.186E-13 0.127E-13 0.585E-14   0.404E-16 0.404E-16 -.371E-15   -.122E-16 -.175E-17 0.610E-17   0.433E-16 0.167E-16 -.966E-16
 
 
 POSITION                                       TOTAL-FORCE (eV/Angst)
 -----------------------------------------------------------------------------------
      2.48152     -0.00000      0.62614        -0.000000      0.000000     -0.000000
      0.00000     -0.00000      0.00000         0.000000     -0.000000      0.000000
 -----------------------------------------------------------------------------------
    total drift:                               -0.000000      0.000000      0.000000


--------------------------------------------------------------------------------------------------------



  FREE ENERGIE OF THE ION-ELECTRON SYSTEM (eV)
  ---------------------------------------------------
  free  energy   TOTEN  =       -10.21557771 eV

  energy  without entropy=      -10.19039250  energy(sigma->0) =      -10.20298511
 
 d Force = 0.0000000E+00[ 0.000E+00, 0.000E+00]  d Energy = 0.1864328E-01-0.186E-01
 d Force = 0.0000000E+00[ 0.000E+00, 0.000E+00]  d Ewald  =-0.9449644E+00 0.945E+00


--------------------------------------------------------------------------------------------------------


    POTLOK:  cpu time    0.0280: real time    0.0389


--------------------------------------------------------------------------------------------------------


 Steepest descent step on ions:
 trial-energy change:   -0.018643  1 .order   -0.016592   -0.025787   -0.007397
  (g-gl).g = 0.258E-01      g.g   = 0.258E-01  gl.gl    = 0.000E+00
 g(Force)  = 0.778E-46   g(Stress)= 0.258E-01 ortho     = 0.000E+00
 gamma     =   0.00000
 trial     =   1.00000
 opt step  =   1.22134  (harmonic =   1.40226) maximal distance =0.00000000
 next E    =   -10.216419   (d E  =  -0.01948)


--------------------------------------------------------------------------------------------------------


    WAVPRE:  cpu time    0.0120: real time    0.0343
    FEWALD:  cpu time    0.0040: real time    0.0007
    GENKIN:  cpu time    0.0040: real time    0.0060
    ORTHCH:  cpu time    0.0120: real time    0.0113
     LOOP+:  cpu time    0.9760: real time    1.0969


--------------------------------------- Iteration      3(   1)  ---------------------------------------


    POTLOK:  cpu time    0.0200: real time    0.0252
    SETDIJ:  cpu time    0.0080: real time    0.0086
     EDDAV:  cpu time    0.2080: real time    0.2061
       DOS:  cpu time    0.0000: real time    0.0020
    CHARGE:  cpu time    0.0080: real time    0.0094
    MIXING:  cpu time    0.0040: real time    0.0011
    --------------------------------------------
      LOOP:  cpu time    0.2480: real time    0.2531

 eigenvalue-minimisations  :   416
 total energy-change (2. order) :-0.1685644E-02  (-0.3370104E-02)
 number of electron       8.0000016 magnetization 
 augmentation part       -0.4738292 magnetization 

 Broyden mixing:
  rms(total) = 0.11727E-01    rms(broyden)= 0.11721E-01
  rms(prec ) = 0.35036E-01
  weight for this iteration     100.00

 Free energy of the ion-electron system (eV)
  ---------------------------------------------------
  alpha Z        PSCENC =         4.35763712
  Ewald energy   TEWEN  =      -264.01995304
  -Hartree energ DENC   =        -2.64975935
  -exchange      EXHF   =         0.00000000
  -V(xc)+E(xc)   XCENC  =       -17.61019206
  PAW double counting   =        71.36804582      -36.28861966
  entropy T*S    EENTRO =        -0.02426262
  eigenvalues    EBANDS =        28.53739043
  atomic energy  EATOM  =       206.11247263
  Solvation  Ediel_sol  =         0.00000000
  ---------------------------------------------------
  free energy    TOTEN  =       -10.21724074 eV

  energy without entropy =      -10.19297812  energy(sigma->0) =      -10.20510943


--------------------------------------------------------------------------------------------------------




--------------------------------------- Iteration      3(   2)  ---------------------------------------


    POTLOK:  cpu time    0.0160: real time    0.0257
    SETDIJ:  cpu time    0.0080: real time    0.0086
     EDDAV:  cpu time    0.1480: real time    0.1452
       DOS:  cpu time    0.0000: real time    0.0020
    CHARGE:  cpu time    0.0080: real time    0.0093
    MIXING:  cpu time    0.0040: real time    0.0011
    --------------------------------------------
      LOOP:  cpu time    0.1840: real time    0.1918

 eigenvalue-minimisations  :   288
 total energy-change (2. order) : 0.4040322E-03  (-0.7269436E-04)
 number of electron       8.0000016 magnetization 
 augmentation part       -0.4738387 magnetization 

 Broyden mixing:
  rms(total) = 0.65552E-02    rms(broyden)= 0.65549E-02
  rms(prec ) = 0.19576E-01
  weight for this iteration     100.00

 eigenvalues of (default mixing * dielectric matrix)
  average eigenvalue GAMMA=   2.2611
  2.2611

 Free energy of the ion-electron system (eV)
  ---------------------------------------------------
  alpha Z        PSCENC =         4.35763712
  Ewald energy   TEWEN  =      -264.01995304
  -Hartree energ DENC   =        -2.66544537
  -exchange      EXHF   =         0.00000000
  -V(xc)+E(xc)   XCENC  =       -17.60930734
  PAW double counting   =        71.37357798      -36.29439719
  entropy T*S    EENTRO =        -0.02432687
  eigenvalues    EBANDS =        28.55290536
  atomic energy  EATOM  =       206.11247263
  Solvation  Ediel_sol  =         0.00000000
  ---------------------------------------------------
  free energy    TOTEN  =       -10.21683671 eV

  energy without entropy =      -10.19250984  energy(sigma->0) =      -10.20467327


--------------------------------------------------------------------------------------------------------




--------------------------------------- Iteration      3(   3)  ---------------------------------------


    POTLOK:  cpu time    0.0160: real time    0.0242
    SETDIJ:  cpu time    0.0080: real time    0.0086
     EDDAV:  cpu time    0.0840: real time    0.0843
       DOS:  cpu time    0.0040: real time    0.0019
    --------------------------------------------
      LOOP:  cpu time    0.1120: real time    0.1190

 eigenvalue-minimisations  :   152
 total energy-change (2. order) : 0.1948132E-03  (-0.5293597E-04)
 number of electron       8.0000016 magnetization 
 augmentation part       -0.4738387 magnetization 

 Free energy of the ion-electron system (eV)
  ---------------------------------------------------
  alpha Z        PSCENC =         4.35763712
  Ewald energy   TEWEN  =      -264.01995304
  -Hartree energ DENC   =        -2.68588224
  -exchange      EXHF   =         0.00000000
  -V(xc)+E(xc)   XCENC  =       -17.60823326
  PAW double counting   =        71.37367834      -36.29463990
  entropy T*S    EENTRO =        -0.02440690
  eigenvalues    EBANDS =        28.57268537
  atomic energy  EATOM  =       206.11247263
  Solvation  Ediel_sol  =         0.00000000
  ---------------------------------------------------
  free energy    TOTEN  =       -10.21664189 eV

  energy without entropy =      -10.19223499  energy(sigma->0) =      -10.20443844


--------------------------------------------------------------------------------------------------------




 average (electrostatic) potential at core
  the test charge radii are     0.9892
  (the norm of the test charge is              1.0000)
       1 -80.6874       2 -80.6874
 
 
 
 E-fermi :   9.0042     XC(G=0): -10.8480     alpha+bet :-15.5238


 k-point     1 :       0.0000    0.0000    0.0000
  band No.  band energies     occupation 
      1      -4.6713      2.00000
      2       5.5170      2.00000
      3       5.9993      2.00000
      4       5.9994      2.00000
      5      10.4017      0.00000
      6      16.6798      0.00000
      7      16.7196      0.00000
      8      16.7196      0.00000

 k-point     2 :       0.2000    0.0000   -0.0000
  band No.  band energies     occupation 
      1      -3.5132      2.00000
      2       4.6252      2.00000
      3       6.0865      2.00000
      4       8.8582      1.69798
      5      12.4857      0.00000
      6      13.1039      0.00000
      7      13.3777      0.00000
      8      15.3367      0.00000

 k-point     3 :       0.4000    0.0000   -0.0000
  band No.  band energies     occupation 
      1      -0.0864      2.00000
      2       5.3759      2.00000
      3       5.7373      2.00000
      4       7.2820      2.00000
      5       8.9194      1.45115
      6      11.5357      0.00000
      7      13.4275      0.00000
      8      14.0585      0.00000

 k-point     4 :       0.2000    0.2000   -0.0000
  band No.  band energies     occupation 
      1      -0.5331      2.00000
      2       5.8543      2.00000
      3       6.9973      2.00000
      4       7.0030      2.00000
      5       9.6413      0.00001
      6      11.6116      0.00000
      7      12.4536      0.00000
      8      12.6432      0.00000

 k-point     5 :       0.4000    0.2000   -0.0000
  band No.  band energies     occupation 
      1       1.2372      2.00000
      2       3.3556      2.00000
      3       4.6477      2.00000
      4       7.6601      2.00000
      5       8.9729      1.17515
      6      10.8969      0.00000
      7      13.8528      0.00000
      8      15.9566      0.00000

 k-point     6 :      -0.4000    0.2000    0.0000
  band No.  band energies     occupation 
      1      -2.6022      2.00000
      2       1.8036      2.00000
      3       6.4981      2.00000
      4      10.3352      0.00000
      5      10.7403      0.00000
      6      12.3104      0.00000
      7      14.2293      0.00000
      8      15.4561      0.00000

 k-point     7 :      -0.2000    0.2000    0.0000
  band No.  band energies     occupation 
      1      -4.2118      2.00000
      2       2.4123      2.00000
      3       6.4322      2.00000
      4       7.8621      2.00000
      5      12.8589      0.00000
      6      12.8973      0.00000
      7      14.4154      0.00000
      8      19.9647      0.00000

 k-point     8 :       0.4000    0.4000   -0.0000
  band No.  band energies     occupation 
      1      -0.8048      2.00000
      2      -0.8027      2.00000
      3       8.1354      2.00000
      4       8.2084      2.00000
      5      10.8811      0.00000
      6      12.7066      0.00000
      7      13.7427      0.00000
      8      13.9161      0.00000

 k-point     9 :      -0.4000    0.4000    0.0000
  band No.  band energies     occupation 
      1      -2.8424      2.00000
      2      -0.6000      2.00000
      3       7.7312      2.00000
      4       9.4455      0.00181
      5       9.8915      0.00000
      6      11.6301      0.00000
      7      17.8095      0.00000
      8      19.5476      0.00000

 k-point    10 :       0.2000    0.2000    0.2000
  band No.  band energies     occupation 
      1       0.8068      2.00000
      2       2.9894      2.00000
      3       6.2701      2.00000
      4       6.2785      2.00000
      5      11.1722      0.00000
      6      12.7806      0.00000
      7      13.7286      0.00000
      8      14.2239      0.00000

 k-point    11 :      -0.2000    0.2000    0.2000
  band No.  band energies     occupation 
      1      -3.7554      2.00000
      2       2.1842      2.00000
      3       4.0139      2.00000
      4       9.8117      0.00000
      5      10.8627      0.00000
      6      14.1602      0.00000
      7      17.4774      0.00000
      8      17.9203      0.00000

 k-point    12 :      -0.4000    0.4000    0.2000
  band No.  band energies     occupation 
      1      -2.4004      2.00000
      2      -0.2131      2.00000
      3       4.6846      2.00000
      4       6.8196      2.00000
      5      13.0732      0.00000
      6      15.2184      0.00000
[...]
    -2.489876547  2.489876547  1.246513216     0.000000000  0.200813169  0.401118892
     2.489876547 -2.489876547  1.246513216     0.200813169  0.000000000  0.401118892
     2.489876547  2.489876547 -1.246513216     0.200813169  0.200813169  0.000000000

  length of vectors
     3.735340097  3.735340097  3.735340097     0.448578080  0.448578080  0.283992707


 FORCES acting on ions
    electron-ion (+dipol)            ewald-force                    non-local-force                 convergence-correction
 -----------------------------------------------------------------------------------------------
   0.888E-06 -.888E-06 0.891E-14   0.109E-14 0.129E-15 0.719E-15   -.219E-16 0.371E-16 0.113E-16   0.606E-10 -.606E-10 -.203E-15
   -.888E-06 0.888E-06 -.713E-14   -.105E-14 0.252E-15 -.491E-15   0.104E-16 -.312E-16 -.517E-17   -.606E-10 0.606E-10 0.116E-15
 -----------------------------------------------------------------------------------------------
   -.144E-13 0.120E-13 0.178E-14   0.473E-16 0.380E-15 0.228E-15   -.115E-16 0.589E-17 0.616E-17   -.275E-15 -.525E-16 -.868E-16
 
 
 POSITION                                       TOTAL-FORCE (eV/Angst)
 -----------------------------------------------------------------------------------
      2.48988      0.00000      0.62326        -0.000000      0.000000      0.000000
      0.00000     -0.00000      0.00000         0.000000     -0.000000     -0.000000
 -----------------------------------------------------------------------------------
    total drift:                               -0.000000      0.000000      0.000000


--------------------------------------------------------------------------------------------------------



  FREE ENERGIE OF THE ION-ELECTRON SYSTEM (eV)
  ---------------------------------------------------
  free  energy   TOTEN  =       -10.21667625 eV

  energy  without entropy=      -10.19249462  energy(sigma->0) =      -10.20458544
 
 d Force = 0.0000000E+00[ 0.000E+00, 0.000E+00]  d Energy = 0.1208349E-08-0.121E-08
 d Force = 0.0000000E+00[ 0.000E+00, 0.000E+00]  d Ewald  = 0.6586440E-04-0.659E-04


--------------------------------------------------------------------------------------------------------


    POTLOK:  cpu time    0.0320: real time    0.0383


--------------------------------------------------------------------------------------------------------




--------------------------------------------------------------------------------------------------------


    WAVPRE:  cpu time    0.0120: real time    0.0273
    FEWALD:  cpu time    0.0000: real time    0.0007
    GENKIN:  cpu time    0.0040: real time    0.0060
    ORTHCH:  cpu time    0.0080: real time    0.0113
     LOOP+:  cpu time    0.4200: real time    0.4947


--------------------------------------- Iteration     15(   1)  ---------------------------------------


    POTLOK:  cpu time    0.0200: real time    0.0224
    SETDIJ:  cpu time    0.0080: real time    0.0086
     EDDAV:  cpu time    0.0800: real time    0.0807
       DOS:  cpu time    0.0000: real time    0.0020
    CHARGE:  cpu time    0.0080: real time    0.0093
    MIXING:  cpu time    0.0040: real time    0.0011
    --------------------------------------------
      LOOP:  cpu time    0.1200: real time    0.1248

 eigenvalue-minimisations  :   144
 total energy-change (2. order) :-0.8542997E-09  (-0.5019232E-10)
 number of electron       8.0000017 magnetization 
 augmentation part       -0.4736585 magnetization 

 Broyden mixing:
  rms(total) = 0.29547E-05    rms(broyden)= 0.17817E-05
  rms(prec ) = 0.53392E-05
  weight for this iteration     100.00
  WARNING: grid for Broyden might be to small

 Free energy of the ion-electron system (eV)
  ---------------------------------------------------
  alpha Z        PSCENC =         4.35613597
  Ewald energy   TEWEN  =      -263.97707751
  -Hartree energ DENC   =        -2.69397637
  -exchange      EXHF   =         0.00000000
  -V(xc)+E(xc)   XCENC  =       -17.60969806
  PAW double counting   =        71.36060732      -36.28102565
  entropy T*S    EENTRO =        -0.02418181
  eigenvalues    EBANDS =        28.54006723
  atomic energy  EATOM  =       206.11247263
  Solvation  Ediel_sol  =         0.00000000
  ---------------------------------------------------
  free energy    TOTEN  =       -10.21667625 eV

  energy without entropy =      -10.19249445  energy(sigma->0) =      -10.20458535


--------------------------------------------------------------------------------------------------------




--------------------------------------- Iteration     15(   2)  ---------------------------------------


    POTLOK:  cpu time    0.0200: real time    0.0258
    SETDIJ:  cpu time    0.0080: real time    0.0086
     EDDAV:  cpu time    0.0800: real time    0.0803
       DOS:  cpu time    0.0000: real time    0.0019
    --------------------------------------------
      LOOP:  cpu time    0.1080: real time    0.1165

 eigenvalue-minimisations  :   144
 total energy-change (2. order) : 0.6741629E-09  (-0.2214533E-11)
 number of electron       8.0000017 magnetization 
 augmentation part       -0.4736585 magnetization 

 Free energy of the ion-electron system (eV)
  ---------------------------------------------------
  alpha Z        PSCENC =         4.35613597
  Ewald energy   TEWEN  =      -263.97707751
  -Hartree energ DENC   =        -2.69397362
  -exchange      EXHF   =         0.00000000
  -V(xc)+E(xc)   XCENC  =       -17.60969822
  PAW double counting   =        71.36060764      -36.28102600
  entropy T*S    EENTRO =        -0.02418180
  eigenvalues    EBANDS =        28.54006466
  atomic energy  EATOM  =       206.11247263
  Solvation  Ediel_sol  =         0.00000000
  ---------------------------------------------------
  free energy    TOTEN  =       -10.21667625 eV

  energy without entropy =      -10.19249445  energy(sigma->0) =      -10.20458535


--------------------------------------------------------------------------------------------------------




 average (electrostatic) potential at core
  the test charge radii are     0.9892
  (the norm of the test charge is              1.0000)
       1 -80.6923       2 -80.6923
 
 
 
 E-fermi :   8.9996     XC(G=0): -10.8464     alpha+bet :-15.5185


 k-point     1 :       0.0000    0.0000    0.0000
  band No.  band energies     occupation 
      1      -4.6735      2.00000
      2       5.4922      2.00000
      3       5.9888      2.00000
      4       5.9889      2.00000
      5      10.3953      0.00000
      6      16.6689      0.00000
      7      16.6959      0.00000
      8      16.6959      0.00000

 k-point     2 :       0.2000    0.0000   -0.0000
  band No.  band energies     occupation 
      1      -3.5142      2.00000
      2       4.6103      2.00000
      3       6.0798      2.00000
      4       8.8419      1.73530
      5      12.4791      0.00000
      6      13.1134      0.00000
      7      13.3728      0.00000
      8      15.3323      0.00000

 k-point     3 :       0.4000    0.0000   -0.0000
  band No.  band energies     occupation 
      1      -0.0839      2.00000
      2       5.3828      2.00000
      3       5.7275      2.00000
      4       7.2832      2.00000
      5       8.9181      1.43572
      6      11.5405      0.00000
      7      13.4186      0.00000
      8      14.0490      0.00000

 k-point     4 :       0.2000    0.2000   -0.0000
  band No.  band energies     occupation 
      1      -0.5300      2.00000
      2       5.8479      2.00000
      3       7.0003      2.00000
      4       7.0069      2.00000
      5       9.6378      0.00001
      6      11.6024      0.00000
      7      12.4554      0.00000
      8      12.6416      0.00000

 k-point     5 :       0.4000    0.2000   -0.0000
  band No.  band energies     occupation 
      1       1.2379      2.00000
      2       3.3536      2.00000
      3       4.6545      2.00000
      4       7.6585      2.00000
      5       8.9703      1.16407
      6      10.8920      0.00000
      7      13.8515      0.00000
      8      15.9457      0.00000

 k-point     6 :      -0.4000    0.2000    0.0000
  band No.  band energies     occupation 
      1      -2.6044      2.00000
      2       1.7951      2.00000
      3       6.4893      2.00000
      4      10.3276      0.00000
      5      10.7266      0.00000
      6      12.3134      0.00000
      7      14.2374      0.00000
      8      15.4400      0.00000

 k-point     7 :      -0.2000    0.2000    0.0000
  band No.  band energies     occupation 
      1      -4.2146      2.00000
      2       2.4002      2.00000
      3       6.4214      2.00000
      4       7.8438      2.00000
      5      12.8470      0.00000
      6      12.8815      0.00000
      7      14.3926      0.00000
      8      19.9901      0.00000

 k-point     8 :       0.4000    0.4000   -0.0000
  band No.  band energies     occupation 
      1      -0.8093      2.00000
      2      -0.8073      2.00000
      3       8.1249      2.00000
      4       8.1981      2.00000
      5      10.8862      0.00000
      6      12.6881      0.00000
      7      13.7331      0.00000
      8      13.9277      0.00000

 k-point     9 :      -0.4000    0.4000    0.0000
  band No.  band energies     occupation 
      1      -2.8469      2.00000
      2      -0.6076      2.00000
      3       7.7193      2.00000
      4       9.4267      0.00253
      5       9.8778      0.00000
      6      11.6095      0.00000
      7      17.7947      0.00000
      8      19.5739      0.00000

 k-point    10 :       0.2000    0.2000    0.2000
  band No.  band energies     occupation 
      1       0.8081      2.00000
      2       2.9878      2.00000
      3       6.2754      2.00000
      4       6.2834      2.00000
      5      11.1655      0.00000
      6      12.7699      0.00000
      7      13.7182      0.00000
      8      14.2150      0.00000

 k-point    11 :      -0.2000    0.2000    0.2000
  band No.  band energies     occupation 
      1      -3.7588      2.00000
      2       2.1699      2.00000
      3       4.0077      2.00000
      4       9.7964      0.00000
      5      10.8411      0.00000
      6      14.1480      0.00000
      7      17.4527      0.00000
      8      17.9223      0.00000

 k-point    12 :      -0.4000    0.4000    0.2000
  band No.  band energies     occupation 
      1      -2.4056      2.00000
      2      -0.2216      2.00000
      3       4.6752      2.00000
      4       6.8073      2.00000
      5      13.0527      0.00000
      6      15.1994      0.00000
      7      18.1960      0.00000
      8      18.6190      0.00000

 k-point    13 :      -0.2000    0.4000    0.2000
  band No.  band energies     occupation 
      1      -1.7122      2.00000
      2       1.9409      2.00000
      3       3.8840      2.00000
      4       7.4409      2.00000
      5      10.4181      0.00000
      6      14.9830      0.00000
      7      16.3420      0.00000
      8      17.3574      0.00000

 k-point    14 :      -0.4000   -0.4000    0.2000
  band No.  band energies     occupation 
      1       0.0107      2.00000
      2       0.0172      2.00000
      3       4.9200      2.00000
      4       4.9243      2.00000
      5      10.0616      0.00000
      6      16.3435      0.00000
      7      17.1237      0.00000
      8      17.8372      0.00000

 k-point    15 :      -0.2000   -0.4000    0.2000
  band No.  band energies     occupation 
      1       2.4711      2.00000
      2       3.6407      2.00000
      3       4.1037      2.00000
      4       5.8457      2.00000
      5       7.2139      2.00000
      6      11.9854      0.00000
      7      13.5775      0.00000
      8      15.9357      0.00000

 k-point    16 :      -0.2000   -0.2000    0.2000
  band No.  band energies     occupation 
      1      -0.9814      2.00000
      2       7.5477      2.00000
      3       8.0731      2.00000
      4       8.5280      1.99915
      5       8.5280      1.99915
      6       9.8119      0.00000
      7      11.5434      0.00000
      8      11.5434      0.00000

 k-point    17 :      -0.4000    0.4000    0.4000
  band No.  band energies     occupation 
      1      -1.1279      2.00000
      2       0.3487      2.00000
      3       2.3811      2.00000
      4       3.8376      2.00000
      5      16.3921      0.00000
      6      17.1814      0.00000
      7      18.7571      0.00000
      8      19.4894      0.00000

 k-point    18 :      -0.4000   -0.4000    0.4000
  band No.  band energies     occupation 
      1       1.0264      2.00000
      2       1.0375      2.00000
      3       3.0526      2.00000
      4       3.0526      2.00000
      5       9.6825      0.00000
      6      18.2241      0.00000
      7      19.6055      0.00000
      8      19.6055      0.00000


--------------------------------------------------------------------------------------------------------


 soft charge-density along one line, spin component           1
         0         1         2         3         4         5         6         7         8         9
 total charge-density along one line
 
 pseudopotential strength for first ion, spin component:           1
 18.083  -0.003   0.000  -0.000  -0.000  -0.000   0.000   0.000
 -0.003   0.005  -0.000   0.000   0.000   0.000  -0.000  -0.000
  0.000  -0.000   4.120   0.000   0.000  -0.006  -0.000  -0.000
 -0.000   0.000   0.000   4.120   0.000  -0.000  -0.006  -0.000
 -0.000   0.000   0.000   0.000   4.120  -0.000  -0.000  -0.006
 -0.000   0.000  -0.006  -0.000  -0.000   0.005   0.000   0.000
  0.000  -0.000  -0.000  -0.006  -0.000   0.000   0.005   0.000
  0.000  -0.000  -0.000  -0.000  -0.006   0.000   0.000   0.005
 total augmentation occupancy for first ion, spin component:           1
  1.626  -0.620   0.000   0.000   0.000   0.000   0.000  -0.000
 -0.620   1.082   0.000   0.000  -0.000   0.000   0.000   0.000
  0.000   0.000   0.875   0.000  -0.000  -0.620   0.000  -0.000
  0.000   0.000   0.000   0.868   0.000   0.000  -0.663  -0.000
  0.000  -0.000  -0.000   0.000   0.875  -0.000  -0.000  -0.620
  0.000   0.000  -0.620   0.000  -0.000   0.520  -0.000   0.000
  0.000   0.000   0.000  -0.663  -0.000   0.000   0.606   0.000
  0.000   0.000  -0.000  -0.000  -0.620   0.000   0.000   0.520


------------------------ aborting loop because EDIFF is reached ----------------------------------------


    CHARGE:  cpu time    0.0120: real time    0.0090
    FORLOC:  cpu time    0.0000: real time    0.0005
    FORNL :  cpu time    0.0080: real time    0.0073
    STRESS:  cpu time    0.0440: real time    0.0433
    FORCOR:  cpu time    0.0120: real time    0.0121
    FORHAR:  cpu time    0.0000: real time    0.0033
    MIXING:  cpu time    0.0040: real time    0.0007
    OFIELD:  cpu time    0.0000: real time    0.0004

  FORCE on cell =-STRESS in cart. coord.  units (eV):
  Direction    XX          YY          ZZ          XY          YZ          ZX
  --------------------------------------------------------------------------------------
  Alpha Z     4.35614     4.35614     4.35614
  Ewald     -92.81823   -92.81823   -78.34068    -0.00000     0.00000     0.00000
  Hartree     0.44441     0.44441     1.80515     0.00000     0.00000     0.00000
  E(xc)     -25.36826   -25.36826   -25.39632     0.00002     0.00001     0.00001
  Local      -9.17654    -9.17654   -22.99706    -0.00005    -0.00005    -0.00005
  n-local    76.68639    76.75548    78.11065     0.99913    -0.35726    -0.48759
  augment   -12.06816   -12.06816   -12.03360     0.00005     0.00005     0.00005
  Kinetic    62.69391    53.08379    54.46561     4.55937    -2.92204    -5.02886
  Fock        0.00000     0.00000     0.00000     0.00000     0.00000     0.00000
  -------------------------------------------------------------------------------------
  Total      -0.02085    -0.02085    -0.03013     0.00000     0.00000     0.00000
  in kB      -1.08055    -1.08055    -1.56151     0.00000     0.00000     0.00000
  external pressure =       -1.24 kB  Pullay stress =        0.00 kB


 VOLUME and BASIS-vectors are now :
 -----------------------------------------------------------------------------
  energy-cutoff  :      200.00
  volume of cell :       30.91
      direct lattice vectors                 reciprocal lattice vectors
    -2.489875493  2.489875493  1.246513943     0.000000000  0.200813254  0.401118658
     2.489875493 -2.489875493  1.246513943     0.200813254  0.000000000  0.401118658
     2.489875493  2.489875493 -1.246513943     0.200813254  0.200813254 -0.000000000

  length of vectors
     3.735338934  3.735338934  3.735338934     0.448577909  0.448577909  0.283992827


 FORCES acting on ions
    electron-ion (+dipol)            ewald-force                    non-local-force                 convergence-correction
 -----------------------------------------------------------------------------------------------
   0.888E-06 -.888E-06 0.713E-15   0.180E-14 -.194E-15 0.339E-15   0.290E-18 -.309E-16 -.607E-17   0.304E-10 -.304E-10 0.202E-16
   -.888E-06 0.888E-06 0.428E-14   -.196E-14 0.146E-15 -.139E-14   0.937E-17 0.232E-16 0.117E-16   -.304E-10 0.304E-10 -.704E-16
 -----------------------------------------------------------------------------------------------
   -.157E-13 0.152E-13 0.499E-14   -.158E-15 -.475E-16 -.105E-14   0.966E-17 -.769E-17 0.562E-17   -.208E-15 -.234E-15 -.502E-16
 
 
 POSITION                                       TOTAL-FORCE (eV/Angst)
 -----------------------------------------------------------------------------------
      2.48988      0.00000      0.62326         0.000000     -0.000000     -0.000000
      0.00000     -0.00000      0.00000        -0.000000      0.000000      0.000000
 -----------------------------------------------------------------------------------
    total drift:                               -0.000000      0.000000      0.000000


--------------------------------------------------------------------------------------------------------



  FREE ENERGIE OF THE ION-ELECTRON SYSTEM (eV)
  ---------------------------------------------------
  free  energy   TOTEN  =       -10.21667625 eV

  energy  without entropy=      -10.19249445  energy(sigma->0) =      -10.20458535
 
 d Force = 0.0000000E+00[ 0.000E+00, 0.000E+00]  d Energy =-0.8944312E-10 0.894E-10
 d Force = 0.0000000E+00[ 0.000E+00, 0.000E+00]  d Ewald  = 0.3293211E-04-0.329E-04


--------------------------------------------------------------------------------------------------------


    POTLOK:  cpu time    0.0280: real time    0.0380


--------------------------------------------------------------------------------------------------------




--------------------------------------------------------------------------------------------------------


 writing wavefunctions
     LOOP+:  cpu time    0.4360: real time    0.5668
    4ORBIT:  cpu time    0.0000: real time    0.0000

 total amount of memory used by VASP MPI-rank0    30705. kBytes
=======================================================================

   base      :      30000. kBytes
   nonl-proj :        246. kBytes
   fftplans  :        119. kBytes
   grid      :        270. kBytes
   one-center:          6. kBytes
   wavefun   :         64. kBytes
 
  
  
 General timing and accounting informations for this job:
 ========================================================
  
                  Total CPU time used (sec):       13.660
                            User time (sec):       11.012
                          System time (sec):        2.648
                         Elapsed time (sec):       16.969
  
                   Maximum memory used (kb):        9676.
                   Average memory used (kb):           0.
  
                          Minor page faults:        38103
                          Major page faults:           28
                 Voluntary context switches:        40797
