unknown system                          
   1.00000000000000     
    -2.413709    2.413709    1.313521
     2.413709   -2.413709    1.313521
     2.413709    2.413709   -1.313521
   Si
     2
Direct
  0.250000  0.750000  0.500000
 -0.000000 -0.000000 -0.000000
 
   28   28   28
 -.54845153016E+01 -.39730160213E+01 -.30091361862E-01 0.48685700724E+01 0.90734488744E+01
 0.11471192544E+02 0.11837843218E+02 0.10731866800E+02 0.90643907959E+01 0.74470087839E+01
 0.60683602273E+01 0.50046572008E+01 0.42669232169E+01 0.38371596712E+01 0.36962696463E+01
 0.38370832546E+01 0.42669644106E+01 0.50048094818E+01 0.60684113361E+01 0.74469349920E+01
 0.90643770220E+01 0.10731936824E+02 0.11837847727E+02 0.11471150258E+02 0.90735119430E+01
 0.48686697502E+01 -.30163734872E-01 -.39731904941E+01 -.39731904941E+01 -.46978109253E+01
 -.25346228081E+01 0.16624286459E+01 0.63390699024E+01 0.99753953255E+01 0.11709057539E+02
 0.11556620006E+02 0.10206055544E+02 0.85348310035E+01 0.69865714501E+01 0.57044397760E+01
 0.47424480382E+01 0.40999019745E+01 0.37565031400E+01 0.36961113033E+01 0.39158992480E+01
 0.44271091016E+01 0.52502084512E+01 0.63988191478E+01 0.78494090832E+01 0.95056965285E+01
 0.11124228233E+02 0.11977981512E+02 0.11202892633E+02 0.84076673831E+01 0.40361643198E+01
 -.63810984215E+00 -.30163734872E-01 -.25347456831E+01 -.24986492169E+01 0.46780873190E-01
 0.40821901023E+01 0.81141583167E+01 0.10868523921E+02 0.11784317520E+02 0.11100361563E+02
 0.95736040992E+01 0.79453284438E+01 0.64936788061E+01 0.53267653442E+01 0.44768898793E+01
 0.39340512120E+01 0.36778039984E+01 0.36957669672E+01 0.39891990178E+01 0.45723444577E+01
 0.54657800420E+01 0.66775482977E+01 0.81718719280E+01 0.98364755659E+01 0.11378393086E+02
 0.12030504372E+02 0.11030526851E+02 0.81628117169E+01 0.40361643198E+01 0.48686697502E+01
 0.16623964230E+01 0.46739618137E-01 0.67375410015E+00 0.32604517008E+01 0.67433637884E+01
 0.98149457107E+01 0.11520769943E+02 0.11604322153E+02 0.10475159509E+02 0.88792732536E+01
 0.73287808230E+01 0.59956515315E+01 0.49553462231E+01 0.42213123332E+01 0.37774820130E+01
 0.36050616073E+01 0.36955417238E+01 0.40535221008E+01 0.46951193705E+01 0.56396564274E+01
 0.68889667270E+01 0.83969092768E+01 0.10041025447E+02 0.11501740317E+02 0.12041932692E+02
 0.11030526851E+02 0.84076673831E+01 0.90735119430E+01 0.63391122541E+01 0.40822036667E+01
 0.32604905442E+01 0.42188754453E+01 0.65147341319E+01 0.91590577565E+01 0.11117639189E+02
 0.11777845142E+02 0.11147576719E+02 0.97344931513E+01 0.81643801402E+01 0.67199691127E+01
 0.55194272262E+01 0.46091462519E+01 0.39882498677E+01 0.36379268451E+01 0.35421112148E+01
 0.36956695785E+01 0.41055530816E+01 0.47885945260E+01 0.57617996734E+01 0.70209698424E+01
 0.85124985381E+01 0.10110148809E+02 0.11501740317E+02 0.12030504372E+02 0.11202892633E+02
 0.11471150258E+02 0.99753752856E+01 0.81141403218E+01 0.67434102053E+01 0.65148256232E+01
 0.75280390180E+01 0.92835948248E+01 0.10958822400E+02 0.11830492805E+02 0.11600711314E+02
 0.10471516936E+02 0.89625684661E+01 0.74703372807E+01 0.61522372703E+01 0.50893007311E+01
 0.43048029636E+01 0.37887249179E+01 0.35222198046E+01 0.34922157092E+01 0.36961254337E+01
 0.41422707965E+01 0.48471719709E+01 0.58248355649E+01 0.70658541993E+01 0.85124985381E+01
 0.10041025447E+02 0.11378393086E+02 0.11977981512E+02 0.11837847727E+02 0.11709032039E+02
 0.10868441198E+02 0.98148826415E+01 0.91591147749E+01 0.92837013552E+01 0.10126533786E+02
 0.11221348500E+02 0.11962550068E+02 0.11926458250E+02 0.11066598973E+02 0.96953950386E+01
 0.82196186362E+01 0.68362341341E+01 0.56543905218E+01 0.47251451566E+01 0.40556981794E+01
 0.36316530266E+01 0.34358133819E+01 0.34577647126E+01 0.36966302380E+01 0.41612943426E+01
 0.48671337966E+01 0.58248355649E+01 0.70209698424E+01 0.83969092768E+01 0.98364755659E+01
 0.11124228233E+02 0.10731936824E+02 0.11556701420E+02 0.11784317792E+02 0.11520663539E+02
 0.11117556662E+02 0.10958869964E+02 0.11221438324E+02 0.11764491020E+02 0.12216025283E+02
 0.12194891659E+02 0.11527752470E+02 0.10337554918E+02 0.89404611835E+01 0.75510500495E+01
 0.62950004460E+01 0.52486798787E+01 0.44415738267E+01 0.38715962613E+01 0.35235386539E+01
 0.33825196937E+01 0.34402126834E+01 0.36968479643E+01 0.41612943426E+01 0.48471719709E+01
 0.57617996734E+01 0.68889667270E+01 0.81718719280E+01 0.95056965285E+01 0.90643770220E+01
 0.10206135441E+02 0.11100483713E+02 0.11604349648E+02 0.11777753153E+02 0.11830416146E+02
 0.11962577359E+02 0.12216081452E+02 0.12437450206E+02 0.12375518063E+02 0.11845625626E+02
 0.10854219865E+02 0.95986372926E+01 0.82689633537E+01 0.69949158914E+01 0.58712927395E+01
 0.49503179368E+01 0.42481378435E+01 0.37588440545E+01 0.34685013606E+01 0.33645215804E+01
 0.34402126834E+01 0.36966302380E+01 0.41422707965E+01 0.47885945260E+01 0.56396564274E+01
 0.66775482977E+01 0.78494090832E+01 0.74469349920E+01 0.85347730983E+01 0.95736608185E+01
 0.10475280428E+02 0.11147623555E+02 0.11600656557E+02 0.11926404010E+02 0.12194897778E+02
 0.12375539005E+02 0.12342905649E+02 0.11962672440E+02 0.11196777699E+02 0.10147334373E+02
 0.89502341732E+01 0.77263137485E+01 0.65795819088E+01 0.55813644879E+01 0.47683581149E+01
 0.41502448347E+01 0.37208990758E+01 0.34685013606E+01 0.33825196937E+01 0.34577647126E+01
 0.36961254337E+01 0.41055530816E+01 0.46951193705E+01 0.54657800420E+01 0.63988191478E+01
 0.60684113361E+01 0.69865010571E+01 0.79452441957E+01 0.88792889167E+01 0.97345812377E+01
 0.10471569613E+02 0.11066584965E+02 0.11527725343E+02 0.11845616378E+02 0.11962667221E+02
 0.11797303366E+02 0.11306820386E+02 0.10529022045E+02 0.95420868171E+01 0.84470552815E+01
 0.73464020297E+01 0.63236541255E+01 0.54344140244E+01 0.47072704824E+01 0.41502448347E+01
 0.37588440545E+01 0.35235386539E+01 0.34358133819E+01 0.34922157092E+01 0.36956695785E+01
 0.40535221008E+01 0.45723444577E+01 0.52502084512E+01 0.50048094818E+01 0.57045201664E+01
 0.64936354944E+01 0.73286956048E+01 0.81643567835E+01 0.89626110026E+01 0.96954405218E+01
 0.10337570697E+02 0.10854215090E+02 0.11196761672E+02 0.11306802333E+02 0.11140045290E+02
 0.10687619610E+02 0.99845053387E+01 0.91020920498E+01 0.81290639782E+01 0.71511382365E+01
 0.62372860733E+01 0.54344140244E+01 0.47683581149E+01 0.42481378435E+01 0.38715962613E+01
 0.36316530266E+01 0.35222198046E+01 0.35421112148E+01 0.36955417238E+01 0.39891990178E+01
 0.44271091016E+01 0.42669644106E+01 0.47425572876E+01 0.53268506872E+01 0.59956449618E+01
 0.67199045764E+01 0.74702909357E+01 0.82196207482E+01 0.89404912153E+01 0.95986659751E+01
 0.10147343007E+02 0.10529007352E+02 0.10687600518E+02 0.10586446192E+02 0.10222594016E+02
 0.96300357785E+01 0.88709607234E+01 0.80203852167E+01 0.71511382365E+01 0.63236541255E+01
 0.55813644879E+01 0.49503179368E+01 0.44415738267E+01 0.40556981794E+01 0.37887249179E+01
 0.36379268451E+01 0.36050616073E+01 0.36957669672E+01 0.39158992480E+01 0.38370832546E+01
 0.40998526368E+01 0.44769229325E+01 0.49554123868E+01 0.55194509368E+01 0.61522034666E+01
 0.68361847130E+01 0.75510269888E+01 0.82689752038E+01 0.89502606641E+01 0.95421006376E+01
 0.99844970187E+01 0.10222580167E+02 0.10220984484E+02 0.99739731428E+01 0.95071658119E+01
 0.88709607234E+01 0.81290639782E+01 0.73464020297E+01 0.65795819088E+01 0.58712927395E+01
 0.52486798787E+01 0.47251451566E+01 0.43048029636E+01 0.39882498677E+01 0.37774820130E+01
 0.36778039984E+01 0.36961113033E+01 0.36962696463E+01 0.37563876427E+01 0.39339257006E+01
 0.42212696702E+01 0.46091795264E+01 0.50893386374E+01 0.56543857019E+01 0.62949635121E+01
 0.69948837450E+01 0.77263087101E+01 0.84470710833E+01 0.91021061904E+01 0.96300342195E+01
 0.99739641600E+01 0.10093489554E+02 0.99739731428E+01 0.96300357785E+01 0.91020920498E+01
 0.84470552815E+01 0.77263137485E+01 0.69949158914E+01 0.62950004460E+01 0.56543905218E+01
 0.50893007311E+01 0.46091462519E+01 0.42213123332E+01 0.39340512120E+01 0.37565031400E+01
 0.38371596712E+01 0.36961052488E+01 0.36776817348E+01 0.37773263626E+01 0.39881630484E+01
 0.43048048910E+01 0.47251814400E+01 0.52486958546E+01 0.58712755495E+01 0.65795511542E+01
 0.73463839706E+01 0.81290688066E+01 0.88709739247E+01 0.95071670950E+01 0.99739641600E+01
 0.10220984484E+02 0.10222594016E+02 0.99845053387E+01 0.95420868171E+01 0.89502341732E+01
 0.82689633537E+01 0.75510500495E+01 0.68362341341E+01 0.61522372703E+01 0.55194272262E+01
 0.49553462231E+01 0.44768898793E+01 0.40999019745E+01 0.42669232169E+01 0.39159204121E+01
 0.36957581409E+01 0.36049700771E+01 0.36377999424E+01 0.37886401259E+01 0.40556817983E+01
 0.44415996791E+01 0.49503458854E+01 0.55813658024E+01 0.63236278634E+01 0.71511130031E+01
 0.80203855177E+01 0.88709739247E+01 0.96300342195E+01 0.10222580167E+02 0.10586446192E+02
 0.10687619610E+02 0.10529022045E+02 0.10147334373E+02 0.95986372926E+01 0.89404611835E+01
 0.82196186362E+01 0.74703372807E+01 0.67199691127E+01 0.59956515315E+01 0.53267653442E+01
 0.47424480382E+01 0.50046572008E+01 0.44270009915E+01 0.39891714339E+01 0.36955380871E+01
 0.35420817744E+01 0.35221698991E+01 0.36316085495E+01 0.38715763944E+01 0.42481524578E+01
 0.47683915806E+01 0.54344262338E+01 0.62372619494E+01 0.71511130031E+01 0.81290688066E+01
 0.91021061904E+01 0.99844970187E+01 0.10687600518E+02 0.11140045290E+02 0.11306820386E+02
 0.11196777699E+02 0.10854219865E+02 0.10337554918E+02 0.96953950386E+01 0.89625684661E+01
 0.81643801402E+01 0.73287808230E+01 0.64936788061E+01 0.57044397760E+01 0.60683602273E+01
 0.52500675197E+01 0.45722209429E+01 0.40534717096E+01 0.36956824315E+01 0.34922637360E+01
 0.34358590698E+01 0.35235473317E+01 0.37588284724E+01 0.41502527207E+01 0.47073054671E+01
 0.54344262338E+01 0.63236278634E+01 0.73463839706E+01 0.84470710833E+01 0.95421006376E+01
 0.10529007352E+02 0.11306802333E+02 0.11797303366E+02 0.11962672440E+02 0.11845625626E+02
 0.11527752470E+02 0.11066598973E+02 0.10471516936E+02 0.97344931513E+01 0.88792732536E+01
 0.79453284438E+01 0.69865714501E+01 0.74470087839E+01 0.63988123589E+01 0.54657042486E+01
 0.46950362942E+01 0.41055110367E+01 0.36961631517E+01 0.34578834155E+01 0.33826427583E+01
 0.34685463195E+01 0.37208862947E+01 0.41502527207E+01 0.47683915806E+01 0.55813658024E+01
 0.65795511542E+01 0.77263087101E+01 0.89502606641E+01 0.10147343007E+02 0.11196761672E+02
 0.11962667221E+02 0.12342905649E+02 0.12375518063E+02 0.12194891659E+02 0.11926458250E+02
 0.11600711314E+02 0.11147576719E+02 0.10475159509E+02 0.95736040992E+01 0.85348310035E+01
 0.90643907959E+01 0.78494587265E+01 0.66775875707E+01 0.56396772836E+01 0.47885853178E+01
 0.41422553957E+01 0.36966910088E+01 0.34403735056E+01 0.33646741885E+01 0.34685463195E+01
 0.37588284724E+01 0.42481524578E+01 0.49503458854E+01 0.58712755495E+01 0.69948837450E+01
 0.82689752038E+01 0.95986659751E+01 0.10854215090E+02 0.11845616378E+02 0.12375539005E+02
 0.12437450206E+02 0.12216025283E+02 0.11962550068E+02 0.11830492805E+02 0.11777845142E+02
 0.11604322153E+02 0.11100361563E+02 0.10206055544E+02 0.10731866800E+02 0.95056629054E+01
 0.81718785542E+01 0.68890428360E+01 0.57619139645E+01 0.48472313282E+01 0.41613010031E+01
 0.36969181612E+01 0.34403735056E+01 0.33826427583E+01 0.35235473317E+01 0.38715763944E+01
 0.44415996791E+01 0.52486958546E+01 0.62949635121E+01 0.75510269888E+01 0.89404912153E+01
 0.10337570697E+02 0.11527725343E+02 0.12194897778E+02 0.12216081452E+02 0.11764491020E+02
 0.11221348500E+02 0.10958822400E+02 0.11117639189E+02 0.11520769943E+02 0.11784317520E+02
 0.11556620006E+02 0.11837843218E+02 0.11124200256E+02 0.98364041480E+01 0.83968712629E+01
 0.70210683325E+01 0.58250066115E+01 0.48672207858E+01 0.41613010031E+01 0.36966910088E+01
 0.34578834155E+01 0.34358590698E+01 0.36316085495E+01 0.40556817983E+01 0.47251814400E+01
 0.56543857019E+01 0.68361847130E+01 0.82196207482E+01 0.96954405218E+01 0.11066584965E+02
 0.11926404010E+02 0.11962577359E+02 0.11221438324E+02 0.10126533786E+02 0.92835948248E+01
 0.91590577565E+01 0.98149457107E+01 0.10868523921E+02 0.11709057539E+02 0.11471192544E+02
 0.11978067434E+02 0.11378419501E+02 0.10040931585E+02 0.85124324689E+01 0.70659600072E+01
 0.58250066115E+01 0.48472313282E+01 0.41422553957E+01 0.36961631517E+01 0.34922637360E+01
 0.35221698991E+01 0.37886401259E+01 0.43048048910E+01 0.50893386374E+01 0.61522034666E+01
 0.74702909357E+01 0.89626110026E+01 0.10471569613E+02 0.11600656557E+02 0.11830416146E+02
 0.10958869964E+02 0.92837013552E+01 0.75280390180E+01 0.65147341319E+01 0.67433637884E+01
 0.81141583167E+01 0.99753953255E+01 0.90734488744E+01 0.11202941477E+02 0.12030662821E+02
 0.11501804459E+02 0.10110047771E+02 0.85124324689E+01 0.70210683325E+01 0.57619139645E+01
 0.47885853178E+01 0.41055110367E+01 0.36956824315E+01 0.35420817744E+01 0.36377999424E+01
 0.39881630484E+01 0.46091795264E+01 0.55194509368E+01 0.67199045764E+01 0.81643567835E+01
 0.97345812377E+01 0.11147623555E+02 0.11777753153E+02 0.11117556662E+02 0.91591147749E+01
 0.65148256232E+01 0.42188754453E+01 0.32604517008E+01 0.40821901023E+01 0.63390699024E+01
 0.48685700724E+01 0.84075332817E+01 0.11030576535E+02 0.12042118833E+02 0.11501804459E+02
 0.10040931585E+02 0.83968712629E+01 0.68890428360E+01 0.56396772836E+01 0.46950362942E+01
 0.40534717096E+01 0.36955380871E+01 0.36049700771E+01 0.37773263626E+01 0.42212696702E+01
 0.49554123868E+01 0.59956449618E+01 0.73286956048E+01 0.88792889167E+01 0.10475280428E+02
 0.11604349648E+02 0.11520663539E+02 0.98148826415E+01 0.67434102053E+01 0.32604905442E+01
 0.67375410015E+00 0.46780873190E-01 0.16624286459E+01 -.30091361862E-01 0.40360297565E+01
 0.81626496845E+01 0.11030576535E+02 0.12030662821E+02 0.11378419501E+02 0.98364041480E+01
 0.81718785542E+01 0.66775875707E+01 0.54657042486E+01 0.45722209429E+01 0.39891714339E+01
 0.36957581409E+01 0.36776817348E+01 0.39339257006E+01 0.44769229325E+01 0.53268506872E+01
 0.64936354944E+01 0.79452441957E+01 0.95736608185E+01 0.11100483713E+02 0.11784317792E+02
 0.10868441198E+02 0.81141403218E+01 0.40822036667E+01 0.46739618137E-01 -.24986492169E+01
 -.25346228081E+01 -.39730160213E+01 -.63802149923E+00 0.40360297565E+01 0.84075332817E+01
 0.11202941477E+02 0.11978067434E+02 0.11124200256E+02 0.95056629054E+01 0.78494587265E+01
 0.63988123589E+01 0.52500675197E+01 0.44270009915E+01 0.39159204121E+01 0.36961052488E+01
 0.37563876427E+01 0.40998526368E+01 0.47425572876E+01 0.57045201664E+01 0.69865010571E+01
 0.85347730983E+01 0.10206135441E+02 0.11556701420E+02 0.11709032039E+02 0.99753752856E+01
 0.63391122541E+01 0.16623964230E+01 -.25347456831E+01 -.46978109253E+01 -.39726947692E+01
 -.29012101716E+01 0.51731671277E+00 0.49838650192E+01 0.89451750482E+01 0.11278784067E+02
 0.11681557216E+02 0.10623407806E+02 0.89661512955E+01 0.73371958978E+01 0.59364279728E+01
 0.48460368402E+01 0.40799167333E+01 0.36188343304E+01 0.34399870455E+01 0.35326545238E+01
 0.39025183751E+01 0.45693482811E+01 0.55552880075E+01 0.68586902301E+01 0.84183030794E+01
 0.10078529597E+02 0.11352714186E+02 0.11376840691E+02 0.95425629082E+01 0.59387060131E+01
 0.14982313581E+01 -.22811989723E+01 -.29013735536E+01 -.39727357107E+01 -.22811228798E+01
 0.14982545450E+01 0.59386877036E+01 0.95426497786E+01 0.11376997293E+02 0.11352783593E+02
 0.10078542987E+02 0.84184069631E+01 0.68588350619E+01 0.55553069554E+01 0.45692757704E+01
 0.39025186648E+01 0.35327079009E+01 0.34399548528E+01 0.36187544233E+01 0.40799237530E+01
 0.48460712417E+01 0.59363336770E+01 0.73370230408E+01 0.89660580011E+01 0.10623357076E+02
 0.11681420829E+02 0.11278641766E+02 0.89451846987E+01 0.49839354961E+01 0.51724374199E+00
 0.65006455303E+00 -.21361876146E+01 -.25344064051E+01 -.40986384638E+00 0.33704234062E+01
 0.73746454807E+01 0.10280604925E+02 0.11413554108E+02 0.10902242269E+02 0.94479195188E+01
 0.78264936221E+01 0.63620058944E+01 0.51746003571E+01 0.43040627877E+01 0.37418512787E+01
 0.34648945745E+01 0.34575851938E+01 0.37197445115E+01 0.42664334528E+01 0.51213605703E+01
 0.62987359931E+01 0.77724597427E+01 0.94428184734E+01 0.11062617130E+02 0.11924615949E+02
 0.11235554178E+02 0.86847605515E+01 0.47515373508E+01 0.53130561899E+01 0.18762185219E+01
 -.14227634090E+00 0.46919334359E-01 0.23243509902E+01 0.57304060988E+01 0.89510461305E+01
 0.10930585309E+02 0.11280994601E+02 0.10317575912E+02 0.87684528707E+01 0.72193400108E+01
 0.58713672305E+01 0.48123730982E+01 0.40620356779E+01 0.36044604144E+01 0.34180820907E+01
 0.34921920133E+01 0.38312885201E+01 0.44532937914E+01 0.53812465309E+01 0.66232082695E+01
 0.81417236702E+01 0.98243407520E+01 0.11388849559E+02 0.12118836919E+02 0.11329735617E+02
 0.88637406103E+01 0.94572348865E+01 0.65490249897E+01 0.39379420181E+01 0.26759415898E+01
 0.32604987320E+01 0.53841800730E+01 0.81042051136E+01 0.10323923376E+02 0.11301694529E+02
 0.10921135321E+02 0.96257559157E+01 0.80766280885E+01 0.66268426849E+01 0.54105538327E+01
 0.44849530872E+01 0.38533072777E+01 0.34958580296E+01 0.33941878448E+01 0.35422599474E+01
 0.39480593111E+01 0.46308156869E+01 0.56113842076E+01 0.68912516730E+01 0.84237655940E+01
 0.10089439680E+02 0.11596712676E+02 0.12278915726E+02 0.11577012135E+02 0.11918743134E+02
 0.10319532935E+02 0.81831873048E+01 0.64115357438E+01 0.57749625186E+01 0.65146837867E+01
 0.82228708075E+01 0.10070220449E+02 0.11236834027E+02 0.11294540360E+02 0.10347259232E+02
 0.88926556966E+01 0.74067422283E+01 0.60780238405E+01 0.50008069313E+01 0.42062822667E+01
 0.36862975751E+01 0.34204591826E+01 0.33942271812E+01 0.36053449522E+01 0.40638901431E+01
 0.47889444482E+01 0.57980683947E+01 0.70864527441E+01 0.86010211405E+01 0.10220914338E+02
 0.11675289154E+02 0.12386611822E+02 0.12394603339E+02 0.12240200384E+02 0.11227925975E+02
 0.98605213675E+01 0.88209546252E+01 0.86118632548E+01 0.92834617103E+01 0.10415104626E+02
 0.11356903629E+02 0.11578620171E+02 0.10923403810E+02 0.96417823414E+01 0.81811659625E+01
 0.67929767293E+01 0.55988304424E+01 0.46597372857E+01 0.39874518706E+01 0.35675863647E+01
 0.33814369060E+01 0.34181824632E+01 0.36781553551E+01 0.41722370643E+01 0.49181612427E+01
 0.59295095973E+01 0.71959492104E+01 0.86608727358E+01 0.10207028933E+02 0.11606981391E+02
 0.11373946016E+02 0.12244465995E+02 0.12408815977E+02 0.11948817568E+02 0.11243548425E+02
 0.10757725851E+02 0.10771934249E+02 0.11221170494E+02 0.11741244499E+02 0.11888641646E+02
 0.11394220602E+02 0.10302898533E+02 0.89242481146E+01 0.75327280510E+01 0.62661301681E+01
 0.52102787180E+01 0.44006149383E+01 0.38365660392E+01 0.35018531609E+01 0.33806099638E+01
 0.34650035214E+01 0.37568498137E+01 0.42668432129E+01 0.50104881594E+01 0.59970773314E+01
 0.72117686118E+01 0.85970778039E+01 0.10043398345E+02 0.97347907522E+01 0.10969524309E+02
 0.11891798849E+02 0.12318805553E+02 0.12304313906E+02 0.12096840805E+02 0.11971530496E+02
 0.12048428436E+02 0.12215850208E+02 0.12206615143E+02 0.11773733254E+02 0.10851911640E+02
 0.96060854463E+01 0.82700335847E+01 0.69844660964E+01 0.58510230321E+01 0.49275667997E+01
 0.42324000006E+01 0.37589529998E+01 0.34919301148E+01 0.34184297020E+01 0.35327482387E+01
 0.38374344920E+01 0.43423780732E+01 0.50603021430E+01 0.59961838740E+01 0.71317262253E+01
 0.84108565291E+01 0.81114119012E+01 0.92961960825E+01 0.10409657489E+02 0.11328876978E+02
 0.11926900348E+02 0.12218571420E+02 0.12335726913E+02 0.12408526353E+02 0.12458003284E+02
 0.12375383088E+02 0.12001103470E+02 0.11247735522E+02 0.10182792445E+02 0.89667511869E+01
 0.77255055525E+01 0.65665653493E+01 0.55653649881E+01 0.47603436012E+01 0.41603865054E+01
 0.37575597003E+01 0.35388896917E+01 0.34940065647E+01 0.36187352328E+01 0.39160686789E+01
 0.43948430626E+01 0.50647514768E+01 0.59266234873E+01 0.69597284131E+01 0.67055279524E+01
 0.77157477092E+01 0.87527134605E+01 0.97363225205E+01 0.10596140592E+02 0.11267706771E+02
 0.11731448640E+02 0.12029161622E+02 0.12194028898E+02 0.12198240716E+02 0.11962590656E+02
 0.11421591379E+02 0.10594629473E+02 0.95700465096E+01 0.84467879097E+01 0.73283601175E+01
 0.63006917648E+01 0.54201487323E+01 0.47137977440E+01 0.41870477710E+01 0.38332557889E+01
 0.36420147178E+01 0.36050383797E+01 0.37195591680E+01 0.39891601193E+01 0.44216752929E+01
 0.50237573525E+01 0.57924089803E+01 0.56013063316E+01 0.63840608230E+01 0.72476805856E+01
 0.81378744682E+01 0.89969869416E+01 0.97766451636E+01 0.10444840405E+02 0.10978804887E+02
 0.11362428073E+02 0.11573806412E+02 0.11569796693E+02 0.11306781998E+02 0.10778084646E+02
 0.10016797745E+02 0.90918777153E+01 0.80924039559E+01 0.71055446609E+01 0.62002326568E+01
 0.54209711148E+01 0.47898823243E+01 0.43125907389E+01 0.39848000564E+01 0.37985330797E+01
 0.37475693756E+01 0.38309521084E+01 0.40532983428E+01 0.44216486998E+01 0.49397562237E+01
 0.48173932480E+01 0.53642627318E+01 0.60144348595E+01 0.67359831515E+01 0.74904366146E+01
 0.82393415703E+01 0.89497145283E+01 0.95946114573E+01 0.10147703360E+02 0.10575709478E+02
 0.10835849892E+02 0.10883411382E+02 0.10687603938E+02 0.10247273965E+02 0.95971555755E+01
 0.88009660756E+01 0.79353670883E+01 0.70730234333E+01 0.62714464161E+01 0.55693215648E+01
 0.49879523030E+01 0.45348623389E+01 0.42083791453E+01 0.40031539084E+01 0.39156904799E+01
 0.39476542537E+01 0.41052042435E+01 0.43947563814E+01 0.43422131266E+01 0.46632920200E+01
 0.50947861507E+01 0.56185537028E+01 0.62117548440E+01 0.68501819309E+01 0.75104177208E+01
 0.81697328690E+01 0.88031618391E+01 0.93788300823E+01 0.98549083657E+01 0.10182322358E+02
 0.10314744352E+02 0.10222582566E+02 0.99042890780E+01 0.93891620438E+01 0.87303915515E+01
 0.79921087502E+01 0.72363656903E+01 0.65143858033E+01 0.58629492473E+01 0.53043647633E+01
 0.48485380498E+01 0.44968523501E+01 0.42476278760E+01 0.41014355531E+01 0.40635210673E+01
 0.41418641663E+01 0.41608796635E+01 0.42665815520E+01 0.44858625588E+01 0.48081867686E+01
 0.52193781544E+01 0.57053962085E+01 0.62536758615E+01 0.68514942296E+01 0.74824121710E+01
 0.81222063843E+01 0.87357891156E+01 0.92770920710E+01 0.96938260410E+01 0.99372246427E+01
 0.99739566503E+01 0.97954992372E+01 0.94209524168E+01 0.88921938620E+01 0.82636749965E+01
 0.75911025231E+01 0.69227470669E+01 0.62949065307E+01 0.57310727740E+01 0.52438580555E+01
 0.48390312244E+01 0.45206369996E+01 0.42950955997E+01 0.41719752296E+01 0.42667002791E+01
 0.41609000526E+01 0.41718813726E+01 0.42949782218E+01 0.45205646037E+01 0.48389878754E+01
 0.52438119555E+01 0.57310259772E+01 0.62948618116E+01 0.69226945375E+01 0.75910558890E+01
 0.82636642208E+01 0.88922120840E+01 0.94209617574E+01 0.97954906858E+01 0.99739521762E+01
 0.99372248976E+01 0.96938129624E+01 0.92770792326E+01 0.87358124439E+01 0.81222678653E+01
 0.74824836063E+01 0.68515651707E+01 0.62537459932E+01 0.57054426627E+01 0.52193935339E+01
 0.48082249299E+01 0.44859700816E+01 0.46633433181E+01 0.43423213231E+01 0.41419204772E+01
 0.40634847613E+01 0.41013625526E+01 0.42475654891E+01 0.44967965145E+01 0.48484886310E+01
 0.53043377898E+01 0.58629324343E+01 0.65143529567E+01 0.72363318684E+01 0.79921074703E+01
 0.87304090464E+01 0.93891579824E+01 0.99042667660E+01 0.10222574844E+02 0.10314749405E+02
 0.10182318753E+02 0.98549126973E+01 0.93788744429E+01 0.88032360650E+01 0.81698098165E+01
 0.75105037986E+01 0.68502776167E+01 0.62118072895E+01 0.56185296340E+01 0.50947545936E+01
 0.53641580510E+01 0.48173747141E+01 0.43948311186E+01 0.41052826362E+01 0.39476885416E+01
 0.39156936221E+01 0.40031277283E+01 0.42083217651E+01 0.45348135370E+01 0.49879467487E+01
 0.55693288334E+01 0.62714275106E+01 0.70730030800E+01 0.79353802517E+01 0.88009835886E+01
 0.95971369551E+01 0.10247244222E+02 0.10687605612E+02 0.10883431552E+02 0.10835864166E+02
 0.10575742201E+02 0.10147774745E+02 0.95946857675E+01 0.89497697207E+01 0.82394198766E+01
 0.74905489725E+01 0.67360408790E+01 0.60143715570E+01 0.63839711479E+01 0.56011618238E+01
 0.49396911819E+01 0.44216842004E+01 0.40533781319E+01 0.38310422033E+01 0.37476411247E+01
 0.37985385677E+01 0.39847450145E+01 0.43125545796E+01 0.47899034396E+01 0.54209944736E+01
 0.62002210518E+01 0.71055436672E+01 0.80924410476E+01 0.90918999909E+01 0.10016772112E+02
 0.10778061692E+02 0.11306801543E+02 0.11569827925E+02 0.11573834067E+02 0.11362491651E+02
 0.10978899414E+02 0.10444892690E+02 0.97766464039E+01 0.89970274378E+01 0.81379784544E+01
 0.72477305934E+01 0.77157667948E+01 0.67054318021E+01 0.57922778761E+01 0.50236876943E+01
 0.44216761348E+01 0.39892180951E+01 0.37196688870E+01 0.36051384180E+01 0.36420250365E+01
 0.38332047996E+01 0.41870401074E+01 0.47138476793E+01 0.54201764342E+01 0.63006841034E+01
 0.73283879847E+01 0.84468562546E+01 0.95700772435E+01 0.10594608220E+02 0.11421587638E+02
 0.11962621924E+02 0.12198260277E+02 0.12194051311E+02 0.12029245924E+02 0.11731551465E+02
 0.11267715563E+02 0.10596067685E+02 0.97363006503E+01 0.87527738227E+01 0.92961834255E+01
 0.81113780109E+01 0.69596453586E+01 0.59265519251E+01 0.50647101701E+01 0.43948139853E+01
 0.39160866166E+01 0.36188252503E+01 0.34940861765E+01 0.35388775309E+01 0.37575195901E+01
 0.41604204855E+01 0.47604159647E+01 0.55653848202E+01 0.65665648066E+01 0.77255709829E+01
 0.89668486239E+01 0.10182828627E+02 0.11247726638E+02 0.12001121584E+02 0.12375405684E+02
 0.12457980293E+02 0.12408520706E+02 0.12335812636E+02 0.12218661277E+02 0.11926856739E+02
 0.11328736824E+02 0.10409568947E+02 0.10969392284E+02 0.97346984716E+01 0.84107636595E+01
 0.71316714108E+01 0.59961904364E+01 0.50602955063E+01 0.43423206089E+01 0.38374086894E+01
 0.35327959201E+01 0.34184578053E+01 0.34918871191E+01 0.37589383780E+01 0.42324800964E+01
 0.49276470147E+01 0.58510284104E+01 0.69844827218E+01 0.82701377891E+01 0.96061948117E+01
 0.10851940630E+02 0.11773737759E+02 0.12206649561E+02 0.12215844548E+02 0.12048346454E+02
 0.11971485956E+02 0.12096906745E+02 0.12304368615E+02 0.12318718316E+02 0.11891628380E+02
 0.12244319519E+02 0.11373814164E+02 0.10043249122E+02 0.85969449172E+01 0.72117528741E+01
 0.59971499327E+01 0.50104986926E+01 0.42667622427E+01 0.37567972577E+01 0.34650121959E+01
 0.33805852565E+01 0.35017949857E+01 0.38365941619E+01 0.44007333209E+01 0.52103490353E+01
 0.62661241789E+01 0.75327735444E+01 0.89243779886E+01 0.10302988169E+02 0.11394224238E+02
 0.11888657258E+02 0.11741291245E+02 0.11221137269E+02 0.10771810752E+02 0.10757654579E+02
 0.11243577731E+02 0.11948818266E+02 0.12408707343E+02 0.12240097250E+02 0.12394530401E+02
 0.11606894370E+02 0.10206865835E+02 0.86607402071E+01 0.71959806019E+01 0.59296180659E+01
 0.49181657620E+01 0.41721493411E+01 0.36781094140E+01 0.34181743518E+01 0.33813815619E+01
 0.35675424007E+01 0.39875322425E+01 0.46598731644E+01 0.55988752880E+01 0.67929699399E+01
 0.81812445333E+01 0.96419089357E+01 0.10923437599E+02 0.11578585420E+02 0.11356930721E+02
 0.10415167669E+02 0.92834282231E+01 0.86117495630E+01 0.88208887761E+01 0.98605048790E+01
 0.11227861832E+02 0.10319407868E+02 0.11918669860E+02 0.12386636902E+02 0.11675271523E+02
 0.10220782486E+02 0.86009360167E+01 0.70865352669E+01 0.57981808914E+01 0.47889314851E+01
 0.40638236407E+01 0.36053391553E+01 0.33942250622E+01 0.34204015365E+01 0.36862936230E+01
 0.42064071947E+01 0.50009294086E+01 0.60780328907E+01 0.74067455352E+01 0.88927571559E+01
 0.10347345547E+02 0.11294494456E+02 0.11236762985E+02 0.10070261977E+02 0.82229556367E+01
 0.65146883519E+01 0.57749199747E+01 0.64115109610E+01 0.81831251897E+01 0.65489273719E+01
 0.94570729387E+01 0.11576987272E+02 0.12279030113E+02 0.11596759115E+02 0.10089369527E+02
 0.84237623836E+01 0.68913796961E+01 0.56114766250E+01 0.46307899087E+01 0.39480403713E+01
 0.35423077859E+01 0.33941980961E+01 0.34958167479E+01 0.38533517765E+01 0.44850953013E+01
 0.54106290854E+01 0.66268122006E+01 0.80766453339E+01 0.96258557403E+01 0.10921150950E+02
 0.11301572077E+02 0.10323835327E+02 0.81042589382E+01 0.53842783321E+01 0.32605623546E+01
 0.26760068960E+01 0.39379770017E+01 0.18763028401E+01 0.53129422243E+01 0.88635844613E+01
 0.11329770650E+02 0.12119005082E+02 0.11388930893E+02 0.98243404326E+01 0.81418096091E+01
 0.66233610057E+01 0.53813032870E+01 0.44532677032E+01 0.38313253338E+01 0.34922760293E+01
 0.34180906457E+01 0.36044389533E+01 0.40621162570E+01 0.48124931822E+01 0.58713691871E+01
 0.72192732280E+01 0.87684769595E+01 0.10317642398E+02 0.11280929742E+02 0.10930420374E+02
 0.89509702883E+01 0.57304576400E+01 0.23244314433E+01 0.47025729917E-01 -.14211517942E+00
 -.21359884491E+01 0.65016326450E+00 0.47514323442E+01 0.86846595688E+01 0.11235650171E+02
 0.11924790286E+02 0.11062696755E+02 0.94428763595E+01 0.77726114707E+01 0.62988786653E+01
 0.51213726485E+01 0.42664162738E+01 0.37198198723E+01 0.34576642349E+01 0.34648784711E+01
 0.37418434105E+01 0.43041533311E+01 0.51746611302E+01 0.63619265810E+01 0.78264003766E+01
 0.94479340476E+01 0.10902247531E+02 0.11413425127E+02 0.10280452067E+02 0.73746092034E+01
 0.33704481554E+01 -.40984573431E+00 -.25343062529E+01 -.29221842687E-01 0.65072376592E+00
 0.32837912400E+01 0.68294801289E+01 0.99769070518E+01 0.11744817443E+02 0.11848508012E+02
 0.10688499740E+02 0.90256352440E+01 0.74010601708E+01 0.59960545387E+01 0.48908310658E+01
 0.41001895822E+01 0.36053916664E+01 0.33825776776E+01 0.34185232304E+01 0.37155837669E+01
 0.42909272549E+01 0.51678715219E+01 0.63534609037E+01 0.78053902036E+01 0.94031163632E+01
 0.10839673224E+02 0.11399633594E+02 0.10464328445E+02 0.79676587325E+01 0.45757337988E+01
 0.14987074588E+01 0.51782529133E+00 -.63705513302E+00 0.51792314810E+00 0.35070487151E+01
 0.71459325290E+01 0.10121327297E+02 0.11573237537E+02 0.11383400054E+02 0.10076675608E+02
 0.84297852771E+01 0.68791932504E+01 0.55742739786E+01 0.45772474219E+01 0.38913500289E+01
 0.34942519465E+01 0.33645142279E+01 0.34941592275E+01 0.38913175002E+01 0.45772808182E+01
 0.55742291489E+01 0.68790765578E+01 0.84297588650E+01 0.10076752441E+02 0.11383424281E+02
 0.11573178840E+02 0.10121309124E+02 0.71459616277E+01 0.35070046299E+01 0.32837319084E+01
 0.65064339601E+00 -.29189432964E-01 0.14987884253E+01 0.45757348308E+01 0.79676365673E+01