   2   2   0   0
  0.1529437E+02  0.3691622E-09  0.3691622E-09  0.3691622E-09  0.5000000E-15
  1.000000000000000E-004
  CAR 
 unknown system                          
     23.56409731     -6.56128013  301      9.11370211      1.00000000
     -6.561  0.0000E+00  0.0000E+00
     -6.461  0.0000E+00  0.0000E+00
     -6.360  0.0000E+00  0.0000E+00
     -6.260  0.0000E+00  0.0000E+00
     -6.160  0.0000E+00  0.0000E+00
     -6.059  0.0000E+00  0.0000E+00
     -5.959  0.0000E+00  0.0000E+00
     -5.858  0.0000E+00  0.0000E+00
     -5.758  0.0000E+00  0.0000E+00
     -5.658  0.1399E-16  0.1405E-17
     -5.557  0.2915E-14  0.2941E-15
     -5.457  0.3718E-12  0.3763E-13
     -5.356  0.2894E-10  0.2944E-11
     -5.256  0.1378E-08  0.1414E-09
     -5.155  0.4032E-07  0.4190E-08
     -5.055  0.7289E-06  0.7739E-07
     -4.955  0.8236E-05  0.9044E-06
     -4.854  0.5938E-04  0.6867E-05
     -4.754  0.2833E-03  0.3532E-04
     -4.653  0.9441E-03  0.1301E-03
     -4.553  0.2325E-02  0.3636E-03
     -4.453  0.4366E-02  0.8020E-03
     -4.352  0.6347E-02  0.1439E-02
     -4.252  0.7653E-02  0.2208E-02
     -4.151  0.8887E-02  0.3100E-02
     -4.051  0.1061E-01  0.4165E-02
     -3.950  0.1198E-01  0.5368E-02
     -3.850  0.1261E-01  0.6635E-02
     -3.750  0.1325E-01  0.7965E-02
     -3.649  0.1422E-01  0.9394E-02
     -3.549  0.1521E-01  0.1092E-01
     -3.448  0.1589E-01  0.1252E-01
     -3.348  0.1608E-01  0.1413E-01
     -3.247  0.1572E-01  0.1571E-01
     -3.147  0.1614E-01  0.1733E-01
     -3.047  0.1906E-01  0.1924E-01
     -2.946  0.2283E-01  0.2154E-01
     -2.846  0.2370E-01  0.2392E-01
     -2.745  0.2082E-01  0.2601E-01
     -2.645  0.1718E-01  0.2773E-01
     -2.545  0.1637E-01  0.2938E-01
     -2.444  0.1928E-01  0.3131E-01
     -2.344  0.2349E-01  0.3367E-01
     -2.243  0.2592E-01  0.3628E-01
     -2.143  0.2587E-01  0.3887E-01
     -2.042  0.2532E-01  0.4142E-01
     -1.942  0.2590E-01  0.4402E-01
     -1.842  0.2678E-01  0.4671E-01
     -1.741  0.2629E-01  0.4935E-01
     -1.641  0.2447E-01  0.5180E-01
     -1.540  0.2277E-01  0.5409E-01
     -1.440  0.2278E-01  0.5638E-01
     -1.340  0.2576E-01  0.5896E-01
     -1.239  0.3051E-01  0.6203E-01
     -1.139  0.3362E-01  0.6540E-01
     -1.038  0.3330E-01  0.6875E-01
     -0.938  0.3017E-01  0.7178E-01
     -0.837  0.2653E-01  0.7444E-01
     -0.737  0.2526E-01  0.7698E-01
     -0.637  0.2723E-01  0.7971E-01
     -0.536  0.3084E-01  0.8281E-01
     -0.436  0.3437E-01  0.8626E-01
     -0.335  0.3694E-01  0.8997E-01
     -0.235  0.3766E-01  0.9375E-01
     -0.135  0.3615E-01  0.9738E-01
     -0.034  0.3381E-01  0.1008E+00
      0.066  0.3196E-01  0.1040E+00
      0.167  0.3050E-01  0.1070E+00
      0.267  0.3098E-01  0.1102E+00
      0.368  0.3449E-01  0.1136E+00
      0.468  0.3706E-01  0.1173E+00
      0.568  0.3550E-01  0.1209E+00
      0.669  0.3378E-01  0.1243E+00
      0.769  0.3648E-01  0.1280E+00
      0.870  0.4235E-01  0.1322E+00
      0.970  0.4786E-01  0.1370E+00
      1.070  0.5013E-01  0.1421E+00
      1.171  0.4709E-01  0.1468E+00
      1.271  0.4044E-01  0.1508E+00
      1.372  0.3614E-01  0.1545E+00
      1.472  0.3715E-01  0.1582E+00
      1.573  0.3906E-01  0.1621E+00
      1.673  0.3693E-01  0.1658E+00
      1.773  0.3186E-01  0.1690E+00
      1.874  0.2894E-01  0.1719E+00
      1.974  0.3168E-01  0.1751E+00
      2.075  0.3783E-01  0.1789E+00
      2.175  0.4238E-01  0.1832E+00
      2.275  0.4401E-01  0.1876E+00
      2.376  0.4342E-01  0.1920E+00
      2.476  0.4001E-01  0.1960E+00
      2.577  0.3525E-01  0.1995E+00
      2.677  0.3206E-01  0.2027E+00
      2.778  0.3121E-01  0.2059E+00
      2.878  0.3270E-01  0.2092E+00
      2.978  0.3600E-01  0.2128E+00
      3.079  0.3888E-01  0.2167E+00
      3.179  0.4043E-01  0.2207E+00
      3.280  0.4226E-01  0.2250E+00
      3.380  0.4487E-01  0.2295E+00
      3.481  0.4622E-01  0.2341E+00
      3.581  0.4442E-01  0.2386E+00
      3.681  0.4093E-01  0.2427E+00
      3.782  0.4049E-01  0.2468E+00
      3.882  0.4516E-01  0.2513E+00
      3.983  0.5069E-01  0.2564E+00
      4.083  0.5149E-01  0.2616E+00
      4.183  0.4620E-01  0.2662E+00
      4.284  0.3858E-01  0.2701E+00
      4.384  0.3400E-01  0.2735E+00
      4.485  0.3444E-01  0.2769E+00
      4.585  0.3877E-01  0.2808E+00
      4.686  0.4520E-01  0.2854E+00
      4.786  0.5220E-01  0.2906E+00
      4.886  0.5924E-01  0.2966E+00
      4.987  0.6415E-01  0.3030E+00
      5.087  0.6265E-01  0.3093E+00
      5.188  0.5561E-01  0.3149E+00
      5.288  0.4928E-01  0.3198E+00
      5.388  0.4676E-01  0.3245E+00
      5.489  0.4731E-01  0.3293E+00
      5.589  0.4987E-01  0.3343E+00
      5.690  0.5199E-01  0.3395E+00
      5.790  0.5133E-01  0.3447E+00
      5.891  0.4921E-01  0.3496E+00
      5.991  0.4878E-01  0.3545E+00
      6.091  0.5172E-01  0.3597E+00
      6.192  0.5816E-01  0.3655E+00
      6.292  0.6595E-01  0.3722E+00
      6.393  0.6963E-01  0.3791E+00
      6.493  0.6463E-01  0.3856E+00
      6.593  0.5384E-01  0.3910E+00
      6.694  0.4629E-01  0.3957E+00
      6.794  0.4929E-01  0.4006E+00
      6.895  0.6108E-01  0.4068E+00
      6.995  0.7089E-01  0.4139E+00
      7.096  0.7120E-01  0.4210E+00
      7.196  0.6724E-01  0.4278E+00
      7.296  0.6726E-01  0.4345E+00
      7.397  0.7029E-01  0.4416E+00
      7.497  0.7127E-01  0.4488E+00
      7.598  0.6979E-01  0.4558E+00
      7.698  0.6686E-01  0.4625E+00
      7.798  0.6246E-01  0.4688E+00
      7.899  0.5821E-01  0.4746E+00
      7.999  0.5580E-01  0.4802E+00
      8.100  0.5500E-01  0.4857E+00
      8.200  0.5382E-01  0.4911E+00
      8.301  0.5056E-01  0.4962E+00
      8.401  0.4723E-01  0.5010E+00
      8.501  0.4595E-01  0.5056E+00
      8.602  0.4437E-01  0.5100E+00
      8.702  0.4241E-01  0.5143E+00
      8.803  0.4359E-01  0.5187E+00
      8.903  0.4743E-01  0.5234E+00
      9.003  0.4903E-01  0.5283E+00
      9.104  0.4553E-01  0.5329E+00
      9.204  0.4044E-01  0.5370E+00
      9.305  0.4051E-01  0.5410E+00
      9.405  0.4710E-01  0.5458E+00
      9.506  0.5487E-01  0.5513E+00
      9.606  0.5802E-01  0.5571E+00
      9.706  0.5467E-01  0.5626E+00
      9.807  0.4790E-01  0.5674E+00
      9.907  0.4213E-01  0.5716E+00
     10.008  0.3912E-01  0.5756E+00
     10.108  0.3874E-01  0.5795E+00
     10.209  0.4038E-01  0.5835E+00
     10.309  0.4383E-01  0.5879E+00
     10.409  0.4951E-01  0.5929E+00
     10.510  0.5466E-01  0.5984E+00
     10.610  0.5405E-01  0.6038E+00
     10.711  0.4909E-01  0.6087E+00
     10.811  0.4778E-01  0.6135E+00
     10.911  0.5409E-01  0.6190E+00
     11.012  0.6397E-01  0.6254E+00
     11.112  0.7012E-01  0.6324E+00
     11.213  0.6936E-01  0.6394E+00
     11.313  0.6528E-01  0.6460E+00
     11.414  0.6008E-01  0.6520E+00
     11.514  0.5331E-01  0.6573E+00
     11.614  0.4928E-01  0.6623E+00
     11.715  0.5285E-01  0.6676E+00
     11.815  0.6031E-01  0.6737E+00
     11.916  0.6442E-01  0.6801E+00
     12.016  0.6450E-01  0.6866E+00
     12.116  0.6365E-01  0.6930E+00
     12.217  0.6277E-01  0.6993E+00
     12.317  0.6236E-01  0.7056E+00
     12.418  0.6350E-01  0.7119E+00
     12.518  0.6528E-01  0.7185E+00
     12.619  0.6674E-01  0.7252E+00
     12.719  0.7025E-01  0.7322E+00
     12.819  0.7680E-01  0.7400E+00
     12.920  0.8117E-01  0.7481E+00
     13.020  0.7950E-01  0.7561E+00
     13.121  0.7471E-01  0.7636E+00
     13.221  0.6979E-01  0.7706E+00
     13.321  0.6604E-01  0.7772E+00
     13.422  0.6556E-01  0.7838E+00
     13.522  0.6672E-01  0.7905E+00
     13.623  0.6601E-01  0.7971E+00
     13.723  0.6457E-01  0.8036E+00
     13.824  0.6390E-01  0.8100E+00
     13.924  0.6249E-01  0.8163E+00
     14.024  0.6133E-01  0.8225E+00
     14.125  0.6469E-01  0.8290E+00
     14.225  0.7209E-01  0.8362E+00
     14.326  0.7750E-01  0.8440E+00
     14.426  0.7844E-01  0.8519E+00
     14.526  0.7734E-01  0.8596E+00
     14.627  0.7443E-01  0.8671E+00
     14.727  0.6842E-01  0.8740E+00
     14.828  0.6280E-01  0.8803E+00
     14.928  0.6142E-01  0.8865E+00
     15.029  0.6112E-01  0.8926E+00
     15.129  0.5909E-01  0.8985E+00
     15.229  0.5974E-01  0.9045E+00
     15.330  0.6642E-01  0.9112E+00
     15.430  0.7516E-01  0.9187E+00
     15.531  0.7929E-01  0.9267E+00
     15.631  0.7558E-01  0.9343E+00
     15.731  0.6659E-01  0.9410E+00
     15.832  0.5658E-01  0.9467E+00
     15.932  0.4844E-01  0.9515E+00
     16.033  0.4324E-01  0.9559E+00
     16.133  0.3952E-01  0.9598E+00
     16.234  0.3849E-01  0.9637E+00
     16.334  0.4299E-01  0.9680E+00
     16.434  0.4901E-01  0.9729E+00
     16.535  0.4991E-01  0.9779E+00
     16.635  0.4477E-01  0.9824E+00
     16.736  0.3771E-01  0.9862E+00
     16.836  0.3414E-01  0.9897E+00
     16.937  0.3537E-01  0.9932E+00
     17.037  0.3783E-01  0.9970E+00
     17.137  0.3916E-01  0.1001E+01
     17.238  0.3943E-01  0.1005E+01
     17.338  0.3872E-01  0.1009E+01
     17.439  0.3857E-01  0.1013E+01
     17.539  0.4103E-01  0.1017E+01
     17.639  0.4401E-01  0.1021E+01
     17.740  0.4343E-01  0.1026E+01
     17.840  0.3914E-01  0.1029E+01
     17.941  0.3388E-01  0.1033E+01
     18.041  0.2933E-01  0.1036E+01
     18.142  0.2607E-01  0.1038E+01
     18.242  0.2420E-01  0.1041E+01
     18.342  0.2337E-01  0.1043E+01
     18.443  0.2263E-01  0.1046E+01
     18.543  0.2088E-01  0.1048E+01
     18.644  0.1873E-01  0.1049E+01
     18.744  0.1705E-01  0.1051E+01
     18.844  0.1445E-01  0.1053E+01
     18.945  0.1014E-01  0.1054E+01
     19.045  0.6496E-02  0.1054E+01
     19.146  0.6025E-02  0.1055E+01
     19.246  0.8092E-02  0.1056E+01
     19.347  0.9455E-02  0.1057E+01
     19.447  0.8092E-02  0.1058E+01
     19.547  0.6088E-02  0.1058E+01
     19.648  0.6717E-02  0.1059E+01
     19.748  0.9566E-02  0.1060E+01
     19.849  0.1093E-01  0.1061E+01
     19.949  0.8785E-02  0.1062E+01
     20.049  0.5222E-02  0.1062E+01
     20.150  0.3076E-02  0.1063E+01
     20.250  0.2625E-02  0.1063E+01
     20.351  0.2962E-02  0.1063E+01
     20.451  0.3695E-02  0.1063E+01
     20.552  0.4281E-02  0.1064E+01
     20.652  0.4162E-02  0.1064E+01
     20.752  0.3729E-02  0.1065E+01
     20.853  0.3565E-02  0.1065E+01
     20.953  0.3439E-02  0.1065E+01
     21.054  0.2915E-02  0.1066E+01
     21.154  0.2075E-02  0.1066E+01
     21.254  0.1365E-02  0.1066E+01
     21.355  0.1115E-02  0.1066E+01
     21.455  0.1269E-02  0.1066E+01
     21.556  0.1439E-02  0.1066E+01
     21.656  0.1229E-02  0.1067E+01
     21.757  0.7043E-03  0.1067E+01
     21.857  0.2588E-03  0.1067E+01
     21.957  0.5983E-04  0.1067E+01
     22.058  0.8620E-05  0.1067E+01
     22.158  0.7698E-06  0.1067E+01
     22.259  0.4245E-07  0.1067E+01
     22.359  0.1440E-08  0.1067E+01
     22.460  0.3000E-10  0.1067E+01
     22.560  0.3826E-12  0.1067E+01
     22.660  0.2981E-14  0.1067E+01
     22.761  0.1433E-16  0.1067E+01
     22.861  0.0000E+00  0.1067E+01
     22.962  0.0000E+00  0.1067E+01
     23.062  0.0000E+00  0.1067E+01
     23.162  0.0000E+00  0.1067E+01
     23.263  0.0000E+00  0.1067E+01
     23.363  0.0000E+00  0.1067E+01
     23.464  0.0000E+00  0.1067E+01
     23.564  0.0000E+00  0.1067E+01
