unknown system                          
   1.00000000000000     
     0.000000    2.760067    2.760067
     2.760067    0.000000    2.760067
     2.760067    2.760067    0.000000
   Si
     2
Direct
  0.500000  0.500000  0.500000
  0.750000  0.750000  0.750000
 
   36   36   36
 0.82914     0.84468     0.89240     0.97540      1.0984      1.2674      1.4887      1.7688      2.1134      2.5258    
  3.0052      3.5441      4.1256      4.7229      5.2993      5.8119      6.2173      6.4778      6.5676      6.4778    
  6.2173      5.8119      5.2993      4.7230      4.1257      3.5442      3.0053      2.5258      2.1134      1.7688    
  1.4887      1.2674      1.0984     0.97540     0.89240     0.84468     0.84468     0.87179     0.92777      1.0159    
  1.1407      1.3072      1.5208      1.7863      2.1068      2.4828      2.9101      3.3783      3.8690      4.3560    
  4.8070      5.1866      5.4616      5.6063      5.6063      5.4617      5.1866      4.8070      4.3561      3.8690    
  3.3783      2.9101      2.4827      2.1067      1.7862      1.5208      1.3072      1.1407      1.0159     0.92776    
 0.87179     0.84468     0.89240     0.92777     0.98905      1.0795      1.2032      1.3644      1.5673      1.8149    
  2.1085      2.4458      2.8204      3.2198      3.6256      4.0138      4.3566      4.6265      4.7994      4.8589    
  4.7994      4.6265      4.3567      4.0138      3.6257      3.2198      2.8204      2.4458      2.1084      1.8149    
  1.5673      1.3644      1.2032      1.0795     0.98905     0.92776     0.89239     0.88085     0.97540      1.0159    
  1.0795      1.1693      1.2888      1.4416      1.6307      1.8576      2.1217      2.4189      2.7412      3.0754    
  3.4040      3.7059      3.9586      4.1409      4.2366      4.2366      4.1409      3.9586      3.7059      3.4040    
  3.0754      2.7412      2.4189      2.1216      1.8576      1.6307      1.4417      1.2889      1.1693      1.0795    
  1.0159     0.97538     0.95573     0.95574      1.0984      1.1407      1.2032      1.2888      1.4007      1.5416    
  1.7134      1.9165      2.1487      2.4048      2.6759      2.9493      3.2091      3.4374      3.6165      3.7309    
  3.7702      3.7309      3.6165      3.4374      3.2091      2.9493      2.6759      2.4048      2.1487      1.9165    
  1.7134      1.5416      1.4007      1.2889      1.2032      1.1407      1.0984      1.0741      1.0662      1.0741    
  1.2674      1.3072      1.3644      1.4416      1.5416      1.6664      1.8170      1.9928      2.1907      2.4048    
  2.6264      2.8437      3.0428      3.2092      3.3292      3.3922      3.3922      3.3292      3.2092      3.0428    
  2.8436      2.6264      2.4048      2.1907      1.9928      1.8171      1.6664      1.5416      1.4417      1.3644    
  1.3072      1.2674      1.2424      1.2304      1.2304      1.2424      1.4887      1.5208      1.5673      1.6307    
  1.7134      1.8170      1.9418      2.0865      2.2474      2.4189      2.5927      2.7585      2.9047      3.0197    
  3.0933      3.1186      3.0933      3.0197      2.9047      2.7585      2.5927      2.4190      2.2475      2.0865    
  1.9419      1.8171      1.7134      1.6307      1.5673      1.5208      1.4887      1.4681      1.4568      1.4532    
  1.4568      1.4681      1.7688      1.7863      1.8149      1.8576      1.9165      1.9928      2.0865      2.1958    
  2.3174      2.4458      2.5739      2.6927      2.7931      2.8660      2.9044      2.9044      2.8660      2.7931    
  2.6927      2.5739      2.4458      2.3174      2.1958      2.0865      1.9928      1.9165      1.8576      1.8149    
  1.7863      1.7688      1.7594      1.7552      1.7537      1.7537      1.7552      1.7595      2.1134      2.1068    
  2.1085      2.1217      2.1487      2.1907      2.2474      2.3174      2.3974      2.4828      2.5674      2.6441    
  2.7057      2.7456      2.7595      2.7456      2.7057      2.6441      2.5674      2.4828      2.3974      2.3174    
  2.2474      2.1906      2.1487      2.1216      2.1084      2.1068      2.1134      2.1245      2.1362      2.1448    
  2.1480      2.1448      2.1362      2.1245      2.5258      2.4828      2.4458      2.4189      2.4048      2.4048    
  2.4189      2.4458      2.4828      2.5258      2.5700      2.6099      2.6402      2.6565      2.6565      2.6402    
  2.6099      2.5700      2.5258      2.4828      2.4458      2.4189      2.4048      2.4048      2.4189      2.4458    
  2.4828      2.5258      2.5700      2.6099      2.6402      2.6565      2.6565      2.6402      2.6099      2.5700    
  3.0052      2.9101      2.8204      2.7412      2.6759      2.6264      2.5927      2.5739      2.5674      2.5700    
  2.5781      2.5875      2.5947      2.5975      2.5948      2.5875      2.5781      2.5700      2.5673      2.5738    
  2.5927      2.6263      2.6759      2.7412      2.8204      2.9101      3.0053      3.0992      3.1841      3.2522    
  3.2964      3.3117      3.2964      3.2522      3.1841      3.0991      3.5441      3.3783      3.2198      3.0754    
  2.9493      2.8437      2.7585      2.6927      2.6441      2.6099      2.5875      2.5742      2.5681      2.5681    
  2.5742      2.5875      2.6099      2.6440      2.6926      2.7584      2.8436      2.9493      3.0754      3.2199    
  3.3783      3.5441      3.7083      3.8602      3.9880      4.0807      4.1295      4.1295      4.0807      3.9880    
  3.8601      3.7083      4.1256      3.8690      3.6256      3.4040      3.2091      3.0428      2.9047      2.7931    
  2.7057      2.6402      2.5947      2.5681      2.5593      2.5681      2.5948      2.6401      2.7056      2.7930    
  2.9046      3.0427      3.2091      3.4041      3.6257      3.8690      4.1257      4.3839      4.6287      4.8438    
  5.0123      5.1201      5.1572      5.1201      5.0123      4.8437      4.6287      4.3838      4.7229      4.3560    
  4.0138      3.7059      3.4374      3.2092      3.0197      2.8660      2.7456      2.6565      2.5975      2.5681    
  2.5681      2.5975      2.6565      2.7455      2.8659      3.0195      3.2092      3.4374      3.7060      4.0138    
  4.3561      4.7230      5.0995      5.4661      5.8001      6.0777      6.2771      6.3815      6.3815      6.2772    
  6.0777      5.8001      5.4661      5.0995      5.2993      4.8070      4.3566      3.9586      3.6165      3.3292    
  3.0933      2.9044      2.7595      2.6565      2.5948      2.5742      2.5948      2.6565      2.7594      2.9043    
  3.0931      3.3292      3.6165      3.9586      4.3567      4.8070      5.2993      5.8159      6.3322      6.8183    
  7.2419      7.5718      7.7815      7.8535      7.7815      7.5718      7.2419      6.8183      6.3322      5.8159    
  5.8119      5.1866      4.6265      4.1409      3.7309      3.3922      3.1186      2.9044      2.7456      2.6402    
  2.5875      2.5875      2.6401      2.7455      2.9043      3.1185      3.3921      3.7309      4.1410      4.6266    
  5.1866      5.8119      6.4835      7.1723      7.8410      8.4477      8.9500      9.3095      9.4971      9.4971    
  9.3095      8.9500      8.4478      7.8410      7.1723      6.4835      6.2173      5.4616      4.7994      4.2366    
  3.7702      3.3922      3.0933      2.8660      2.7057      2.6099      2.5781      2.6099      2.7056      2.8659    
  3.0931      3.3921      3.7702      4.2367      4.7994      5.4616      6.2173      7.0480      7.9222      8.7962    
  9.6186      10.334      10.891      11.246      11.367      11.245      10.891      10.334      9.6186      8.7963    
  7.9222      7.0481      6.4778      5.6063      4.8589      4.2366      3.7309      3.3292      3.0197      2.7931    
  2.6441      2.5700      2.5700      2.6440      2.7930      3.0195      3.3292      3.7309      4.2367      4.8590    
  5.6063      6.4777      7.4584      8.5167      9.6056      10.665      11.630      12.431      13.006      13.308    
  13.308      13.006      12.431      11.630      10.665      9.6056      8.5168      7.4584      6.5676      5.6063    
  4.7994      4.1409      3.6165      3.2092      2.9047      2.6927      2.5674      2.5258      2.5673      2.6926    
  2.9046      3.2092      3.6165      4.1410      4.7994      5.6063      6.5675      7.6745      8.8993      10.195    
  11.497      12.731      13.814      14.665      15.210      15.397      15.209      14.665      13.814      12.731    
  11.497      10.195      8.8994      7.6746      6.4778      5.4617      4.6265      3.9586      3.4374      3.0428    
  2.7585      2.5739      2.4828      2.4828      2.5738      2.7584      3.0427      3.4374      3.9586      4.6266    
  5.4616      6.4777      7.6745      9.0314      10.506      12.034      13.536      14.921      16.087      16.931    
  17.373      17.373      16.931      16.087      14.921      13.536      12.034      10.506      9.0314      7.6745    
  6.2173      5.1866      4.3567      3.7059      3.2091      2.8436      2.5927      2.4458      2.3974      2.4458    
  2.5927      2.8436      3.2091      3.7060      4.3567      5.1866      6.2173      7.4584      8.8993      10.506    
  12.219      13.962      15.639      17.132      18.306      19.057      19.315      19.057      18.306      17.132    
  15.639      13.962      12.219      10.506      8.8993      7.4584      5.8119      4.8070      4.0138      3.4040    
  2.9493      2.6264      2.4190      2.3174      2.3174      2.4189      2.6263      2.9493      3.4041      4.0138    
  4.8070      5.8119      7.0480      8.5167      10.195      12.034      13.962      15.888      17.685      19.196    
  20.286      20.859      20.859      20.286      19.195      17.685      15.888      13.962      12.034      10.195    
  8.5167      7.0481      5.2993      4.3561      3.6257      3.0754      2.6759      2.4048      2.2475      2.1958    
  2.2474      2.4048      2.6759      3.0754      3.6257      4.3561      5.2993      6.4835      7.9222      9.6056    
  11.497      13.536      15.639      17.685      19.503      20.937      21.856      22.173      21.856      20.937    
  19.503      17.685      15.639      13.536      11.497      9.6055      7.9222      6.4835      4.7230      3.8690    
  3.2198      2.7412      2.4048      2.1907      2.0865      2.0865      2.1906      2.4048      2.7412      3.2199    
  3.8690      4.7230      5.8159      7.1723      8.7962      10.665      12.731      14.921      17.132      19.196    
  20.937      22.201      22.868      22.868      22.201      20.937      19.195      17.132      14.921      12.731    
  10.665      8.7962      7.1723      5.8159      4.1257      3.3783      2.8204      2.4189      2.1487      1.9928    
  1.9419      1.9928      2.1487      2.4189      2.8204      3.3783      4.1257      5.0995      6.3322      7.8410    
  9.6186      11.630      13.814      16.087      18.306      20.286      21.856      22.868      23.218      22.868    
  21.856      20.286      18.306      16.087      13.814      11.630      9.6185      7.8410      6.3322      5.0995    
  3.5442      2.9101      2.4458      2.1216      1.9165      1.8171      1.8171      1.9165      2.1216      2.4458    
  2.9101      3.5441      4.3839      5.4661      6.8183      8.4477      10.334      12.431      14.665      16.931    
  19.057      20.859      22.173      22.868      22.868      22.173      20.859      19.057      16.931      14.665    
  12.431      10.334      8.4477      6.8183      5.4662      4.3839      3.0053      2.4827      2.1084      1.8576    
  1.7134      1.6664      1.7134      1.8576      2.1084      2.4828      3.0053      3.7083      4.6287      5.8001    
  7.2419      8.9500      10.891      13.006      15.210      17.373      19.315      20.859      21.856      22.201    
  21.856      20.859      19.315      17.373      15.210      13.006      10.891      8.9499      7.2419      5.8001    
  4.6288      3.7084      2.5258      2.1067      1.8149      1.6307      1.5416      1.5416      1.6307      1.8149    
  2.1068      2.5258      3.0992      3.8602      4.8438      6.0777      7.5718      9.3095      11.246      13.308    
  15.397      17.373      19.057      20.286      20.937      20.937      20.286      19.057      17.373      15.397    
  13.308      11.245      9.3094      7.5718      6.0778      4.8439      3.8602      3.0992      2.1134      1.7862    
  1.5673      1.4417      1.4007      1.4417      1.5673      1.7863      2.1134      2.5700      3.1841      3.9880    
  5.0123      6.2771      7.7815      9.4971      11.367      13.308      15.209      16.931      18.306      19.195    
  19.503      19.195      18.306      16.931      15.210      13.308      11.367      9.4971      7.7815      6.2772    
  5.0124      3.9881      3.1842      2.5700      1.7688      1.5208      1.3644      1.2889      1.2889      1.3644    
  1.5208      1.7688      2.1245      2.6099      3.2522      4.0807      5.1201      6.3815      7.8535      9.4971    
  11.245      13.006      14.665      16.087      17.132      17.685      17.685      17.132      16.087      14.665    
  13.006      11.245      9.4971      7.8535      6.3816      5.1202      4.0808      3.2523      2.6099      2.1245    
  1.4887      1.3072      1.2032      1.1693      1.2032      1.3072      1.4887      1.7594      2.1362      2.6402    
  3.2964      4.1295      5.1572      6.3815      7.7815      9.3095      10.891      12.431      13.814      14.921    
  15.639      15.888      15.639      14.921      13.814      12.431      10.891      9.3094      7.7815      6.3816    
  5.1573      4.1296      3.2964      2.6402      2.1361      1.7594      1.2674      1.1407      1.0795      1.0795    
  1.1407      1.2674      1.4681      1.7552      2.1448      2.6565      3.3117      4.1295      5.1201      6.2772    
  7.5718      8.9500      10.334      11.630      12.731      13.536      13.962      13.962      13.536      12.731    
  11.630      10.334      8.9499      7.5718      6.2772      5.1202      4.1296      3.3118      2.6565      2.1448    
  1.7552      1.4681      1.0984      1.0159     0.98905      1.0159      1.0984      1.2424      1.4568      1.7537    
  2.1480      2.6565      3.2964      4.0807      5.0123      6.0777      7.2419      8.4478      9.6186      10.665    
  11.497      12.034      12.219      12.034      11.497      10.665      9.6185      8.4477      7.2419      6.0778    
  5.0124      4.0808      3.2964      2.6565      2.1479      1.7537      1.4567      1.2424     0.97540     0.92776    
 0.92776     0.97538      1.0741      1.2304      1.4532      1.7537      2.1448      2.6402      3.2522      3.9880    
  4.8437      5.8001      6.8183      7.8410      8.7963      9.6056      10.195      10.506      10.506      10.195    
  9.6055      8.7962      7.8410      6.8183      5.8001      4.8439      3.9881      3.2523      2.6402      2.1448    
  1.7537      1.4532      1.2303      1.0741     0.89240     0.87179     0.89239     0.95573      1.0662      1.2304    
  1.4568      1.7552      2.1362      2.6099      3.1841      3.8601      4.6287      5.4661      6.3322      7.1723    
  7.9222      8.5168      8.8994      9.0314      8.8993      8.5167      7.9222      7.1723      6.3322      5.4662    
  4.6288      3.8602      3.1842      2.6099      2.1361      1.7552      1.4567      1.2303      1.0662     0.95575    
 0.84468     0.84468     0.88085     0.95574      1.0741      1.2424      1.4681      1.7595      2.1245      2.5700    
  3.0991      3.7083      4.3838      5.0995      5.8159      6.4835      7.0481      7.4584      7.6746      7.6745    
  7.4584      7.0481      6.4835      5.8159      5.0995      4.3839      3.7084      3.0992      2.5700      2.1245    
  1.7594      1.4681      1.2424      1.0741     0.95575     0.88086     0.84468     0.87179     0.92777      1.0159    
  1.1407      1.3072      1.5208      1.7863      2.1068      2.4828      2.9101      3.3783      3.8690      4.3560    
  4.8070      5.1866      5.4616      5.6063      5.6063      5.4617      5.1866      4.8070      4.3561      3.8690    
  3.3783      2.9101      2.4827      2.1067      1.7862      1.5208      1.3072      1.1407      1.0159     0.92777    
 0.87179     0.84468     0.87179     0.90663     0.96693      1.0558      1.1772      1.3353      1.5344      1.7774    
  2.0658      2.3974      2.7658      3.1587      3.5578      3.9394      4.2765      4.5416      4.7114      4.7699    
  4.7114      4.5417      4.2765      3.9395      3.5578      3.1587      2.7658      2.3974      2.0658      1.7774    
  1.5343      1.3353      1.1772      1.0558     0.96692     0.90662     0.87178     0.86041     0.92777     0.96693    
  1.0282      1.1145      1.2293      1.3759      1.5575      1.7759      2.0304      2.3174      2.6287      2.9517    
  3.2690      3.5603      3.8039      3.9795      4.0716      4.0716      3.9795      3.8039      3.5603      3.2690    
  2.9516      2.6287      2.3174      2.0304      1.7758      1.5575      1.3759      1.2293      1.1146      1.0282    
 0.96691     0.92775     0.90871     0.90871      1.0159      1.0558      1.1145      1.1948      1.2996      1.4317    
  1.5932      1.7848      2.0046      2.2474      2.5047      2.7640      3.0100      3.2259      3.3949      3.5028    
  3.5399      3.5028      3.3949      3.2259      3.0100      2.7640      2.5047      2.2474      2.0046      1.7848    
  1.5932      1.4317      1.2996      1.1948      1.1145      1.0558      1.0159     0.99281     0.98527     0.99282    
  1.1407      1.1772      1.2293      1.2996      1.3907      1.5051      1.6439      1.8068      1.9910      2.1907    
  2.3973      2.5997      2.7847      2.9389      3.0499      3.1080      3.1079      3.0499      2.9389      2.7847    
  2.5996      2.3973      2.1906      1.9910      1.8068      1.6439      1.5051      1.3907      1.2996      1.2293    
  1.1772      1.1407      1.1176      1.1065      1.1065      1.1176      1.3072      1.3353      1.3759      1.4317    
  1.5051      1.5980      1.7111      1.8432      1.9910      2.1487      2.3084      2.4604      2.5939      2.6985    
  2.7654      2.7883      2.7654      2.6985      2.5939      2.4604      2.3084      2.1487      1.9910      1.8432    
  1.7111      1.5981      1.5051      1.4317      1.3759      1.3353      1.3072      1.2892      1.2792      1.2760    
  1.2792      1.2892      1.5208      1.5344      1.5575      1.5932      1.6439      1.7111      1.7949      1.8939    
  2.0046      2.1217      2.2382      2.3460      2.4367      2.5023      2.5368      2.5368      2.5023      2.4367    
  2.3460      2.2382      2.1217      2.0046      1.8939      1.7950      1.7111      1.6439      1.5932      1.5575    
  1.5343      1.5208      1.5140      1.5112      1.5103      1.5103      1.5112      1.5140      1.7863      1.7774    
  1.7759      1.7848      1.8068      1.8432      1.8939      1.9574      2.0304      2.1085      2.1856      2.2554    
  2.3111      2.3471      2.3595      2.3471      2.3111      2.2554      2.1856      2.1085      2.0304      1.9574    
  1.8939      1.8432      1.8068      1.7848      1.7758      1.7774      1.7863      1.7986      1.8108      1.8195    
  1.8227      1.8195      1.8108      1.7986      2.1068      2.0658      2.0304      2.0046      1.9910      1.9910    
  2.0046      2.0304      2.0658      2.1068      2.1486      2.1862      2.2145      2.2298      2.2298      2.2146    
  2.1862      2.1486      2.1068      2.0658      2.0304      2.0046      1.9909      1.9909      2.0046      2.0304    
  2.0658      2.1068      2.1486      2.1862      2.2146      2.2298      2.2298      2.2145      2.1862      2.1486    
  2.4828      2.3974      2.3174      2.2474      2.1907      2.1487      2.1217      2.1085      2.1068      2.1134    
  2.1245      2.1362      2.1448      2.1479      2.1448      2.1362      2.1245      2.1134      2.1068      2.1084    
  2.1216      2.1487      2.1906      2.2474      2.3174      2.3974      2.4828      2.5674      2.6441      2.7057    
  2.7456      2.7595      2.7456      2.7057      2.6441      2.5674      2.9101      2.7658      2.6287      2.5047    
  2.3973      2.3084      2.2382      2.1856      2.1486      2.1245      2.1102      2.1027      2.0996      2.0996    
  2.1027      2.1102      2.1245      2.1486      2.1856      2.2382      2.3084      2.3973      2.5047      2.6287    
  2.7658      2.9101      3.0539      3.1876      3.3006      3.3828      3.4262      3.4262      3.3828      3.3006    
  3.1875      3.0539      3.3783      3.1587      2.9517      2.7640      2.5997      2.4604      2.3460      2.2554    
  2.1862      2.1362      2.1027      2.0837      2.0775      2.0837      2.1027      2.1361      2.1861      2.2553    
  2.3460      2.4604      2.5997      2.7640      2.9517      3.1587      3.3783      3.6006      3.8130      4.0007    
  4.1488      4.2438      4.2766      4.2438      4.1488      4.0007      3.8130      3.6006      3.8690      3.5578    
  3.2690      3.0100      2.7847      2.5939      2.4367      2.3111      2.2145      2.1448      2.0996      2.0775    
  2.0775      2.0996      2.1447      2.2145      2.3110      2.4366      2.5939      2.7847      3.0101      3.2691    
  3.5579      3.8690      4.1907      4.5066      4.7970      5.0405      5.2167      5.3093      5.3093      5.2167    
  5.0405      4.7970      4.5066      4.1906      4.3560      3.9394      3.5603      3.2259      2.9389      2.6985    
  2.5023      2.3471      2.2298      2.1479      2.0996      2.0837      2.0996      2.1479      2.2297      2.3470    
  2.5023      2.6985      2.9390      3.2260      3.5604      3.9395      4.3561      4.7967      5.2417      5.6655    
  6.0389      6.3325      6.5206      6.5853      6.5206      6.3326      6.0390      5.6655      5.2417      4.7967    
  4.8070      4.2765      3.8039      3.3949      3.0499      2.7654      2.5368      2.3595      2.2298      2.1448    
  2.1027      2.1027      2.1447      2.2297      2.3595      2.5367      2.7654      3.0499      3.3950      3.8039    
  4.2765      4.8070      5.3817      5.9782      6.5652      7.1049      7.5572      7.8839      8.0554      8.0554    
  7.8839      7.5572      7.1049      6.5652      5.9782      5.3817      5.1866      4.5416      3.9795      3.5028    
  3.1080      2.7883      2.5368      2.3471      2.2146      2.1362      2.1102      2.1361      2.2145      2.3470    
  2.5367      2.7883      3.1080      3.5029      3.9796      4.5417      5.1866      5.9023      6.6652      7.4395    
  8.1791      8.8318      9.3452      9.6741      9.7873      9.6740      9.3452      8.8318      8.1791      7.4395    
  6.6652      5.9023      5.4616      4.7114      4.0716      3.5399      3.1079      2.7654      2.5023      2.3111    
  2.1862      2.1245      2.1245      2.1861      2.3110      2.5023      2.7654      3.1080      3.5400      4.0717    
  4.7114      5.4616      6.3142      7.2467      8.2214      9.1855      10.076      10.823      11.365      11.650    
  11.649      11.365      10.823      10.075      9.1855      8.2214      7.2467      6.3141      5.6063      4.7699    
  4.0716      3.5028      3.0499      2.6985      2.4367      2.2554      2.1486      2.1134      2.1486      2.2553    
  2.4366      2.6985      3.0499      3.5029      4.0717      4.7699      5.6063      6.5788      7.6697      8.8423    
  10.041      11.192      12.215      13.023      13.542      13.722      13.542      13.023      12.214      11.192    
  10.041      8.8423      7.6697      6.5788      5.6063      4.7114      3.9795      3.3949      2.9389      2.5939    
  2.3460      2.1856      2.1068      2.1068      2.1856      2.3460      2.5939      2.9390      3.3950      3.9796    
  4.7114      5.6063      6.6701      7.8926      9.2423      10.664      12.082      13.403      14.521      15.337    
  15.768      15.768      15.337      14.521      13.402      12.082      10.664      9.2423      7.8926      6.6701    
  5.4617      4.5417      3.8039      3.2259      2.7847      2.4604      2.2382      2.1085      2.0658      2.1084    
  2.2382      2.4604      2.7847      3.2260      3.8039      4.5417      5.4616      6.5788      7.8926      9.3805    
  10.994      12.658      14.274      15.724      16.883      17.634      17.895      17.634      16.882      15.724    
  14.273      12.658      10.994      9.3804      7.8926      6.5788      5.1866      4.2765      3.5603      3.0100    
  2.5996      2.3084      2.1217      2.0304      2.0304      2.1216      2.3084      2.5997      3.0101      3.5604    
  4.2765      5.1866      6.3142      7.6697      9.2423      10.994      12.857      14.735      16.506      18.025    
  19.145      19.741      19.741      19.145      18.025      16.505      14.735      12.857      10.994      9.2422    
  7.6697      6.3141      4.8070      3.9395      3.2690      2.7640      2.3973      2.1487      2.0046      1.9574    
  2.0046      2.1487      2.3973      2.7640      3.2691      3.9395      4.8070      5.9023      7.2467      8.8423    
  10.664      12.658      14.735      16.777      18.634      20.133      21.108      21.446      21.108      20.133    
  18.634      16.777      14.735      12.658      10.664      8.8423      7.2467      5.9023      4.3561      3.5578    
  2.9516      2.5047      2.1906      1.9910      1.8939      1.8939      1.9909      2.1906      2.5047      2.9517    
  3.5579      4.3561      5.3817      6.6652      8.2214      10.041      12.082      14.274      16.506      18.634    
  20.476      21.836      22.560      22.560      21.836      20.476      18.634      16.506      14.273      12.082    
  10.041      8.2214      6.6652      5.3818      3.8690      3.1587      2.6287      2.2474      1.9910      1.8432    
  1.7950      1.8432      1.9909      2.2474      2.6287      3.1587      3.8690      4.7967      5.9782      7.4395    
  9.1855      11.192      13.403      15.724      18.025      20.133      21.836      22.947      23.333      22.947    
  21.836      20.133      18.025      15.724      13.402      11.192      9.1855      7.4395      5.9782      4.7968    
  3.3783      2.7658      2.3174      2.0046      1.8068      1.7111      1.7111      1.8068      2.0046      2.3174    
  2.7658      3.3783      4.1907      5.2417      6.5652      8.1791      10.076      12.215      14.521      16.883    
  19.145      21.108      22.560      23.333      23.333      22.560      21.108      19.146      16.883      14.521    
  12.214      10.075      8.1791      6.5652      5.2418      4.1907      2.9101      2.3974      2.0304      1.7848    
  1.6439      1.5981      1.6439      1.7848      2.0304      2.3974      2.9101      3.6006      4.5066      5.6655    
  7.1049      8.8318      10.823      13.023      15.337      17.634      19.741      21.446      22.560      22.947    
  22.560      21.447      19.741      17.634      15.337      13.023      10.823      8.8318      7.1050      5.6656    
  4.5067      3.6006      2.4827      2.0658      1.7758      1.5932      1.5051      1.5051      1.5932      1.7758    
  2.0658      2.4828      3.0539      3.8130      4.7970      6.0389      7.5572      9.3452      11.365      13.542    
  15.768      17.895      19.741      21.108      21.836      21.836      21.108      19.741      17.895      15.768    
  13.542      11.365      9.3452      7.5572      6.0391      4.7971      3.8130      3.0539      2.1067      1.7774    
  1.5575      1.4317      1.3907      1.4317      1.5575      1.7774      2.1068      2.5674      3.1876      4.0007    
  5.0405      6.3325      7.8839      9.6741      11.650      13.722      15.768      17.634      19.145      20.133    
  20.476      20.133      19.146      17.634      15.768      13.722      11.649      9.6740      7.8839      6.3327    
  5.0407      4.0008      3.1876      2.5673      1.7862      1.5343      1.3759      1.2996      1.2996      1.3759    
  1.5343      1.7863      2.1486      2.6441      3.3006      4.1488      5.2167      6.5206      8.0554      9.7873    
  11.649      13.542      15.337      16.882      18.025      18.634      18.634      18.025      16.883      15.337    
  13.542      11.649      9.7873      8.0555      6.5207      5.2168      4.1489      3.3006      2.6441      2.1486    
  1.5208      1.3353      1.2293      1.1948      1.2293      1.3353      1.5208      1.7986      2.1862      2.7057    
  3.3828      4.2438      5.3093      6.5853      8.0554      9.6740      11.365      13.023      14.521      15.724    
  16.505      16.777      16.506      15.724      14.521      13.023      11.365      9.6740      8.0555      6.5855    
  5.3094      4.2439      3.3828      2.7056      2.1861      1.7986      1.3072      1.1772      1.1146      1.1145    
  1.1772      1.3072      1.5140      1.8108      2.2146      2.7456      3.4262      4.2766      5.3093      6.5206    
  7.8839      9.3452      10.823      12.214      13.402      14.273      14.735      14.735      14.273      13.402    
  12.214      10.823      9.3452      7.8839      6.5207      5.3094      4.2767      3.4262      2.7456      2.2145    
  1.8107      1.5140      1.1407      1.0558      1.0282      1.0558      1.1407      1.2892      1.5112      1.8195    
  2.2298      2.7595      3.4262      4.2438      5.2167      6.3326      7.5572      8.8318      10.075      11.192    
  12.082      12.658      12.857      12.658      12.082      11.192      10.075      8.8318      7.5572      6.3327    
  5.2168      4.2439      3.4262      2.7594      2.2297      1.8195      1.5111      1.2892      1.0159     0.96692    