   2   2   0   0
  0.2102611E+02  0.3903324E-09  0.3903324E-09  0.3903324E-09  0.5000000E-15
  1.000000000000000E-004
  CAR 
 unknown system                          
     16.53396184     -8.23904453  301      5.68815146      1.00000000
     -8.239  0.0000E+00  0.0000E+00
     -8.156  0.0000E+00  0.0000E+00
     -8.074  0.0000E+00  0.0000E+00
     -7.991  0.0000E+00  0.0000E+00
     -7.909  0.0000E+00  0.0000E+00
     -7.826  0.0000E+00  0.0000E+00
     -7.744  0.0000E+00  0.0000E+00
     -7.661  0.0000E+00  0.0000E+00
     -7.578  0.0000E+00  0.0000E+00
     -7.496  0.0000E+00  0.0000E+00
     -7.413  0.3501E-18  0.2891E-19
     -7.331  0.3641E-16  0.3036E-17
     -7.248  0.3017E-14  0.2522E-15
     -7.166  0.1775E-12  0.1491E-13
     -7.083  0.7471E-11  0.6319E-12
     -7.000  0.2253E-09  0.1924E-10
     -6.918  0.4879E-08  0.4221E-09
     -6.835  0.7602E-07  0.6700E-08
     -6.753  0.8562E-06  0.7740E-07
     -6.670  0.7015E-05  0.6566E-06
     -6.588  0.4221E-04  0.4142E-05
     -6.505  0.1891E-03  0.1976E-04
     -6.422  0.6424E-03  0.7280E-04
     -6.340  0.1693E-02  0.2126E-03
     -6.257  0.3546E-02  0.5054E-03
     -6.175  0.6069E-02  0.1007E-02
     -6.092  0.8786E-02  0.1732E-02
     -6.009  0.1128E-01  0.2664E-02
     -5.927  0.1355E-01  0.3783E-02
     -5.844  0.1575E-01  0.5083E-02
     -5.762  0.1763E-01  0.6539E-02
     -5.679  0.1881E-01  0.8092E-02
     -5.597  0.1968E-01  0.9718E-02
     -5.514  0.2132E-01  0.1148E-01
     -5.431  0.2386E-01  0.1345E-01
     -5.349  0.2588E-01  0.1559E-01
     -5.266  0.2636E-01  0.1776E-01
     -5.184  0.2623E-01  0.1993E-01
     -5.101  0.2712E-01  0.2217E-01
     -5.019  0.2917E-01  0.2458E-01
     -4.936  0.3150E-01  0.2718E-01
     -4.853  0.3375E-01  0.2996E-01
     -4.771  0.3586E-01  0.3293E-01
     -4.688  0.3720E-01  0.3600E-01
     -4.606  0.3718E-01  0.3907E-01
     -4.523  0.3637E-01  0.4207E-01
     -4.441  0.3697E-01  0.4512E-01
     -4.358  0.4116E-01  0.4852E-01
     -4.275  0.4812E-01  0.5250E-01
     -4.193  0.5403E-01  0.5696E-01
     -4.110  0.5646E-01  0.6162E-01
     -4.028  0.5669E-01  0.6630E-01
     -3.945  0.5678E-01  0.7099E-01
     -3.862  0.5649E-01  0.7566E-01
     -3.780  0.5415E-01  0.8013E-01
     -3.697  0.5006E-01  0.8426E-01
     -3.615  0.4783E-01  0.8821E-01
     -3.532  0.5053E-01  0.9238E-01
     -3.450  0.5578E-01  0.9699E-01
     -3.367  0.5748E-01  0.1017E+00
     -3.284  0.5222E-01  0.1060E+00
     -3.202  0.4240E-01  0.1096E+00
     -3.119  0.3294E-01  0.1123E+00
     -3.037  0.2708E-01  0.1145E+00
     -2.954  0.2577E-01  0.1166E+00
     -2.872  0.2882E-01  0.1190E+00
     -2.789  0.3451E-01  0.1219E+00
     -2.706  0.3885E-01  0.1251E+00
     -2.624  0.3759E-01  0.1282E+00
     -2.541  0.2979E-01  0.1306E+00
     -2.459  0.1879E-01  0.1322E+00
     -2.376  0.9224E-02  0.1329E+00
     -2.294  0.3502E-02  0.1332E+00
     -2.211  0.1306E-02  0.1333E+00
     -2.128  0.1834E-02  0.1335E+00
     -2.046  0.5777E-02  0.1340E+00
     -1.963  0.1471E-01  0.1352E+00
     -1.881  0.2754E-01  0.1375E+00
     -1.798  0.3831E-01  0.1406E+00
     -1.715  0.4084E-01  0.1440E+00
     -1.633  0.3615E-01  0.1470E+00
     -1.550  0.3197E-01  0.1496E+00
     -1.468  0.3535E-01  0.1525E+00
     -1.385  0.4747E-01  0.1565E+00
     -1.303  0.6356E-01  0.1617E+00
     -1.220  0.7663E-01  0.1680E+00
     -1.137  0.8261E-01  0.1749E+00
     -1.055  0.8104E-01  0.1816E+00
     -0.972  0.7232E-01  0.1875E+00
     -0.890  0.5923E-01  0.1924E+00
     -0.807  0.4850E-01  0.1964E+00
     -0.725  0.4468E-01  0.2001E+00
     -0.642  0.4393E-01  0.2037E+00
     -0.559  0.3933E-01  0.2070E+00
     -0.477  0.3081E-01  0.2095E+00
     -0.394  0.2473E-01  0.2116E+00
     -0.312  0.2540E-01  0.2137E+00
     -0.229  0.3125E-01  0.2163E+00
     -0.147  0.3730E-01  0.2193E+00
     -0.064  0.3841E-01  0.2225E+00
      0.019  0.3280E-01  0.2252E+00
      0.101  0.2401E-01  0.2272E+00
      0.184  0.1777E-01  0.2287E+00
      0.266  0.1740E-01  0.2301E+00
      0.349  0.2180E-01  0.2319E+00
      0.432  0.2619E-01  0.2341E+00
      0.514  0.2566E-01  0.2362E+00
      0.597  0.1989E-01  0.2378E+00
      0.679  0.1348E-01  0.2389E+00
      0.762  0.1072E-01  0.2398E+00
      0.844  0.1201E-01  0.2408E+00
      0.927  0.1567E-01  0.2421E+00
      1.010  0.2114E-01  0.2439E+00
      1.092  0.2863E-01  0.2462E+00
      1.175  0.3713E-01  0.2493E+00
      1.257  0.4477E-01  0.2530E+00
      1.340  0.5065E-01  0.2572E+00
      1.422  0.5605E-01  0.2618E+00
      1.505  0.6354E-01  0.2670E+00
      1.588  0.7333E-01  0.2731E+00
      1.670  0.8118E-01  0.2798E+00
      1.753  0.8268E-01  0.2866E+00
      1.835  0.7841E-01  0.2931E+00
      1.918  0.7308E-01  0.2991E+00
      2.000  0.7053E-01  0.3050E+00
      2.083  0.7074E-01  0.3108E+00
      2.166  0.7148E-01  0.3167E+00
      2.248  0.7225E-01  0.3227E+00
      2.331  0.7579E-01  0.3289E+00
      2.413  0.8470E-01  0.3359E+00
      2.496  0.9606E-01  0.3439E+00
      2.579  0.1020E+00  0.3523E+00
      2.661  0.9918E-01  0.3605E+00
      2.744  0.9438E-01  0.3683E+00
      2.826  0.9513E-01  0.3761E+00
      2.909  0.9958E-01  0.3843E+00
      2.991  0.1005E+00  0.3926E+00
      3.074  0.9651E-01  0.4006E+00
      3.157  0.9413E-01  0.4084E+00
      3.239  0.9880E-01  0.4165E+00
      3.322  0.1059E+00  0.4253E+00
      3.404  0.1051E+00  0.4340E+00
      3.487  0.9325E-01  0.4417E+00
      3.569  0.7862E-01  0.4482E+00
      3.652  0.7240E-01  0.4541E+00
      3.735  0.7807E-01  0.4606E+00
      3.817  0.8888E-01  0.4679E+00
      3.900  0.9480E-01  0.4757E+00
      3.982  0.9094E-01  0.4833E+00
      4.065  0.7988E-01  0.4899E+00
      4.147  0.6814E-01  0.4955E+00
      4.230  0.6132E-01  0.5005E+00
      4.313  0.5980E-01  0.5055E+00
      4.395  0.5797E-01  0.5103E+00
      4.478  0.5049E-01  0.5144E+00
      4.560  0.3915E-01  0.5177E+00
      4.643  0.3056E-01  0.5202E+00
      4.725  0.2806E-01  0.5225E+00
      4.808  0.2856E-01  0.5249E+00
      4.891  0.2706E-01  0.5271E+00
      4.973  0.2226E-01  0.5289E+00
      5.056  0.1665E-01  0.5303E+00
      5.138  0.1245E-01  0.5313E+00
      5.221  0.9580E-02  0.5321E+00
      5.304  0.6965E-02  0.5327E+00
      5.386  0.4317E-02  0.5331E+00
      5.469  0.2134E-02  0.5332E+00
      5.551  0.8110E-03  0.5333E+00
      5.634  0.2348E-03  0.5333E+00
      5.716  0.7870E-04  0.5333E+00
      5.799  0.1870E-03  0.5334E+00
      5.882  0.7784E-03  0.5334E+00
      5.964  0.2450E-02  0.5336E+00
      6.047  0.5670E-02  0.5341E+00
      6.129  0.9850E-02  0.5349E+00
      6.212  0.1346E-01  0.5360E+00
      6.294  0.1599E-01  0.5373E+00
      6.377  0.1920E-01  0.5389E+00
      6.460  0.2485E-01  0.5410E+00
      6.542  0.3176E-01  0.5436E+00
      6.625  0.3694E-01  0.5466E+00
      6.707  0.4000E-01  0.5499E+00
      6.790  0.4374E-01  0.5536E+00
      6.872  0.4930E-01  0.5576E+00
      6.955  0.5441E-01  0.5621E+00
      7.038  0.5726E-01  0.5668E+00
      7.120  0.5889E-01  0.5717E+00
      7.203  0.6198E-01  0.5768E+00
      7.285  0.6990E-01  0.5826E+00
      7.368  0.8494E-01  0.5896E+00
      7.451  0.1040E+00  0.5982E+00
      7.533  0.1177E+00  0.6079E+00
      7.616  0.1178E+00  0.6177E+00
      7.698  0.1064E+00  0.6264E+00
      7.781  0.9296E-01  0.6341E+00
      7.863  0.8546E-01  0.6412E+00
      7.946  0.8493E-01  0.6482E+00
      8.029  0.8600E-01  0.6553E+00
      8.111  0.8303E-01  0.6622E+00
      8.194  0.7638E-01  0.6685E+00
      8.276  0.7126E-01  0.6743E+00
      8.359  0.7300E-01  0.6804E+00
      8.441  0.8473E-01  0.6874E+00
      8.524  0.1051E+00  0.6960E+00
      8.607  0.1259E+00  0.7064E+00
      8.689  0.1373E+00  0.7178E+00
      8.772  0.1355E+00  0.7290E+00
      8.854  0.1264E+00  0.7394E+00
      8.937  0.1181E+00  0.7492E+00
      9.019  0.1130E+00  0.7585E+00
      9.102  0.1079E+00  0.7674E+00
      9.185  0.1012E+00  0.7758E+00
      9.267  0.9470E-01  0.7836E+00
      9.350  0.8996E-01  0.7910E+00
      9.432  0.8743E-01  0.7982E+00
      9.515  0.8672E-01  0.8054E+00
      9.598  0.8645E-01  0.8125E+00
      9.680  0.8572E-01  0.8196E+00
      9.763  0.8568E-01  0.8267E+00
      9.845  0.8700E-01  0.8339E+00
      9.928  0.8829E-01  0.8412E+00
     10.010  0.8960E-01  0.8486E+00
     10.093  0.9362E-01  0.8563E+00
     10.176  0.9978E-01  0.8645E+00
     10.258  0.1015E+00  0.8729E+00
     10.341  0.9388E-01  0.8807E+00
     10.423  0.8025E-01  0.8873E+00
     10.506  0.6844E-01  0.8929E+00
     10.588  0.6244E-01  0.8981E+00
     10.671  0.6069E-01  0.9031E+00
     10.754  0.6144E-01  0.9082E+00
     10.836  0.6693E-01  0.9137E+00
     10.919  0.7895E-01  0.9202E+00
     11.001  0.9296E-01  0.9279E+00
     11.084  0.1015E+00  0.9363E+00
     11.166  0.1011E+00  0.9446E+00
     11.249  0.9188E-01  0.9522E+00
     11.332  0.7646E-01  0.9585E+00
     11.414  0.5994E-01  0.9635E+00
     11.497  0.4869E-01  0.9675E+00
     11.579  0.4600E-01  0.9713E+00
     11.662  0.4870E-01  0.9753E+00
     11.745  0.4992E-01  0.9794E+00
     11.827  0.4662E-01  0.9833E+00
     11.910  0.4276E-01  0.9868E+00
     11.992  0.4497E-01  0.9905E+00
     12.075  0.5678E-01  0.9952E+00
     12.157  0.7450E-01  0.1001E+01
     12.240  0.8709E-01  0.1009E+01
     12.323  0.8467E-01  0.1016E+01
     12.405  0.6787E-01  0.1021E+01
     12.488  0.4637E-01  0.1025E+01
     12.570  0.3038E-01  0.1028E+01
     12.653  0.2476E-01  0.1030E+01
     12.735  0.2718E-01  0.1032E+01
     12.818  0.3056E-01  0.1034E+01
     12.901  0.3039E-01  0.1037E+01
     12.983  0.2868E-01  0.1039E+01
     13.066  0.2913E-01  0.1042E+01
     13.148  0.3181E-01  0.1044E+01
     13.231  0.3495E-01  0.1047E+01
     13.313  0.3789E-01  0.1050E+01
     13.396  0.3920E-01  0.1053E+01
     13.479  0.3553E-01  0.1056E+01
     13.561  0.2588E-01  0.1059E+01
     13.644  0.1438E-01  0.1060E+01
     13.726  0.5957E-02  0.1060E+01
     13.809  0.1991E-02  0.1060E+01
     13.892  0.1230E-02  0.1061E+01
     13.974  0.2532E-02  0.1061E+01
     14.057  0.5247E-02  0.1061E+01
     14.139  0.8071E-02  0.1062E+01
     14.222  0.9303E-02  0.1063E+01
     14.304  0.8836E-02  0.1063E+01
     14.387  0.8405E-02  0.1064E+01
     14.470  0.8900E-02  0.1065E+01
     14.552  0.8980E-02  0.1065E+01
     14.635  0.7269E-02  0.1066E+01
     14.717  0.4394E-02  0.1066E+01
     14.800  0.1941E-02  0.1067E+01
     14.882  0.6230E-03  0.1067E+01
     14.965  0.1449E-03  0.1067E+01
     15.048  0.2437E-04  0.1067E+01
     15.130  0.2962E-05  0.1067E+01
     15.213  0.2597E-06  0.1067E+01
     15.295  0.1640E-07  0.1067E+01
     15.378  0.7452E-09  0.1067E+01
     15.460  0.2433E-10  0.1067E+01
     15.543  0.5699E-12  0.1067E+01
     15.626  0.9573E-14  0.1067E+01
     15.708  0.1134E-15  0.1067E+01
     15.791  0.0000E+00  0.1067E+01
     15.873  0.0000E+00  0.1067E+01
     15.956  0.0000E+00  0.1067E+01
     16.039  0.0000E+00  0.1067E+01
     16.121  0.0000E+00  0.1067E+01
     16.204  0.0000E+00  0.1067E+01
     16.286  0.0000E+00  0.1067E+01
     16.369  0.0000E+00  0.1067E+01
     16.451  0.0000E+00  0.1067E+01
     16.534  0.0000E+00  0.1067E+01
