    2    2   15    1
  0.2102611E+02  0.3903324E-09  0.3903324E-09  0.3903324E-09  0.5000000E-15
  1.000000000000000E-004
  CAR 
 unknown system                          
      8     60      8
 
  0.6250000E-01  0.6250000E-01  0.6250000E-01  0.3906250E-02
    1       -6.239045   1.000000
    2        4.804870   1.000000
    3        5.260337   0.998757
    4        5.260337   0.998757
    5        7.878000   0.000000
    6        8.003776   0.000000
    7        8.003776   0.000000
    8        8.616475   0.000000
 
  0.1875000E+00  0.6250000E-01  0.6250000E-01  0.1171875E-01
    1       -5.979202   1.000000
    2        3.314883   1.000000
    3        4.482589   1.000000
    4        5.143589   0.999941
    5        7.896667   0.000000
    6        8.242974   0.000000
    7        8.508741   0.000000
    8       10.136138   0.000000
 
  0.3125000E+00  0.6250000E-01  0.6250000E-01  0.1171875E-01
    1       -5.353027   1.000000
    2        1.148913   1.000000
    3        4.003491   1.000000
    4        4.694928   1.000000
    5        7.443957   0.000000
    6        8.734222   0.000000
    7        9.010718   0.000000
    8       11.740954   0.000000
 
  0.4375000E+00  0.6250000E-01  0.6250000E-01  0.1171875E-01
    1       -4.483918   1.000000
    2       -0.678598   1.000000
    3        3.788655   1.000000
    4        4.300066   1.000000
    5        7.130993   0.000000
    6        8.815707   0.000000
    7        8.829340   0.000000
    8       13.037247   0.000000
 
 -0.4375000E+00  0.6250000E-01  0.6250000E-01  0.1171875E-01
    1       -4.056991   1.000000
    2       -1.351087   1.000000
    3        3.833673   1.000000
    4        4.089686   1.000000
    5        7.052573   0.000000
    6        8.632174   0.000000
    7        8.894555   0.000000
    8       13.136431   0.000000
 
 -0.3125000E+00  0.6250000E-01  0.6250000E-01  0.1171875E-01
    1       -4.780630   1.000000
    2       -0.139591   1.000000
    3        4.111335   1.000000
    4        4.112407   1.000000
    5        7.220610   0.000000
    6        8.627215   0.000000
    7        9.134991   0.000000
    8       12.175487   0.000000
 
 -0.1875000E+00  0.6250000E-01  0.6250000E-01  0.1171875E-01
    1       -5.598316   1.000000
    2        1.858519   1.000000
    3        4.383003   1.000000
    4        4.563735   1.000000
    5        7.584830   0.000000
    6        8.457784   0.000000
    7        9.167344   0.000000
    8       10.970455   0.000000
 
 -0.6250000E-01  0.6250000E-01  0.6250000E-01  0.1171875E-01
    1       -6.108418   1.000000
    2        4.053010   1.000000
    3        4.850875   1.000000
    4        4.995956   1.000000
    5        7.722274   0.000000
    6        8.220295   0.000000
    7        8.562787   0.000000
    8        9.387444   0.000000
 
  0.1875000E+00  0.1875000E+00  0.6250000E-01  0.1171875E-01
    1       -5.848392   1.000000
    2        3.158538   1.000000
    3        4.312443   1.000000
    4        4.383350   1.000000
    5        7.316736   0.000000
    6        8.944913   0.000000
    7        9.395518   0.000000
    8        9.857935   0.000000
 
  0.3125000E+00  0.1875000E+00  0.6250000E-01  0.2343750E-01
    1       -5.340335   1.000000
    2        1.690739   1.000000
    3        3.371599   1.000000
    4        4.133797   1.000000
    5        7.479373   0.000000
    6        9.049164   0.000000
    7        9.787987   0.000000
    8       10.174379   0.000000
 
  0.4375000E+00  0.1875000E+00  0.6250000E-01  0.2343750E-01
    1       -4.524366   1.000000
    2       -0.103952   1.000000
    3        2.878506   1.000000
    4        3.740515   1.000000
    5        7.657557   0.000000
    6        9.034374   0.000000
    7       10.202102   0.000000
    8       10.505425   0.000000
 
 -0.4375000E+00  0.1875000E+00  0.6250000E-01  0.2343750E-01
    1       -3.795974   1.000000
    2       -1.265293   1.000000
    3        2.594262   1.000000
    4        3.651782   1.000000
    5        7.709891   0.000000
    6        8.767747   0.000000
    7       10.065786   0.000000
    8       12.456428   0.000000
 
 -0.3125000E+00  0.1875000E+00  0.6250000E-01  0.2343750E-01
    1       -4.232801   1.000000
    2       -0.603976   1.000000
    3        2.528833   1.000000
    4        3.925051   1.000000
    5        7.959749   0.000000
    6        8.701868   0.000000
    7       10.006316   0.000000
    8       11.731211   0.000000
 
 -0.1875000E+00  0.1875000E+00  0.6250000E-01  0.2343750E-01
    1       -5.100714   1.000000
    2        1.062208   1.000000
    3        2.834278   1.000000
    4        4.413598   1.000000
    5        8.272833   0.000000
    6        8.594653   0.000000
    7        9.879285   0.000000
    8       10.374019   0.000000
 
 -0.6250000E-01  0.1875000E+00  0.6250000E-01  0.2343750E-01
    1       -5.722170   1.000000
    2        2.508607   1.000000
    3        3.924177   1.000000
    4        4.773255   1.000000
    5        7.852875   0.000000
    6        8.440904   0.000000
    7        9.214258   0.000000
    8       10.394870   0.000000
 
  0.3125000E+00  0.3125000E+00  0.6250000E-01  0.1171875E-01
    1       -4.951837   1.000000
    2        1.178356   1.000000
    3        3.235080   1.000000
    4        3.352847   1.000000
    5        6.532936   0.000000
    6        8.168459   0.000000
    7       11.194678   0.000000
    8       11.348910   0.000000
 
  0.4375000E+00  0.3125000E+00  0.6250000E-01  0.2343750E-01
    1       -4.224402   1.000000
    2       -0.025095   1.000000
    3        2.476566   1.000000
    4        3.018811   1.000000
    5        6.841432   0.000000
    6        8.010636   0.000000
    7       11.160200   0.000000
    8       12.313761   0.000000
 
 -0.4375000E+00  0.3125000E+00  0.6250000E-01  0.2343750E-01
    1       -3.360950   1.000000
    2       -1.178442   1.000000
    3        1.664933   1.000000
    4        2.987866   1.000000
    5        7.075097   0.000000
    6        9.628644   0.000000
    7       10.745272   0.000000
    8       12.226694   0.000000
 
 -0.3125000E+00  0.3125000E+00  0.6250000E-01  0.2343750E-01
    1       -3.431731   1.000000
    2       -1.086168   1.000000
    3        1.327629   1.000000
    4        3.319455   1.000000
    5        7.460388   0.000000
    6       10.324849   0.000000
    7       11.573127   0.000000
    8       11.925896   0.000000
 
 -0.1875000E+00  0.3125000E+00  0.6250000E-01  0.2343750E-01
    1       -4.294648   1.000000
    2       -0.153501   1.000000
    3        1.905765   1.000000
    4        3.883062   1.000000
    5        8.051377   0.000000
    6        9.245716   0.000000
    7       10.620540   0.000000
    8       10.925464   0.000000
 
 -0.6250000E-01  0.3125000E+00  0.6250000E-01  0.2343750E-01
    1       -4.991749   1.000000
    2        0.490093   1.000000
    3        3.473483   1.000000
    4        4.316661   1.000000
    5        7.721377   0.000000
    6        8.632960   0.000000
    7        9.473707   0.000000
    8       11.132598   0.000000
 
  0.4375000E+00  0.4375000E+00  0.6250000E-01  0.1171875E-01
    1       -3.590371   1.000000
    2       -0.866296   1.000000
    3        2.570051   1.000000
    4        2.776778   1.000000
    5        6.157727   0.000449
    6        6.863004   0.000000
    7       13.430560   0.000000
    8       13.458005   0.000000
 
 -0.4375000E+00  0.4375000E+00  0.6250000E-01  0.2343750E-01
    1       -2.710898   1.000000
    2       -1.827269   1.000000
    3        2.036517   1.000000
    4        2.544386   1.000000
    5        6.581659   0.000000
    6        7.290177   0.000000
    7       13.199176   0.000000
    8       14.160472   0.000000
 
 -0.3125000E+00  0.4375000E+00  0.6250000E-01  0.2343750E-01
    1       -2.812710   1.000000
    2       -1.661144   1.000000
    3        1.337407   1.000000
    4        2.848796   1.000000
    5        6.933814   0.000000
    6        9.472669   0.000000
    7       11.713054   0.000000
    8       12.815630   0.000000
 
 -0.1875000E+00  0.4375000E+00  0.6250000E-01  0.2343750E-01
    1       -3.547498   1.000000
    2       -1.235793   1.000000
    3        1.849444   1.000000
    4        3.428959   1.000000
    5        7.571272   0.000000
    6        9.486522   0.000000
    7       10.985846   0.000000
    8       12.213782   0.000000
 
 -0.6250000E-01  0.4375000E+00  0.6250000E-01  0.2343750E-01
    1       -4.135269   1.000000
    2       -1.070225   1.000000
    3        3.297308   1.000000
    4        3.993835   1.000000
    5        7.512640   0.000000
    6        8.566639   0.000000
    7        9.310185   0.000000
    8       12.777725   0.000000
 
 -0.4375000E+00 -0.4375000E+00  0.6250000E-01  0.1171875E-01
    1       -2.758661   1.000000
    2       -1.842881   1.000000
    3        2.436605   1.000000
    4        2.659016   1.000000
    5        6.159991   0.000424
    6        6.511544   0.000000
    7       14.480603   0.000000
    8       14.533962   0.000000
 
 -0.3125000E+00 -0.4375000E+00  0.6250000E-01  0.2343750E-01
    1       -3.508861   1.000000
    2       -0.928821   1.000000
    3        2.187176   1.000000
    4        2.699385   1.000000
    5        6.662708   0.000000
    6        7.538793   0.000000
    7       12.153765   0.000000
    8       13.439511   0.000000
 
 -0.1875000E+00 -0.4375000E+00  0.6250000E-01  0.2343750E-01
    1       -3.968716   1.000000
    2       -0.649560   1.000000
    3        2.231977   1.000000
    4        3.277944   1.000000
    5        7.339321   0.000000
    6        9.807396   0.000000
    7        9.976404   0.000000
    8       11.196322   0.000000
 
 -0.3125000E+00 -0.3125000E+00  0.6250000E-01  0.1171875E-01
    1       -4.325326   1.000000
    2        0.149836   1.000000
    3        2.836607   1.000000
    4        3.009891   1.000000
    5        6.280577   0.000014
    6        7.428171   0.000000
    7       12.295994   0.000000
    8       12.389857   0.000000
 
 -0.1875000E+00 -0.3125000E+00  0.6250000E-01  0.2343750E-01
    1       -4.838600   1.000000
    2        0.850918   1.000000
    3        2.880214   1.000000
    4        3.508593   1.000000
    5        7.120445   0.000000
    6        8.660918   0.000000
    7       10.240365   0.000000
    8       11.214399   0.000000
 
 -0.1875000E+00 -0.1875000E+00  0.6250000E-01  0.1171875E-01
    1       -5.461516   1.000000
    2        2.190723   1.000000
    3        3.759584   1.000000
    4        3.794662   1.000000
    5        6.892520   0.000000
    6        8.971143   0.000000
    7       10.187240   0.000000
    8       10.344167   0.000000
 
  0.1875000E+00  0.1875000E+00  0.1875000E+00  0.3906250E-02
    1       -5.851663   1.000000
    2        2.613576   1.000000
    3        4.833046   1.000000
    4        4.833046   1.000000
    5        7.444915   0.000000
    6        8.604934   0.000000
    7        8.604934   0.000000
    8       10.762731   0.000000
 
  0.3125000E+00  0.1875000E+00  0.1875000E+00  0.1171875E-01
    1       -5.471610   1.000000
    2        1.778417   1.000000
    3        3.369889   1.000000
    4        4.846612   1.000000
    5        8.097507   0.000000
    6        8.727582   0.000000
    7        9.002970   0.000000
    8       10.918481   0.000000
 
  0.4375000E+00  0.1875000E+00  0.1875000E+00  0.1171875E-01
    1       -4.748656   1.000000
    2        0.436886   1.000000
    3        2.323131   1.000000
    4        4.358539   1.000000
    5        7.989862   0.000000
    6        9.467569   0.000000
    7        9.653041   0.000000
    8       11.203901   0.000000
 
 -0.4375000E+00  0.1875000E+00  0.1875000E+00  0.1171875E-01
    1       -3.888364   1.000000
    2       -0.996434   1.000000
    3        2.163744   1.000000
    4        3.845477   1.000000
    5        7.526324   0.000000
    6        9.614355   0.000000
    7        9.866527   0.000000
    8       13.036156   0.000000
 
 -0.3125000E+00  0.1875000E+00  0.1875000E+00  0.1171875E-01
    1       -3.872894   1.000000
    2       -1.024183   1.000000
    3        2.450202   1.000000
    4        3.538965   1.000000
    5        7.268804   0.000000
    6        9.674101   0.000000
    7       10.204956   0.000000
    8       11.152697   0.000000
 
 -0.1875000E+00  0.1875000E+00  0.1875000E+00  0.1171875E-01
    1       -4.731627   1.000000
    2        0.433716   1.000000
    3        3.046403   1.000000
    4        3.517710   1.000000
    5        7.206144   0.000000
    6        9.333622   0.000000
    7        9.963359   0.000000
    8       10.554520   0.000000
 
  0.3125000E+00  0.3125000E+00  0.1875000E+00  0.1171875E-01
    1       -5.222845   1.000000
    2        1.133811   1.000000
    3        3.843634   1.000000
    4        3.923297   1.000000
    5        7.570234   0.000000
    6        8.866878   0.000000
    7        9.825438   0.000000
    8       10.221100   0.000000
 
  0.4375000E+00  0.3125000E+00  0.1875000E+00  0.2343750E-01
    1       -4.616377   1.000000
    2        0.364562   1.000000
    3        2.378423   1.000000
    4        3.732231   1.000000
    5        8.064980   0.000000
    6        9.048358   0.000000
    7        9.590583   0.000000
    8       11.042564   0.000000
 
 -0.4375000E+00  0.3125000E+00  0.1875000E+00  0.2343750E-01
    1       -3.756118   1.000000
    2       -0.712899   1.000000
    3        1.617644   1.000000
    4        3.187168   1.000000
    5        8.508582   0.000000
    6        8.986177   0.000000
    7       10.233927   0.000000
    8       12.113721   0.000000
 
 -0.3125000E+00  0.3125000E+00  0.1875000E+00  0.2343750E-01
    1       -3.288500   1.000000
    2       -1.301697   1.000000
    3        1.615646   1.000000
    4        2.886964   1.000000
    5        8.056560   0.000000
    6        9.306133   0.000000
    7       10.999268   0.000000
    8       12.231253   0.000000
 
 -0.1875000E+00  0.3125000E+00  0.1875000E+00  0.2343750E-01
    1       -4.029482   1.000000
    2       -0.336336   1.000000
    3        2.028560   1.000000
    4        3.058772   1.000000
    5        7.792571   0.000000
    6        8.992889   0.000000
    7        9.802439   0.000000
    8       12.231338   0.000000
 
  0.4375000E+00  0.4375000E+00  0.1875000E+00  0.1171875E-01
    1       -4.135029   1.000000
    2       -0.275788   1.000000
    3        2.347669   1.000000
    4        3.196892   1.000000
    5        6.843345   0.000000
    6        8.828335   0.000000
    7       10.988995   0.000000
    8       11.359692   0.000000
 
 -0.4375000E+00  0.4375000E+00  0.1875000E+00  0.2343750E-01
    1       -3.357528   1.000000
    2       -1.064194   1.000000
    3        1.796909   1.000000
    4        2.542338   1.000000
    5        7.597592   0.000000
    6        8.593456   0.000000
    7       10.678427   0.000000
    8       13.402621   0.000000
 
 -0.3125000E+00  0.4375000E+00  0.1875000E+00  0.2343750E-01
    1       -2.578695   1.000000
    2       -1.800851   1.000000
    3        1.494477   1.000000
    4        2.060614   1.000000
    5        8.696629   0.000000
    6        9.617808   0.000000
    7       10.231667   0.000000
    8       11.226901   0.000000
 
 -0.1875000E+00  0.4375000E+00  0.1875000E+00  0.2343750E-01
    1       -3.162107   1.000000
    2       -1.262723   1.000000
    3        1.482564   1.000000
    4        2.518780   1.000000
    5        8.792545   0.000000
    6        9.200439   0.000000
    7        9.930911   0.000000
    8       12.365476   0.000000
 
 -0.4375000E+00 -0.4375000E+00  0.1875000E+00  0.1171875E-01
    1       -2.734415   1.000000
    2       -1.776233   1.000000
    3        1.594398   1.000000
    4        2.864514   1.000000
    5        6.428393   0.000000
    6        8.279835   0.000000
    7       13.126412   0.000000
    8       13.289922   0.000000
 
 -0.3125000E+00 -0.4375000E+00  0.1875000E+00  0.2343750E-01
    1       -2.636897   1.000000
    2       -1.809296   1.000000
    3        1.684934   1.000000
    4        2.264896   1.000000
    5        7.497850   0.000000
    6        8.392411   0.000000
    7       11.661351   0.000000
    8       12.747538   0.000000
 
 -0.3125000E+00 -0.3125000E+00  0.1875000E+00  0.1171875E-01
    1       -3.451396   1.000000
    2       -1.024179   1.000000
    3        1.848156   1.000000
    4        2.976459   1.000000
    5        6.571833   0.000000
    6        8.461674   0.000000
    7       12.123452   0.000000
    8       12.242490   0.000000
 
  0.3125000E+00  0.3125000E+00  0.3125000E+00  0.3906250E-02
    1       -5.119703   1.000000
    2        0.467569   1.000000
    3        4.429930   1.000000
    4        4.429930   1.000000
    5        6.991953   0.000000
    6        8.850631   0.000000
    7        8.850631   0.000000
    8       12.799816   0.000000
 
  0.4375000E+00  0.3125000E+00  0.3125000E+00  0.1171875E-01
    1       -4.655987   1.000000
    2       -0.101670   1.000000
    3        3.003467   1.000000
    4        4.343732   1.000000
    5        7.724694   0.000000
    6        9.064052   0.000000
    7        9.116400   0.000000
    8       12.210151   0.000000
 
 -0.4375000E+00  0.3125000E+00  0.3125000E+00  0.1171875E-01
    1       -3.890385   1.000000
    2       -0.643903   1.000000
    3        1.539605   1.000000
    4        3.783896   1.000000
    5        7.464014   0.000000
    6       10.466186   0.000000
    7       10.613270   0.000000
    8       11.951498   0.000000
 
 -0.3125000E+00  0.3125000E+00  0.3125000E+00  0.1171875E-01
    1       -3.098757   1.000000
    2       -1.411011   1.000000
    3        1.219395   1.000000
    4        3.255491   1.000000
    5        6.877783   0.000000
    6       10.691355   0.000000
    7       11.705712   0.000000
    8       11.916692   0.000000
 
  0.4375000E+00  0.4375000E+00  0.3125000E+00  0.1171875E-01
    1       -4.353432   1.000000
    2       -0.641155   1.000000
    3        3.321662   1.000000
    4        3.801191   1.000000
    5        7.475781   0.000000
    6        8.820893   0.000000
    7        9.591581   0.000000
    8       11.579399   0.000000
 
 -0.4375000E+00  0.4375000E+00  0.3125000E+00  0.2343750E-01
    1       -3.755099   1.000000
    2       -1.004788   1.000000
    3        2.061707   1.000000
    4        3.345777   1.000000
    5        8.248640   0.000000
    6        8.617597   0.000000
    7       11.058437   0.000000
    8       11.340001   0.000000
 
 -0.3125000E+00  0.4375000E+00  0.3125000E+00  0.2343750E-01
    1       -2.964166   1.000000
    2       -1.479712   1.000000
    3        1.308662   1.000000
    4        2.658734   1.000000
    5        7.934085   0.000000
    6       10.135612   0.000000
    7       10.886640   0.000000
    8       11.391734   0.000000
 
 -0.4375000E+00 -0.4375000E+00  0.3125000E+00  0.1171875E-01
    1       -3.409822   1.000000
    2       -1.281910   1.000000
    3        1.689119   1.000000
    4        3.352150   1.000000
    5        7.019170   0.000000
    6       10.648462   0.000000
    7       10.946713   0.000000
    8       10.967342   0.000000
 
  0.4375000E+00  0.4375000E+00  0.4375000E+00  0.3906250E-02
    1       -4.264783   1.000000
    2       -1.124034   1.000000
    3        4.213497   1.000000
    4        4.213497   1.000000
    5        6.740025   0.000000
    6        8.729522   0.000000
    7        8.729522   0.000000
    8       13.039743   0.000000
 
 -0.4375000E+00  0.4375000E+00  0.4375000E+00  0.1171875E-01
    1       -3.927330   1.000000
    2       -1.298566   1.000000
    3        3.016516   1.000000
    4        3.955868   1.000000
    5        7.488560   0.000000
    6        8.832140   0.000000
    7        9.291580   0.000000
    8       13.370217   0.000000
