<?xml version="1.0" encoding="ISO-8859-1"?>
<modeling>
 <generator>
  <i name="program" type="string">vasp </i>
  <i name="version" type="string">5.4.4.18Apr17-6-g9f103f2a35  </i>
  <i name="subversion" type="string">(build Dec 09 2018 21:25:21) complex            parallel </i>
  <i name="platform" type="string">IFC18.0.1.163_CrayMPICH7.7.0_MKL18.0.1.163 </i>
  <i name="date" type="string">2019 03 23 </i>
  <i name="time" type="string">21:19:06 </i>
 </generator>
 <incar>
  <i type="string" name="PREC">normal</i>
  <i type="int" name="IBRION">     2</i>
  <i name="EDIFF">      0.00040000</i>
  <i name="EDIFFG">     -0.01000000</i>
  <i type="int" name="NSW">    15</i>
  <i type="int" name="ISIF">     2</i>
  <i name="ENCUT">    350.00000000</i>
  <i type="int" name="NBANDS">     8</i>
  <i type="logical" name="LREAL"> F  </i>
  <i type="int" name="ISMEAR">     0</i>
  <i name="SIGMA">      0.20000000</i>
  <v type="int" name="KPOINT_BSE">    -1     0     0     0</v>
 </incar>
 <structure name="primitive_cell" >
  <crystal>
   <varray name="basis" >
    <v>       0.00000000       2.76006700       2.76006700 </v>
    <v>       2.76006700       0.00000000       2.76006700 </v>
    <v>       2.76006700       2.76006700       0.00000000 </v>
   </varray>
   <i name="volume">     42.05221435 </i>
   <varray name="rec_basis" >
    <v>      -0.18115502       0.18115502       0.18115502 </v>
    <v>       0.18115502      -0.18115502       0.18115502 </v>
    <v>       0.18115502       0.18115502      -0.18115502 </v>
   </varray>
  </crystal>
  <varray name="positions" >
   <v>      -0.50000000      -0.50000000      -0.50000000 </v>
   <v>      -0.25000000      -0.25000000      -0.25000000 </v>
  </varray>
 </structure>
 <varray name="primitive_index" >
  <v type="int" >        1 </v>
  <v type="int" >        2 </v>
 </varray>
 <kpoints>
  <generation param="Monkhorst-Pack">
   <v type="int" name="divisions">       8        8        8 </v>
   <v name="usershift">      0.00000000       0.00000000       0.00000000 </v>
   <v name="genvec1">      0.12500000      -0.00000000       0.00000000 </v>
   <v name="genvec2">     -0.00000000       0.12500000      -0.00000000 </v>
   <v name="genvec3">      0.00000000       0.00000000       0.12500000 </v>
   <v name="shift">      0.50000000       0.50000000       0.50000000 </v>
  </generation>
  <varray name="kpointlist" >
   <v>       0.06250000       0.06250000       0.06250000 </v>
   <v>       0.18750000       0.06250000       0.06250000 </v>
   <v>       0.31250000       0.06250000       0.06250000 </v>
   <v>       0.43750000       0.06250000       0.06250000 </v>
   <v>      -0.43750000       0.06250000       0.06250000 </v>
   <v>      -0.31250000       0.06250000       0.06250000 </v>
   <v>      -0.18750000       0.06250000       0.06250000 </v>
   <v>      -0.06250000       0.06250000       0.06250000 </v>
   <v>       0.18750000       0.18750000       0.06250000 </v>
   <v>       0.31250000       0.18750000       0.06250000 </v>
   <v>       0.43750000       0.18750000       0.06250000 </v>
   <v>      -0.43750000       0.18750000       0.06250000 </v>
   <v>      -0.31250000       0.18750000       0.06250000 </v>
   <v>      -0.18750000       0.18750000       0.06250000 </v>
   <v>      -0.06250000       0.18750000       0.06250000 </v>
   <v>       0.31250000       0.31250000       0.06250000 </v>
   <v>       0.43750000       0.31250000       0.06250000 </v>
   <v>      -0.43750000       0.31250000       0.06250000 </v>
   <v>      -0.31250000       0.31250000       0.06250000 </v>
   <v>      -0.18750000       0.31250000       0.06250000 </v>
   <v>      -0.06250000       0.31250000       0.06250000 </v>
   <v>       0.43750000       0.43750000       0.06250000 </v>
   <v>      -0.43750000       0.43750000       0.06250000 </v>
   <v>      -0.31250000       0.43750000       0.06250000 </v>
   <v>      -0.18750000       0.43750000       0.06250000 </v>
   <v>      -0.06250000       0.43750000       0.06250000 </v>
   <v>      -0.43750000      -0.43750000       0.06250000 </v>
   <v>      -0.31250000      -0.43750000       0.06250000 </v>
   <v>      -0.18750000      -0.43750000       0.06250000 </v>
   <v>      -0.31250000      -0.31250000       0.06250000 </v>
   <v>      -0.18750000      -0.31250000       0.06250000 </v>
   <v>      -0.18750000      -0.18750000       0.06250000 </v>
   <v>       0.18750000       0.18750000       0.18750000 </v>
   <v>       0.31250000       0.18750000       0.18750000 </v>
   <v>       0.43750000       0.18750000       0.18750000 </v>
   <v>      -0.43750000       0.18750000       0.18750000 </v>
   <v>      -0.31250000       0.18750000       0.18750000 </v>
   <v>      -0.18750000       0.18750000       0.18750000 </v>
   <v>       0.31250000       0.31250000       0.18750000 </v>
   <v>       0.43750000       0.31250000       0.18750000 </v>
   <v>      -0.43750000       0.31250000       0.18750000 </v>
   <v>      -0.31250000       0.31250000       0.18750000 </v>
   <v>      -0.18750000       0.31250000       0.18750000 </v>
   <v>       0.43750000       0.43750000       0.18750000 </v>
   <v>      -0.43750000       0.43750000       0.18750000 </v>
   <v>      -0.31250000       0.43750000       0.18750000 </v>
   <v>      -0.18750000       0.43750000       0.18750000 </v>
   <v>      -0.43750000      -0.43750000       0.18750000 </v>
   <v>      -0.31250000      -0.43750000       0.18750000 </v>
   <v>      -0.31250000      -0.31250000       0.18750000 </v>
   <v>       0.31250000       0.31250000       0.31250000 </v>
   <v>       0.43750000       0.31250000       0.31250000 </v>
   <v>      -0.43750000       0.31250000       0.31250000 </v>
   <v>      -0.31250000       0.31250000       0.31250000 </v>
   <v>       0.43750000       0.43750000       0.31250000 </v>
   <v>      -0.43750000       0.43750000       0.31250000 </v>
   <v>      -0.31250000       0.43750000       0.31250000 </v>
   <v>      -0.43750000      -0.43750000       0.31250000 </v>
   <v>       0.43750000       0.43750000       0.43750000 </v>
   <v>      -0.43750000       0.43750000       0.43750000 </v>
  </varray>
  <varray name="weights" >
   <v>       0.00390625 </v>
   <v>       0.01171875 </v>
   <v>       0.01171875 </v>
   <v>       0.01171875 </v>
   <v>       0.01171875 </v>
   <v>       0.01171875 </v>
   <v>       0.01171875 </v>
   <v>       0.01171875 </v>
   <v>       0.01171875 </v>
   <v>       0.02343750 </v>
   <v>       0.02343750 </v>
   <v>       0.02343750 </v>
   <v>       0.02343750 </v>
   <v>       0.02343750 </v>
   <v>       0.02343750 </v>
   <v>       0.01171875 </v>
   <v>       0.02343750 </v>
   <v>       0.02343750 </v>
   <v>       0.02343750 </v>
   <v>       0.02343750 </v>
   <v>       0.02343750 </v>
   <v>       0.01171875 </v>
   <v>       0.02343750 </v>
   <v>       0.02343750 </v>
   <v>       0.02343750 </v>
   <v>       0.02343750 </v>
   <v>       0.01171875 </v>
   <v>       0.02343750 </v>
   <v>       0.02343750 </v>
   <v>       0.01171875 </v>
   <v>       0.02343750 </v>
   <v>       0.01171875 </v>
   <v>       0.00390625 </v>
   <v>       0.01171875 </v>
   <v>       0.01171875 </v>
   <v>       0.01171875 </v>
   <v>       0.01171875 </v>
   <v>       0.01171875 </v>
   <v>       0.01171875 </v>
   <v>       0.02343750 </v>
   <v>       0.02343750 </v>
   <v>       0.02343750 </v>
   <v>       0.02343750 </v>
   <v>       0.01171875 </v>
   <v>       0.02343750 </v>
   <v>       0.02343750 </v>
   <v>       0.02343750 </v>
   <v>       0.01171875 </v>
   <v>       0.02343750 </v>
   <v>       0.01171875 </v>
   <v>       0.00390625 </v>
   <v>       0.01171875 </v>
   <v>       0.01171875 </v>
   <v>       0.01171875 </v>
   <v>       0.01171875 </v>
   <v>       0.02343750 </v>
   <v>       0.02343750 </v>
   <v>       0.01171875 </v>
   <v>       0.00390625 </v>
   <v>       0.01171875 </v>
  </varray>
 </kpoints>
 <parameters>
  <separator name="general" >
   <i type="string" name="SYSTEM">unknown system</i>
   <i type="logical" name="LCOMPAT"> F  </i>
  </separator>
  <separator name="electronic" >
   <i type="string" name="PREC">normal</i>
   <i name="ENMAX">    350.00000000</i>
   <i name="ENAUG">    322.06900000</i>
   <i name="EDIFF">      0.00040000</i>
   <i type="int" name="IALGO">    38</i>
   <i type="int" name="IWAVPR">    11</i>
   <i type="int" name="NBANDS">     8</i>
   <i name="NELECT">      8.00000000</i>
   <i type="int" name="TURBO">     0</i>
   <i type="int" name="IRESTART">     0</i>
   <i type="int" name="NREBOOT">     0</i>
   <i type="int" name="NMIN">     0</i>
   <i name="EREF">      0.00000000</i>
   <separator name="electronic smearing" >
    <i type="int" name="ISMEAR">     0</i>
    <i name="SIGMA">      0.20000000</i>
    <i name="KSPACING">      0.50000000</i>
    <i type="logical" name="KGAMMA"> T  </i>
   </separator>
   <separator name="electronic projectors" >
    <i type="logical" name="LREAL"> F  </i>
    <v name="ROPT">      0.00000000</v>
    <i type="int" name="LMAXPAW">  -100</i>
    <i type="int" name="LMAXMIX">     2</i>
    <i type="logical" name="NLSPLINE"> F  </i>
   </separator>
   <separator name="electronic startup" >
    <i type="int" name="ISTART">     0</i>
    <i type="int" name="ICHARG">     2</i>
    <i type="int" name="INIWAV">     1</i>
   </separator>
   <separator name="electronic spin" >
    <i type="int" name="ISPIN">     1</i>
    <i type="logical" name="LNONCOLLINEAR"> F  </i>
    <v name="MAGMOM">      1.00000000      1.00000000</v>
    <i name="NUPDOWN">     -1.00000000</i>
    <i type="logical" name="LSORBIT"> F  </i>
    <v name="SAXIS">      0.00000000      0.00000000      1.00000000</v>
    <i type="logical" name="LSPIRAL"> F  </i>
    <v name="QSPIRAL">      0.00000000      0.00000000      0.00000000</v>
    <i type="logical" name="LZEROZ"> F  </i>
   </separator>
   <separator name="electronic exchange-correlation" >
    <i type="logical" name="LASPH"> F  </i>
    <i type="logical" name="LMETAGGA"> F  </i>
   </separator>
   <separator name="electronic convergence" >
    <i type="int" name="NELM">    60</i>
    <i type="int" name="NELMDL">    -5</i>
    <i type="int" name="NELMIN">     2</i>
    <i name="ENINI">    350.00000000</i>
    <separator name="electronic convergence detail" >
     <i type="logical" name="LDIAG"> T  </i>
     <i type="logical" name="LSUBROT"> F  </i>
     <i name="WEIMIN">      0.00100000</i>
     <i name="EBREAK">      0.00001250</i>
     <i name="DEPER">      0.30000000</i>
     <i type="int" name="NRMM">     4</i>
     <i name="TIME">      0.40000000</i>
    </separator>
   </separator>
   <separator name="electronic mixer" >
    <i name="AMIX">      0.40000000</i>
    <i name="BMIX">      1.00000000</i>
    <i name="AMIN">      0.10000000</i>
    <i name="AMIX_MAG">      1.60000000</i>
    <i name="BMIX_MAG">      1.00000000</i>
    <separator name="electronic mixer details" >
     <i type="int" name="IMIX">     4</i>
     <i type="logical" name="MIXFIRST"> F  </i>
     <i type="int" name="MAXMIX">   -45</i>
     <i name="WC">    100.00000000</i>
     <i type="int" name="INIMIX">     1</i>
     <i type="int" name="MIXPRE">     1</i>
     <i type="int" name="MREMOVE">     5</i>
    </separator>
   </separator>
   <separator name="electronic dipolcorrection" >
    <i type="logical" name="LDIPOL"> F  </i>
    <i type="logical" name="LMONO"> F  </i>
    <i type="int" name="IDIPOL">     0</i>
    <i name="EPSILON">      1.00000000</i>
    <v name="DIPOL">   -100.00000000   -100.00000000   -100.00000000</v>
    <i name="EFIELD">      0.00000000</i>
   </separator>
  </separator>
  <separator name="grids" >
   <i type="int" name="NGX">    18</i>
   <i type="int" name="NGY">    18</i>
   <i type="int" name="NGZ">    18</i>
   <i type="int" name="NGXF">    36</i>
   <i type="int" name="NGYF">    36</i>
   <i type="int" name="NGZF">    36</i>
   <i type="logical" name="ADDGRID"> F  </i>
  </separator>
  <separator name="ionic" >
   <i type="int" name="NSW">    15</i>
   <i type="int" name="IBRION">     2</i>
   <i type="int" name="MDALGO">     0</i>
   <i type="int" name="ISIF">     2</i>
   <i name="PSTRESS">      0.00000000</i>
   <i name="EDIFFG">     -0.01000000</i>
   <i type="int" name="NFREE">     1</i>
   <i name="POTIM">      0.50000000</i>
   <i name="SMASS">     -3.00000000</i>
   <i name="SCALEE">      1.00000000</i>
  </separator>
  <separator name="ionic md" >
   <i name="TEBEG">      0.00010000</i>
   <i name="TEEND">      0.00010000</i>
   <i type="int" name="NBLOCK">     1</i>
   <i type="int" name="KBLOCK">    15</i>
   <i type="int" name="NPACO">   256</i>
   <i name="APACO">     16.00000000</i>
  </separator>
  <separator name="symmetry" >
   <i type="int" name="ISYM">     2</i>
   <i name="SYMPREC">      0.00001000</i>
  </separator>
  <separator name="dos" >
   <i type="int" name="LORBIT">     0</i>
   <v name="RWIGS">     -1.00000000</v>
   <i type="int" name="NEDOS">   301</i>
   <i name="EMIN">     10.00000000</i>
   <i name="EMAX">    -10.00000000</i>
   <i name="EFERMI">      0.00000000</i>
  </separator>
  <separator name="writing" >
   <i type="int" name="NWRITE">     2</i>
   <i type="logical" name="LWAVE"> T  </i>
   <i type="logical" name="LDOWNSAMPLE"> F  </i>
   <i type="logical" name="LCHARG"> T  </i>
   <i type="logical" name="LPARD"> F  </i>
   <i type="logical" name="LVTOT"> F  </i>
   <i type="logical" name="LVHAR"> F  </i>
   <i type="logical" name="LELF"> F  </i>
   <i type="logical" name="LOPTICS"> F  </i>
   <v name="STM">      0.00000000      0.00000000      0.00000000      0.00000000      0.00000000      0.00000000      0.00000000</v>
  </separator>
  <separator name="performance" >
   <i type="int" name="NPAR">     8</i>
   <i type="int" name="NSIM">     4</i>
   <i type="int" name="NBLK">    -1</i>
   <i type="logical" name="LPLANE"> T  </i>
   <i type="logical" name="LSCALAPACK"> T  </i>
   <i type="logical" name="LSCAAWARE"> F  </i>
   <i type="logical" name="LSCALU"> F  </i>
   <i type="logical" name="LASYNC"> F  </i>
   <i type="logical" name="LORBITALREAL"> F  </i>
  </separator>
  <separator name="miscellaneous" >
   <i type="int" name="IDIOT">     3</i>
   <i type="int" name="ISPECIAL">     0</i>
   <i type="logical" name="LMUSIC"> F  </i>
   <v name="POMASS">     28.08500000</v>
   <v name="DARWINR">      0.00000000</v>
   <v name="DARWINV">      1.00000000</v>
   <i type="logical" name="LCORR"> T  </i>
  </separator>
  <i type="logical" name="GGA_COMPAT"> T  </i>
  <i type="logical" name="LBERRY"> F  </i>
  <i type="int" name="ICORELEVEL">     0</i>
  <i type="logical" name="LDAU"> F  </i>
  <i type="int" name="I_CONSTRAINED_M">     0</i>
  <separator name="electronic exchange-correlation" >
   <i type="string" name="GGA">--</i>
   <i type="int" name="VOSKOWN">     0</i>
   <i type="logical" name="LHFCALC"> F  </i>
   <i type="string" name="PRECFOCK"></i>
   <i type="logical" name="LSYMGRAD"> F  </i>
   <i type="logical" name="LHFONE"> F  </i>
   <i type="logical" name="LRHFCALC"> F  </i>
   <i type="logical" name="LTHOMAS"> F  </i>
   <i type="logical" name="LMODELHF"> F  </i>
   <i name="ENCUT4O">     -1.00000000</i>
   <i type="int" name="EXXOEP">     0</i>
   <i type="int" name="FOURORBIT">     0</i>
   <i name="AEXX">      0.00000000</i>
   <i name="HFALPHA">      0.00000000</i>
   <i name="MCALPHA">      0.00000000</i>
   <i name="ALDAX">      1.00000000</i>
   <i name="AGGAX">      1.00000000</i>
   <i name="ALDAC">      1.00000000</i>
   <i name="AGGAC">      1.00000000</i>
   <i type="int" name="NKREDX">     1</i>
   <i type="int" name="NKREDY">     1</i>
   <i type="int" name="NKREDZ">     1</i>
   <i type="logical" name="SHIFTRED"> F  </i>
   <i type="logical" name="ODDONLY"> F  </i>
   <i type="logical" name="EVENONLY"> F  </i>
   <i type="int" name="LMAXFOCK">     0</i>
   <i type="int" name="NMAXFOCKAE">     0</i>
   <i type="logical" name="LFOCKAEDFT"> F  </i>
   <i name="HFSCREEN">      0.00000000</i>
   <i name="HFSCREENC">      0.00000000</i>
   <i type="int" name="NBANDSGWLOW">     0</i>
  </separator>
  <separator name="vdW DFT" >
   <i type="logical" name="LUSE_VDW"> F  </i>
   <i name="Zab_VDW">     -0.84910000</i>
   <i name="PARAM1">      0.12340000</i>
   <i name="PARAM2">      1.00000000</i>
   <i name="PARAM3">      0.00000000</i>
  </separator>
  <separator name="model GW" >
   <i type="int" name="MODEL_GW">     0</i>
   <i name="MODEL_EPS0">     12.61566430</i>
   <i name="MODEL_ALPHA">      1.00000000</i>
  </separator>
  <separator name="linear response parameters" >
   <i type="logical" name="LEPSILON"> F  </i>
   <i type="logical" name="LRPA"> F  </i>
   <i type="logical" name="LNABLA"> F  </i>
   <i type="logical" name="LVEL"> F  </i>
   <i type="int" name="KINTER">     0</i>
   <i name="CSHIFT">      0.10000000</i>
   <i name="OMEGAMAX">     -1.00000000</i>
   <i name="DEG_THRESHOLD">      0.00200000</i>
   <i name="RTIME">     -0.10000000</i>
   <i name="WPLASMAI">      0.00000000</i>
   <v name="DFIELD">      0.00000000      0.00000000      0.00000000</v>
   <v name="WPLASMA">      0.00000000      0.00000000      0.00000000      0.00000000      0.00000000      0.00000000      0.00000000      0.00000000      0.00000000</v>
  </separator>
  <separator name="orbital magnetization" >
   <i type="logical" name="NUCIND"> F  </i>
   <v name="MAGPOS">      0.00000000      0.00000000      0.00000000</v>
   <i type="logical" name="LNICSALL"> T  </i>
   <i type="logical" name="ORBITALMAG"> F  </i>
   <i type="logical" name="LMAGBLOCH"> F  </i>
   <i type="logical" name="LCHIMAG"> F  </i>
   <i type="logical" name="LGAUGE"> T  </i>
   <i type="int" name="MAGATOM">     0</i>
   <v name="MAGDIPOL">      0.00000000      0.00000000      0.00000000</v>
   <v name="AVECCONST">      0.00000000      0.00000000      0.00000000</v>
  </separator>
  <separator name="response functions" >
   <i type="logical" name="LADDER"> F  </i>
   <i type="logical" name="LRPAFORCE"> F  </i>
   <i type="logical" name="LFXC"> F  </i>
   <i type="logical" name="LHARTREE"> T  </i>
   <i type="int" name="IBSE">     0</i>
   <v type="int" name="KPOINT">    -1     0     0     0</v>
   <i type="logical" name="LTCTE"> F  </i>
   <i type="logical" name="LTETE"> F  </i>
   <i type="logical" name="LTRIPLET"> F  </i>
   <i type="logical" name="LFXCEPS"> F  </i>
   <i type="logical" name="LFXHEG"> F  </i>
   <i type="int" name="NATURALO">     2</i>
   <i type="logical" name="L2ORDER"> F  </i>
   <i type="logical" name="LMP2LT"> F  </i>
   <i type="logical" name="LUSEW"> F  </i>
   <i name="ENCUTGW">     -2.00000000</i>
   <i name="ENCUTGWSOFT">     -2.00000000</i>
   <i name="ENCUTLF">     -1.00000000</i>
   <i type="int" name="LMAXMP2">    -1</i>
   <i name="SCISSOR">      0.00000000</i>
   <i type="int" name="NOMEGA">     0</i>
   <i type="int" name="NOMEGAR">     0</i>
   <i type="int" name="NBANDSGW">    -1</i>
   <i type="int" name="NBANDSO">    -1</i>
   <i type="int" name="NBANDSV">    -1</i>
   <i type="int" name="NELM">     1</i>
   <i type="int" name="NELMHF">     1</i>
   <i type="int" name="DIM">     3</i>
   <i type="int" name="ANTIRES">     0</i>
   <i name="OMEGAMAX">    -30.00000000</i>
   <i name="OMEGAMIN">    -30.00000000</i>
   <i name="OMEGATL">   -200.00000000</i>
   <i type="int" name="OMEGAGRID">   140</i>
   <i name="CSHIFT">     -0.10000000</i>
   <i type="logical" name="SELFENERGY"> F  </i>
   <i type="logical" name="LSPECTRAL"> F  </i>
   <i type="logical" name="LSPECTRALGW"> F  </i>
   <i type="logical" name="LSINGLES"> F  </i>
   <i type="logical" name="LFERMIGW"> F  </i>
   <i type="logical" name="ODDONLYGW"> F  </i>
   <i type="logical" name="EVENONLYGW"> F  </i>
   <i type="int" name="NKREDLFX">     1</i>
   <i type="int" name="NKREDLFY">     1</i>
   <i type="int" name="NKREDLFZ">     1</i>
   <i type="int" name="MAXMEM">  2800</i>
   <i type="int" name="TELESCOPE">     0</i>
   <i type="int" name="TAUPAR">     1</i>
   <i type="int" name="OMEGAPAR">    -1</i>
   <i name="LAMBDA">      1.00000000</i>
  </separator>
  <separator name="External order field" >
   <i name="OFIELD_KAPPA">      0.00000000</i>
   <v name="OFIELD_K">      0.00000000      0.00000000      0.00000000</v>
   <i name="OFIELD_Q6_NEAR">      0.00000000</i>
   <i name="OFIELD_Q6_FAR">      0.00000000</i>
   <i name="OFIELD_A">      0.00000000</i>
  </separator>
 </parameters>
 <atominfo>
  <atoms>       2 </atoms>
  <types>       1 </types>
  <array name="atoms" >
   <dimension dim="1">ion</dimension>
   <field type="string">element</field>
   <field type="int">atomtype</field>
   <set>
    <rc><c>Si</c><c>   1</c></rc>
    <rc><c>Si</c><c>   1</c></rc>
   </set>
  </array>
  <array name="atomtypes" >
   <dimension dim="1">type</dimension>
   <field type="int">atomspertype</field>
   <field type="string">element</field>
   <field>mass</field>
   <field>valence</field>
   <field type="string">pseudopotential</field>
   <set>
    <rc><c>   2</c><c>Si</c><c>     28.08500000</c><c>      4.00000000</c><c> PAW_PBE Si 05Jan2001                   </c></rc>
   </set>
  </array>
 </atominfo>
 <structure name="initialpos" >
  <crystal>
   <varray name="basis" >
    <v>       0.00000000       2.76006700       2.76006700 </v>
    <v>       2.76006700       0.00000000       2.76006700 </v>
    <v>       2.76006700       2.76006700       0.00000000 </v>
   </varray>
   <i name="volume">     42.05221435 </i>
   <varray name="rec_basis" >
    <v>      -0.18115502       0.18115502       0.18115502 </v>
    <v>       0.18115502      -0.18115502       0.18115502 </v>
    <v>       0.18115502       0.18115502      -0.18115502 </v>
   </varray>
  </crystal>
  <varray name="positions" >
   <v>       0.50000000       0.50000000       0.50000000 </v>
   <v>       0.75000000       0.75000000       0.75000000 </v>
  </varray>
 </structure>
 <calculation>
  <scstep>
   <time name="dav">    0.75    0.75</time>
   <time name="total">    0.79    0.81</time>
   <energy>
    <i name="alphaZ">      3.20202671 </i>
    <i name="ewald">   -224.83148785 </i>
    <i name="hartreedc">    -11.75479147 </i>
    <i name="XCdc">    -18.79315864 </i>
    <i name="pawpsdc">     65.95520812 </i>
    <i name="pawaedc">    -30.76852678 </i>
    <i name="eentropy">     -0.01960220 </i>
    <i name="bandstr">     15.90351236 </i>
    <i name="atom">    206.13125414 </i>
    <i name="e_fr_energy">      5.02443439 </i>
    <i name="e_wo_entrp">      5.04403659 </i>
    <i name="e_0_energy">      5.03423549 </i>
   </energy>
  </scstep>
  <scstep>
   <time name="dav">    1.12    1.15</time>
   <time name="total">    1.13    1.15</time>
   <energy>
    <i name="e_fr_energy">    -10.79450170 </i>
    <i name="e_wo_entrp">    -10.79450092 </i>
    <i name="e_0_energy">    -10.79450131 </i>
   </energy>
  </scstep>
  <scstep>
   <time name="dav">    0.90    0.92</time>
   <time name="total">    0.90    0.92</time>
   <energy>
    <i name="e_fr_energy">    -10.99102606 </i>
    <i name="e_wo_entrp">    -10.99102543 </i>
    <i name="e_0_energy">    -10.99102574 </i>
   </energy>
  </scstep>
  <scstep>
   <time name="dav">    1.21    1.22</time>
   <time name="total">    1.22    1.22</time>
   <energy>
    <i name="e_fr_energy">    -10.99189811 </i>
    <i name="e_wo_entrp">    -10.99189748 </i>
    <i name="e_0_energy">    -10.99189780 </i>
   </energy>
  </scstep>
  <scstep>
   <time name="dav">    0.92    0.92</time>
   <time name="total">    0.98    0.99</time>
   <energy>
    <i name="e_fr_energy">    -10.99189858 </i>
    <i name="e_wo_entrp">    -10.99189795 </i>
    <i name="e_0_energy">    -10.99189827 </i>
   </energy>
  </scstep>
  <scstep>
   <time name="dav">    0.92    0.92</time>
   <time name="total">    1.01    1.02</time>
   <energy>
    <i name="e_fr_energy">    -10.88722825 </i>
    <i name="e_wo_entrp">    -10.88722464 </i>
    <i name="e_0_energy">    -10.88722645 </i>
   </energy>
  </scstep>
  <scstep>
   <time name="dav">    0.90    0.90</time>
   <time name="total">    0.99    1.01</time>
   <energy>
    <i name="e_fr_energy">    -10.83767368 </i>
    <i name="e_wo_entrp">    -10.83764691 </i>
    <i name="e_0_energy">    -10.83766029 </i>
   </energy>
  </scstep>
  <scstep>
   <time name="dav">    0.86    0.86</time>
   <time name="total">    0.96    0.96</time>
   <energy>
    <i name="e_fr_energy">    -10.83900346 </i>
    <i name="e_wo_entrp">    -10.83898270 </i>
    <i name="e_0_energy">    -10.83899308 </i>
   </energy>
  </scstep>
  <scstep>
   <time name="dav">    0.62    0.62</time>
   <time name="total">    0.66    0.67</time>
   <energy>
    <i name="alphaZ">      3.20202671 </i>
    <i name="ewald">   -224.83148785 </i>
    <i name="hartreedc">    -15.49770101 </i>
    <i name="XCdc">    -18.18560873 </i>
    <i name="pawpsdc">     72.82542032 </i>
    <i name="pawaedc">    -37.82092683 </i>
    <i name="eentropy">     -0.00002049 </i>
    <i name="bandstr">      3.33793551 </i>
    <i name="atom">    206.13125414 </i>
    <i name="e_fr_energy">    -10.83910824 </i>
    <i name="e_wo_entrp">    -10.83908775 </i>
    <i name="e_0_energy">    -10.83909799 </i>
   </energy>
  </scstep>
  <structure>
   <crystal>
    <varray name="basis" >
     <v>       0.00000000       2.76006700       2.76006700 </v>
     <v>       2.76006700       0.00000000       2.76006700 </v>
     <v>       2.76006700       2.76006700       0.00000000 </v>
    </varray>
    <i name="volume">     42.05221435 </i>
    <varray name="rec_basis" >
     <v>      -0.18115502       0.18115502       0.18115502 </v>
     <v>       0.18115502      -0.18115502       0.18115502 </v>
     <v>       0.18115502       0.18115502      -0.18115502 </v>
    </varray>
   </crystal>
   <varray name="positions" >
    <v>       0.50000000       0.50000000       0.50000000 </v>
    <v>       0.75000000       0.75000000       0.75000000 </v>
   </varray>
  </structure>
  <varray name="forces" >
   <v>       0.00000000       0.00000000       0.00000000 </v>
   <v>      -0.00000000      -0.00000000      -0.00000000 </v>
  </varray>
  <varray name="stress" >
   <v>     -23.68053277       0.00000000      -0.00000000 </v>
   <v>       0.00000000     -23.68053277      -0.00000000 </v>
   <v>      -0.00000000       0.00000000     -23.68053277 </v>
  </varray>
  <energy>
   <i name="e_fr_energy">    -10.83910824 </i>
   <i name="e_wo_entrp">    -10.83909799 </i>
   <i name="e_0_energy">     -0.00002049 </i>
  </energy>
  <time name="totalsc">   10.32   11.22</time>
  <eigenvalues>
   <array>
    <dimension dim="1">band</dimension>
    <dimension dim="2">kpoint</dimension>
    <dimension dim="3">spin</dimension>
    <field>eigene</field>
    <field>occ</field>
    <set>
     <set comment="spin 1">
      <set comment="kpoint 1">
       <r>   -6.2390    1.0000 </r>
       <r>    4.8049    1.0000 </r>
       <r>    5.2603    0.9988 </r>
       <r>    5.2603    0.9988 </r>
       <r>    7.8780    0.0000 </r>
       <r>    8.0038    0.0000 </r>
       <r>    8.0038    0.0000 </r>
       <r>    8.6165    0.0000 </r>
      </set>
      <set comment="kpoint 2">
       <r>   -5.9792    1.0000 </r>
       <r>    3.3149    1.0000 </r>
       <r>    4.4826    1.0000 </r>
       <r>    5.1436    0.9999 </r>
       <r>    7.8967    0.0000 </r>
       <r>    8.2430    0.0000 </r>
       <r>    8.5087    0.0000 </r>
       <r>   10.1361    0.0000 </r>
      </set>
      <set comment="kpoint 3">
       <r>   -5.3530    1.0000 </r>
       <r>    1.1489    1.0000 </r>
       <r>    4.0035    1.0000 </r>
       <r>    4.6949    1.0000 </r>
       <r>    7.4440    0.0000 </r>
       <r>    8.7342    0.0000 </r>
       <r>    9.0107    0.0000 </r>
       <r>   11.7410    0.0000 </r>
      </set>
      <set comment="kpoint 4">
       <r>   -4.4839    1.0000 </r>
       <r>   -0.6786    1.0000 </r>
       <r>    3.7887    1.0000 </r>
       <r>    4.3001    1.0000 </r>
       <r>    7.1310    0.0000 </r>
       <r>    8.8157    0.0000 </r>
       <r>    8.8293    0.0000 </r>
       <r>   13.0372    0.0000 </r>
      </set>
      <set comment="kpoint 5">
       <r>   -4.0570    1.0000 </r>
       <r>   -1.3511    1.0000 </r>
       <r>    3.8337    1.0000 </r>
       <r>    4.0897    1.0000 </r>
       <r>    7.0526    0.0000 </r>
       <r>    8.6322    0.0000 </r>
       <r>    8.8946    0.0000 </r>
       <r>   13.1364    0.0000 </r>
      </set>
      <set comment="kpoint 6">
       <r>   -4.7806    1.0000 </r>
       <r>   -0.1396    1.0000 </r>
       <r>    4.1113    1.0000 </r>
       <r>    4.1124    1.0000 </r>
       <r>    7.2206    0.0000 </r>
       <r>    8.6272    0.0000 </r>
       <r>    9.1350    0.0000 </r>
       <r>   12.1755    0.0000 </r>
      </set>
      <set comment="kpoint 7">
       <r>   -5.5983    1.0000 </r>
       <r>    1.8585    1.0000 </r>
       <r>    4.3830    1.0000 </r>
       <r>    4.5637    1.0000 </r>
       <r>    7.5848    0.0000 </r>
       <r>    8.4578    0.0000 </r>
       <r>    9.1673    0.0000 </r>
       <r>   10.9705    0.0000 </r>
      </set>
      <set comment="kpoint 8">
       <r>   -6.1084    1.0000 </r>
       <r>    4.0530    1.0000 </r>
       <r>    4.8509    1.0000 </r>
       <r>    4.9960    1.0000 </r>
       <r>    7.7223    0.0000 </r>
       <r>    8.2203    0.0000 </r>
       <r>    8.5628    0.0000 </r>
       <r>    9.3874    0.0000 </r>
      </set>
      <set comment="kpoint 9">
       <r>   -5.8484    1.0000 </r>
       <r>    3.1585    1.0000 </r>
       <r>    4.3124    1.0000 </r>
       <r>    4.3833    1.0000 </r>
       <r>    7.3167    0.0000 </r>
       <r>    8.9449    0.0000 </r>
       <r>    9.3955    0.0000 </r>
       <r>    9.8579    0.0000 </r>
      </set>
      <set comment="kpoint 10">
       <r>   -5.3403    1.0000 </r>
       <r>    1.6907    1.0000 </r>
       <r>    3.3716    1.0000 </r>
       <r>    4.1338    1.0000 </r>
       <r>    7.4794    0.0000 </r>
       <r>    9.0492    0.0000 </r>
       <r>    9.7880    0.0000 </r>
       <r>   10.1744    0.0000 </r>
      </set>
      <set comment="kpoint 11">
       <r>   -4.5244    1.0000 </r>
       <r>   -0.1040    1.0000 </r>
       <r>    2.8785    1.0000 </r>
       <r>    3.7405    1.0000 </r>
       <r>    7.6576    0.0000 </r>
       <r>    9.0344    0.0000 </r>
       <r>   10.2021    0.0000 </r>
       <r>   10.5054    0.0000 </r>
      </set>
      <set comment="kpoint 12">
       <r>   -3.7960    1.0000 </r>
       <r>   -1.2653    1.0000 </r>
       <r>    2.5943    1.0000 </r>
       <r>    3.6518    1.0000 </r>
       <r>    7.7099    0.0000 </r>
       <r>    8.7677    0.0000 </r>
       <r>   10.0658    0.0000 </r>
       <r>   12.4564    0.0000 </r>
      </set>
      <set comment="kpoint 13">
       <r>   -4.2328    1.0000 </r>
       <r>   -0.6040    1.0000 </r>
       <r>    2.5288    1.0000 </r>
       <r>    3.9251    1.0000 </r>
       <r>    7.9597    0.0000 </r>
       <r>    8.7019    0.0000 </r>
       <r>   10.0063    0.0000 </r>
       <r>   11.7312    0.0000 </r>
      </set>
      <set comment="kpoint 14">
       <r>   -5.1007    1.0000 </r>
       <r>    1.0622    1.0000 </r>
       <r>    2.8343    1.0000 </r>
       <r>    4.4136    1.0000 </r>
       <r>    8.2728    0.0000 </r>
       <r>    8.5947    0.0000 </r>
       <r>    9.8793    0.0000 </r>
       <r>   10.3740    0.0000 </r>
      </set>
      <set comment="kpoint 15">
       <r>   -5.7222    1.0000 </r>
       <r>    2.5086    1.0000 </r>
       <r>    3.9242    1.0000 </r>
       <r>    4.7733    1.0000 </r>
       <r>    7.8529    0.0000 </r>
       <r>    8.4409    0.0000 </r>
       <r>    9.2143    0.0000 </r>
       <r>   10.3949    0.0000 </r>
      </set>
      <set comment="kpoint 16">
       <r>   -4.9518    1.0000 </r>
       <r>    1.1784    1.0000 </r>
       <r>    3.2351    1.0000 </r>
       <r>    3.3528    1.0000 </r>
       <r>    6.5329    0.0000 </r>
       <r>    8.1685    0.0000 </r>
       <r>   11.1947    0.0000 </r>
       <r>   11.3489    0.0000 </r>
      </set>
      <set comment="kpoint 17">
       <r>   -4.2244    1.0000 </r>
       <r>   -0.0251    1.0000 </r>
       <r>    2.4766    1.0000 </r>
       <r>    3.0188    1.0000 </r>
       <r>    6.8414    0.0000 </r>
       <r>    8.0106    0.0000 </r>
       <r>   11.1602    0.0000 </r>
       <r>   12.3138    0.0000 </r>
      </set>
      <set comment="kpoint 18">
       <r>   -3.3610    1.0000 </r>
       <r>   -1.1784    1.0000 </r>
       <r>    1.6649    1.0000 </r>
       <r>    2.9879    1.0000 </r>
       <r>    7.0751    0.0000 </r>
       <r>    9.6286    0.0000 </r>
       <r>   10.7453    0.0000 </r>
       <r>   12.2267    0.0000 </r>
      </set>
      <set comment="kpoint 19">
       <r>   -3.4317    1.0000 </r>
       <r>   -1.0862    1.0000 </r>
       <r>    1.3276    1.0000 </r>
       <r>    3.3195    1.0000 </r>
       <r>    7.4604    0.0000 </r>
       <r>   10.3248    0.0000 </r>
       <r>   11.5731    0.0000 </r>
       <r>   11.9259    0.0000 </r>
      </set>
      <set comment="kpoint 20">
       <r>   -4.2946    1.0000 </r>
       <r>   -0.1535    1.0000 </r>
       <r>    1.9058    1.0000 </r>
       <r>    3.8831    1.0000 </r>
       <r>    8.0514    0.0000 </r>
       <r>    9.2457    0.0000 </r>
       <r>   10.6205    0.0000 </r>
       <r>   10.9255    0.0000 </r>
      </set>
      <set comment="kpoint 21">
       <r>   -4.9917    1.0000 </r>
       <r>    0.4901    1.0000 </r>
       <r>    3.4735    1.0000 </r>
       <r>    4.3167    1.0000 </r>
       <r>    7.7214    0.0000 </r>
       <r>    8.6330    0.0000 </r>
       <r>    9.4737    0.0000 </r>
       <r>   11.1326    0.0000 </r>
      </set>
      <set comment="kpoint 22">
       <r>   -3.5904    1.0000 </r>
       <r>   -0.8663    1.0000 </r>
       <r>    2.5701    1.0000 </r>
       <r>    2.7768    1.0000 </r>
       <r>    6.1577    0.0004 </r>
       <r>    6.8630    0.0000 </r>
       <r>   13.4306    0.0000 </r>
       <r>   13.4580    0.0000 </r>
      </set>
      <set comment="kpoint 23">
       <r>   -2.7109    1.0000 </r>
       <r>   -1.8273    1.0000 </r>
       <r>    2.0365    1.0000 </r>
       <r>    2.5444    1.0000 </r>
       <r>    6.5817    0.0000 </r>
       <r>    7.2902    0.0000 </r>
       <r>   13.1992    0.0000 </r>
       <r>   14.1605    0.0000 </r>
      </set>
      <set comment="kpoint 24">
       <r>   -2.8127    1.0000 </r>
       <r>   -1.6611    1.0000 </r>
       <r>    1.3374    1.0000 </r>
       <r>    2.8488    1.0000 </r>
       <r>    6.9338    0.0000 </r>
       <r>    9.4727    0.0000 </r>
       <r>   11.7131    0.0000 </r>
       <r>   12.8156    0.0000 </r>
      </set>
      <set comment="kpoint 25">
       <r>   -3.5475    1.0000 </r>
       <r>   -1.2358    1.0000 </r>
       <r>    1.8494    1.0000 </r>
       <r>    3.4290    1.0000 </r>
       <r>    7.5713    0.0000 </r>
       <r>    9.4865    0.0000 </r>
       <r>   10.9858    0.0000 </r>
       <r>   12.2138    0.0000 </r>
      </set>
      <set comment="kpoint 26">
       <r>   -4.1353    1.0000 </r>
       <r>   -1.0702    1.0000 </r>
       <r>    3.2973    1.0000 </r>
       <r>    3.9938    1.0000 </r>
       <r>    7.5126    0.0000 </r>
       <r>    8.5666    0.0000 </r>
       <r>    9.3102    0.0000 </r>
       <r>   12.7777    0.0000 </r>
      </set>
      <set comment="kpoint 27">
       <r>   -2.7587    1.0000 </r>
       <r>   -1.8429    1.0000 </r>
       <r>    2.4366    1.0000 </r>
       <r>    2.6590    1.0000 </r>
       <r>    6.1600    0.0004 </r>
       <r>    6.5115    0.0000 </r>
       <r>   14.4806    0.0000 </r>
       <r>   14.5340    0.0000 </r>
      </set>
      <set comment="kpoint 28">
       <r>   -3.5089    1.0000 </r>
       <r>   -0.9288    1.0000 </r>
       <r>    2.1872    1.0000 </r>
       <r>    2.6994    1.0000 </r>
       <r>    6.6627    0.0000 </r>
       <r>    7.5388    0.0000 </r>
       <r>   12.1538    0.0000 </r>
       <r>   13.4395    0.0000 </r>
      </set>
      <set comment="kpoint 29">
       <r>   -3.9687    1.0000 </r>
       <r>   -0.6496    1.0000 </r>
       <r>    2.2320    1.0000 </r>
       <r>    3.2779    1.0000 </r>
       <r>    7.3393    0.0000 </r>
       <r>    9.8074    0.0000 </r>
       <r>    9.9764    0.0000 </r>
       <r>   11.1963    0.0000 </r>
      </set>
      <set comment="kpoint 30">
       <r>   -4.3253    1.0000 </r>
       <r>    0.1498    1.0000 </r>
       <r>    2.8366    1.0000 </r>
       <r>    3.0099    1.0000 </r>
       <r>    6.2806    0.0000 </r>
       <r>    7.4282    0.0000 </r>
       <r>   12.2960    0.0000 </r>
       <r>   12.3899    0.0000 </r>
      </set>
      <set comment="kpoint 31">
       <r>   -4.8386    1.0000 </r>
       <r>    0.8509    1.0000 </r>
       <r>    2.8802    1.0000 </r>
       <r>    3.5086    1.0000 </r>
       <r>    7.1204    0.0000 </r>
       <r>    8.6609    0.0000 </r>
       <r>   10.2404    0.0000 </r>
       <r>   11.2144    0.0000 </r>
      </set>
      <set comment="kpoint 32">
       <r>   -5.4615    1.0000 </r>
       <r>    2.1907    1.0000 </r>
       <r>    3.7596    1.0000 </r>
       <r>    3.7947    1.0000 </r>
       <r>    6.8925    0.0000 </r>
       <r>    8.9711    0.0000 </r>
       <r>   10.1872    0.0000 </r>
       <r>   10.3442    0.0000 </r>
      </set>
      <set comment="kpoint 33">
       <r>   -5.8517    1.0000 </r>
       <r>    2.6136    1.0000 </r>
       <r>    4.8330    1.0000 </r>
       <r>    4.8330    1.0000 </r>
       <r>    7.4449    0.0000 </r>
       <r>    8.6049    0.0000 </r>
       <r>    8.6049    0.0000 </r>
       <r>   10.7627    0.0000 </r>
      </set>
      <set comment="kpoint 34">
       <r>   -5.4716    1.0000 </r>
       <r>    1.7784    1.0000 </r>
       <r>    3.3699    1.0000 </r>
       <r>    4.8466    1.0000 </r>
       <r>    8.0975    0.0000 </r>
       <r>    8.7276    0.0000 </r>
       <r>    9.0030    0.0000 </r>
       <r>   10.9185    0.0000 </r>
      </set>
      <set comment="kpoint 35">
       <r>   -4.7487    1.0000 </r>
       <r>    0.4369    1.0000 </r>
       <r>    2.3231    1.0000 </r>
       <r>    4.3585    1.0000 </r>
       <r>    7.9899    0.0000 </r>
       <r>    9.4676    0.0000 </r>
       <r>    9.6530    0.0000 </r>
       <r>   11.2039    0.0000 </r>
      </set>
      <set comment="kpoint 36">
       <r>   -3.8884    1.0000 </r>
       <r>   -0.9964    1.0000 </r>
       <r>    2.1637    1.0000 </r>
       <r>    3.8455    1.0000 </r>
       <r>    7.5263    0.0000 </r>
       <r>    9.6144    0.0000 </r>
       <r>    9.8665    0.0000 </r>
       <r>   13.0362    0.0000 </r>
      </set>
      <set comment="kpoint 37">
       <r>   -3.8729    1.0000 </r>
       <r>   -1.0242    1.0000 </r>
       <r>    2.4502    1.0000 </r>
       <r>    3.5390    1.0000 </r>
       <r>    7.2688    0.0000 </r>
       <r>    9.6741    0.0000 </r>
       <r>   10.2050    0.0000 </r>
       <r>   11.1527    0.0000 </r>
      </set>
      <set comment="kpoint 38">
       <r>   -4.7316    1.0000 </r>
       <r>    0.4337    1.0000 </r>
       <r>    3.0464    1.0000 </r>
       <r>    3.5177    1.0000 </r>
       <r>    7.2061    0.0000 </r>
       <r>    9.3336    0.0000 </r>
       <r>    9.9634    0.0000 </r>
       <r>   10.5545    0.0000 </r>
      </set>
      <set comment="kpoint 39">
       <r>   -5.2228    1.0000 </r>
       <r>    1.1338    1.0000 </r>
       <r>    3.8436    1.0000 </r>
       <r>    3.9233    1.0000 </r>
       <r>    7.5702    0.0000 </r>
       <r>    8.8669    0.0000 </r>
       <r>    9.8254    0.0000 </r>
       <r>   10.2211    0.0000 </r>
      </set>
      <set comment="kpoint 40">
       <r>   -4.6164    1.0000 </r>
       <r>    0.3646    1.0000 </r>
       <r>    2.3784    1.0000 </r>
       <r>    3.7322    1.0000 </r>
       <r>    8.0650    0.0000 </r>
       <r>    9.0484    0.0000 </r>
       <r>    9.5906    0.0000 </r>
       <r>   11.0426    0.0000 </r>
      </set>
      <set comment="kpoint 41">
       <r>   -3.7561    1.0000 </r>
       <r>   -0.7129    1.0000 </r>
       <r>    1.6176    1.0000 </r>
       <r>    3.1872    1.0000 </r>
       <r>    8.5086    0.0000 </r>
       <r>    8.9862    0.0000 </r>
       <r>   10.2339    0.0000 </r>
       <r>   12.1137    0.0000 </r>
      </set>
      <set comment="kpoint 42">
       <r>   -3.2885    1.0000 </r>
       <r>   -1.3017    1.0000 </r>
       <r>    1.6156    1.0000 </r>
       <r>    2.8870    1.0000 </r>
       <r>    8.0566    0.0000 </r>
       <r>    9.3061    0.0000 </r>
       <r>   10.9993    0.0000 </r>
       <r>   12.2313    0.0000 </r>
      </set>
      <set comment="kpoint 43">
       <r>   -4.0295    1.0000 </r>
       <r>   -0.3363    1.0000 </r>
       <r>    2.0286    1.0000 </r>
       <r>    3.0588    1.0000 </r>
       <r>    7.7926    0.0000 </r>
       <r>    8.9929    0.0000 </r>
       <r>    9.8024    0.0000 </r>
       <r>   12.2313    0.0000 </r>
      </set>
      <set comment="kpoint 44">
       <r>   -4.1350    1.0000 </r>
       <r>   -0.2758    1.0000 </r>
       <r>    2.3477    1.0000 </r>
       <r>    3.1969    1.0000 </r>
       <r>    6.8433    0.0000 </r>
       <r>    8.8283    0.0000 </r>
       <r>   10.9890    0.0000 </r>
       <r>   11.3597    0.0000 </r>
      </set>
      <set comment="kpoint 45">
       <r>   -3.3575    1.0000 </r>
       <r>   -1.0642    1.0000 </r>
       <r>    1.7969    1.0000 </r>
       <r>    2.5423    1.0000 </r>
       <r>    7.5976    0.0000 </r>
       <r>    8.5935    0.0000 </r>
       <r>   10.6784    0.0000 </r>
       <r>   13.4026    0.0000 </r>
      </set>
      <set comment="kpoint 46">
       <r>   -2.5787    1.0000 </r>
       <r>   -1.8009    1.0000 </r>
       <r>    1.4945    1.0000 </r>
       <r>    2.0606    1.0000 </r>
       <r>    8.6966    0.0000 </r>
       <r>    9.6178    0.0000 </r>
       <r>   10.2317    0.0000 </r>
       <r>   11.2269    0.0000 </r>
      </set>
      <set comment="kpoint 47">
       <r>   -3.1621    1.0000 </r>
       <r>   -1.2627    1.0000 </r>
       <r>    1.4826    1.0000 </r>
       <r>    2.5188    1.0000 </r>
       <r>    8.7925    0.0000 </r>
       <r>    9.2004    0.0000 </r>
       <r>    9.9309    0.0000 </r>
       <r>   12.3655    0.0000 </r>
      </set>
      <set comment="kpoint 48">
       <r>   -2.7344    1.0000 </r>
       <r>   -1.7762    1.0000 </r>
       <r>    1.5944    1.0000 </r>
       <r>    2.8645    1.0000 </r>
       <r>    6.4284    0.0000 </r>
       <r>    8.2798    0.0000 </r>
       <r>   13.1264    0.0000 </r>
       <r>   13.2899    0.0000 </r>
      </set>
      <set comment="kpoint 49">
       <r>   -2.6369    1.0000 </r>
       <r>   -1.8093    1.0000 </r>
       <r>    1.6849    1.0000 </r>
       <r>    2.2649    1.0000 </r>
       <r>    7.4978    0.0000 </r>
       <r>    8.3924    0.0000 </r>
       <r>   11.6614    0.0000 </r>
       <r>   12.7475    0.0000 </r>
      </set>
      <set comment="kpoint 50">
       <r>   -3.4514    1.0000 </r>
       <r>   -1.0242    1.0000 </r>
       <r>    1.8482    1.0000 </r>
       <r>    2.9765    1.0000 </r>
       <r>    6.5718    0.0000 </r>
       <r>    8.4617    0.0000 </r>
       <r>   12.1235    0.0000 </r>
       <r>   12.2425    0.0000 </r>
      </set>
      <set comment="kpoint 51">
       <r>   -5.1197    1.0000 </r>
       <r>    0.4676    1.0000 </r>
       <r>    4.4299    1.0000 </r>
       <r>    4.4299    1.0000 </r>
       <r>    6.9920    0.0000 </r>
       <r>    8.8506    0.0000 </r>
       <r>    8.8506    0.0000 </r>
       <r>   12.7998    0.0000 </r>
      </set>
      <set comment="kpoint 52">
       <r>   -4.6560    1.0000 </r>
       <r>   -0.1017    1.0000 </r>
       <r>    3.0035    1.0000 </r>
       <r>    4.3437    1.0000 </r>
       <r>    7.7247    0.0000 </r>
       <r>    9.0641    0.0000 </r>
       <r>    9.1164    0.0000 </r>
       <r>   12.2102    0.0000 </r>
      </set>
      <set comment="kpoint 53">
       <r>   -3.8904    1.0000 </r>
       <r>   -0.6439    1.0000 </r>
       <r>    1.5396    1.0000 </r>
       <r>    3.7839    1.0000 </r>
       <r>    7.4640    0.0000 </r>
       <r>   10.4662    0.0000 </r>
       <r>   10.6133    0.0000 </r>
       <r>   11.9515    0.0000 </r>
      </set>
      <set comment="kpoint 54">
       <r>   -3.0988    1.0000 </r>
       <r>   -1.4110    1.0000 </r>
       <r>    1.2194    1.0000 </r>
       <r>    3.2555    1.0000 </r>
       <r>    6.8778    0.0000 </r>
       <r>   10.6914    0.0000 </r>
       <r>   11.7057    0.0000 </r>
       <r>   11.9167    0.0000 </r>
      </set>
      <set comment="kpoint 55">
       <r>   -4.3534    1.0000 </r>
       <r>   -0.6412    1.0000 </r>
       <r>    3.3217    1.0000 </r>
       <r>    3.8012    1.0000 </r>
       <r>    7.4758    0.0000 </r>
       <r>    8.8209    0.0000 </r>
       <r>    9.5916    0.0000 </r>
       <r>   11.5794    0.0000 </r>
      </set>
      <set comment="kpoint 56">
       <r>   -3.7551    1.0000 </r>
       <r>   -1.0048    1.0000 </r>
       <r>    2.0617    1.0000 </r>
       <r>    3.3458    1.0000 </r>
       <r>    8.2486    0.0000 </r>
       <r>    8.6176    0.0000 </r>
       <r>   11.0584    0.0000 </r>
       <r>   11.3400    0.0000 </r>
      </set>
      <set comment="kpoint 57">
       <r>   -2.9642    1.0000 </r>
       <r>   -1.4797    1.0000 </r>
       <r>    1.3087    1.0000 </r>
       <r>    2.6587    1.0000 </r>
       <r>    7.9341    0.0000 </r>
       <r>   10.1356    0.0000 </r>
       <r>   10.8866    0.0000 </r>
       <r>   11.3917    0.0000 </r>
      </set>
      <set comment="kpoint 58">
       <r>   -3.4098    1.0000 </r>
       <r>   -1.2819    1.0000 </r>
       <r>    1.6891    1.0000 </r>
       <r>    3.3522    1.0000 </r>
       <r>    7.0192    0.0000 </r>
       <r>   10.6485    0.0000 </r>
       <r>   10.9467    0.0000 </r>
       <r>   10.9673    0.0000 </r>
      </set>
      <set comment="kpoint 59">
       <r>   -4.2648    1.0000 </r>
       <r>   -1.1240    1.0000 </r>
       <r>    4.2135    1.0000 </r>
       <r>    4.2135    1.0000 </r>
       <r>    6.7400    0.0000 </r>
       <r>    8.7295    0.0000 </r>
       <r>    8.7295    0.0000 </r>
       <r>   13.0397    0.0000 </r>
      </set>
      <set comment="kpoint 60">
       <r>   -3.9273    1.0000 </r>
       <r>   -1.2986    1.0000 </r>
       <r>    3.0165    1.0000 </r>
       <r>    3.9559    1.0000 </r>
       <r>    7.4886    0.0000 </r>
       <r>    8.8321    0.0000 </r>
       <r>    9.2916    0.0000 </r>
       <r>   13.3702    0.0000 </r>
      </set>
     </set>
    </set>
   </array>
  </eigenvalues>
  <separator name="orbital magnetization" >
   <v name="MAGDIPOLOUT">      0.00000000      0.00000000      0.00000000</v>
  </separator>
  <dos>
   <i name="efermi">      5.68815146 </i>
   <total>
    <array>
     <dimension dim="1">gridpoints</dimension>
     <dimension dim="2">spin</dimension>
     <field>energy</field>
     <field>total</field>
     <field>integrated</field>
     <set>
      <set comment="spin 1">
       <r>    -8.2390     0.0000     0.0000 </r>
       <r>    -8.1565     0.0000     0.0000 </r>
       <r>    -8.0739     0.0000     0.0000 </r>
       <r>    -7.9913     0.0000     0.0000 </r>
       <r>    -7.9087     0.0000     0.0000 </r>
       <r>    -7.8262     0.0000     0.0000 </r>
       <r>    -7.7436     0.0000     0.0000 </r>
       <r>    -7.6610     0.0000     0.0000 </r>
       <r>    -7.5784     0.0000     0.0000 </r>
       <r>    -7.4959     0.0000     0.0000 </r>
       <r>    -7.4133     0.0000     0.0000 </r>
       <r>    -7.3307     0.0000     0.0000 </r>
       <r>    -7.2481     0.0000     0.0000 </r>
       <r>    -7.1655     0.0000     0.0000 </r>
       <r>    -7.0830     0.0000     0.0000 </r>
       <r>    -7.0004     0.0000     0.0000 </r>
       <r>    -6.9178     0.0000     0.0000 </r>
       <r>    -6.8352     0.0000     0.0000 </r>
       <r>    -6.7527     0.0000     0.0000 </r>
       <r>    -6.6701     0.0001     0.0000 </r>
       <r>    -6.5875     0.0006     0.0001 </r>
       <r>    -6.5049     0.0028     0.0003 </r>
       <r>    -6.4224     0.0096     0.0011 </r>
       <r>    -6.3398     0.0254     0.0032 </r>
       <r>    -6.2572     0.0532     0.0076 </r>
       <r>    -6.1746     0.0910     0.0151 </r>
       <r>    -6.0921     0.1318     0.0260 </r>
       <r>    -6.0095     0.1692     0.0400 </r>
       <r>    -5.9269     0.2033     0.0567 </r>
       <r>    -5.8443     0.2363     0.0763 </r>
       <r>    -5.7617     0.2645     0.0981 </r>
       <r>    -5.6792     0.2821     0.1214 </r>
       <r>    -5.5966     0.2952     0.1458 </r>
       <r>    -5.5140     0.3198     0.1722 </r>
       <r>    -5.4314     0.3579     0.2017 </r>
       <r>    -5.3489     0.3882     0.2338 </r>
       <r>    -5.2663     0.3953     0.2664 </r>
       <r>    -5.1837     0.3935     0.2989 </r>
       <r>    -5.1011     0.4068     0.3325 </r>
       <r>    -5.0186     0.4375     0.3687 </r>
       <r>    -4.9360     0.4724     0.4077 </r>
       <r>    -4.8534     0.5063     0.4495 </r>
       <r>    -4.7708     0.5379     0.4939 </r>
       <r>    -4.6882     0.5580     0.5400 </r>
       <r>    -4.6057     0.5577     0.5860 </r>
       <r>    -4.5231     0.5456     0.6311 </r>
       <r>    -4.4405     0.5545     0.6769 </r>
       <r>    -4.3579     0.6174     0.7279 </r>
       <r>    -4.2754     0.7218     0.7875 </r>
       <r>    -4.1928     0.8105     0.8544 </r>
       <r>    -4.1102     0.8470     0.9243 </r>
       <r>    -4.0276     0.8504     0.9945 </r>
       <r>    -3.9451     0.8518     1.0649 </r>
       <r>    -3.8625     0.8474     1.1349 </r>
       <r>    -3.7799     0.8123     1.2019 </r>
       <r>    -3.6973     0.7508     1.2639 </r>
       <r>    -3.6148     0.7174     1.3232 </r>
       <r>    -3.5322     0.7579     1.3858 </r>
       <r>    -3.4496     0.8367     1.4549 </r>
       <r>    -3.3670     0.8622     1.5261 </r>
       <r>    -3.2844     0.7834     1.5907 </r>
       <r>    -3.2019     0.6360     1.6433 </r>
       <r>    -3.1193     0.4941     1.6841 </r>
       <r>    -3.0367     0.4062     1.7176 </r>
       <r>    -2.9541     0.3865     1.7495 </r>
       <r>    -2.8716     0.4323     1.7852 </r>
       <r>    -2.7890     0.5176     1.8280 </r>
       <r>    -2.7064     0.5827     1.8761 </r>
       <r>    -2.6238     0.5639     1.9226 </r>
       <r>    -2.5413     0.4468     1.9595 </r>
       <r>    -2.4587     0.2818     1.9828 </r>
       <r>    -2.3761     0.1384     1.9942 </r>
       <r>    -2.2935     0.0525     1.9986 </r>
       <r>    -2.2109     0.0196     2.0002 </r>
       <r>    -2.1284     0.0275     2.0025 </r>
       <r>    -2.0458     0.0866     2.0096 </r>
       <r>    -1.9632     0.2206     2.0278 </r>
       <r>    -1.8806     0.4131     2.0620 </r>
       <r>    -1.7981     0.5747     2.1094 </r>
       <r>    -1.7155     0.6127     2.1600 </r>
       <r>    -1.6329     0.5422     2.2048 </r>
       <r>    -1.5503     0.4795     2.2444 </r>
       <r>    -1.4678     0.5302     2.2882 </r>
       <r>    -1.3852     0.7120     2.3470 </r>
       <r>    -1.3026     0.9534     2.4257 </r>
       <r>    -1.2200     1.1495     2.5206 </r>
       <r>    -1.1374     1.2392     2.6229 </r>
       <r>    -1.0549     1.2156     2.7233 </r>
       <r>    -0.9723     1.0849     2.8129 </r>
       <r>    -0.8897     0.8884     2.8863 </r>
       <r>    -0.8071     0.7276     2.9463 </r>
       <r>    -0.7246     0.6702     3.0017 </r>
       <r>    -0.6420     0.6589     3.0561 </r>
       <r>    -0.5594     0.5900     3.1048 </r>
       <r>    -0.4768     0.4622     3.1430 </r>
       <r>    -0.3943     0.3710     3.1736 </r>
       <r>    -0.3117     0.3809     3.2051 </r>
       <r>    -0.2291     0.4687     3.2438 </r>
       <r>    -0.1465     0.5595     3.2900 </r>
       <r>    -0.0640     0.5761     3.3375 </r>
       <r>     0.0186     0.4920     3.3782 </r>
       <r>     0.1012     0.3601     3.4079 </r>
       <r>     0.1838     0.2666     3.4299 </r>
       <r>     0.2664     0.2610     3.4515 </r>
       <r>     0.3489     0.3270     3.4785 </r>
       <r>     0.4315     0.3929     3.5109 </r>
       <r>     0.5141     0.3848     3.5427 </r>
       <r>     0.5967     0.2984     3.5673 </r>
       <r>     0.6792     0.2021     3.5840 </r>
       <r>     0.7618     0.1608     3.5973 </r>
       <r>     0.8444     0.1801     3.6122 </r>
       <r>     0.9270     0.2350     3.6316 </r>
       <r>     1.0095     0.3172     3.6578 </r>
       <r>     1.0921     0.4295     3.6933 </r>
       <r>     1.1747     0.5569     3.7392 </r>
       <r>     1.2573     0.6715     3.7947 </r>
       <r>     1.3399     0.7598     3.8574 </r>
       <r>     1.4224     0.8407     3.9268 </r>
       <r>     1.5050     0.9531     4.0056 </r>
       <r>     1.5876     1.0999     4.0964 </r>
       <r>     1.6702     1.2177     4.1969 </r>
       <r>     1.7527     1.2401     4.2993 </r>
       <r>     1.8353     1.1761     4.3965 </r>
       <r>     1.9179     1.0962     4.4870 </r>
       <r>     2.0005     1.0580     4.5743 </r>
       <r>     2.0830     1.0612     4.6620 </r>
       <r>     2.1656     1.0722     4.7505 </r>
       <r>     2.2482     1.0837     4.8400 </r>
       <r>     2.3308     1.1368     4.9339 </r>
       <r>     2.4133     1.2706     5.0388 </r>
       <r>     2.4959     1.4409     5.1578 </r>
       <r>     2.5785     1.5296     5.2841 </r>
       <r>     2.6611     1.4877     5.4069 </r>
       <r>     2.7437     1.4157     5.5238 </r>
       <r>     2.8262     1.4269     5.6417 </r>
       <r>     2.9088     1.4936     5.7650 </r>
       <r>     2.9914     1.5078     5.8895 </r>
       <r>     3.0740     1.4477     6.0091 </r>
       <r>     3.1565     1.4120     6.1257 </r>
       <r>     3.2391     1.4820     6.2480 </r>
       <r>     3.3217     1.5886     6.3792 </r>
       <r>     3.4043     1.5767     6.5094 </r>
       <r>     3.4868     1.3987     6.6249 </r>
       <r>     3.5694     1.1792     6.7223 </r>
       <r>     3.6520     1.0860     6.8120 </r>
       <r>     3.7346     1.1710     6.9087 </r>
       <r>     3.8172     1.3332     7.0188 </r>
       <r>     3.8997     1.4220     7.1362 </r>
       <r>     3.9823     1.3641     7.2488 </r>
       <r>     4.0649     1.1982     7.3478 </r>
       <r>     4.1475     1.0221     7.4322 </r>
       <r>     4.2300     0.9199     7.5081 </r>
       <r>     4.3126     0.8970     7.5822 </r>
       <r>     4.3952     0.8695     7.6540 </r>
       <r>     4.4778     0.7573     7.7165 </r>
       <r>     4.5603     0.5873     7.7650 </r>
       <r>     4.6429     0.4584     7.8029 </r>
       <r>     4.7255     0.4209     7.8376 </r>
       <r>     4.8081     0.4284     7.8730 </r>
       <r>     4.8906     0.4059     7.9065 </r>
       <r>     4.9732     0.3339     7.9341 </r>
       <r>     5.0558     0.2497     7.9547 </r>
       <r>     5.1384     0.1868     7.9702 </r>
       <r>     5.2210     0.1437     7.9820 </r>
       <r>     5.3035     0.1045     7.9906 </r>
       <r>     5.3861     0.0648     7.9960 </r>
       <r>     5.4687     0.0320     7.9986 </r>
       <r>     5.5513     0.0122     7.9996 </r>
       <r>     5.6338     0.0035     7.9999 </r>
       <r>     5.7164     0.0012     8.0000 </r>
       <r>     5.7990     0.0028     8.0003 </r>
       <r>     5.8816     0.0117     8.0012 </r>
       <r>     5.9641     0.0367     8.0043 </r>
       <r>     6.0467     0.0851     8.0113 </r>
       <r>     6.1293     0.1477     8.0235 </r>
       <r>     6.2119     0.2018     8.0402 </r>
       <r>     6.2945     0.2399     8.0600 </r>
       <r>     6.3770     0.2880     8.0837 </r>
       <r>     6.4596     0.3728     8.1145 </r>
       <r>     6.5422     0.4765     8.1539 </r>
       <r>     6.6248     0.5540     8.1996 </r>
       <r>     6.7073     0.6000     8.2492 </r>
       <r>     6.7899     0.6561     8.3034 </r>
       <r>     6.8725     0.7395     8.3644 </r>
       <r>     6.9551     0.8162     8.4318 </r>
       <r>     7.0376     0.8589     8.5027 </r>
       <r>     7.1202     0.8834     8.5757 </r>
       <r>     7.2028     0.9297     8.6525 </r>
       <r>     7.2854     1.0485     8.7390 </r>
       <r>     7.3679     1.2741     8.8443 </r>
       <r>     7.4505     1.5606     8.9731 </r>
       <r>     7.5331     1.7656     9.1189 </r>
       <r>     7.6157     1.7676     9.2649 </r>
       <r>     7.6983     1.5963     9.3967 </r>
       <r>     7.7808     1.3944     9.5118 </r>
       <r>     7.8634     1.2819     9.6177 </r>
       <r>     7.9460     1.2740     9.7229 </r>
       <r>     8.0286     1.2900     9.8294 </r>
       <r>     8.1111     1.2455     9.9323 </r>
       <r>     8.1937     1.1457    10.0269 </r>
       <r>     8.2763     1.0689    10.1151 </r>
       <r>     8.3589     1.0950    10.2056 </r>
       <r>     8.4414     1.2710    10.3105 </r>
       <r>     8.5240     1.5758    10.4406 </r>
       <r>     8.6066     1.8891    10.5966 </r>
       <r>     8.6892     2.0588    10.7667 </r>
       <r>     8.7718     2.0325    10.9345 </r>
       <r>     8.8543     1.8965    11.0911 </r>
       <r>     8.9369     1.7721    11.2374 </r>
       <r>     9.0195     1.6945    11.3774 </r>
       <r>     9.1021     1.6185    11.5110 </r>
       <r>     9.1846     1.5185    11.6364 </r>
       <r>     9.2672     1.4205    11.7537 </r>
       <r>     9.3498     1.3494    11.8651 </r>
       <r>     9.4324     1.3114    11.9734 </r>
       <r>     9.5149     1.3009    12.0808 </r>
       <r>     9.5975     1.2967    12.1879 </r>
       <r>     9.6801     1.2859    12.2941 </r>
       <r>     9.7627     1.2852    12.4002 </r>
       <r>     9.8453     1.3050    12.5080 </r>
       <r>     9.9278     1.3243    12.6174 </r>
       <r>    10.0104     1.3440    12.7283 </r>
       <r>    10.0930     1.4043    12.8443 </r>
       <r>    10.1756     1.4968    12.9679 </r>
       <r>    10.2581     1.5230    13.0937 </r>
       <r>    10.3407     1.4081    13.2099 </r>
       <r>    10.4233     1.2037    13.3093 </r>
       <r>    10.5059     1.0266    13.3941 </r>
       <r>    10.5884     0.9366    13.4714 </r>
       <r>    10.6710     0.9103    13.5466 </r>
       <r>    10.7536     0.9216    13.6227 </r>
       <r>    10.8362     1.0040    13.7056 </r>
       <r>    10.9187     1.1843    13.8034 </r>
       <r>    11.0013     1.3944    13.9186 </r>
       <r>    11.0839     1.5231    14.0443 </r>
       <r>    11.1665     1.5162    14.1695 </r>
       <r>    11.2491     1.3782    14.2833 </r>
       <r>    11.3316     1.1469    14.3780 </r>
       <r>    11.4142     0.8991    14.4523 </r>
       <r>    11.4968     0.7303    14.5126 </r>
       <r>    11.5794     0.6899    14.5696 </r>
       <r>    11.6619     0.7305    14.6299 </r>
       <r>    11.7445     0.7488    14.6917 </r>
       <r>    11.8271     0.6992    14.7495 </r>
       <r>    11.9097     0.6414    14.8024 </r>
       <r>    11.9922     0.6746    14.8581 </r>
       <r>    12.0748     0.8517    14.9285 </r>
       <r>    12.1574     1.1175    15.0207 </r>
       <r>    12.2400     1.3064    15.1286 </r>
       <r>    12.3226     1.2700    15.2335 </r>
       <r>    12.4051     1.0180    15.3175 </r>
       <r>    12.4877     0.6956    15.3750 </r>
       <r>    12.5703     0.4557    15.4126 </r>
       <r>    12.6529     0.3714    15.4433 </r>
       <r>    12.7354     0.4076    15.4770 </r>
       <r>    12.8180     0.4585    15.5148 </r>
       <r>    12.9006     0.4559    15.5525 </r>
       <r>    12.9832     0.4303    15.5880 </r>
       <r>    13.0657     0.4370    15.6241 </r>
       <r>    13.1483     0.4772    15.6635 </r>
       <r>    13.2309     0.5243    15.7068 </r>
       <r>    13.3135     0.5684    15.7537 </r>
       <r>    13.3960     0.5880    15.8023 </r>
       <r>    13.4786     0.5329    15.8463 </r>
       <r>    13.5612     0.3882    15.8783 </r>
       <r>    13.6438     0.2157    15.8961 </r>
       <r>    13.7264     0.0894    15.9035 </r>
       <r>    13.8089     0.0299    15.9060 </r>
       <r>    13.8915     0.0184    15.9075 </r>
       <r>    13.9741     0.0380    15.9106 </r>
       <r>    14.0567     0.0787    15.9171 </r>
       <r>    14.1392     0.1211    15.9271 </r>
       <r>    14.2218     0.1395    15.9387 </r>
       <r>    14.3044     0.1325    15.9496 </r>
       <r>    14.3870     0.1261    15.9600 </r>
       <r>    14.4695     0.1335    15.9710 </r>
       <r>    14.5521     0.1347    15.9822 </r>
       <r>    14.6347     0.1090    15.9912 </r>
       <r>    14.7173     0.0659    15.9966 </r>
       <r>    14.7999     0.0291    15.9990 </r>
       <r>    14.8824     0.0093    15.9998 </r>
       <r>    14.9650     0.0022    16.0000 </r>
       <r>    15.0476     0.0004    16.0000 </r>
       <r>    15.1302     0.0000    16.0000 </r>
       <r>    15.2127     0.0000    16.0000 </r>
       <r>    15.2953     0.0000    16.0000 </r>
       <r>    15.3779     0.0000    16.0000 </r>
       <r>    15.4605     0.0000    16.0000 </r>
       <r>    15.5430     0.0000    16.0000 </r>
       <r>    15.6256     0.0000    16.0000 </r>
       <r>    15.7082     0.0000    16.0000 </r>
       <r>    15.7908     0.0000    16.0000 </r>
       <r>    15.8733     0.0000    16.0000 </r>
       <r>    15.9559     0.0000    16.0000 </r>
       <r>    16.0385     0.0000    16.0000 </r>
       <r>    16.1211     0.0000    16.0000 </r>
       <r>    16.2037     0.0000    16.0000 </r>
       <r>    16.2862     0.0000    16.0000 </r>
       <r>    16.3688     0.0000    16.0000 </r>
       <r>    16.4514     0.0000    16.0000 </r>
       <r>    16.5340     0.0000    16.0000 </r>
      </set>
     </set>
    </array>
   </total>
  </dos>
 </calculation>
 <structure name="finalpos" >
  <crystal>
   <varray name="basis" >
    <v>       0.00000000       2.76006700       2.76006700 </v>
    <v>       2.76006700       0.00000000       2.76006700 </v>
    <v>       2.76006700       2.76006700       0.00000000 </v>
   </varray>
   <i name="volume">     42.05221435 </i>
   <varray name="rec_basis" >
    <v>      -0.18115502       0.18115502       0.18115502 </v>
    <v>       0.18115502      -0.18115502       0.18115502 </v>
    <v>       0.18115502       0.18115502      -0.18115502 </v>
   </varray>
  </crystal>
  <varray name="positions" >
   <v>       0.50000000       0.50000000       0.50000000 </v>
   <v>       0.75000000       0.75000000       0.75000000 </v>
  </varray>
 </structure>
</modeling>
