unknown system                          
   1.00000000000000     
     0.000000    2.715000    2.715000
     2.715000    0.000000    2.715000
     2.715000    2.715000    0.000000
   Si
     2
Direct
  0.500000  0.500000  0.500000
  0.750000  0.750000  0.750000
 
   32   32   32
 0.87077     0.89240     0.95846      1.0726      1.2410      1.4717      1.7745      2.1586      2.6302      3.1880    
  3.8191      4.4952      5.1722      5.7935      6.2969      6.6259      6.7403      6.6258      6.2968      5.7933    
  5.1721      4.4951      3.8190      3.1881      2.6303      2.1588      1.7747      1.4719      1.2410      1.0726    
 0.95839     0.89235     0.89240     0.92974      1.0064      1.1263      1.2949      1.5188      1.8049      2.1588    
  2.5823      3.0697      3.6047      4.1584      4.6898      5.1504      5.4915      5.6732      5.6732      5.4914    
  5.1503      4.6897      4.1583      3.6047      3.0698      2.5824      2.1590      1.8050      1.5188      1.2949    
  1.1263      1.0064     0.92969     0.89238     0.95846      1.0064      1.0890      1.2099      1.3738      1.5856    
  1.8499      2.1692      2.5416      2.9584      3.4014      3.8426      4.2459      4.5718      4.7844      4.8583    
  4.7844      4.5718      4.2459      3.8426      3.4015      2.9585      2.5418      2.1693      1.8499      1.5856    
  1.3738      1.2099      1.0890      1.0064     0.95844     0.94274      1.0726      1.1263      1.2099      1.3268    
  1.4806      1.6752      1.9131      2.1944      2.5145      2.8624      3.2197      3.5606      3.8547      4.0717    
  4.1872      4.1872      4.0717      3.8546      3.5606      3.2198      2.8626      2.5146      2.1944      1.9131    
  1.6751      1.4805      1.3267      1.2099      1.1263      1.0726      1.0464      1.0464      1.2410      1.2949    
  1.3738      1.4806      1.6187      1.7907      1.9977      2.2379      2.5049      2.7867      3.0654      3.3185    
  3.5221      3.6545      3.7004      3.6544      3.5221      3.3185      3.0654      2.7868      2.5050      2.2380    
  1.9977      1.7906      1.6186      1.4805      1.3737      1.2949      1.2410      1.2097      1.1994      1.2096    
  1.4717      1.5188      1.5856      1.6752      1.7907      1.9340      2.1053      2.3013      2.5145      2.7328    
  2.9401      3.1181      3.2488      3.3182      3.3182      3.2488      3.1180      2.9401      2.7328      2.5145    
  2.3013      2.1053      1.9340      1.7906      1.6751      1.5855      1.5188      1.4718      1.4419      1.4274    
  1.4274      1.4419      1.7745      1.8049      1.8499      1.9131      1.9977      2.1053      2.2352      2.3832    
  2.5416      2.6992      2.8426      2.9576      3.0322      3.0581      3.0322      2.9576      2.8426      2.6993    
  2.5416      2.3832      2.2352      2.1053      1.9976      1.9130      1.8498      1.8049      1.7746      1.7555    
  1.7450      1.7417      1.7450      1.7554      2.1586      2.1588      2.1692      2.1944      2.2379      2.3013    
  2.3832      2.4793      2.5823      2.6826      2.7699      2.8344      2.8687      2.8687      2.8344      2.7699    
  2.6827      2.5823      2.4793      2.3832      2.3013      2.2379      2.1943      2.1692      2.1589      2.1587    
  2.1638      2.1697      2.1735      2.1734      2.1696      2.1637      2.6302      2.5823      2.5416      2.5145    
  2.5049      2.5145      2.5416      2.5823      2.6302      2.6780      2.7183      2.7452      2.7546      2.7452    
  2.7184      2.6781      2.6303      2.5823      2.5417      2.5145      2.5050      2.5145      2.5417      2.5823    
  2.6303      2.6781      2.7184      2.7452      2.7546      2.7452      2.7183      2.6780      3.1880      3.0697    
  2.9584      2.8624      2.7867      2.7328      2.6992      2.6826      2.6780      2.6801      2.6843      2.6872    
  2.6872      2.6843      2.6802      2.6781      2.6827      2.6993      2.7328      2.7868      2.8625      2.9585    
  3.0697      3.1880      3.3027      3.4020      3.4751      3.5139      3.5139      3.4752      3.4021      3.3027    
  3.8191      3.6047      3.4014      3.2197      3.0654      2.9401      2.8426      2.7699      2.7183      2.6843    
  2.6649      2.6587      2.6650      2.6844      2.7185      2.7701      2.8427      2.9402      3.0655      3.2198    
  3.4015      3.6047      3.8190      4.0297      4.2191      4.3697      4.4666      4.5000      4.4666      4.3698    
  4.2192      4.0298      4.4952      4.1584      3.8426      3.5606      3.3185      3.1181      2.9576      2.8344    
  2.7452      2.6872      2.6587      2.6588      2.6873      2.7454      2.8346      2.9578      3.1182      3.3186    
  3.5606      3.8426      4.1583      4.4951      4.8336      5.1494      5.4159      5.6089      5.7103      5.7103    
  5.6090      5.4160      5.1495      4.8337      5.1722      4.6898      4.2459      3.8547      3.5221      3.2488    
  3.0322      2.8687      2.7546      2.6872      2.6650      2.6873      2.7548      2.8689      3.0324      3.2490    
  3.5222      3.8546      4.2458      4.6897      5.1721      5.6695      6.1499      6.5762      6.9118      7.1263    
  7.2002      7.1264      6.9119      6.5763      6.1501      5.6697      5.7935      5.1504      4.5718      4.0717    
  3.6545      3.3182      3.0581      2.8687      2.7452      2.6843      2.6844      2.7454      2.8689      3.0583    
  3.3183      3.6545      4.0717      4.5717      5.1503      5.7933      6.4745      7.1549      7.7861      8.3167    
  8.6999      8.9009      8.9009      8.7000      8.3167      7.7861      7.1550      6.4746      6.2969      5.4915    
  4.7844      4.1872      3.7004      3.3182      3.0322      2.8344      2.7184      2.6802      2.7185      2.8346    
  3.0324      3.3183      3.7005      4.1871      4.7843      5.4913      6.2968      7.1740      8.0797      8.9557    
  9.7347      10.350      10.744      10.880      10.744      10.350      9.7346      8.9557      8.0798      7.1741    
  6.6259      5.6732      4.8583      4.1872      3.6544      3.2488      2.9576      2.7699      2.6781      2.6781    
  2.7701      2.9578      3.2490      3.6545      4.1871      4.8582      5.6731      6.6257      7.6930      8.8315    
  9.9772      11.049      11.960      12.623      12.973      12.973      12.623      11.959      11.049      9.9771    
  8.8315      7.6931      6.7403      5.6732      4.7844      4.0717      3.5221      3.1180      2.8426      2.6827    
  2.6303      2.6827      2.8427      3.1182      3.5222      4.0717      4.7843      5.6731      6.7402      7.9700    
  9.3241      10.739      12.127      13.382      14.389      15.043      15.269      15.043      14.389      13.382    
  12.127      10.739      9.3241      7.9700      6.6258      5.4914      4.5718      3.8546      3.3185      2.9401    
  2.6993      2.5823      2.5823      2.6993      2.9402      3.3186      3.8546      4.5717      5.4913      6.6257    
  7.9700      9.4957      11.147      12.838      14.454      15.854      16.883      17.426      17.426      16.883    
  15.854      14.454      12.838      11.147      9.4957      7.9700      6.2968      5.1503      4.2459      3.5606    
  3.0654      2.7328      2.5416      2.4793      2.5417      2.7328      3.0655      3.5606      4.2458      5.1503    
  6.2968      7.6930      9.3241      11.147      13.087      15.033      16.825      18.265      19.194      19.515    
  19.195      18.265      16.825      15.033      13.087      11.147      9.3240      7.6930      5.7933      4.6897    
  3.8426      3.2198      2.7868      2.5145      2.3832      2.3832      2.5145      2.7868      3.2198      3.8426    
  4.6897      5.7933      7.1740      8.8315      10.739      12.838      15.033      17.165      19.006      20.356    
  21.069      21.070      20.356      19.007      17.165      15.033      12.838      10.739      8.8315      7.1740    
  5.1721      4.1583      3.4015      2.8626      2.5050      2.3013      2.2352      2.3013      2.5050      2.8625    
  3.4015      4.1583      5.1721      6.4745      8.0797      9.9772      12.127      14.454      16.825      19.006    
  20.761      21.899      22.294      21.900      20.762      19.007      16.825      14.454      12.127      9.9771    
  8.0796      6.4745      4.4951      3.6047      2.9585      2.5146      2.2380      2.1053      2.1053      2.2379    
  2.5145      2.9585      3.6047      4.4951      5.6695      7.1549      8.9557      11.049      13.382      15.854    
  18.265      20.356      21.899      22.719      22.720      21.899      20.356      18.265      15.854      13.382    
  11.049      8.9555      7.1547      5.6695      3.8190      3.0698      2.5418      2.1944      1.9977      1.9340    
  1.9976      2.1943      2.5417      3.0697      3.8190      4.8336      6.1499      7.7861      9.7347      11.960    
  14.389      16.883      19.194      21.069      22.294      22.720      22.294      21.069      19.194      16.883    
  14.389      11.959      9.7346      7.7859      6.1498      4.8335      3.1881      2.5824      2.1693      1.9131    
  1.7906      1.7906      1.9130      2.1692      2.5823      3.1880      4.0297      5.1494      6.5762      8.3167    
  10.350      12.623      15.043      17.426      19.515      21.070      21.900      21.899      21.069      19.515    
  17.426      15.042      12.623      10.350      8.3165      6.5761      5.1493      4.0296      2.6303      2.1590    
  1.8499      1.6751      1.6186      1.6751      1.8498      2.1589      2.6303      3.3027      4.2191      5.4159    
  6.9118      8.6999      10.744      12.973      15.269      17.426      19.195      20.356      20.762      20.356    
  19.194      17.426      15.269      12.973      10.744      8.6998      6.9116      5.4158      4.2191      3.3027    
  2.1588      1.8050      1.5856      1.4805      1.4805      1.5855      1.8049      2.1587      2.6781      3.4020    
  4.3697      5.6089      7.1263      8.9009      10.880      12.973      15.043      16.883      18.265      19.007    
  19.007      18.265      16.883      15.042      12.973      10.880      8.9007      7.1262      5.6088      4.3696    
  3.4020      2.6781      1.7747      1.5188      1.3738      1.3267      1.3737      1.5188      1.7746      2.1638    
  2.7184      3.4751      4.4666      5.7103      7.2002      8.9009      10.744      12.623      14.389      15.854    
  16.825      17.165      16.825      15.854      14.389      12.623      10.744      8.9007      7.2000      5.7102    
  4.4665      3.4751      2.7184      2.1639      1.4719      1.2949      1.2099      1.2099      1.2949      1.4718    
  1.7555      2.1697      2.7452      3.5139      4.5000      5.7103      7.1264      8.7000      10.350      11.959    
  13.382      14.454      15.033      15.033      14.454      13.382      11.959      10.350      8.6998      7.1262    
  5.7102      4.4999      3.5139      2.7453      2.1698      1.7556      1.2410      1.1263      1.0890      1.1263    
  1.2410      1.4419      1.7450      2.1735      2.7546      3.5139      4.4666      5.6090      6.9119      8.3167    
  9.7346      11.049      12.127      12.838      13.087      12.838      12.127      11.049      9.7346      8.3165    
  6.9116      5.6088      4.4665      3.5139      2.7547      2.1736      1.7451      1.4420      1.0726      1.0064    
  1.0064      1.0726      1.2097      1.4274      1.7417      2.1734      2.7452      3.4752      4.3698      5.4160    
  6.5763      7.7861      8.9557      9.9771      10.739      11.147      11.147      10.739      9.9771      8.9555    
  7.7859      6.5761      5.4158      4.3696      3.4751      2.7453      2.1736      1.7418      1.4275      1.2097    
 0.95839     0.92969     0.95844      1.0464      1.1994      1.4274      1.7450      2.1696      2.7183      3.4021    
  4.2192      5.1495      6.1501      7.1550      8.0798      8.8315      9.3241      9.4957      9.3240      8.8315    
  8.0796      7.1547      6.1498      5.1493      4.2191      3.4020      2.7184      2.1698      1.7451      1.4275    
  1.1994      1.0464     0.89235     0.89238     0.94274      1.0464      1.2096      1.4419      1.7554      2.1637    
  2.6780      3.3027      4.0298      4.8337      5.6697      6.4746      7.1741      7.6931      7.9700      7.9700    
  7.6930      7.1740      6.4745      5.6695      4.8335      4.0296      3.3027      2.6781      2.1639      1.7556    
  1.4420      1.2097      1.0464     0.94268     0.89240     0.92974      1.0064      1.1263      1.2949      1.5188    
  1.8049      2.1588      2.5823      3.0697      3.6047      4.1584      4.6898      5.1504      5.4915      5.6732    
  5.6732      5.4914      5.1503      4.6897      4.1583      3.6047      3.0698      2.5824      2.1590      1.8050    
  1.5188      1.2949      1.1263      1.0064     0.92969     0.89238     0.92974     0.97655      1.0572      1.1755    
  1.3359      1.5434      1.8023      2.1149      2.4793      2.8868      3.3197      3.7507      4.1447      4.4632    
  4.6710      4.7432      4.6709      4.4631      4.1446      3.7507      3.3197      2.8869      2.4795      2.1150    
  1.8024      1.5434      1.3359      1.1755      1.0572     0.97651     0.92972     0.91441      1.0064      1.0572    
  1.1367      1.2480      1.3951      1.5812      1.8088      2.0776      2.3832      2.7151      3.0557      3.3807    
  3.6613      3.8686      3.9788      3.9788      3.8685      3.6613      3.3807      3.0558      2.7152      2.3833    
  2.0777      1.8089      1.5812      1.3950      1.2480      1.1366      1.0572      1.0064     0.98169     0.98170    
  1.1263      1.1755      1.2480      1.3469      1.4754      1.6357      1.8288      2.0527      2.3013      2.5635    
  2.8229      3.0588      3.2487      3.3723      3.4153      3.3723      3.2487      3.0588      2.8230      2.5636    
  2.3014      2.0528      1.8288      1.6357      1.4753      1.3469      1.2480      1.1755      1.1263      1.0979    
  1.0887      1.0979      1.2949      1.3359      1.3951      1.4754      1.5797      1.7098      1.8656      2.0440    
  2.2379      2.4367      2.6257      2.7883      2.9080      2.9715      2.9715      2.9080      2.7883      2.6257    
  2.4367      2.2380      2.0440      1.8656      1.7098      1.5796      1.4753      1.3950      1.3359      1.2949    
  1.2693      1.2569      1.2569      1.2692      1.5188      1.5434      1.5812      1.6357      1.7098      1.8051    
  1.9206      2.0527      2.1944      2.3356      2.4644      2.5680      2.6354      2.6587      2.6353      2.5680    
  2.4644      2.3356      2.1944      2.0527      1.9206      1.8050      1.7098      1.6356      1.5812      1.5434    
  1.5188      1.5040      1.4962      1.4937      1.4961      1.5039      1.8049      1.8023      1.8088      1.8288    
  1.8656      1.9206      1.9926      2.0776      2.1692      2.2587      2.3367      2.3946      2.4254      2.4254    
  2.3946      2.3368      2.2587      2.1692      2.0776      1.9926      1.9206      1.8656      1.8288      1.8088    
  1.8023      1.8049      1.8119      1.8191      1.8234      1.8234      1.8190      1.8118      2.1588      2.1149    
  2.0776      2.0527      2.0440      2.0527      2.0776      2.1149      2.1588      2.2026      2.2396      2.2642    
  2.2728      2.2642      2.2396      2.2026      2.1589      2.1149      2.0776      2.0527      2.0439      2.0527    
  2.0776      2.1149      2.1589      2.2026      2.2396      2.2642      2.2728      2.2642      2.2396      2.2026    
  2.5823      2.4793      2.3832      2.3013      2.2379      2.1944      2.1692      2.1588      2.1586      2.1637    
  2.1696      2.1734      2.1735      2.1697      2.1638      2.1587      2.1589      2.1692      2.1943      2.2379    
  2.3013      2.3832      2.4793      2.5823      2.6826      2.7699      2.8344      2.8687      2.8687      2.8344    
  2.7699      2.6826      3.0697      2.8868      2.7151      2.5635      2.4367      2.3356      2.2587      2.2026    
  2.1637      2.1385      2.1244      2.1199      2.1245      2.1386      2.1638      2.2027      2.2587      2.3356    
  2.4366      2.5635      2.7151      2.8868      3.0697      3.2509      3.4152      3.5466      3.6316      3.6610    
  3.6316      3.5466      3.4152      3.2510      3.6047      3.3197      3.0557      2.8229      2.6257      2.4644    
  2.3367      2.2396      2.1696      2.1244      2.1022      2.1022      2.1245      2.1698      2.2397      2.3368    
  2.4644      2.6256      2.8228      3.0557      3.3196      3.6046      3.8945      4.1677      4.4007      4.5708    
  4.6607      4.6607      4.5709      4.4008      4.1678      3.8945      4.1584      3.7507      3.3807      3.0588    
  2.7883      2.5680      2.3946      2.2642      2.1734      2.1199      2.1022      2.1200      2.1736      2.2644    
  2.3947      2.5680      2.7882      3.0587      3.3806      3.7506      4.1582      4.5845      5.0019      5.3771    
  5.6759      5.8685      5.9351      5.8686      5.6760      5.3772      5.0020      4.5846      4.6898      4.1447    
  3.6613      3.2487      2.9080      2.6354      2.4254      2.2728      2.1735      2.1245      2.1245      2.1736    
  2.2730      2.4255      2.6353      2.9079      3.2486      3.6612      4.1446      4.6896      5.2760      5.8711    
  6.4315      6.9091      7.2579      7.4420      7.4420      7.2579      6.9092      6.4316      5.8712      5.2762    
  5.1504      4.4632      3.8686      3.3723      2.9715      2.6587      2.4254      2.2642      2.1697      2.1386    
  2.1698      2.2644      2.4255      2.6587      2.9714      3.3722      3.8684      4.4630      5.1502      5.9109    
  6.7095      7.4944      8.2027      8.7686      9.1346      9.2612      9.1346      8.7686      8.2027      7.4944    
  6.7095      5.9110      5.4915      4.6710      3.9788      3.4153      2.9715      2.6353      2.3946      2.2396    
  2.1638      2.1638      2.2397      2.3947      2.6353      2.9714      3.4151      3.9787      4.6708      5.4913    
  6.4255      7.4388      8.4752      9.4592      10.304      10.926      11.255      11.255      10.926      10.304    
  9.4592      8.4752      7.4389      6.4256      5.6732      4.7432      3.9788      3.3723      2.9080      2.5680    
  2.3368      2.2026      2.1587      2.2027      2.3368      2.5680      2.9079      3.3722      3.9787      4.7430    
  5.6731      6.7617      7.9804      9.2740      10.561      11.736      12.686      13.306      13.521      13.306    
  12.686      11.736      10.560      9.2740      7.9805      6.7619      5.6732      4.6709      3.8685      3.2487    
  2.7883      2.4644      2.2587      2.1589      2.1589      2.2587      2.4644      2.7882      3.2486      3.8684    
  4.6708      5.6731      6.8787      8.2695      9.7980      11.384      12.913      14.247      15.242      15.775    
  15.775      15.242      14.247      12.913      11.384      9.7980      8.2696      6.8789      5.4914      4.4631    
  3.6613      3.0588      2.6257      2.3356      2.1692      2.1149      2.1692      2.3356      2.6256      3.0587    
  3.6612      4.4630      5.4913      6.7617      8.2695      9.9807      11.825      13.691      15.428      16.856    
  17.800      18.131      17.801      16.856      15.428      13.691      11.825      9.9807      8.2695      6.7618    
  5.1503      4.1446      3.3807      2.8230      2.4367      2.1944      2.0776      2.0776      2.1943      2.4366    
  2.8228      3.3806      4.1446      5.1502      6.4255      7.9804      9.7980      11.825      13.964      16.066    
  17.934      19.346      20.108      20.108      19.346      17.934      16.066      13.964      11.825      9.7980    
  7.9804      6.4255      4.6897      3.7507      3.0558      2.5636      2.2380      2.0527      1.9926      2.0527    
  2.2379      2.5635      3.0557      3.7506      4.6896      5.9109      7.4388      9.2740      11.384      13.691    
  16.066      18.313      20.185      21.427      21.863      21.427      20.185      18.313      16.066      13.691    
  11.384      9.2740      7.4388      5.9109      4.1583      3.3197      2.7152      2.3014      2.0440      1.9206    
  1.9206      2.0439      2.3013      2.7151      3.3196      4.1582      5.2760      6.7095      8.4752      10.561    
  12.913      15.428      17.934      20.185      21.891      22.813      22.813      21.891      20.185      17.934    
  15.428      12.913      10.560      8.4751      6.7094      5.2761      3.6047      2.8869      2.3833      2.0528    
  1.8656      1.8050      1.8656      2.0527      2.3832      2.8868      3.6046      4.5845      5.8711      7.4944    
  9.4592      11.736      14.247      16.856      19.346      21.427      22.813      23.300      22.813      21.427    
  19.346      16.856      14.247      11.736      9.4591      7.4943      5.8710      4.5845      3.0698      2.4795    
  2.0777      1.8288      1.7098      1.7098      1.8288      2.0776      2.4793      3.0697      3.8945      5.0019    
  6.4315      8.2027      10.304      12.686      15.242      17.800      20.108      21.863      22.813      22.813    
  21.863      20.108      17.800      15.242      12.686      10.304      8.2025      6.4315      5.0019      3.8945    
  2.5824      2.1150      1.8089      1.6357      1.5796      1.6356      1.8088      2.1149      2.5823      3.2509    
  4.1677      5.3771      6.9091      8.7686      10.926      13.306      15.775      18.131      20.108      21.427    
  21.891      21.427      20.108      18.131      15.775      13.306      10.926      8.7685      6.9090      5.3771    
  4.1678      3.2511      2.1590      1.8024      1.5812      1.4753      1.4753      1.5812      1.8023      2.1589    
  2.6826      3.4152      4.4007      5.6759      7.2579      9.1346      11.255      13.521      15.775      17.801    
  19.346      20.185      20.185      19.346      17.800      15.775      13.521      11.255      9.1345      7.2578    
  5.6758      4.4008      3.4153      2.6828      1.8050      1.5434      1.3950      1.3469      1.3950      1.5434    
  1.8049      2.2026      2.7699      3.5466      4.5708      5.8685      7.4420      9.2612      11.255      13.306    
  15.242      16.856      17.934      18.313      17.934      16.856      15.242      13.306      11.255      9.2611    
  7.4419      5.8685      4.5709      3.5467      2.7701      2.2028      1.5188      1.3359      1.2480      1.2480    
  1.3359      1.5188      1.8119      2.2396      2.8344      3.6316      4.6607      5.9351      7.4420      9.1346    
  10.926      12.686      14.247      15.428      16.066      16.066      15.428      14.247      12.686      10.926    
  9.1345      7.4419      5.9350      4.6607      3.6317      2.8346      2.2398      1.8120      1.2949      1.1755    
  1.1366      1.1755      1.2949      1.5040      1.8191      2.2642      2.8687      3.6610      4.6607      5.8686    
  7.2579      8.7686      10.304      11.736      12.913      13.691      13.964      13.691      12.913      11.736    
  10.304      8.7685      7.2578      5.8685      4.6607      3.6612      2.8689      2.2644      1.8192      1.5040    
  1.1263      1.0572      1.0572      1.1263      1.2693      1.4962      1.8234      2.2728      2.8687      3.6316    
  4.5709      5.6760      6.9092      8.2027      9.4592      10.560      11.384      11.825      11.825      11.384    
  10.560      9.4591      8.2025      6.9090      5.6758      4.5709      3.6317      2.8689      2.2730      1.8235    
  1.4962      1.2692      1.0064     0.97651      1.0064      1.0979      1.2569      1.4937      1.8234      2.2642    
  2.8344      3.5466      4.4008      5.3772      6.4316      7.4944      8.4752      9.2740      9.7980      9.9807    
  9.7980      9.2740      8.4751      7.4943      6.4315      5.3771      4.4008      3.5467      2.8346      2.2644    
  1.8235      1.4938      1.2569      1.0979     0.92969     0.92972     0.98169      1.0887      1.2569      1.4961    
  1.8190      2.2396      2.7699      3.4152      4.1678      5.0020      5.8712      6.7095      7.4389      7.9805    
  8.2696      8.2695      7.9804      7.4388      6.7094      5.8710      5.0019      4.1678      3.4153      2.7701    
  2.2398      1.8192      1.4962      1.2569      1.0886     0.98163     0.89238     0.91441     0.98170      1.0979    
  1.2692      1.5039      1.8118      2.2026      2.6826      3.2510      3.8945      4.5846      5.2762      5.9110    
  6.4256      6.7619      6.8789      6.7618      6.4255      5.9109      5.2761      4.5845      3.8945      3.2511    
  2.6828      2.2028      1.8120      1.5040      1.2692      1.0979     0.98163     0.91436     0.95846      1.0064    
  1.0890      1.2099      1.3738      1.5856      1.8499      2.1692      2.5416      2.9584      3.4014      3.8426    
  4.2459      4.5718      4.7844      4.8583      4.7844      4.5718      4.2459      3.8426      3.4015      2.9585    
  2.5418      2.1693      1.8499      1.5856      1.3738      1.2099      1.0890      1.0064     0.95844     0.94274    
  1.0064      1.0572      1.1367      1.2480      1.3951      1.5812      1.8088      2.0776      2.3832      2.7151    
  3.0557      3.3807      3.6613      3.8686      3.9788      3.9788      3.8685      3.6613      3.3807      3.0558    
  2.7152      2.3833      2.0777      1.8089      1.5812      1.3950      1.2480      1.1366      1.0572      1.0064    
 0.98169     0.98170      1.0890      1.1367      1.2071      1.3035      1.4288      1.5854      1.7740      1.9926    
  2.2352      2.4910      2.7441      2.9743      3.1598      3.2805      3.3225      3.2805      3.1597      2.9743    
  2.7441      2.4911      2.2353      1.9927      1.7740      1.5854      1.4287      1.3034      1.2071      1.1366    
  1.0890      1.0616      1.0527      1.0616      1.2099      1.2480      1.3035      1.3793      1.4784      1.6023    
  1.7508      1.9206      2.1053      2.2946      2.4748      2.6299      2.7442      2.8050      2.8050      2.7442    
  2.6299      2.4748      2.2947      2.1054      1.9207      1.7508      1.6023      1.4784      1.3793      1.3034    
  1.2480      1.2100      1.1864      1.1751      1.1751      1.1863      1.3738      1.3951      1.4288      1.4784    
  1.5468      1.6351      1.7426      1.8656      1.9977      2.1296      2.2500      2.3471      2.4103      2.4323    
  2.4103      2.3471      2.2500      2.1296      1.9978      1.8657      1.7426      1.6351      1.5467      1.4783    
  1.4287      1.3950      1.3738      1.3615      1.3554      1.3535      1.3553      1.3615      1.5856      1.5812    
  1.5854      1.6023      1.6351      1.6850      1.7508      1.8288      1.9131      1.9958      2.0681      2.1219    
  2.1505      2.1505      2.1219      2.0681      1.9958      1.9131      1.8288      1.7508      1.6850      1.6351    
  1.6023      1.5853      1.5812      1.5856      1.5939      1.6021      1.6070      1.6069      1.6020      1.5939    
  1.8499      1.8088      1.7740      1.7508      1.7426      1.7508      1.7740      1.8088      1.8499      1.8909    
  1.9257      1.9489      1.9571      1.9489      1.9257      1.8909      1.8499      1.8088      1.7740      1.7507    
  1.7426      1.7507      1.7740      1.8088      1.8499      1.8909      1.9257      1.9489      1.9571      1.9489    
  1.9257      1.8909      2.1692      2.0776      1.9926      1.9206      1.8656      1.8288      1.8088      1.8023    
  1.8049      1.8118      1.8190      1.8234      1.8234      1.8191      1.8119      1.8049      1.8023      1.8088    
  1.8288      1.8656      1.9206      1.9926      2.0776      2.1692      2.2587      2.3368      2.3946      2.4254    
  2.4254      2.3946      2.3367      2.2587      2.5416      2.3832      2.2352      2.1053      1.9977      1.9131    
  1.8499      1.8049      1.7745      1.7554      1.7450      1.7417      1.7450      1.7555      1.7746      1.8049    
  1.8498      1.9130      1.9976      2.1053      2.2352      2.3832      2.5416      2.6992      2.8426      2.9576    
  3.0322      3.0581      3.0322      2.9576      2.8426      2.6992      2.9584      2.7151      2.4910      2.2946    
  2.1296      1.9958      1.8909      1.8118      1.7554      1.7191      1.7014      1.7014      1.7192      1.7555    
  1.8119      1.8909      1.9957      2.1295      2.2945      2.4910      2.7151      2.9584      3.2071      3.4427    
  3.6445      3.7924      3.8707      3.8707      3.7925      3.6446      3.4428      3.2071      3.4014      3.0557    
  2.7441      2.4748      2.2500      2.0681      1.9257      1.8190      1.7450      1.7014      1.6870      1.7015    
  1.7451      1.8191      1.9257      2.0680      2.2499      2.4746      2.7440      3.0556      3.4014      3.7653    
  4.1239      4.4483      4.7079      4.8760      4.9342      4.8760      4.7080      4.4483      4.1240      3.7653    
  3.8426      3.3807      2.9743      2.6299      2.3471      2.1219      1.9489      1.8234      1.7417      1.7014    
  1.7015      1.7418      1.8235      1.9489      2.1218      2.3470      2.6297      2.9741      3.3806      3.8425    
  4.3435      4.8559      5.3422      5.7593      6.0654      6.2276      6.2276      6.0655      5.7593      5.3423    
  4.8560      4.3436      4.2459      3.6613      3.1598      2.7442      2.4103      2.1505      1.9571      1.8234    
  1.7450      1.7192      1.7451      1.8235      1.9571      2.1505      2.4102      2.7440      3.1596      3.6611    