 running on    8 total cores
 distrk:  each k-point on    8 cores,    1 groups
 distr:  one band on    1 cores,    8 groups
 using from now: INCAR     
 vasp.5.4.4.18Apr17-6-g9f103f2a35 (build Dec 09 2018 21:25:21) complex          
  
 POSCAR found type information on POSCAR  Si
 POSCAR found :  1 types and       2 ions
 scaLAPACK will be used

 ----------------------------------------------------------------------------- 
|                                                                             |
|           W    W    AA    RRRRR   N    N  II  N    N   GGGG   !!!           |
|           W    W   A  A   R    R  NN   N  II  NN   N  G    G  !!!           |
|           W    W  A    A  R    R  N N  N  II  N N  N  G       !!!           |
|           W WW W  AAAAAA  RRRRR   N  N N  II  N  N N  G  GGG   !            |
|           WW  WW  A    A  R   R   N   NN  II  N   NN  G    G                |
|           W    W  A    A  R    R  N    N  II  N    N   GGGG   !!!           |
|                                                                             |
|      For optimal performance we recommend to set                            |
|        NCORE= 4 - approx SQRT( number of cores)                             |
|      NCORE specifies how many cores store one orbital (NPAR=cpu/NCORE).     |
|      This setting can  greatly improve the performance of VASP for DFT.     |
|      The default,   NCORE=1            might be grossly inefficient         |
|      on modern multi-core architectures or massively parallel machines.     |
|      Do your own testing !!!!                                               |
|      Unfortunately you need to use the default for GW and RPA calculations. |
|      (for HF NCORE is supported but not extensively tested yet)             |
|                                                                             |
 ----------------------------------------------------------------------------- 

 LDA part: xc-table for Pade appr. of Perdew
 POSCAR, INCAR and KPOINTS ok, starting setup
 FFT: planning ...
 WAVECAR not read
 entering main loop
       N       E                     dE             d eps       ncg     rms          rms(c)
DAV:   1     0.636565832679E+00    0.63657E+00   -0.23120E+03   320   0.455E+02
DAV:   2    -0.108701597429E+02   -0.11507E+02   -0.10811E+02   512   0.625E+01
DAV:   3    -0.109949479362E+02   -0.12479E+00   -0.12479E+00   360   0.833E+00
DAV:   4    -0.109953596020E+02   -0.41167E-03   -0.41167E-03   536   0.527E-01
DAV:   5    -0.109953598763E+02   -0.27428E-06   -0.27394E-06   376   0.116E-02    0.301E+00
DAV:   6    -0.108699785652E+02    0.12538E+00   -0.82151E-02   416   0.149E+00    0.178E+00
DAV:   7    -0.108129905343E+02    0.56988E-01   -0.15072E-01   384   0.215E+00    0.154E-01
DAV:   8    -0.108143310317E+02   -0.13405E-02   -0.40489E-03   336   0.470E-01    0.240E-02
DAV:   9    -0.108144203618E+02   -0.89330E-04   -0.91929E-05   296   0.754E-02
   1 F= -.10814420E+02 E0= -.10814246E+02  d E =-.108144E+02
 curvature:   0.00 expect dE= 0.000E+00 dE for cont linesearch  0.000E+00
 trial: gam= 0.00000 g(F)=  0.239E-45 g(S)=  0.000E+00 ort = 0.000E+00 (trialstep = 0.100E+01)
 search vector abs. value=  0.100E-09
 reached required accuracy - stopping structural energy minimisation
 writing wavefunctions
