unknown system                          
   1.00000000000000     
     0.000000    2.715000    2.715000
     2.715000    0.000000    2.715000
     2.715000    2.715000    0.000000
   Si
     2
Direct
  0.500000  0.500000  0.500000
  0.750000  0.750000  0.750000
 
   28   28   28
 0.88848399306E+00 0.91556470456E+00 0.99906579669E+00 0.11460014143E+01 0.13682994005E+01
 0.16816356184E+01 0.21017806836E+01 0.26383271128E+01 0.32870682886E+01 0.40232007610E+01
 0.47976028025E+01 0.55382433153E+01 0.61585667967E+01 0.65734106179E+01 0.67195082385E+01
 0.65733981643E+01 0.61585769180E+01 0.55382921133E+01 0.47976571182E+01 0.40232141866E+01
 0.32870339592E+01 0.26382804886E+01 0.21017569970E+01 0.16816389096E+01 0.13683117520E+01
 0.11460082114E+01 0.99906570119E+00 0.91556282763E+00 0.91556470456E+00 0.96126238163E+00
 0.10560715253E+01 0.12070432889E+01 0.14246260829E+01 0.17209565182E+01 0.21060558353E+01
 0.25822238408E+01 0.31379882406E+01 0.37436355916E+01 0.43503567848E+01 0.48945482533E+01
 0.53078421867E+01 0.55315542652E+01 0.55315557206E+01 0.53078551319E+01 0.48945777908E+01
 0.43503804263E+01 0.37436241806E+01 0.31379465353E+01 0.25821893901E+01 0.21060554871E+01
 0.17209800102E+01 0.14246466652E+01 0.12070499717E+01 0.10560721566E+01 0.96126458367E+00
 0.91556646576E+00 0.99906579669E+00 0.10560715253E+01 0.11555837092E+01 0.13043025948E+01
 0.15108151730E+01 0.17835647687E+01 0.21272994645E+01 0.25384541247E+01 0.30007799523E+01
 0.34830536158E+01 0.39404992086E+01 0.43206975923E+01 0.45734207098E+01 0.46621313932E+01
 0.45734257974E+01 0.43207037096E+01 0.39404947482E+01 0.34830303765E+01 0.30007503661E+01
 0.25384441355E+01 0.21273186989E+01 0.17835942132E+01 0.15108302151E+01 0.13042993750E+01
 0.11555763185E+01 0.10560707028E+01 0.99906896366E+00 0.98051099442E+00 0.11460014143E+01
 0.12070432889E+01 0.13043025948E+01 0.14438976104E+01 0.16323897873E+01 0.18747528019E+01
 0.21713820267E+01 0.25146166559E+01 0.28859744060E+01 0.32556346895E+01 0.35852879996E+01
 0.38344265328E+01 0.39688330613E+01 0.39688331091E+01 0.38344251966E+01 0.35852823380E+01
 0.32556255266E+01 0.28859702466E+01 0.25146262166E+01 0.21714007731E+01 0.18747642706E+01
 0.16323843663E+01 0.14438833125E+01 0.13042929581E+01 0.12070417597E+01 0.11460028918E+01
 0.11166608597E+01 0.11166601699E+01 0.13682994005E+01 0.14246260829E+01 0.15108151730E+01
 0.16323897873E+01 0.17940649253E+01 0.19979825594E+01 0.22414516424E+01 0.25146154109E+01
 0.27990480477E+01 0.30684457120E+01 0.32920666099E+01 0.34405528083E+01 0.34926404152E+01
 0.34405534921E+01 0.32920714440E+01 0.30684562404E+01 0.27990608760E+01 0.25146240731E+01
 0.22414499128E+01 0.19979688599E+01 0.17940468190E+01 0.16323804822E+01 0.15108203121E+01
 0.14246368364E+01 0.13683040504E+01 0.13368279963E+01 0.13267501414E+01 0.13368294283E+01
 0.16816356184E+01 0.17209565182E+01 0.17835647687E+01 0.18747528019E+01 0.19979825594E+01
 0.21535551225E+01 0.23371369604E+01 0.25384532859E+01 0.27408944051E+01 0.29228586478E+01
 0.30611792549E+01 0.31360668172E+01 0.31360686103E+01 0.30611862219E+01 0.29228698053E+01
 0.27408999630E+01 0.25384421838E+01 0.23371109131E+01 0.21535302894E+01 0.19979757208E+01
 0.18747674112E+01 0.17835897193E+01 0.17209761249E+01 0.16816414860E+01 0.16597522309E+01
 0.16502766103E+01 0.16502797661E+01 0.16597561607E+01 0.21017806836E+01 0.21060558353E+01
 0.21272994645E+01 0.21713820267E+01 0.22414516424E+01 0.23371369604E+01 0.24538325920E+01
 0.25822263358E+01 0.27085745566E+01 0.28163010784E+01 0.28890932355E+01 0.29148539753E+01
 0.28890986725E+01 0.28163031282E+01 0.27085613159E+01 0.25821948128E+01 0.24537977697E+01
 0.23371237395E+01 0.22414719217E+01 0.21714209007E+01 0.21273287065E+01 0.21060608710E+01
 0.21017702815E+01 0.21069349123E+01 0.21139227865E+01 0.21169705020E+01 0.21139260163E+01
 0.21069445667E+01 0.26383271128E+01 0.25822238408E+01 0.25384541247E+01 0.25146166559E+01
 0.25146154109E+01 0.25384532859E+01 0.25822263358E+01 0.26383300794E+01 0.26961901285E+01
 0.27439143749E+01 0.27709289830E+01 0.27709337336E+01 0.27439166109E+01 0.26961709009E+01
 0.26382926063E+01 0.25821995341E+01 0.25384640024E+01 0.25146600340E+01 0.25146621243E+01
 0.25384672602E+01 0.25822006658E+01 0.26382938467E+01 0.26961744511E+01 0.27439191160E+01
 0.27709321620E+01 0.27709263845E+01 0.27439140531E+01 0.26961897248E+01 0.32870682886E+01
 0.31379882406E+01 0.30007799523E+01 0.28859744060E+01 0.27990480477E+01 0.27408944051E+01
 0.27085745566E+01 0.26961901285E+01 0.26959997878E+01 0.27000271254E+01 0.27021468931E+01
 0.27000316405E+01 0.26959869836E+01 0.26961577595E+01 0.27085558416E+01 0.27409191429E+01
 0.27991018973E+01 0.28860116445E+01 0.30007715429E+01 0.31379471070E+01 0.32870305646E+01
 0.34326885362E+01 0.35564090468E+01 0.36398615048E+01 0.36693664047E+01 0.36398436786E+01
 0.35563934880E+01 0.34326979760E+01 0.40232007610E+01 0.37436355916E+01 0.34830536158E+01
 0.32556346895E+01 0.30684457120E+01 0.29228586478E+01 0.28163010784E+01 0.27439143749E+01
 0.27000271254E+01 0.26795913400E+01 0.26795903514E+01 0.27000141128E+01 0.27438839532E+01
 0.28162801779E+01 0.29228789703E+01 0.30684956570E+01 0.32556660404E+01 0.34830381360E+01
 0.37435945847E+01 0.40231740142E+01 0.43000665446E+01 0.45465417706E+01 0.47328747525E+01
 0.48334938505E+01 0.48334886173E+01 0.47328595091E+01 0.45465236644E+01 0.43000638995E+01
 0.47976028025E+01 0.43503567848E+01 0.39404992086E+01 0.35852879996E+01 0.32920666099E+01
 0.30611792549E+01 0.28890932355E+01 0.27709289830E+01 0.27021468931E+01 0.26795903514E+01
 0.27021262578E+01 0.27708920134E+01 0.28890648593E+01 0.30611906934E+01 0.32921140308E+01
 0.35853276681E+01 0.39404964710E+01 0.43503238133E+01 0.47975765911E+01 0.52534981882E+01
 0.56788591199E+01 0.60285215263E+01 0.62594191191E+01 0.63402201112E+01 0.62594188056E+01
 0.60285154250E+01 0.56788492905E+01 0.52535004819E+01 0.55382433153E+01 0.48945482533E+01
 0.43206975923E+01 0.38344265328E+01 0.34405528083E+01 0.31360668172E+01 0.29148539753E+01
 0.27709337336E+01 0.27000316405E+01 0.27000141128E+01 0.27708920134E+01 0.29148198209E+01
 0.31360756462E+01 0.34406074721E+01 0.38344854096E+01 0.43207138153E+01 0.48945156761E+01
 0.55381941934E+01 0.62174188937E+01 0.68808777948E+01 0.74647332167E+01 0.79022566601E+01
 0.81371979695E+01 0.81371870032E+01 0.79022327008E+01 0.74647151744E+01 0.68808818385E+01
 0.62174513125E+01 0.61585667967E+01 0.53078421867E+01 0.45734207098E+01 0.39688330613E+01
 0.34926404152E+01 0.31360686103E+01 0.28890986725E+01 0.27439166109E+01 0.26959869836E+01
 0.27438839532E+01 0.28890648593E+01 0.31360756462E+01 0.34927011237E+01 0.39689077612E+01
 0.45734476470E+01 0.53077964345E+01 0.61584813600E+01 0.70901723543E+01 0.80423971396E+01
 0.89322607905E+01 0.96644806267E+01 0.10148264797E+02 0.10317583564E+02 0.10148206328E+02
 0.96644034923E+01 0.89322139455E+01 0.80424095564E+01 0.70902404679E+01 0.65734106179E+01
 0.55315542652E+01 0.46621313932E+01 0.39688331091E+01 0.34405534921E+01 0.30611862219E+01
 0.28163031282E+01 0.26961709009E+01 0.26961577595E+01 0.28162801779E+01 0.30611906934E+01
 0.34406074721E+01 0.39689077612E+01 0.46621592899E+01 0.55314946417E+01 0.65732978469E+01
 0.77586004975E+01 0.90252952672E+01 0.10276654940E+02 0.11388849103E+02 0.12229036304E+02
 0.12682628966E+02 0.12682600016E+02 0.12228958175E+02 0.11388750135E+02 0.10276582798E+02
 0.90252977331E+01 0.77586855206E+01 0.67195082385E+01 0.55315557206E+01 0.45734257974E+01
 0.38344251966E+01 0.32920714440E+01 0.29228698053E+01 0.27085613159E+01 0.26382926063E+01
 0.27085558416E+01 0.29228789703E+01 0.32921140308E+01 0.38344854096E+01 0.45734476470E+01
 0.55314946417E+01 0.67193938739E+01 0.81225463118E+01 0.96881568609E+01 0.11317416182E+02
 0.12866601989E+02 0.14161338943E+02 0.15026754026E+02 0.15330913878E+02 0.15026774265E+02
 0.14161324906E+02 0.12866521780E+02 0.11317318168E+02 0.96881297392E+01 0.81226218341E+01
 0.65733981643E+01 0.53078551319E+01 0.43207037096E+01 0.35852823380E+01 0.30684562404E+01
 0.27408999630E+01 0.25821948128E+01 0.25821995341E+01 0.27409191429E+01 0.30684956570E+01
 0.35853276681E+01 0.43207138153E+01 0.53077964345E+01 0.65732978469E+01 0.81225463118E+01
 0.99227179442E+01 0.11888374666E+02 0.13873441195E+02 0.15674289364E+02 0.17044042756E+02
 0.17780003725E+02 0.17780071552E+02 0.17044173625E+02 0.15674344396E+02 0.13873363748E+02
 0.11888244671E+02 0.99226594164E+01 0.81226002292E+01 0.61585769180E+01 0.48945777908E+01
 0.39404947482E+01 0.32556255266E+01 0.27990608760E+01 0.25384421838E+01 0.24537977697E+01
 0.25384640024E+01 0.27991018973E+01 0.32556660404E+01 0.39404964710E+01 0.48945156761E+01
 0.61584813600E+01 0.77586004975E+01 0.96881568609E+01 0.11888374666E+02 0.14231762464E+02
 0.16507097571E+02 0.18406557689E+02 0.19656763741E+02 0.20091816081E+02 0.19656925582E+02
 0.18406737610E+02 0.16507145039E+02 0.14231655372E+02 0.11888223268E+02 0.96880876725E+01
 0.77586463456E+01 0.55382921133E+01 0.43503804263E+01 0.34830303765E+01 0.28859702466E+01
 0.25146240731E+01 0.23371109131E+01 0.23371237395E+01 0.25146600340E+01 0.28860116445E+01
 0.34830381360E+01 0.43503238133E+01 0.55381941934E+01 0.70901723543E+01 0.90252952672E+01
 0.11317416182E+02 0.13873441195E+02 0.16507097571E+02 0.18887551694E+02 0.20673015025E+02
 0.21625477067E+02 0.21625569122E+02 0.20673215976E+02 0.18887702095E+02 0.16507089861E+02
 0.13873301634E+02 0.11317267219E+02 0.90252446970E+01 0.70902322113E+01 0.47976571182E+01
 0.37436241806E+01 0.30007503661E+01 0.25146262166E+01 0.22414499128E+01 0.21535302894E+01
 0.22414719217E+01 0.25146621243E+01 0.30007715429E+01 0.37435945847E+01 0.47975765911E+01
 0.62174188937E+01 0.80423971396E+01 0.10276654940E+02 0.12866601989E+02 0.15674289364E+02
 0.18406557689E+02 0.20673015025E+02 0.22162065325E+02 0.22680260241E+02 0.22162238610E+02
 0.20673225827E+02 0.18406652694E+02 0.15674220007E+02 0.12866445822E+02 0.10276535858E+02
 0.80423857435E+01 0.62174921779E+01 0.40232141866E+01 0.31379465353E+01 0.25384441355E+01
 0.21714007731E+01 0.19979688599E+01 0.19979757208E+01 0.21714209007E+01 0.25384672602E+01
 0.31379471070E+01 0.40231740142E+01 0.52534981882E+01 0.68808777948E+01 0.89322607905E+01
 0.11388849103E+02 0.14161338943E+02 0.17044042756E+02 0.19656763741E+02 0.21625477067E+02
 0.22680260241E+02 0.22680362589E+02 0.21625698814E+02 0.19656931665E+02 0.17044051886E+02
 0.14161222532E+02 0.11388718610E+02 0.89322033734E+01 0.68809040906E+01 0.52535593109E+01
 0.32870339592E+01 0.25821893901E+01 0.21273186989E+01 0.18747642706E+01 0.17940468190E+01
 0.18747674112E+01 0.21273287065E+01 0.25822006658E+01 0.32870305646E+01 0.43000665446E+01
 0.56788591199E+01 0.74647332167E+01 0.96644806267E+01 0.12229036304E+02 0.15026754026E+02
 0.17780003725E+02 0.20091816081E+02 0.21625569122E+02 0.22162238610E+02 0.21625698814E+02
 0.20091955445E+02 0.17780041217E+02 0.15026687695E+02 0.12228946212E+02 0.96644360246E+01
 0.74647443601E+01 0.56788952032E+01 0.43000933330E+01 0.26382804886E+01 0.21060554871E+01
 0.17835942132E+01 0.16323843663E+01 0.16323804822E+01 0.17835897193E+01 0.21060608710E+01
 0.26382938467E+01 0.34326885362E+01 0.45465417706E+01 0.60285215263E+01 0.79022566601E+01
 0.10148264797E+02 0.12682628966E+02 0.15330913878E+02 0.17780071552E+02 0.19656925582E+02
 0.20673215976E+02 0.20673225827E+02 0.19656931665E+02 0.17780041217E+02 0.15330859399E+02
 0.12682596123E+02 0.10148277240E+02 0.79022953446E+01 0.60285541939E+01 0.45465525112E+01
 0.34326805540E+01 0.21017569970E+01 0.17209800102E+01 0.15108302151E+01 0.14438833125E+01
 0.15108203121E+01 0.17209761249E+01 0.21017702815E+01 0.26961744511E+01 0.35564090468E+01
 0.47328747525E+01 0.62594191191E+01 0.81371979695E+01 0.10317583564E+02 0.12682600016E+02
 0.15026774265E+02 0.17044173625E+02 0.18406737610E+02 0.18887702095E+02 0.18406652694E+02
 0.17044051886E+02 0.15026687695E+02 0.12682596123E+02 0.10317648460E+02 0.81372741542E+01
 0.62594601238E+01 0.47328744033E+01 0.35563858925E+01 0.26961487502E+01 0.16816389096E+01
 0.14246466652E+01 0.13042993750E+01 0.13042929581E+01 0.14246368364E+01 0.16816414860E+01
 0.21069349123E+01 0.27439191160E+01 0.36398615048E+01 0.48334938505E+01 0.63402201112E+01
 0.81371870032E+01 0.10148206328E+02 0.12228958175E+02 0.14161324906E+02 0.15674344396E+02
 0.16507145039E+02 0.16507089861E+02 0.15674220007E+02 0.14161222532E+02 0.12228946212E+02
 0.10148277240E+02 0.81372741542E+01 0.63402646164E+01 0.48334875220E+01 0.36398302487E+01
 0.27438872366E+01 0.21069149049E+01 0.13683117520E+01 0.12070499717E+01 0.11555763185E+01
 0.12070417597E+01 0.13683040504E+01 0.16597522309E+01 0.21139227865E+01 0.27709321620E+01
 0.36693664047E+01 0.48334886173E+01 0.62594188056E+01 0.79022327008E+01 0.96644034923E+01
 0.11388750135E+02 0.12866521780E+02 0.13873363748E+02 0.14231655372E+02 0.13873301634E+02
 0.12866445822E+02 0.11388718610E+02 0.96644360246E+01 0.79022953446E+01 0.62594601238E+01
 0.48334875220E+01 0.36693400782E+01 0.27709064187E+01 0.21139093076E+01 0.16597512625E+01
 0.11460082114E+01 0.10560721566E+01 0.10560707028E+01 0.11460028918E+01 0.13368279963E+01
 0.16502766103E+01 0.21169705020E+01 0.27709263845E+01 0.36398436786E+01 0.47328595091E+01
 0.60285154250E+01 0.74647151744E+01 0.89322139455E+01 0.10276582798E+02 0.11317318168E+02
 0.11888244671E+02 0.11888223268E+02 0.11317267219E+02 0.10276535858E+02 0.89322033734E+01
 0.74647443601E+01 0.60285541939E+01 0.47328744033E+01 0.36398302487E+01 0.27709064187E+01
 0.21169633723E+01 0.16502826321E+01 0.13368369663E+01 0.99906570119E+00 0.96126458367E+00
 0.99906896366E+00 0.11166608597E+01 0.13267501414E+01 0.16502797661E+01 0.21139260163E+01
 0.27439140531E+01 0.35563934880E+01 0.45465236644E+01 0.56788492905E+01 0.68808818385E+01
 0.80424095564E+01 0.90252977331E+01 0.96881297392E+01 0.99226594164E+01 0.96880876725E+01
 0.90252446970E+01 0.80423857435E+01 0.68809040906E+01 0.56788952032E+01 0.45465525112E+01
 0.35563858925E+01 0.27438872366E+01 0.21139093076E+01 0.16502826321E+01 0.13267593678E+01
 0.11166630013E+01 0.91556282763E+00 0.91556646576E+00 0.98051099442E+00 0.11166601699E+01
 0.13368294283E+01 0.16597561607E+01 0.21069445667E+01 0.26961897248E+01 0.34326979760E+01
 0.43000638995E+01 0.52535004819E+01 0.62174513125E+01 0.70902404679E+01 0.77586855206E+01
 0.81226218341E+01 0.81226002292E+01 0.77586463456E+01 0.70902322113E+01 0.62174921779E+01
 0.52535593109E+01 0.43000933330E+01 0.34326805540E+01 0.26961487502E+01 0.21069149049E+01
 0.16597512625E+01 0.13368369663E+01 0.11166630013E+01 0.98050601728E+00 0.91556518758E+00
 0.96126361455E+00 0.10560725174E+01 0.12070439747E+01 0.14246272179E+01 0.17209580392E+01
 0.21060568392E+01 0.25822241047E+01 0.31379882242E+01 0.37436350411E+01 0.43503549589E+01
 0.48945455373E+01 0.53078399488E+01 0.55315531145E+01 0.55315553509E+01 0.53078557161E+01
 0.48945798874E+01 0.43503835148E+01 0.37436268627E+01 0.31379482227E+01 0.25821903763E+01
 0.21060555283E+01 0.17209784704E+01 0.14246440339E+01 0.12070476462E+01 0.10560706785E+01
 0.96126352003E+00 0.91556588725E+00 0.96126361455E+00 0.10167959475E+01 0.11135201799E+01
 0.12577850195E+01 0.14578898034E+01 0.17221238508E+01 0.20552354895E+01 0.24538316180E+01
 0.29020751427E+01 0.33695198558E+01 0.38126368370E+01 0.41806684758E+01 0.44251567888E+01
 0.45109480886E+01 0.44251658806E+01 0.41806837723E+01 0.38126422265E+01 0.33694971937E+01
 0.29020325128E+01 0.24538034545E+01 0.20552449983E+01 0.17221571812E+01 0.14579160965E+01
 0.12577915937E+01 0.11135178347E+01 0.10167970941E+01 0.96126758093E+00 0.94316184082E+00
 0.10560725174E+01 0.11135201799E+01 0.12046281712E+01 0.13350094071E+01 0.15109674405E+01
 0.17375053654E+01 0.20152852106E+01 0.23371389129E+01 0.26854394564E+01 0.30318353478E+01
 0.33402479467E+01 0.35729363806E+01 0.36983108637E+01 0.36983135431E+01 0.35729387103E+01
 0.33402378818E+01 0.30318084100E+01 0.26854098846E+01 0.23371301525E+01 0.20153046473E+01
 0.17375348248E+01 0.15109838433E+01 0.13350084341E+01 0.12046219113E+01 0.11135184566E+01
 0.10560747500E+01 0.10283409494E+01 0.10283394892E+01 0.12070439747E+01 0.12577850195E+01
 0.13350094071E+01 0.14438287836E+01 0.15889586523E+01 0.17728762443E+01 0.19934200366E+01
 0.22414535737E+01 0.24997035339E+01 0.27437999668E+01 0.29458082275E+01 0.30795683584E+01
 0.31264145526E+01 0.30795696555E+01 0.29458027815E+01 0.27437863203E+01 0.24996944181E+01
 0.22414623883E+01 0.19934418852E+01 0.17728907768E+01 0.15889538878E+01 0.14438142484E+01
 0.13350011337E+01 0.12577855678E+01 0.12070451816E+01 0.11784757557E+01 0.11692759978E+01
 0.11784770112E+01 0.14246272179E+01 0.14578898034E+01 0.15109674405E+01 0.15889586523E+01
 0.16955824183E+01 0.18316480134E+01 0.19934192583E+01 0.21713819344E+01 0.23501877145E+01
 0.25103417421E+01 0.26315537745E+01 0.26969547874E+01 0.26969564319E+01 0.26315557662E+01
 0.25103411738E+01 0.23501887272E+01 0.21713898162E+01 0.19934292757E+01 0.18316481895E+01
 0.16955696467E+01 0.15889452051E+01 0.15109663989E+01 0.14578987249E+01 0.14246330588E+01
 0.14059974446E+01 0.13978376514E+01 0.13978404457E+01 0.14059997978E+01 0.17209580392E+01
 0.17221238508E+01 0.17375053654E+01 0.17728762443E+01 0.18316480134E+01 0.19138415463E+01
 0.20152847588E+01 0.21273001059E+01 0.22373130553E+01 0.23306608330E+01 0.23934213308E+01
 0.24155623364E+01 0.23934230084E+01 0.23306602074E+01 0.22373083384E+01 0.21272936587E+01
 0.20152787834E+01 0.19138364170E+01 0.18316456433E+01 0.17728802416E+01 0.17375155053E+01
 0.17221338234E+01 0.17209613991E+01 0.17271007419E+01 0.17339786548E+01 0.17368507743E+01
 0.17339828839E+01 0.17271039984E+01 0.21060568392E+01 0.20552354895E+01 0.20152852106E+01
 0.19934200366E+01 0.19934192583E+01 0.20152847588E+01 0.20552372977E+01 0.21060591090E+01
 0.21580073638E+01 0.22004937297E+01 0.22243949243E+01 0.22243947971E+01 0.22004891681E+01
 0.21579937243E+01 0.21060419669E+01 0.20552287986E+01 0.20152913730E+01 0.19934369274E+01
 0.19934385084E+01 0.20152941242E+01 0.20552304443E+01 0.21060437122E+01 0.21579967478E+01
 0.22004911509E+01 0.22243937508E+01 0.22243928938E+01 0.22004930052E+01 0.21580066063E+01
 0.25822241047E+01 0.24538316180E+01 0.23371389129E+01 0.22414535737E+01 0.21713819344E+01
 0.21273001059E+01 0.21060591090E+01 0.21017836308E+01 0.21069448112E+01 0.21139257312E+01
 0.21169711574E+01 0.21139215381E+01 0.21069302145E+01 0.21017656704E+01 0.21060592246E+01
 0.21273280763E+01 0.21714197718E+01 0.22414729912E+01 0.23371284699E+01 0.24538026399E+01
 0.25821969716E+01 0.27085626646E+01 0.28163050760E+01 0.28890984488E+01 0.29148501236E+01
 0.28890892873E+01 0.28162997635E+01 0.27085736688E+01 0.31379882242E+01 0.29020751427E+01
 0.26854394564E+01 0.24997035339E+01 0.23501877145E+01 0.22373130553E+01 0.21580073638E+01
 0.21069448112E+01 0.20778357610E+01 0.20649904085E+01 0.20649872904E+01 0.20778239548E+01
 0.21069301893E+01 0.21580131307E+01 0.22373523075E+01 0.23502349004E+01 0.24997155136E+01
 0.26854047784E+01 0.29020259757E+01 0.31379624873E+01 0.33745697282E+01 0.35872861384E+01
 0.37492518582E+01 0.38370879572E+01 0.38370824765E+01 0.37492358572E+01 0.35872661804E+01
 0.33745638841E+01 0.37436350411E+01 0.33695198558E+01 0.30318353478E+01 0.27437999668E+01
 0.25103417421E+01 0.23306608330E+01 0.22004937297E+01 0.21139257312E+01 0.20649904085E+01
 0.20492279515E+01 0.20649790762E+01 0.21139125659E+01 0.22005002864E+01 0.23306993815E+01
 0.25103868397E+01 0.27438046423E+01 0.30317865793E+01 0.33694601808E+01 0.37436160165E+01
 0.41306775084E+01 0.44967470890E+01 0.48011482163E+01 0.50038391824E+01 0.50750824216E+01
 0.50038401273E+01 0.48011323071E+01 0.44967105506E+01 0.41306504546E+01 0.43503549589E+01
 0.38126368370E+01 0.33402479467E+01 0.29458082275E+01 0.26315537745E+01 0.23934213308E+01
 0.22243949243E+01 0.21169711574E+01 0.20649872904E+01 0.20649790762E+01 0.21169578890E+01
 0.22244016220E+01 0.23934599402E+01 0.26315988886E+01 0.29458131030E+01 0.33401972931E+01
 0.38125724770E+01 0.43503335247E+01 0.49265464824E+01 0.54981441608E+01 0.60084153020E+01
 0.63952843672E+01 0.66046253011E+01 0.66046339542E+01 0.63952941335E+01 0.60083979694E+01
 0.54980995264E+01 0.49265146405E+01 0.48945455373E+01 0.41806684758E+01 0.35729363806E+01
 0.30795683584E+01 0.26969547874E+01 0.24155623364E+01 0.22243947971E+01 0.21139215381E+01
 0.20778239548E+01 0.21139125659E+01 0.22244016220E+01 0.24156017027E+01 0.26970047140E+01
 0.30795806989E+01 0.35728889924E+01 0.41805971393E+01 0.48945103101E+01 0.56881865069E+01
 0.65122656646E+01 0.72944223590E+01 0.79468466421E+01 0.83823020057E+01 0.85355553083E+01
 0.83823137614E+01 0.79468480400E+01 0.72943931282E+01 0.65122175799E+01 0.56881637538E+01
 0.53078399488E+01 0.44251567888E+01 0.36983108637E+01 0.31264145526E+01 0.26969564319E+01
 0.23934230084E+01 0.22004891681E+01 0.21069302145E+01 0.21069301893E+01 0.22005002864E+01
 0.23934599402E+01 0.26970047140E+01 0.31264303320E+01 0.36982647556E+01 0.44250748193E+01
 0.53077867939E+01 0.63264769199E+01 0.74318616108E+01 0.85408731524E+01 0.95406129746E+01
 0.10304447900E+02 0.10719840973E+02 0.10719852793E+02 0.10304465940E+02 0.95406021332E+01
 0.85408197864E+01 0.74317987460E+01 0.63264609382E+01 0.55315531145E+01 0.45109480886E+01
 0.36983135431E+01 0.30795696555E+01 0.26315557662E+01 0.23306602074E+01 0.21579937243E+01
 0.21017656704E+01 0.21580131307E+01 0.23306993815E+01 0.26315988886E+01 0.30795806989E+01
 0.36982647556E+01 0.45108584687E+01 0.55314885265E+01 0.67535424345E+01 0.81370037911E+01
 0.95981610498E+01 0.11006794093E+02 0.12197554121E+02 0.13000216038E+02 0.13284219449E+02
 0.13000285044E+02 0.12197618569E+02 0.11006780654E+02 0.95980703504E+01 0.81369105190E+01
 0.67535234449E+01 0.55315553509E+01 0.44251658806E+01 0.35729387103E+01 0.29458027815E+01
 0.25103411738E+01 0.22373083384E+01 0.21060419669E+01 0.21060592246E+01 0.22373523075E+01
 0.25103868397E+01 0.29458131030E+01 0.35728889924E+01 0.44250748193E+01 0.55314885265E+01
 0.69039931732E+01 0.85212298799E+01 0.10312343164E+02 0.12145177892E+02 0.13827470103E+02
 0.15131816699E+02 0.15848060882E+02 0.15848143561E+02 0.15131991461E+02 0.13827587283E+02
 0.12145148924E+02 0.10312209123E+02 0.85211074636E+01 0.69039675825E+01 0.53078557161E+01
 0.41806837723E+01 0.33402378818E+01 0.27437863203E+01 0.23501887272E+01 0.21272936587E+01
 0.20552287986E+01 0.21273280763E+01 0.23502349004E+01 0.27438046423E+01 0.33401972931E+01
 0.41805971393E+01 0.53077867939E+01 0.67535424345E+01 0.85212298799E+01 0.10565268715E+02
 0.12770753473E+02 0.14941159178E+02 0.16809177648E+02 0.18085343112E+02 0.18540094809E+02
 0.18085524174E+02 0.16809399089E+02 0.14941262622E+02 0.12770688183E+02 0.10565111450E+02
 0.85211040804E+01 0.67535216499E+01 0.48945798874E+01 0.38126422265E+01 0.30318084100E+01
 0.24996944181E+01 0.21713898162E+01 0.20152787834E+01 0.20152913730E+01 0.21714197718E+01
 0.24997155136E+01 0.30317865793E+01 0.38125724770E+01 0.48945103101E+01 0.63264769199E+01
 0.81370037911E+01 0.10312343164E+02 0.12770753473E+02 0.15338031883E+02 0.17739149503E+02
 0.19628127745E+02 0.20671510326E+02 0.20671585827E+02 0.19628301201E+02 0.17739303589E+02
 0.15338072353E+02 0.12770670194E+02 0.10312206883E+02 0.81369100787E+01 0.63264772595E+01
 0.43503835148E+01 0.33694971937E+01 0.26854098846E+01 0.22414623883E+01 0.19934292757E+01
 0.19138364170E+01 0.19934369274E+01 0.22414729912E+01 0.26854047784E+01 0.33694601808E+01
 0.43503335247E+01 0.56881865069E+01 0.74318616108E+01 0.95981610498E+01 0.12145177892E+02
 0.14941159178E+02 0.17739149503E+02 0.20179484582E+02 0.21852009070E+02 0.22447262740E+02
 0.21852062950E+02 0.20179563828E+02 0.17739210863E+02 0.14941165753E+02 0.12145122937E+02
 0.95980810045E+01 0.74318144482E+01 0.56882011428E+01 0.37436268627E+01 0.29020325128E+01
 0.23371301525E+01 0.19934418852E+01 0.18316481895E+01 0.18316456433E+01 0.19934385084E+01
 0.23371284699E+01 0.29020259757E+01 0.37436160165E+01 0.49265464824E+01 0.65122656646E+01
 0.85408731524E+01 0.11006794093E+02 0.13827470103E+02 0.16809177648E+02 0.19628127745E+02
 0.21852009070E+02 0.23079955367E+02 0.23079948108E+02 0.21851996582E+02 0.19628129198E+02
 0.16809200282E+02 0.13827495123E+02 0.11006794606E+02 0.85408482206E+01 0.65122425448E+01
 0.49265449001E+01 0.31379482227E+01 0.24538034545E+01 0.20153046473E+01 0.17728907768E+01
 0.16955696467E+01 0.17728802416E+01 0.20152941242E+01 0.24538026399E+01 0.31379624873E+01
 0.41306775084E+01 0.54981441608E+01 0.72944223590E+01 0.95406129746E+01 0.12197554121E+02
 0.15131816699E+02 0.18085343112E+02 0.20671510326E+02 0.22447262740E+02 0.23079948108E+02
 0.22447201292E+02 0.20671431280E+02 0.18085306564E+02 0.15131850335E+02 0.12197625391E+02
 0.95406613934E+01 0.72944196720E+01 0.54981109231E+01 0.41306467621E+01 0.25821903763E+01
 0.20552449983E+01 0.17375348248E+01 0.15889538878E+01 0.15889452051E+01 0.17375155053E+01
 0.20552304443E+01 0.25821969716E+01 0.33745697282E+01 0.44967470890E+01 0.60084153020E+01
 0.79468466421E+01 0.10304447900E+02 0.13000216038E+02 0.15848060882E+02 0.18540094809E+02
 0.20671585827E+02 0.21852062950E+02 0.21851996582E+02 0.20671431280E+02 0.18539957453E+02
 0.15848032170E+02 0.13000300469E+02 0.10304563095E+02 0.79469043286E+01 0.60083965490E+01
 0.44966957567E+01 0.33745330943E+01 0.21060555283E+01 0.17221571812E+01 0.15109838433E+01
 0.14438142484E+01 0.15109663989E+01 0.17221338234E+01 0.21060437122E+01 0.27085626646E+01
 0.35872861384E+01 0.48011482163E+01 0.63952843672E+01 0.83823020057E+01 0.10719840973E+02
 0.13284219449E+02 0.15848143561E+02 0.18085524174E+02 0.19628301201E+02 0.20179563828E+02
 0.19628129198E+02 0.18085306564E+02 0.15848032170E+02 0.13284270733E+02 0.10719981195E+02
 0.83824089921E+01 0.63952980406E+01 0.48010991919E+01 0.35872365496E+01 0.27085454408E+01
 0.17209784704E+01 0.14579160965E+01 0.13350084341E+01 0.13350011337E+01 0.14578987249E+01
 0.17209613991E+01 0.21579967478E+01 0.28163050760E+01 0.37492518582E+01 0.50038391824E+01
 0.66046253011E+01 0.85355553083E+01 0.10719852793E+02 0.13000285044E+02 0.15131991461E+02
 0.16809399089E+02 0.17739303589E+02 0.17739210863E+02 0.16809200282E+02 0.15131850335E+02
 0.13000300469E+02 0.10719981195E+02 0.85356731890E+01 0.66046525783E+01 0.50037925403E+01
 0.37491950653E+01 0.28162782359E+01 0.21579997297E+01 0.14246440339E+01 0.12577915937E+01
 0.12046219113E+01 0.12577855678E+01 0.14246330588E+01 0.17271007419E+01 0.22004911509E+01
 0.28890984488E+01 0.38370879572E+01 0.50750824216E+01 0.66046339542E+01 0.83823137614E+01
 0.10304465940E+02 0.12197618569E+02 0.13827587283E+02 0.14941262622E+02 0.15338072353E+02
 0.14941165753E+02 0.13827495123E+02 0.12197625391E+02 0.10304563095E+02 0.83824089921E+01
 0.66046525783E+01 0.50750320253E+01 0.38370277913E+01 0.28890702578E+01 0.22004933823E+01
 0.17271134680E+01 0.12070476462E+01 0.11135178347E+01 0.11135184566E+01 0.12070451816E+01
 0.14059974446E+01 0.17339786548E+01 0.22243937508E+01 0.29148501236E+01 0.38370824765E+01
 0.50038401273E+01 0.63952941335E+01 0.79468480400E+01 0.95406021332E+01 0.11006780654E+02
 0.12145148924E+02 0.12770688183E+02 0.12770670194E+02 0.12145122937E+02 0.11006794606E+02
 0.95406613934E+01 0.79469043286E+01 0.63952980406E+01 0.50037925403E+01 0.38370277913E+01
 0.29148275094E+01 0.22244052072E+01 0.17340006738E+01 0.14060106493E+01 0.10560706785E+01
 0.10167970941E+01 0.10560747500E+01 0.11784757557E+01 0.13978376514E+01 0.17368507743E+01
 0.22243928938E+01 0.28890892873E+01 0.37492358572E+01 0.48011323071E+01 0.60083979694E+01
 0.72943931282E+01 0.85408197864E+01 0.95980703504E+01 0.10312209123E+02 0.10565111450E+02
 0.10312206883E+02 0.95980810045E+01 0.85408482206E+01 0.72944196720E+01 0.60083965490E+01
 0.48010991919E+01 0.37491950653E+01 0.28890702578E+01 0.22244052072E+01 0.17368792543E+01
 0.13978591886E+01 0.11784802956E+01 0.96126352003E+00 0.96126758093E+00 0.10283409494E+01
 0.11692759978E+01 0.13978404457E+01 0.17339828839E+01 0.22004930052E+01 0.28162997635E+01
 0.35872661804E+01 0.44967105506E+01 0.54980995264E+01 0.65122175799E+01 0.74317987460E+01
 0.81369105190E+01 0.85211074636E+01 0.85211040804E+01 0.81369100787E+01 0.74318144482E+01
 0.65122425448E+01 0.54981109231E+01 0.44966957567E+01 0.35872365496E+01 0.28162782359E+01
 0.22004933823E+01 0.17340006738E+01 0.13978591886E+01 0.11692822705E+01 0.10283359496E+01
 0.91556588725E+00 0.94316184082E+00 0.10283394892E+01 0.11784770112E+01 0.14059997978E+01
 0.17271039984E+01 0.21580066063E+01 0.27085736688E+01 0.33745638841E+01 0.41306504546E+01
 0.49265146405E+01 0.56881637538E+01 0.63264609382E+01 0.67535234449E+01 0.69039675825E+01
 0.67535216499E+01 0.63264772595E+01 0.56882011428E+01 0.49265449001E+01 0.41306467621E+01
 0.33745330943E+01 0.27085454408E+01 0.21579997297E+01 0.17271134680E+01 0.14060106493E+01
 0.11784802956E+01 0.10283359496E+01 0.94315747650E+00 0.99906786250E+00 0.10560740528E+01
 0.11555851789E+01 0.13043032605E+01 0.15108163565E+01 0.17835660991E+01 0.21272994034E+01
 0.25384526783E+01 0.30007782834E+01 0.34830516005E+01 0.39404960756E+01 0.43206944351E+01
 0.45734196420E+01 0.46621326115E+01 0.45734279608E+01 0.43207065776E+01 0.39404987901E+01
 0.34830343858E+01 0.30007522502E+01 0.25384437119E+01 0.21273172390E+01 0.17835918490E+01
 0.15108264222E+01 0.13042953777E+01 0.11555742178E+01 0.10560705970E+01 0.99906943950E+00
 0.98051188511E+00 0.10560740528E+01 0.11135214187E+01 0.12046286083E+01 0.13350093703E+01
 0.15109674878E+01 0.17375051893E+01 0.20152841834E+01 0.23371372536E+01 0.26854378454E+01
 0.30318339084E+01 0.33402466595E+01 0.35729359541E+01 0.36983120343E+01 0.36983159039E+01
 0.35729412432E+01 0.33402401738E+01 0.30318103577E+01 0.26854108011E+01 0.23371293558E+01
 0.20153025430E+01 0.17375323791E+01 0.15109814342E+01 0.13350061871E+01 0.12046205580E+01
 0.11135186827E+01 0.10560761074E+01 0.10283424671E+01 0.10283409284E+01 0.11555851789E+01
 0.12046286083E+01 0.12790381868E+01 0.13837619341E+01 0.15235054421E+01 0.17008593977E+01