unknown system                          
   1.00000000000000     
     0.000000    2.746955    2.746955
     2.746955   -0.000000    2.746955
     2.746955    2.746955    0.000000
   Si
     2
Direct
  0.500000  0.500000  0.500000
  0.750000  0.750000  0.750000
 
   36   36   36
 0.88194     0.89828     0.94834      1.0352      1.1635      1.3391      1.5683      1.8576      2.2124      2.6359    
  3.1268      3.6769      4.2686      4.8743      5.4569      5.9736      6.3813      6.6427      6.7328      6.6427    
  6.3813      5.9736      5.4569      4.8744      4.2687      3.6770      3.1269      2.6359      2.2124      1.8576    
  1.5683      1.3390      1.1635      1.0352     0.94835     0.89828     0.89828     0.92676     0.98549      1.0778    
  1.2081      1.3815      1.6032      1.8778      2.2083      2.5948      3.0329      3.5116      4.0120      4.5074    
  4.9651      5.3495      5.6275      5.7736      5.7736      5.6275      5.3495      4.9651      4.5075      4.0121    
  3.5116      3.0329      2.5948      2.2082      1.8777      1.6031      1.3815      1.2081      1.0778     0.98549    
 0.92676     0.89828     0.94834     0.98549      1.0498      1.1447      1.2740      1.4422      1.6531      1.9096    
  2.2125      2.5594      2.9436      3.3523      3.7668      4.1625      4.5115      4.7858      4.9614      5.0218    
  4.9614      4.7858      4.5115      4.1625      3.7668      3.3523      2.9436      2.5594      2.2124      1.9095    
  1.6531      1.4422      1.2740      1.1447      1.0498     0.98549     0.94834     0.93621      1.0352      1.0778    
  1.1447      1.2390      1.3643      1.5239      1.7207      1.9557      2.2281      2.5336      2.8640      3.2059    
  3.5417      3.8498      4.1075      4.2933      4.3908      4.3908      4.2933      4.1075      3.8498      3.5417    
  3.2059      2.8639      2.5336      2.2281      1.9557      1.7207      1.5240      1.3643      1.2390      1.1447    
  1.0778      1.0352      1.0145      1.0145      1.1635      1.2081      1.2740      1.3643      1.4818      1.6292    
  1.8080      2.0181      2.2573      2.5201      2.7976      3.0769      3.3422      3.5751      3.7578      3.8744    
  3.9146      3.8744      3.7578      3.5751      3.3422      3.0769      2.7975      2.5200      2.2572      2.0181    
  1.8080      1.6292      1.4819      1.3643      1.2740      1.2081      1.1635      1.1378      1.1295      1.1378    
  1.3391      1.3815      1.4422      1.5239      1.6292      1.7597      1.9163      2.0977      2.3010      2.5201    
  2.7462      2.9676      3.1705      3.3400      3.4622      3.5262      3.5262      3.4622      3.3399      3.1705    
  2.9676      2.7462      2.5201      2.3010      2.0978      1.9163      1.7598      1.6292      1.5240      1.4422    
  1.3815      1.3390      1.3124      1.2997      1.2997      1.3124      1.5683      1.6032      1.6531      1.7207    
  1.8080      1.9163      2.0456      2.1943      2.3590      2.5336      2.7102      2.8784      3.0266      3.1431    
  3.2177      3.2434      3.2177      3.1431      3.0266      2.8784      2.7102      2.5337      2.3590      2.1944    
  2.0456      1.9163      1.8080      1.7207      1.6531      1.6031      1.5683      1.5458      1.5334      1.5295    
  1.5334      1.5458      1.8576      1.8778      1.9096      1.9557      2.0181      2.0977      2.1943      2.3061    
  2.4296      2.5594      2.6885      2.8081      2.9090      2.9823      3.0209      3.0209      2.9823      2.9090    
  2.8081      2.6885      2.5595      2.4296      2.3061      2.1944      2.0977      2.0181      1.9557      1.9095    
  1.8777      1.8576      1.8461      1.8404      1.8382      1.8382      1.8404      1.8461      2.2124      2.2083    
  2.2125      2.2281      2.2573      2.3010      2.3590      2.4296      2.5098      2.5948      2.6788      2.7548    
  2.8157      2.8551      2.8688      2.8551      2.8157      2.7548      2.6788      2.5948      2.5098      2.4296    
  2.3590      2.3010      2.2572      2.2281      2.2124      2.2082      2.2124      2.2214      2.2313      2.2388    
  2.2416      2.2388      2.2313      2.2214      2.6359      2.5948      2.5594      2.5336      2.5201      2.5201    
  2.5336      2.5594      2.5948      2.6359      2.6781      2.7160      2.7446      2.7601      2.7601      2.7447    
  2.7160      2.6781      2.6359      2.5948      2.5594      2.5336      2.5200      2.5200      2.5336      2.5594    
  2.5948      2.6359      2.6781      2.7160      2.7447      2.7601      2.7601      2.7446      2.7160      2.6781    
  3.1268      3.0329      2.9436      2.8640      2.7976      2.7462      2.7102      2.6885      2.6788      2.6781    
  2.6827      2.6893      2.6946      2.6966      2.6946      2.6893      2.6828      2.6781      2.6788      2.6884    
  2.7101      2.7461      2.7975      2.8639      2.9436      3.0329      3.1269      3.2189      3.3016      3.3675    
  3.4100      3.4247      3.4100      3.3674      3.3015      3.2188      3.6769      3.5116      3.3523      3.2059    
  3.0769      2.9676      2.8784      2.8081      2.7548      2.7160      2.6893      2.6727      2.6648      2.6648    
  2.6728      2.6893      2.7160      2.7547      2.8080      2.8783      2.9676      3.0769      3.2059      3.3524    
  3.5116      3.6769      3.8393      3.9883      4.1129      4.2028      4.2499      4.2499      4.2028      4.1129    
  3.9883      3.8393      4.2686      4.0120      3.7668      3.5417      3.3422      3.1705      3.0266      2.9090    
  2.8157      2.7446      2.6946      2.6648      2.6549      2.6648      2.6946      2.7446      2.8156      2.9089    
  3.0265      3.1704      3.3421      3.5417      3.7668      4.0121      4.2687      4.5247      4.7656      4.9756    
  5.1393      5.2434      5.2791      5.2434      5.1393      4.9756      4.7656      4.5247      4.8743      4.5074    
  4.1625      3.8498      3.5751      3.3400      3.1431      2.9823      2.8551      2.7601      2.6966      2.6648    
  2.6648      2.6967      2.7601      2.8551      2.9822      3.1430      3.3399      3.5751      3.8499      4.1625    
  4.5075      4.8743      5.2478      5.6085      5.9345      6.2038      6.3963      6.4966      6.4966      6.3963    
  6.2038      5.9346      5.6085      5.2477      5.4569      4.9651      4.5115      4.1075      3.7578      3.4622    
  3.2177      3.0209      2.8688      2.7601      2.6946      2.6728      2.6946      2.7601      2.8687      3.0208    
  3.2176      3.4621      3.7578      4.1075      4.5116      4.9651      5.4569      5.9688      6.4761      6.9501    
  7.3604      7.6780      7.8793      7.9482      7.8793      7.6781      7.3604      6.9502      6.4761      5.9688    
  5.9736      5.3495      4.7858      4.2933      3.8744      3.5262      3.2434      3.0209      2.8551      2.7447    
  2.6893      2.6893      2.7446      2.8551      3.0208      3.2433      3.5262      3.8744      4.2934      4.7859    
  5.3495      5.9736      6.6382      7.3141      7.9653      8.5520      9.0350      9.3793      9.5586      9.5586    
  9.3793      9.0350      8.5521      7.9653      7.3142      6.6382      6.3813      5.6275      4.9614      4.3908    
  3.9146      3.5262      3.2177      2.9823      2.8157      2.7160      2.6828      2.7160      2.8156      2.9822    
  3.2176      3.5262      3.9146      4.3908      4.9614      5.6275      6.3812      7.2026      8.0596      8.9098    
  9.7043      10.392      10.925      11.263      11.379      11.263      10.925      10.392      9.7043      8.9098    
  8.0597      7.2027      6.6427      5.7736      5.0218      4.3908      3.8744      3.4622      3.1431      2.9090    
  2.7548      2.6781      2.6781      2.7547      2.9089      3.1430      3.4621      3.8744      4.3908      5.0218    
  5.7736      6.6426      7.6119      8.6490      9.7077      10.731      11.658      12.425      12.974      13.262    
  13.262      12.974      12.425      11.658      10.731      9.7077      8.6491      7.6120      6.7328      5.7736    
  4.9614      4.2933      3.7578      3.3399      3.0266      2.8081      2.6788      2.6359      2.6788      2.8080    
  3.0265      3.3399      3.7578      4.2934      4.9614      5.7736      6.7327      7.8272      9.0277      10.287    
  11.546      12.732      13.770      14.583      15.103      15.282      15.103      14.583      13.770      12.732    
  11.546      10.287      9.0277      7.8273      6.6427      5.6275      4.7858      4.1075      3.5751      3.1705    
  2.8784      2.6885      2.5948      2.5948      2.6884      2.8783      3.1704      3.5751      4.1075      4.7859    
  5.6275      6.6426      7.8272      9.1583      10.593      12.070      13.516      14.845      15.959      16.761    
  17.180      17.180      16.761      15.959      14.844      13.516      12.070      10.593      9.1583      7.8273    
  6.3813      5.3495      4.5115      3.8498      3.3422      2.9676      2.7102      2.5595      2.5098      2.5594    
  2.7101      2.9676      3.3421      3.8499      4.5116      5.3495      6.3812      7.6119      9.0277      10.593    
  12.251      13.931      15.541      16.966      18.081      18.792      19.036      18.792      18.081      16.965    
  15.541      13.930      12.251      10.593      9.0277      7.6120      5.9736      4.9651      4.1625      3.5417    
  3.0769      2.7462      2.5337      2.4296      2.4296      2.5336      2.7461      3.0769      3.5417      4.1625    
  4.9651      5.9736      7.2026      8.6490      10.287      12.070      13.931      15.782      17.498      18.933    
  19.967      20.509      20.509      19.967      18.933      17.497      15.782      13.930      12.070      10.287    
  8.6490      7.2026      5.4569      4.5075      3.7668      3.2059      2.7975      2.5201      2.3590      2.3061    
  2.3590      2.5200      2.7975      3.2059      3.7668      4.5075      5.4569      6.6382      8.0596      9.7077    
  11.546      13.516      15.541      17.498      19.227      20.587      21.459      21.760      21.459      20.587    
  19.227      17.497      15.541      13.516      11.546      9.7076      8.0596      6.6382      4.8744      4.0121    
  3.3523      2.8639      2.5200      2.3010      2.1944      2.1944      2.3010      2.5200      2.8639      3.3524    
  4.0121      4.8743      5.9688      7.3141      8.9098      10.731      12.732      14.845      16.966      18.933    
  20.587      21.788      22.421      22.421      21.788      20.587      18.933      16.965      14.844      12.732    
  10.731      8.9098      7.3141      5.9688      4.2687      3.5116      2.9436      2.5336      2.2572      2.0978    
  2.0456      2.0977      2.2572      2.5336      2.9436      3.5116      4.2687      5.2478      6.4761      7.9653    
  9.7043      11.658      13.770      15.959      18.081      19.967      21.459      22.421      22.754      22.421    
  21.459      19.967      18.081      15.959      13.770      11.658      9.7042      7.9653      6.4761      5.2478    
  3.6770      3.0329      2.5594      2.2281      2.0181      1.9163      1.9163      2.0181      2.2281      2.5594    
  3.0329      3.6769      4.5247      5.6085      6.9501      8.5520      10.392      12.425      14.583      16.761    
  18.792      20.509      21.760      22.421      22.421      21.760      20.509      18.792      16.761      14.583    
  12.425      10.392      8.5520      6.9501      5.6085      4.5248      3.1269      2.5948      2.2124      1.9557    
  1.8080      1.7598      1.8080      1.9557      2.2124      2.5948      3.1269      3.8393      4.7656      5.9345    
  7.3604      9.0350      10.925      12.974      15.103      17.180      19.036      20.509      21.459      21.788    
  21.459      20.509      19.036      17.180      15.103      12.974      10.925      9.0350      7.3604      5.9346    
  4.7657      3.8394      2.6359      2.2082      1.9095      1.7207      1.6292      1.6292      1.7207      1.9095    
  2.2082      2.6359      3.2189      3.9883      4.9756      6.2038      7.6780      9.3793      11.263      13.262    
  15.282      17.180      18.792      19.967      20.587      20.587      19.967      18.792      17.180      15.282    
  13.262      11.263      9.3793      7.6781      6.2039      4.9757      3.9884      3.2189      2.2124      1.8777    
  1.6531      1.5240      1.4819      1.5240      1.6531      1.8777      2.2124      2.6781      3.3016      4.1129    
  5.1393      6.3963      7.8793      9.5586      11.379      13.262      15.103      16.761      18.081      18.933    
  19.227      18.933      18.081      16.761      15.103      13.262      11.379      9.5586      7.8793      6.3963    
  5.1394      4.1130      3.3016      2.6781      1.8576      1.6031      1.4422      1.3643      1.3643      1.4422    
  1.6031      1.8576      2.2214      2.7160      3.3675      4.2028      5.2434      6.4966      7.9482      9.5586    
  11.263      12.974      14.583      15.959      16.965      17.497      17.497      16.965      15.959      14.583    
  12.974      11.263      9.5586      7.9482      6.4967      5.2435      4.2029      3.3675      2.7160      2.2213    
  1.5683      1.3815      1.2740      1.2390      1.2740      1.3815      1.5683      1.8461      2.2313      2.7447    
  3.4100      4.2499      5.2791      6.4966      7.8793      9.3793      10.925      12.425      13.770      14.844    
  15.541      15.782      15.541      14.844      13.770      12.425      10.925      9.3793      7.8793      6.4967    
  5.2792      4.2500      3.4100      2.7447      2.2313      1.8461      1.3390      1.2081      1.1447      1.1447    
  1.2081      1.3390      1.5458      1.8404      2.2388      2.7601      3.4247      4.2499      5.2434      6.3963    
  7.6781      9.0350      10.392      11.658      12.732      13.516      13.930      13.930      13.516      12.732    
  11.658      10.392      9.0350      7.6781      6.3963      5.2435      4.2500      3.4248      2.7601      2.2388    
  1.8404      1.5458      1.1635      1.0778      1.0498      1.0778      1.1635      1.3124      1.5334      1.8382    
  2.2416      2.7601      3.4100      4.2028      5.1393      6.2038      7.3604      8.5521      9.7043      10.731    
  11.546      12.070      12.251      12.070      11.546      10.731      9.7042      8.5520      7.3604      6.2039    
  5.1394      4.2029      3.4100      2.7601      2.2416      1.8382      1.5334      1.3124      1.0352     0.98549    
 0.98549      1.0352      1.1378      1.2997      1.5295      1.8382      2.2388      2.7446      3.3674      4.1129    
  4.9756      5.9346      6.9502      7.9653      8.9098      9.7077      10.287      10.593      10.593      10.287    
  9.7076      8.9098      7.9653      6.9501      5.9346      4.9757      4.1130      3.3675      2.7447      2.2388    
  1.8382      1.5294      1.2997      1.1378     0.94835     0.92676     0.94834      1.0145      1.1295      1.2997    
  1.5334      1.8404      2.2313      2.7160      3.3015      3.9883      4.7656      5.6085      6.4761      7.3142    
  8.0597      8.6491      9.0277      9.1583      9.0277      8.6490      8.0596      7.3141      6.4761      5.6085    
  4.7657      3.9884      3.3016      2.7160      2.2313      1.8404      1.5334      1.2997      1.1295      1.0145    
 0.89828     0.89828     0.93621      1.0145      1.1378      1.3124      1.5458      1.8461      2.2214      2.6781    
  3.2188      3.8393      4.5247      5.2477      5.9688      6.6382      7.2027      7.6120      7.8273      7.8273    
  7.6120      7.2026      6.6382      5.9688      5.2478      4.5248      3.8394      3.2189      2.6781      2.2213    
  1.8461      1.5458      1.3124      1.1378      1.0145     0.93622     0.89828     0.92676     0.98549      1.0778    
  1.2081      1.3815      1.6032      1.8778      2.2083      2.5948      3.0329      3.5116      4.0120      4.5074    
  4.9651      5.3495      5.6275      5.7736      5.7736      5.6275      5.3495      4.9651      4.5075      4.0121    
  3.5116      3.0329      2.5948      2.2082      1.8777      1.6031      1.3815      1.2081      1.0778     0.98549    
 0.92676     0.89828     0.92676     0.96329      1.0265      1.1196      1.2465      1.4115      1.6185      1.8705    
  2.1683      2.5098      2.8879      3.2903      3.6982      4.0874      4.4305      4.7000      4.8724      4.9317    
  4.8724      4.7000      4.4305      4.0874      3.6982      3.2903      2.8879      2.5097      2.1683      1.8705    
  1.6185      1.4115      1.2465      1.1196      1.0265     0.96329     0.92676     0.91482     0.98549      1.0265    
  1.0908      1.1813      1.3016      1.4549      1.6442      1.8708      2.1340      2.4296      2.7494      3.0804    
  3.4051      3.7028      3.9513      4.1303      4.2241      4.2241      4.1303      3.9513      3.7028      3.4051    
  3.0804      2.7494      2.4296      2.1339      1.8707      1.6441      1.4549      1.3016      1.1813      1.0908    
  1.0265     0.98548     0.96556     0.96557      1.0778      1.1196      1.1813      1.2657      1.3758      1.5142    
  1.6828      1.8817      2.1089      2.3590      2.6231      2.8889      3.1408      3.3615      3.5342      3.6443    
  3.6822      3.6443      3.5342      3.3615      3.1408      2.8889      2.6231      2.3589      2.1088      1.8817    
  1.6828      1.5142      1.3758      1.2658      1.1813      1.1196      1.0778      1.0536      1.0458      1.0537    
  1.2081      1.2465      1.3016      1.3758      1.4719      1.5919      1.7367      1.9056      2.0957      2.3010    
  2.5128      2.7200      2.9092      3.0668      3.1802      3.2395      3.2395      3.1802      3.0668      2.9092    
  2.7200      2.5128      2.3010      2.0956      1.9056      1.7367      1.5919      1.4719      1.3758      1.3016    
  1.2465      1.2081      1.1839      1.1723      1.1723      1.1839      1.3815      1.4115      1.4549      1.5142    
  1.5919      1.6894      1.8071      1.9437      2.0957      2.2573      2.4205      2.5756      2.7119      2.8186    
  2.8868      2.9102      2.8868      2.8186      2.7119      2.5756      2.4205      2.2573      2.0957      1.9437    
  1.8071      1.6894      1.5919      1.5142      1.4549      1.4115      1.3815      1.3622      1.3516      1.3482    
  1.3516      1.3622      1.6032      1.6185      1.6442      1.6828      1.7367      1.8071      1.8940      1.9957    
  2.1089      2.2281      2.3465      2.4560      2.5480      2.6147      2.6497      2.6497      2.6147      2.5480    
  2.4560      2.3465      2.2281      2.1089      1.9958      1.8940      1.8071      1.7367      1.6828      1.6441    
  1.6185      1.6032      1.5951      1.5915      1.5903      1.5903      1.5915      1.5951      1.8778      1.8705    
  1.8708      1.8817      1.9056      1.9437      1.9957      2.0602      2.1340      2.2125      2.2900      2.3600    
  2.4160      2.4522      2.4647      2.4522      2.4160      2.3600      2.2900      2.2125      2.1340      2.0602    
  1.9957      1.9437      1.9056      1.8817      1.8708      1.8705      1.8777      1.8889      1.9002      1.9085    
  1.9115      1.9085      1.9002      1.8889      2.2083      2.1683      2.1340      2.1089      2.0957      2.0957    
  2.1089      2.1340      2.1683      2.2083      2.2491      2.2858      2.3136      2.3285      2.3285      2.3136    
  2.2858      2.2491      2.2082      2.1683      2.1339      2.1089      2.0956      2.0956      2.1089      2.1339    
  2.1683      2.2082      2.2491      2.2858      2.3136      2.3285      2.3285      2.3136      2.2858      2.2491    
  2.5948      2.5098      2.4296      2.3590      2.3010      2.2573      2.2281      2.2125      2.2083      2.2124    
  2.2214      2.2313      2.2388      2.2416      2.2388      2.2313      2.2214      2.2124      2.2082      2.2124    
  2.2281      2.2572      2.3010      2.3590      2.4296      2.5098      2.5948      2.6788      2.7548      2.8157    
  2.8551      2.8688      2.8551      2.8157      2.7548      2.6788      3.0329      2.8879      2.7494      2.6231    
  2.5128      2.4205      2.3465      2.2900      2.2491      2.2214      2.2040      2.1942      2.1900      2.1900    
  2.1942      2.2040      2.2213      2.2491      2.2899      2.3465      2.4205      2.5128      2.6231      2.7494    
  2.8880      3.0330      3.1767      3.3098      3.4219      3.5033      3.5462      3.5462      3.5033      3.4219    
  3.3097      3.1767      3.5116      3.2903      3.0804      2.8889      2.7200      2.5756      2.4560      2.3600    
  2.2858      2.2313      2.1942      2.1728      2.1658      2.1728      2.1942      2.2312      2.2858      2.3599    
  2.4559      2.5756      2.7200      2.8889      3.0805      3.2904      3.5116      3.7345      3.9463      4.1328    
  4.2795      4.3734      4.4057      4.3734      4.2795      4.1328      3.9463      3.7344      4.0120      3.6982    
  3.4051      3.1408      2.9092      2.7119      2.5480      2.4160      2.3136      2.2388      2.1900      2.1658    
  2.1658      2.1899      2.2388      2.3135      2.4159      2.5480      2.7118      2.9092      3.1408      3.4052    
  3.6982      4.0121      4.3346      4.6498      4.9381      5.1790      5.3527      5.4438      5.4438      5.3527    
  5.1790      4.9381      4.6497      4.3346      4.5074      4.0874      3.7028      3.3615      3.0668      2.8186    
  2.6147      2.4522      2.3285      2.2416      2.1900      2.1728      2.1899      2.2416      2.3285      2.4521    
  2.6146      2.8186      3.0669      3.3616      3.7028      4.0875      4.5075      4.9491      5.3926      5.8127    
  6.1813      6.4701      6.6546      6.7181      6.6546      6.4702      6.1814      5.8127      5.3925      4.9491    
  4.9651      4.4305      3.9513      3.5342      3.1802      2.8868      2.6497      2.4647      2.3285      2.2388    
  2.1942      2.1942      2.2388      2.3285      2.4647      2.6496      2.8868      3.1802      3.5342      3.9513    
  4.4305      4.9651      5.5406      6.1341      6.7150      7.2465      7.6902      8.0098      8.1773      8.1773    
  8.0098      7.6902      7.2466      6.7150      6.1341      5.5406      5.3495      4.7000      4.1303      3.6443    
  3.2395      2.9102      2.6497      2.4522      2.3136      2.2313      2.2040      2.2312      2.3135      2.4521    
  2.6496      2.9102      3.2396      3.6444      4.1304      4.7000      5.3495      6.0655      6.8237      7.5885    
  8.3153      8.9542      9.4551      9.7754      9.8856      9.7753      9.4551      8.9541      8.3153      7.5885    
  6.8236      6.0655      5.6275      4.8724      4.2241      3.6822      3.2395      2.8868      2.6147      2.4160    
  2.2858      2.2214      2.2213      2.2858      2.4159      2.6146      2.8868      3.2396      3.6822      4.2242    
  4.8724      5.6275      6.4798      7.4057      8.3673      9.3133      10.183      10.911      11.437      11.714    
  11.714      11.437      10.911      10.183      9.3133      8.3673      7.4057      6.4798      5.7736      4.9317    
  4.2241      3.6443      3.1802      2.8186      2.5480      2.3600      2.2491      2.2124      2.2491      2.3599    
  2.5480      2.8186      3.1802      3.6444      4.2242      4.9317      5.7736      6.7456      7.8283      8.9843    
  10.159      11.283      12.277      13.062      13.565      13.739      13.565      13.061      12.277      11.283    
  10.159      8.9842      7.8282      6.7456      5.7736      4.8724      4.1303      3.5342      3.0668      2.7119    
  2.4560      2.2900      2.2082      2.2082      2.2899      2.4559      2.7118      3.0669      3.5342      4.1304    
  4.8724      5.7736      6.8372      8.0507      9.3811      10.775      12.158      13.441      14.526      15.317    
  15.735      15.735      15.317      14.526      13.441      12.158      10.775      9.3810      8.0506      6.8372    
  5.6275      4.7000      3.9513      3.3615      2.9092      2.5756      2.3465      2.2125      2.1683      2.2124    
  2.3465      2.5756      2.9092      3.3616      3.9513      4.7000      5.6275      6.7456      8.0507      9.5181    
  11.099      12.723      14.293      15.700      16.824      17.552      17.804      17.552      16.824      15.700    
  14.293      12.722      11.099      9.5180      8.0506      6.7456      5.3495      4.4305      3.7028      3.1408    
  2.7200      2.4205      2.2281      2.1340      2.1339      2.2281      2.4205      2.7200      3.1408      3.7028    
  4.4305      5.3495      6.4798      7.8283      9.3811      11.099      12.918      14.745      16.463      17.936    
  19.020      19.594      19.594      19.020      17.936      16.463      14.745      12.918      11.099      9.3810    
  7.8282      6.4798      4.9651      4.0874      3.4051      2.8889      2.5128      2.2573      2.1089      2.0602    
  2.1089      2.2572      2.5128      2.8889      3.4052      4.0875      4.9651      6.0655      7.4057      8.9843    
  10.775      12.723      14.745      16.728      18.528      19.976      20.916      21.242      20.916      19.976    
  18.528      16.728      14.745      12.722      10.775      8.9842      7.4057      6.0655      4.5075      3.6982    
  3.0804      2.6231      2.3010      2.0957      1.9958      1.9957      2.0956      2.3010      2.6231      3.0805    
  3.6982      4.5075      5.5406      6.8237      8.3673      10.159      12.158      14.293      16.463      18.528    
  20.308      21.620      22.316      22.317      21.620      20.308      18.528      16.463      14.293      12.158    
  10.159      8.3673      6.8236      5.5406      4.0121      3.2903      2.7494      2.3589      2.0956      1.9437    
  1.8940      1.9437      2.0956      2.3590      2.7494      3.2904      4.0121      4.9491      6.1341      7.5885    
  9.3133      11.283      13.441      15.700      17.936      19.976      21.620      22.690      23.062      22.690    
  21.620      19.976      17.936      15.700      13.441      11.283      9.3132      7.5885      6.1342      4.9492    
  3.5116      2.8879      2.4296      2.1088      1.9056      1.8071      1.8071      1.9056      2.1089      2.4296    
  2.8880      3.5116      4.3346      5.3926      6.7150      8.3153      10.183      12.277      14.526      16.824    
  19.020      20.916      22.316      23.062      23.062      22.317      20.916      19.020      16.824      14.526    
  12.277      10.183      8.3153      6.7150      5.3926      4.3346      3.0329      2.5097      2.1339      1.8817    
  1.7367      1.6894      1.7367      1.8817      2.1339      2.5098      3.0330      3.7345      4.6498      5.8127    
  7.2465      8.9542      10.911      13.062      15.317      17.552      19.594      21.242      22.317      22.690    
  22.317      21.243      19.594      17.552      15.317      13.062      10.911      8.9541      7.2466      5.8128    
  4.6498      3.7345      2.5948      2.1683      1.8707      1.6828      1.5919      1.5919      1.6828      1.8708    
  2.1683      2.5948      3.1767      3.9463      4.9381      6.1813      7.6902      9.4551      11.437      13.565    
  15.735      17.804      19.594      20.916      21.620      21.620      20.916      19.594      17.804      15.735    
  13.565      11.437      9.4551      7.6902      6.1815      4.9383      3.9464      3.1767      2.2082      1.8705    
  1.6441      1.5142      1.4719      1.5142      1.6441      1.8705      2.2082      2.6788      3.3098      4.1328    
  5.1790      6.4701      8.0098      9.7754      11.714      13.739      15.735      17.552      19.020      19.976    
  20.308      19.976      19.020      17.552      15.735      13.739      11.714      9.7753      8.0099      6.4703    
  5.1791      4.1329      3.3098      2.6788      1.8777      1.6185      1.4549      1.3758      1.3758      1.4549    
  1.6185      1.8777      2.2491      2.7548      3.4219      4.2795      5.3527      6.6546      8.1773      9.8856    
  11.714      13.565      15.317      16.824      17.936      18.528      18.528      17.936      16.824      15.317    
  13.565      11.714      9.8856      8.1774      6.6548      5.3528      4.2795      3.4219      2.7548      2.2491    
  1.6031      1.4115      1.3016      1.2658      1.3016      1.4115      1.6032      1.8889      2.2858      2.8157    
  3.5033      4.3734      5.4438      6.7181      8.1773      9.7753      11.437      13.061      14.526      15.700    
  16.463      16.728      16.463      15.700      14.526      13.062      11.437      9.7753      8.1774      6.7182    
  5.4440      4.3734      3.5033      2.8156      2.2858      1.8888      1.3815      1.2465      1.1813      1.1813    
  1.2465      1.3815      1.5951      1.9002      2.3136      2.8551      3.5462      4.4057      5.4438      6.6546    
  8.0098      9.4551      10.911      12.277      13.441      14.293      14.745      14.745      14.293      13.441    
  12.277      10.911      9.4551      8.0099      6.6548      5.4440      4.4058      3.5462      2.8551      2.3135    
  1.9002      1.5950      1.2081      1.1196      1.0908      1.1196      1.2081      1.3622      1.5915      1.9085    
  2.3285      2.8688      3.5462      4.3734      5.3527      6.4702      7.6902      8.9541      10.183      11.283    
  12.158      12.722      12.918      12.722      12.158      11.283      10.183      8.9541      7.6902      6.4703    
  5.3528      4.3734      3.5462      2.8687      2.3285      1.9084      1.5915      1.3622      1.0778      1.0265    