   2   2   0   0
  0.2001288E+02  0.3839590E-09  0.3839590E-09  0.3839590E-09  0.5000000E-15
  1.000000000000000E-004
  CAR 
 unknown system                          
     17.17383773     -8.19866946  301      5.91502806      1.00000000
     -8.199  0.0000E+00  0.0000E+00
     -8.114  0.0000E+00  0.0000E+00
     -8.030  0.0000E+00  0.0000E+00
     -7.945  0.0000E+00  0.0000E+00
     -7.860  0.0000E+00  0.0000E+00
     -7.776  0.0000E+00  0.0000E+00
     -7.691  0.0000E+00  0.0000E+00
     -7.607  0.0000E+00  0.0000E+00
     -7.522  0.0000E+00  0.0000E+00
     -7.437  0.0000E+00  0.0000E+00
     -7.353  0.1973E-18  0.1668E-19
     -7.268  0.2354E-16  0.2007E-17
     -7.184  0.1973E-14  0.1689E-15
     -7.099  0.1174E-12  0.1010E-13
     -7.015  0.4960E-11  0.4296E-12
     -6.930  0.1497E-09  0.1309E-10
     -6.845  0.3249E-08  0.2879E-09
     -6.761  0.5124E-07  0.4621E-08
     -6.676  0.5933E-06  0.5480E-07
     -6.592  0.5098E-05  0.4860E-06
     -6.507  0.3276E-04  0.3257E-05
     -6.423  0.1582E-03  0.1663E-04
     -6.338  0.5748E-03  0.6525E-04
     -6.253  0.1582E-02  0.1990E-03
     -6.169  0.3359E-02  0.4831E-03
     -6.084  0.5750E-02  0.9694E-03
     -6.000  0.8462E-02  0.1685E-02
     -5.915  0.1126E-01  0.2637E-02
     -5.831  0.1358E-01  0.3786E-02
     -5.746  0.1491E-01  0.5047E-02
     -5.661  0.1600E-01  0.6400E-02
     -5.577  0.1814E-01  0.7934E-02
     -5.492  0.2092E-01  0.9703E-02
     -5.408  0.2264E-01  0.1162E-01
     -5.323  0.2268E-01  0.1354E-01
     -5.239  0.2210E-01  0.1540E-01
     -5.154  0.2280E-01  0.1733E-01
     -5.069  0.2604E-01  0.1954E-01
     -4.985  0.3030E-01  0.2210E-01
     -4.900  0.3250E-01  0.2485E-01
     -4.816  0.3183E-01  0.2754E-01
     -4.731  0.2989E-01  0.3007E-01
     -4.647  0.2862E-01  0.3249E-01
     -4.562  0.3019E-01  0.3504E-01
     -4.477  0.3573E-01  0.3806E-01
     -4.393  0.4261E-01  0.4167E-01
     -4.308  0.4623E-01  0.4558E-01
     -4.224  0.4500E-01  0.4938E-01
     -4.139  0.4149E-01  0.5289E-01
     -4.054  0.3998E-01  0.5627E-01
     -3.970  0.4399E-01  0.5999E-01
     -3.885  0.5353E-01  0.6452E-01
     -3.801  0.6281E-01  0.6983E-01
     -3.716  0.6464E-01  0.7530E-01
     -3.632  0.5863E-01  0.8026E-01
     -3.547  0.5042E-01  0.8452E-01
     -3.462  0.4486E-01  0.8832E-01
     -3.378  0.4451E-01  0.9208E-01
     -3.293  0.4887E-01  0.9621E-01
     -3.209  0.5229E-01  0.1006E+00
     -3.124  0.4896E-01  0.1048E+00
     -3.040  0.4056E-01  0.1082E+00
     -2.955  0.3397E-01  0.1111E+00
     -2.870  0.3329E-01  0.1139E+00
     -2.786  0.3667E-01  0.1170E+00
     -2.701  0.3858E-01  0.1203E+00
     -2.617  0.3489E-01  0.1232E+00
     -2.532  0.2712E-01  0.1255E+00
     -2.448  0.2032E-01  0.1272E+00
     -2.363  0.1737E-01  0.1287E+00
     -2.278  0.1717E-01  0.1301E+00
     -2.194  0.1691E-01  0.1316E+00
     -2.109  0.1516E-01  0.1329E+00
     -2.025  0.1270E-01  0.1339E+00
     -1.940  0.1102E-01  0.1349E+00
     -1.856  0.1058E-01  0.1358E+00
     -1.771  0.1108E-01  0.1367E+00
     -1.686  0.1320E-01  0.1378E+00
     -1.602  0.1860E-01  0.1394E+00
     -1.517  0.2777E-01  0.1417E+00
     -1.433  0.3805E-01  0.1449E+00
     -1.348  0.4555E-01  0.1488E+00
     -1.264  0.5070E-01  0.1531E+00
     -1.179  0.5843E-01  0.1580E+00
     -1.094  0.6961E-01  0.1639E+00
     -1.010  0.7778E-01  0.1705E+00
     -0.925  0.7775E-01  0.1771E+00
     -0.841  0.7149E-01  0.1831E+00
     -0.756  0.6269E-01  0.1884E+00
     -0.671  0.5254E-01  0.1929E+00
     -0.587  0.4349E-01  0.1965E+00
     -0.502  0.4000E-01  0.1999E+00
     -0.418  0.4151E-01  0.2034E+00
     -0.333  0.4158E-01  0.2070E+00
     -0.249  0.3716E-01  0.2101E+00
     -0.164  0.3217E-01  0.2128E+00
     -0.079  0.3017E-01  0.2154E+00
      0.005  0.2947E-01  0.2179E+00
      0.090  0.2752E-01  0.2202E+00
      0.174  0.2572E-01  0.2224E+00
      0.259  0.2624E-01  0.2246E+00
      0.343  0.2745E-01  0.2269E+00
      0.428  0.2627E-01  0.2291E+00
      0.513  0.2271E-01  0.2310E+00
      0.597  0.1970E-01  0.2327E+00
      0.682  0.1954E-01  0.2344E+00
      0.766  0.2126E-01  0.2362E+00
      0.851  0.2117E-01  0.2380E+00
      0.935  0.1711E-01  0.2394E+00
      1.020  0.1171E-01  0.2404E+00
      1.105  0.1033E-01  0.2413E+00
      1.189  0.1638E-01  0.2426E+00
      1.274  0.2855E-01  0.2451E+00
      1.358  0.4178E-01  0.2486E+00
      1.443  0.5187E-01  0.2530E+00
      1.527  0.5801E-01  0.2579E+00
      1.612  0.6112E-01  0.2631E+00
      1.697  0.6373E-01  0.2684E+00
      1.781  0.6953E-01  0.2743E+00
      1.866  0.7778E-01  0.2809E+00
      1.950  0.8150E-01  0.2878E+00
      2.035  0.7659E-01  0.2943E+00
      2.119  0.6803E-01  0.3000E+00
      2.204  0.6324E-01  0.3054E+00
      2.289  0.6436E-01  0.3108E+00
      2.373  0.6987E-01  0.3167E+00
      2.458  0.7790E-01  0.3233E+00
      2.542  0.8509E-01  0.3305E+00
      2.627  0.8709E-01  0.3379E+00
      2.712  0.8461E-01  0.3450E+00
      2.796  0.8535E-01  0.3523E+00
      2.881  0.9449E-01  0.3602E+00
      2.965  0.1059E+00  0.3692E+00
      3.050  0.1083E+00  0.3784E+00
      3.134  0.9973E-01  0.3868E+00
      3.219  0.9077E-01  0.3945E+00
      3.304  0.9038E-01  0.4021E+00
      3.388  0.9422E-01  0.4101E+00
      3.473  0.9259E-01  0.4179E+00
      3.557  0.8561E-01  0.4252E+00
      3.642  0.8303E-01  0.4322E+00
      3.726  0.8949E-01  0.4397E+00
      3.811  0.9744E-01  0.4480E+00
      3.896  0.9746E-01  0.4562E+00
      3.980  0.9000E-01  0.4638E+00
      4.065  0.8273E-01  0.4708E+00
      4.149  0.7887E-01  0.4775E+00
      4.234  0.7439E-01  0.4838E+00
      4.318  0.6749E-01  0.4895E+00
      4.403  0.6276E-01  0.4948E+00
      4.488  0.6234E-01  0.5001E+00
      4.572  0.6128E-01  0.5053E+00
      4.657  0.5593E-01  0.5100E+00
      4.741  0.4919E-01  0.5142E+00
      4.826  0.4379E-01  0.5179E+00
      4.910  0.3808E-01  0.5211E+00
      4.995  0.3093E-01  0.5237E+00
      5.080  0.2450E-01  0.5258E+00
      5.164  0.2024E-01  0.5275E+00
      5.249  0.1698E-01  0.5289E+00
      5.333  0.1394E-01  0.5301E+00
      5.418  0.1174E-01  0.5311E+00
      5.502  0.1012E-01  0.5320E+00
      5.587  0.7851E-02  0.5326E+00
      5.672  0.4908E-02  0.5330E+00
      5.756  0.2376E-02  0.5332E+00
      5.841  0.9037E-03  0.5333E+00
      5.925  0.3482E-03  0.5333E+00
      6.010  0.4347E-03  0.5334E+00
      6.095  0.1182E-02  0.5335E+00
      6.179  0.2791E-02  0.5337E+00
      6.264  0.5357E-02  0.5342E+00
      6.348  0.8802E-02  0.5349E+00
      6.433  0.1282E-01  0.5360E+00
      6.517  0.1667E-01  0.5374E+00
      6.602  0.1950E-01  0.5391E+00
      6.687  0.2113E-01  0.5408E+00
      6.771  0.2261E-01  0.5427E+00
      6.856  0.2600E-01  0.5449E+00
      6.940  0.3240E-01  0.5477E+00
      7.025  0.3995E-01  0.5511E+00
      7.109  0.4648E-01  0.5550E+00
      7.194  0.5309E-01  0.5595E+00
      7.279  0.6108E-01  0.5647E+00
      7.363  0.6790E-01  0.5704E+00
      7.448  0.7076E-01  0.5764E+00
      7.532  0.7166E-01  0.5824E+00
      7.617  0.7486E-01  0.5888E+00
      7.701  0.8192E-01  0.5957E+00
      7.786  0.9104E-01  0.6034E+00
      7.871  0.9803E-01  0.6117E+00
      7.955  0.9824E-01  0.6200E+00
      8.040  0.9228E-01  0.6278E+00
      8.124  0.8722E-01  0.6352E+00
      8.209  0.8737E-01  0.6426E+00
      8.293  0.8843E-01  0.6501E+00
      8.378  0.8529E-01  0.6573E+00
      8.463  0.7937E-01  0.6640E+00
      8.547  0.7521E-01  0.6703E+00
      8.632  0.7708E-01  0.6769E+00
      8.716  0.8869E-01  0.6844E+00
      8.801  0.1092E+00  0.6936E+00
      8.885  0.1297E+00  0.7046E+00
      8.970  0.1390E+00  0.7163E+00
      9.055  0.1351E+00  0.7277E+00
      9.139  0.1261E+00  0.7384E+00
      9.224  0.1198E+00  0.7485E+00
      9.308  0.1163E+00  0.7584E+00
      9.393  0.1100E+00  0.7677E+00
      9.478  0.9685E-01  0.7759E+00
      9.562  0.8093E-01  0.7827E+00
      9.647  0.7019E-01  0.7887E+00
      9.731  0.6839E-01  0.7944E+00
      9.816  0.7258E-01  0.8006E+00
      9.900  0.7588E-01  0.8070E+00
      9.985  0.7439E-01  0.8133E+00
     10.070  0.7407E-01  0.8196E+00
     10.154  0.8531E-01  0.8268E+00
     10.239  0.1073E+00  0.8358E+00
     10.323  0.1247E+00  0.8464E+00
     10.408  0.1251E+00  0.8570E+00
     10.492  0.1122E+00  0.8664E+00
     10.577  0.9729E-01  0.8747E+00
     10.662  0.8565E-01  0.8819E+00
     10.746  0.7553E-01  0.8883E+00
     10.831  0.6554E-01  0.8939E+00
     10.915  0.5725E-01  0.8987E+00
     11.000  0.5277E-01  0.9032E+00
     11.084  0.5394E-01  0.9077E+00
     11.169  0.6133E-01  0.9129E+00
     11.254  0.7147E-01  0.9189E+00
     11.338  0.7719E-01  0.9255E+00
     11.423  0.7409E-01  0.9317E+00
     11.507  0.6669E-01  0.9374E+00
     11.592  0.6432E-01  0.9428E+00
     11.676  0.7060E-01  0.9488E+00
     11.761  0.8112E-01  0.9557E+00
     11.846  0.8914E-01  0.9632E+00
     11.930  0.8936E-01  0.9708E+00
     12.015  0.7986E-01  0.9775E+00
     12.099  0.6515E-01  0.9830E+00
     12.184  0.5397E-01  0.9876E+00
     12.268  0.5008E-01  0.9918E+00
     12.353  0.4902E-01  0.9960E+00
     12.438  0.4567E-01  0.9998E+00
     12.522  0.4025E-01  0.1003E+01
     12.607  0.3669E-01  0.1006E+01
     12.691  0.3829E-01  0.1010E+01
     12.776  0.4344E-01  0.1013E+01
     12.861  0.4602E-01  0.1017E+01
     12.945  0.4235E-01  0.1021E+01
     13.030  0.3582E-01  0.1024E+01
     13.114  0.3370E-01  0.1027E+01
     13.199  0.3972E-01  0.1030E+01
     13.283  0.4958E-01  0.1034E+01
     13.368  0.5532E-01  0.1039E+01
     13.453  0.5431E-01  0.1043E+01
     13.537  0.5087E-01  0.1048E+01
     13.622  0.4826E-01  0.1052E+01
     13.706  0.4331E-01  0.1055E+01
     13.791  0.3236E-01  0.1058E+01
     13.875  0.1844E-01  0.1060E+01
     13.960  0.7686E-02  0.1060E+01
     14.045  0.2300E-02  0.1061E+01
     14.129  0.4902E-03  0.1061E+01
     14.214  0.7427E-04  0.1061E+01
     14.298  0.1031E-04  0.1061E+01
     14.383  0.2190E-04  0.1061E+01
     14.467  0.1351E-03  0.1061E+01
     14.552  0.6111E-03  0.1061E+01
     14.637  0.1989E-02  0.1061E+01
     14.721  0.4716E-02  0.1061E+01
     14.806  0.8310E-02  0.1062E+01
     14.890  0.1121E-01  0.1063E+01
     14.975  0.1208E-01  0.1064E+01
     15.059  0.1092E-01  0.1065E+01
     15.144  0.8665E-02  0.1066E+01
     15.229  0.6096E-02  0.1066E+01
     15.313  0.3665E-02  0.1066E+01
     15.398  0.1771E-02  0.1067E+01
     15.482  0.6509E-03  0.1067E+01
     15.567  0.1759E-03  0.1067E+01
     15.651  0.3424E-04  0.1067E+01
     15.736  0.4753E-05  0.1067E+01
     15.821  0.4677E-06  0.1067E+01
     15.905  0.3252E-07  0.1067E+01
     15.990  0.1595E-08  0.1067E+01
     16.074  0.5514E-10  0.1067E+01
     16.159  0.1341E-11  0.1067E+01
     16.244  0.2295E-13  0.1067E+01
     16.328  0.2746E-15  0.1067E+01
     16.413  0.3156E-17  0.1067E+01
     16.497  0.0000E+00  0.1067E+01
     16.582  0.0000E+00  0.1067E+01
     16.666  0.0000E+00  0.1067E+01
     16.751  0.0000E+00  0.1067E+01
     16.836  0.0000E+00  0.1067E+01
     16.920  0.0000E+00  0.1067E+01
     17.005  0.0000E+00  0.1067E+01
     17.089  0.0000E+00  0.1067E+01
     17.174  0.0000E+00  0.1067E+01
