unknown system                          
   1.00000000000000     
     0.000000    2.715000    2.715000
     2.715000    0.000000    2.715000
     2.715000    2.715000    0.000000
   Si
     2
Direct
  0.500000  0.500000  0.500000
  0.750000  0.750000  0.750000
 
   28   28   28
 0.88995     0.91691      1.0001      1.1466      1.3684      1.6815      2.1015      2.6380      3.2867      4.0227    
  4.7970      5.5376      6.1580      6.5730      6.7191      6.5729      6.1579      5.5376      4.7970      4.0227    
  3.2867      2.6380      2.1015      1.6816      1.3685      1.1466      1.0000     0.91688     0.91691     0.96238    
  1.0568      1.2074      1.4246      1.7208      2.1058      2.5819      3.1376      3.7431      4.3497      4.8939    
  5.3072      5.5309      5.5309      5.3072      4.8939      4.3497      3.7431      3.1376      2.5819      2.1059    
  1.7208      1.4247      1.2074      1.0568     0.96237     0.91691      1.0001      1.0568      1.1560      1.3044    
  1.5107      1.7833      2.1270      2.5381      3.0003      3.4825      3.9398      4.3200      4.5727      4.6614    
  4.5727      4.3200      3.9398      3.4825      3.0004      2.5382      2.1271      1.7834      1.5107      1.3044    
  1.1560      1.0568      1.0001     0.98163      1.1466      1.2074      1.3044      1.4438      1.6322      1.8745    
  2.1711      2.5142      2.8855      3.2550      3.5846      3.8337      3.9681      3.9681      3.8337      3.5846    
  3.2551      2.8855      2.5143      2.1711      1.8745      1.6321      1.4437      1.3044      1.2074      1.1466    
  1.1174      1.1174      1.3684      1.4246      1.5107      1.6322      1.7938      1.9977      2.2411      2.5142    
  2.7986      3.0679      3.2914      3.4399      3.4919      3.4399      3.2914      3.0679      2.7986      2.5143    
  2.2411      1.9976      1.7937      1.6321      1.5107      1.4246      1.3685      1.3371      1.3271      1.3371    
  1.6815      1.7208      1.7833      1.8745      1.9977      2.1533      2.3368      2.5381      2.7405      2.9224    
  3.0606      3.1354      3.1354      3.0606      2.9224      2.7405      2.5381      2.3368      2.1532      1.9976    
  1.8745      1.7833      1.7208      1.6815      1.6597      1.6502      1.6502      1.6596      2.1015      2.1058    
  2.1270      2.1711      2.2411      2.3368      2.4535      2.5819      2.7082      2.8158      2.8885      2.9142    
  2.8885      2.8158      2.7082      2.5819      2.4535      2.3368      2.2412      2.1711      2.1271      2.1058    
  2.1015      2.1066      2.1135      2.1165      2.1135      2.1066      2.6380      2.5819      2.5381      2.5142    
  2.5142      2.5381      2.5819      2.6380      2.6957      2.7433      2.7702      2.7703      2.7433      2.6957    
  2.6380      2.5819      2.5382      2.5143      2.5143      2.5382      2.5819      2.6380      2.6957      2.7433    
  2.7703      2.7702      2.7433      2.6957      3.2867      3.1376      3.0003      2.8855      2.7986      2.7405    
  2.7082      2.6957      2.6954      2.6993      2.7014      2.6993      2.6954      2.6958      2.7082      2.7406    
  2.7987      2.8856      3.0003      3.1376      3.2866      3.4322      3.5558      3.6391      3.6686      3.6391    
  3.5558      3.4322      4.0227      3.7431      3.4825      3.2550      3.0679      2.9224      2.8158      2.7433    
  2.6993      2.6788      2.6788      2.6993      2.7434      2.8159      2.9225      3.0680      3.2551      3.4824    
  3.7430      4.0226      4.2995      4.5459      4.7321      4.8327      4.8327      4.7322      4.5460      4.2996    
  4.7970      4.3497      3.9398      3.5846      3.2914      3.0606      2.8885      2.7702      2.7014      2.6788    
  2.7014      2.7703      2.8886      3.0607      3.2916      3.5847      3.9398      4.3496      4.7969      5.2528    
  5.6782      6.0278      6.2587      6.3395      6.2587      6.0279      5.6783      5.2529      5.5376      4.8939    
  4.3200      3.8337      3.4399      3.1354      2.9142      2.7703      2.6993      2.6993      2.7703      2.9143    
  3.1356      3.4400      3.8338      4.3199      4.8937      5.5374      6.2167      6.8802      7.4641      7.9017    
  8.1366      8.1366      7.9016      7.4641      6.8803      6.2169      6.1580      5.3072      4.5727      3.9681    
  3.4919      3.1354      2.8885      2.7433      2.6954      2.7434      2.8886      3.1356      3.4921      3.9682    
  4.5726      5.3070      6.1577      7.0895      8.0418      8.9318      9.6641      10.148      10.317      10.148    
  9.6639      8.9317      8.0419      7.0897      6.5730      5.5309      4.6614      3.9681      3.4399      3.0606    
  2.8158      2.6957      2.6958      2.8159      3.0607      3.4400      3.9682      4.6614      5.5307      6.5727    
  7.7581      9.0250      10.276      11.389      12.229      12.683      12.682      12.229      11.388      10.276    
  9.0250      7.7584      6.7191      5.5309      4.5727      3.8337      3.2914      2.9224      2.7082      2.6380    
  2.7082      2.9225      3.2916      3.8338      4.5726      5.5307      6.7188      8.1222      9.6881      11.317    
  12.867      14.162      15.027      15.331      15.027      14.161      12.867      11.317      9.6881      8.1224    
  6.5729      5.3072      4.3200      3.5846      3.0679      2.7405      2.5819      2.5819      2.7406      3.0680    
  3.5847      4.3199      5.3070      6.5727      8.1222      9.9227      11.889      13.874      15.675      17.045    
  17.781      17.781      17.045      15.675      13.874      11.888      9.9227      8.1224      6.1579      4.8939    
  3.9398      3.2551      2.7986      2.5381      2.4535      2.5382      2.7987      3.2551      3.9398      4.8937    
  6.1577      7.7581      9.6881      11.889      14.232      16.508      18.408      19.658      20.093      19.658    
  18.408      16.508      14.232      11.888      9.6880      7.7583      5.5376      4.3497      3.4825      2.8855    
  2.5143      2.3368      2.3368      2.5143      2.8856      3.4824      4.3496      5.5374      7.0895      9.0250    
  11.317      13.874      16.508      18.889      20.674      21.627      21.627      20.675      18.889      16.508    
  13.874      11.317      9.0249      7.0896      4.7970      3.7431      3.0004      2.5143      2.2411      2.1532    
  2.2412      2.5143      3.0003      3.7430      4.7969      6.2167      8.0418      10.276      12.867      15.675    
  18.408      20.674      22.164      22.682      22.164      20.675      18.408      15.675      12.866      10.276    
  8.0418      6.2168      4.0227      3.1376      2.5382      2.1711      1.9976      1.9976      2.1711      2.5382    
  3.1376      4.0226      5.2528      6.8802      8.9318      11.389      14.162      17.045      19.658      21.627    
  22.682      22.683      21.628      19.658      17.045      14.161      11.388      8.9316      6.8802      5.2529    
  3.2867      2.5819      2.1271      1.8745      1.7937      1.8745      2.1271      2.5819      3.2866      4.2995    
  5.6782      7.4641      9.6641      12.229      15.027      17.781      20.093      21.627      22.164      21.628    
  20.093      17.781      15.027      12.229      9.6638      7.4640      5.6782      4.2995      2.6380      2.1059    
  1.7834      1.6321      1.6321      1.7833      2.1058      2.6380      3.4322      4.5459      6.0278      7.9017    
  10.148      12.683      15.331      17.781      19.658      20.675      20.675      19.658      17.781      15.331    
  12.682      10.148      7.9015      6.0278      4.5459      3.4322      2.1015      1.7208      1.5107      1.4437    
  1.5107      1.7208      2.1015      2.6957      3.5558      4.7321      6.2587      8.1366      10.317      12.682    
  15.027      17.045      18.408      18.889      18.408      17.045      15.027      12.682      10.317      8.1365    
  6.2586      4.7321      3.5558      2.6958      1.6816      1.4247      1.3044      1.3044      1.4246      1.6815    
  2.1066      2.7433      3.6391      4.8327      6.3395      8.1366      10.148      12.229      14.161      15.675    
  16.508      16.508      15.675      14.161      12.229      10.148      8.1365      6.3394      4.8326      3.6391    
  2.7434      2.1066      1.3685      1.2074      1.1560      1.2074      1.3685      1.6597      2.1135      2.7703    
  3.6686      4.8327      6.2587      7.9016      9.6639      11.388      12.867      13.874      14.232      13.874    
  12.866      11.388      9.6638      7.9015      6.2586      4.8326      3.6685      2.7703      2.1136      1.6597    
  1.1466      1.0568      1.0568      1.1466      1.3371      1.6502      2.1165      2.7702      3.6391      4.7322    
  6.0279      7.4641      8.9317      10.276      11.317      11.888      11.888      11.317      10.276      8.9316    
  7.4640      6.0278      4.7321      3.6391      2.7703      2.1166      1.6502      1.3371      1.0000     0.96237    
  1.0001      1.1174      1.3271      1.6502      2.1135      2.7433      3.5558      4.5460      5.6783      6.8803    
  8.0419      9.0250      9.6881      9.9227      9.6880      9.0249      8.0418      6.8802      5.6782      4.5459    
  3.5558      2.7434      2.1136      1.6502      1.3271      1.1174     0.91688     0.91691     0.98163      1.1174    
  1.3371      1.6596      2.1066      2.6957      3.4322      4.2996      5.2529      6.2169      7.0897      7.7584    
  8.1224      8.1224      7.7583      7.0896      6.2168      5.2529      4.2995      3.4322      2.6958      2.1066    
  1.6597      1.3371      1.1174     0.98158     0.91691     0.96238      1.0568      1.2074      1.4246      1.7208    
  2.1058      2.5819      3.1376      3.7431      4.3497      4.8939      5.3072      5.5309      5.5309      5.3072    
  4.8939      4.3497      3.7431      3.1376      2.5819      2.1059      1.7208      1.4247      1.2074      1.0568    
 0.96237     0.91691     0.96238      1.0176      1.1140      1.2579      1.4578      1.7219      2.0550      2.4535    
  2.9016      3.3689      3.8119      4.1799      4.4244      4.5101      4.4244      4.1799      3.8119      3.3689    
  2.9017      2.4536      2.0551      1.7220      1.4578      1.2579      1.1140      1.0176     0.96239     0.94439    
  1.0568      1.1140      1.2048      1.3350      1.5108      1.7373      2.0151      2.3368      2.6850      3.0312    
  3.3395      3.5721      3.6975      3.6975      3.5721      3.3395      3.0312      2.6850      2.3369      2.0151    
  1.7374      1.5108      1.3350      1.2048      1.1140      1.0568      1.0293      1.0293      1.2074      1.2579    
  1.3350      1.4437      1.5888      1.7727      1.9932      2.2411      2.4992      2.7432      2.9451      3.0788    
  3.1256      3.0788      2.9451      2.7432      2.4993      2.2412      1.9932      1.7727      1.5888      1.4437    
  1.3350      1.2579      1.2074      1.1790      1.1698      1.1790      1.4246      1.4578      1.5108      1.5888    
  1.6954      1.8315      1.9932      2.1711      2.3498      2.5098      2.6309      2.6963      2.6963      2.6309    
  2.5098      2.3498      2.1711      1.9932      1.8315      1.6954      1.5888      1.5108      1.4578      1.4247    
  1.4061      1.3980      1.3980      1.4061      1.7208      1.7219      1.7373      1.7727      1.8315      1.9137    
  2.0151      2.1270      2.2370      2.3302      2.3929      2.4150      2.3929      2.3302      2.2369      2.1270    
  2.0151      1.9136      1.8315      1.7727      1.7373      1.7220      1.7208      1.7269      1.7338      1.7366    
  1.7338      1.7269      2.1058      2.0550      2.0151      1.9932      1.9932      2.0151      2.0550      2.1058    
  2.1577      2.2001      2.2239      2.2239      2.2001      2.1577      2.1058      2.0550      2.0151      1.9932    
  1.9932      2.0151      2.0550      2.1058      2.1577      2.2001      2.2239      2.2239      2.2001      2.1577    
  2.5819      2.4535      2.3368      2.2411      2.1711      2.1270      2.1058      2.1015      2.1066      2.1135    
  2.1165      2.1135      2.1066      2.1015      2.1058      2.1271      2.1711      2.2412      2.3368      2.4535    
  2.5819      2.7082      2.8158      2.8885      2.9142      2.8885      2.8158      2.7082      3.1376      2.9016    
  2.6850      2.4992      2.3498      2.2370      2.1577      2.1066      2.0774      2.0645      2.0645      2.0775    
  2.1066      2.1577      2.2370      2.3498      2.4992      2.6849      2.9016      3.1375      3.3741      3.5868    
  3.7486      3.8364      3.8364      3.7486      3.5868      3.3741      3.7431      3.3689      3.0312      2.7432    
  2.5098      2.3302      2.2001      2.1135      2.0645      2.0488      2.0646      2.1136      2.2002      2.3303    
  2.5098      2.7432      3.0311      3.3688      3.7430      4.1301      4.4962      4.8006      5.0032      5.0745    
  5.0032      4.8006      4.4962      4.1301      4.3497      3.8119      3.3395      2.9451      2.6309      2.3929    
  2.2239      2.1165      2.0645      2.0646      2.1166      2.2240      2.3930      2.6310      2.9450      3.3393    
  3.8117      4.3496      4.9259      5.4975      6.0079      6.3948      6.6041      6.6041      6.3948      6.0079    
  5.4975      4.9259      4.8939      4.1799      3.5721      3.0788      2.6963      2.4150      2.2239      2.1135    
  2.0775      2.1136      2.2240      2.4151      2.6963      3.0787      3.5719      4.1796      4.8937      5.6875    
  6.5117      7.2939      7.9464      8.3820      8.5352      8.3819      7.9464      7.2939      6.5117      5.6876    
  5.3072      4.4244      3.6975      3.1256      2.6963      2.3929      2.2001      2.1066      2.1066      2.2002    
  2.3930      2.6963      3.1255      3.6972      4.4241      5.3070      6.3259      7.4314      8.5406      9.5404    
  10.304      10.720      10.720      10.304      9.5403      8.5405      7.4314      6.3260      5.5309      4.5101    
  3.6975      3.0788      2.6309      2.3302      2.1577      2.1015      2.1577      2.3303      2.6310      3.0787    
  3.6972      4.5099      5.5307      6.7531      8.1368      9.5981      11.007      12.198      13.000      13.284    
  13.000      12.198      11.007      9.5980      8.1367      6.7531      5.5309      4.4244      3.5721      2.9451    
  2.5098      2.2369      2.1058      2.1058      2.2370      2.5098      2.9450      3.5719      4.4241      5.5307    
  6.9036      8.5212      10.313      12.146      13.828      15.132      15.849      15.849      15.132      13.828    
  12.145      10.312      8.5211      6.9036      5.3072      4.1799      3.3395      2.7432      2.3498      2.1270    
  2.0550      2.1271      2.3498      2.7432      3.3393      4.1796      5.3070      6.7531      8.5212      10.566    
  12.771      14.942      16.810      18.086      18.541      18.086      16.810      14.942      12.771      10.565    
  8.5210      6.7531      4.8939      3.8119      3.0312      2.4993      2.1711      2.0151      2.0151      2.1711    
  2.4992      3.0311      3.8117      4.8937      6.3259      8.1368      10.313      12.771      15.339      17.740    
  19.629      20.673      20.673      19.630      17.740      15.339      12.771      10.312      8.1366      6.3259    
  4.3497      3.3689      2.6850      2.2412      1.9932      1.9136      1.9932      2.2412      2.6849      3.3688    
  4.3496      5.6875      7.4314      9.5981      12.146      14.942      17.740      20.181      21.854      22.449    
  21.854      20.181      17.740      14.942      12.145      9.5979      7.4313      5.6875      3.7431      2.9017    
  2.3369      1.9932      1.8315      1.8315      1.9932      2.3368      2.9016      3.7430      4.9259      6.5117    
  8.5406      11.007      13.828      16.810      19.629      21.854      23.082      23.082      21.854      19.629    
  16.810      13.828      11.007      8.5404      6.5116      4.9259      3.1376      2.4536      2.0151      1.7727    
  1.6954      1.7727      2.0151      2.4535      3.1375      4.1301      5.4975      7.2939      9.5404      12.198    
  15.132      18.086      20.673      22.449      23.082      22.449      20.673      18.086      15.132      12.198    
  9.5403      7.2938      5.4975      4.1301      2.5819      2.0551      1.7374      1.5888      1.5888      1.7373    
  2.0550      2.5819      3.3741      4.4962      6.0079      7.9464      10.304      13.000      15.849      18.541    
  20.673      21.854      21.854      20.673      18.541      15.848      13.000      10.304      7.9464      6.0078    
  4.4962      3.3741      2.1059      1.7220      1.5108      1.4437      1.5108      1.7220      2.1058      2.7082    
  3.5868      4.8006      6.3948      8.3820      10.720      13.284      15.849      18.086      19.630      20.181    
  19.629      18.086      15.848      13.284      10.720      8.3819      6.3947      4.8005      3.5868      2.7082    
  1.7208      1.4578      1.3350      1.3350      1.4578      1.7208      2.1577      2.8158      3.7486      5.0032    
  6.6041      8.5352      10.720      13.000      15.132      16.810      17.740      17.740      16.810      15.132    
  13.000      10.720      8.5352      6.6041      5.0032      3.7487      2.8159      2.1577      1.4247      1.2579    
  1.2048      1.2579      1.4247      1.7269      2.2001      2.8885      3.8364      5.0745      6.6041      8.3819    
  10.304      12.198      13.828      14.942      15.339      14.942      13.828      12.198      10.304      8.3819    
  6.6041      5.0744      3.8364      2.8886      2.2002      1.7270      1.2074      1.1140      1.1140      1.2074    
  1.4061      1.7338      2.2239      2.9142      3.8364      5.0032      6.3948      7.9464      9.5403      11.007    
  12.145      12.771      12.771      12.145      11.007      9.5403      7.9464      6.3947      5.0032      3.8364    
  2.9143      2.2240      1.7339      1.4061      1.0568      1.0176      1.0568      1.1790      1.3980      1.7366    
  2.2239      2.8885      3.7486      4.8006      6.0079      7.2939      8.5405      9.5980      10.312      10.565    
  10.312      9.5979      8.5404      7.2938      6.0078      4.8005      3.7487      2.8886      2.2240      1.7367    
  1.3980      1.1790     0.96237     0.96239      1.0293      1.1698      1.3980      1.7338      2.2001      2.8158    
  3.5868      4.4962      5.4975      6.5117      7.4314      8.1367      8.5211      8.5210      8.1366      7.4313    
  6.5116      5.4975      4.4962      3.5868      2.8159      2.2002      1.7339      1.3980      1.1698      1.0292    
 0.91691     0.94439      1.0293      1.1790      1.4061      1.7269      2.1577      2.7082      3.3741      4.1301    
  4.9259      5.6876      6.3260      6.7531      6.9036      6.7531      6.3259      5.6875      4.9259      4.1301    
  3.3741      2.7082      2.1577      1.7270      1.4061      1.1790      1.0292     0.94436      1.0001      1.0568    
  1.1560      1.3044      1.5107      1.7833      2.1270      2.5381      3.0003      3.4825      3.9398      4.3200    
  4.5727      4.6614      4.5727      4.3200      3.9398      3.4825      3.0004      2.5382      2.1271      1.7834    
  1.5107      1.3044      1.1560      1.0568      1.0001     0.98163      1.0568      1.1140      1.2048      1.3350    
  1.5108      1.7373      2.0151      2.3368      2.6850      3.0312      3.3395      3.5721      3.6975      3.6975    
  3.5721      3.3395      3.0312      2.6850      2.3369      2.0151      1.7374      1.5108      1.3350      1.2048    
  1.1140      1.0568      1.0293      1.0293      1.1560      1.2048      1.2791      1.3837      1.5234      1.7007    
  1.9137      2.1533      2.4027      2.6382      2.8329      2.9616      3.0067      2.9616      2.8328      2.6382    
  2.4027      2.1533      1.9137      1.7007      1.5234      1.3836      1.2790      1.2048      1.1560      1.1285    
  1.1196      1.1284      1.3044      1.3350      1.3837      1.4554      1.5540      1.6805      1.8315      1.9977    
  2.1645      2.3135      2.4259      2.4864      2.4864      2.4258      2.3134      2.1645      1.9977      1.8315    
  1.6805      1.5540      1.4554      1.3836      1.3350      1.3044      1.2871      1.2794      1.2794      1.2871    
  1.5107      1.5108      1.5234      1.5540      1.6063      1.6805      1.7727      1.8745      1.9740      2.0580    
  2.1141      2.1339      2.1141      2.0580      1.9740      1.8745      1.7727      1.6805      1.6063      1.5540    
  1.5234      1.5108      1.5107      1.5166      1.5228      1.5253      1.5227      1.5166      1.7833      1.7373    
  1.7007      1.6805      1.6805      1.7007      1.7373      1.7833      1.8297      1.8672      1.8881      1.8881    
  1.8672      1.8297      1.7833      1.7373      1.7007      1.6805      1.6805      1.7007      1.7373      1.7833    
  1.8297      1.8672      1.8881      1.8881      1.8672      1.8297      2.1270      2.0151      1.9137      1.8315    
  1.7727      1.7373      1.7219      1.7208      1.7269      1.7338      1.7366      1.7338      1.7269      1.7208    
  1.7220      1.7373      1.7727      1.8315      1.9136      2.0151      2.1270      2.2369      2.3302      2.3929    
  2.4150      2.3929      2.3302      2.2370      2.5381      2.3368      2.1533      1.9977      1.8745      1.7833    
  1.7208      1.6815      1.6596      1.6502      1.6502      1.6597      1.6815      1.7208      1.7833      1.8745    
  1.9976      2.1532      2.3368      2.5381      2.7405      2.9224      3.0606      3.1354      3.1354      3.0606    
  2.9224      2.7405      3.0003      2.6850      2.4027      2.1645      1.9740      1.8297      1.7269      1.6596    
  1.6221      1.6101      1.6221      1.6597      1.7269      1.8297      1.9740      2.1644      2.4025      2.6849    
  3.0003      3.3283      3.6393      3.8982      4.0706      4.1312      4.0706      3.8982      3.6393      3.3282    
  3.4825      3.0312      2.6382      2.3135      2.0580      1.8672      1.7338      1.6502      1.6101      1.6101    
  1.6502      1.7338      1.8672      2.0579      2.3133      2.6380      3.0311      3.4824      3.9691      4.4542    
  4.8885      5.2184      5.3970      5.3970      5.2184      4.8885      4.4541      3.9691      3.9398      3.3395    
  2.8329      2.4259      2.1141      1.8881      1.7366      1.6502      1.6221      1.6502      1.7367      1.8881    
  2.1141      2.4257      2.8326      3.3393      3.9397      4.6118      5.3134      5.9819      6.5411      6.9151    
  7.0468      6.9151      6.5411      5.9818      5.3133      4.6118      4.3200      3.5721      2.9616      2.4864    
  2.1339      1.8881      1.7338      1.6597      1.6597      1.7338      1.8881      2.1338      2.4862      2.9614    
  3.5719      4.3199      5.1890      6.1372      7.0925      7.9563      8.6176      8.9777      8.9777      8.6176    
  7.9562      7.0924      6.1371      5.1890      4.5727      3.6975      3.0067      2.4864      2.1141      1.8672    
  1.7269      1.6815      1.7269      1.8672      2.1141      2.4862      3.0064      3.6973      4.5726      5.6280    
  6.8290      8.1024      9.3334      10.376      11.079      11.328      11.079      10.376      9.3334      8.1023    
  6.8288      5.6279      4.6614      3.6975      2.9616      2.4258      2.0580      1.8297      1.7208      1.7208    
  1.8297      2.0579      2.4257      2.9614      3.6973      4.6613      5.8658      7.2925      8.8786      10.506    
  12.001      13.161      13.798      13.798      13.161      12.001      10.506      8.8784      7.2923      5.8657    
  4.5727      3.5721      2.8328      2.3134      1.9740      1.7833      1.7220      1.7833      1.9740      2.3133    
  2.8326      3.5719      4.5726      5.8658      7.4560      9.3022      11.299      13.267      14.960      16.116    
  16.528      16.116      14.960      13.267      11.299      9.3020      7.4558      5.8657      4.3200      3.3395    
  2.6382      2.1645      1.8745      1.7373      1.7373      1.8745      2.1644      2.6380      3.3393      4.3199    
  5.6280      7.2925      9.3022      11.581      13.963      16.192      17.946      18.917      18.917      17.946    
  16.192      13.963      11.581      9.3020      7.2923      5.6279      3.9398      3.0312      2.4027      1.9977    
  1.7727      1.7007      1.7727      1.9976      2.4025      3.0311      3.9397      5.1890      6.8290      8.8786    
  11.299      13.963      16.632      18.961      20.568      21.144      20.568      18.961      16.632      13.963    
  11.299      8.8785      6.8288      5.1890      3.4825      2.6850      2.1533      1.8315      1.6805      1.6805    
  1.8315      2.1532      2.6849      3.4824      4.6118      6.1372      8.1024      10.506      13.267      16.192    
  18.961      21.160      22.386      22.386      21.160      18.961      16.192      13.267      10.506      8.1023    
  6.1371      4.6118      3.0004      2.3369      1.9137      1.6805      1.6063      1.6805      1.9136      2.3368    
  3.0003      3.9691      5.3134      7.0925      9.3334      12.001      14.960      17.946      20.568      22.386    
  23.038      22.385      20.568      17.945      14.960      12.001      9.3334      7.0924      5.3133      3.9691    
  2.5382      2.0151      1.7007      1.5540      1.5540      1.7007      2.0151      2.5381      3.3283      4.4542    
  5.9819      7.9563      10.376      13.161      16.116      18.917      21.144      22.386      22.385      21.143    
  18.917      16.116      13.161      10.376      7.9562      5.9818      4.4542      3.3283      2.1271      1.7374    
  1.5234      1.4554      1.5234      1.7373      2.1270      2.7405      3.6393      4.8885      6.5411      8.6176    
  11.079      13.798      16.528      18.917      20.568      21.160      20.568      18.917      16.528      13.798    
  11.079      8.6176      6.5411      4.8885      3.6394      2.7406      1.7834      1.5108      1.3836      1.3836    
  1.5108      1.7833      2.2369      2.9224      3.8982      5.2184      6.9151      8.9777      11.328      13.798    
  16.116      17.946      18.961      18.961      17.945      16.116      13.798      11.328      8.9777      6.9151    
  5.2184      3.8983      2.9225      2.2370      1.5107      1.3350      1.2790      1.3350      1.5107      1.8297    
  2.3302      3.0606      4.0706      5.3970      7.0468      8.9777      11.079      13.161      14.960      16.192    
  16.632      16.192      14.960      13.161      11.079      8.9777      7.0468      5.3971      4.0707      3.0607    
  2.3303      1.8298      1.3044      1.2048      1.2048      1.3044      1.5166      1.8672      2.3929      3.1354    
  4.1312      5.3970      6.9151      8.6176      10.376      12.001      13.267      13.963      13.963      13.267    
  12.001      10.376      8.6176      6.9151      5.3971      4.1313      3.1356      2.3930      1.8672      1.5166    
  1.1560      1.1140      1.1560      1.2871      1.5228      1.8881      2.4150      3.1354      4.0706      5.2184    
  6.5411      7.9562      9.3334      10.506      11.299      11.581      11.299      10.506      9.3334      7.9562    
  6.5411      5.2184      4.0707      3.1356      2.4151      1.8881      1.5227      1.2871      1.0568      1.0568    
  1.1285      1.2794      1.5253      1.8881      2.3929      3.0606      3.8982      4.8885      5.9818      7.0924    
  8.1023      8.8784      9.3020      9.3020      8.8785      8.1023      7.0924      5.9818      4.8885      3.8983    
  3.0607      2.3930      1.8881      1.5253      1.2794      1.1284      1.0001      1.0293      1.1196      1.2794    
  1.5227      1.8672      2.3302      2.9224      3.6393      4.4541      5.3133      6.1371      6.8288      7.2923    
  7.4558      7.2923      6.8288      6.1371      5.3133      4.4542      3.6394      2.9225      2.3303      1.8672    
  1.5227      1.2794      1.1195      1.0292     0.98163      1.0293      1.1284      1.2871      1.5166      1.8297    
  2.2370      2.7405      3.3282      3.9691      4.6118      5.1890      5.6279      5.8657      5.8657      5.6279    
  5.1890      4.6118      3.9691      3.3283      2.7406      2.2370      1.8298      1.5166      1.2871      1.1284    
  1.0292     0.98162      1.1466      1.2074      1.3044      1.4438      1.6322      1.8745      2.1711      2.5142    
  2.8855      3.2550      3.5846      3.8337      3.9681      3.9681      3.8337      3.5846      3.2551      2.8855    
  2.5143      2.1711      1.8745      1.6321      1.4437      1.3044      1.2074      1.1466      1.1174      1.1174    
  1.2074      1.2579      1.3350      1.4437      1.5888      1.7727      1.9932      2.2411      2.4992      2.7432    
  2.9451      3.0788      3.1256      3.0788      2.9451      2.7432      2.4993      2.2412      1.9932      1.7727    
  1.5888      1.4437      1.3350      1.2579      1.2074      1.1790      1.1698      1.1790      1.3044      1.3350    
  1.3837      1.4554      1.5540      1.6805      1.8315      1.9977      2.1645      2.3135      2.4259      2.4864    
  2.4864      2.4258      2.3134      2.1645      1.9977      1.8315      1.6805      1.5540      1.4554      1.3836    
  1.3350      1.3044      1.2871      1.2794      1.2794      1.2871      1.4438      1.4437      1.4554      1.4845    
  1.5347      1.6063      1.6954      1.7938      1.8899      1.9707      2.0246      2.0435      2.0246      1.9707    