    2    2   15    1
  0.2001288E+02  0.3839590E-09  0.3839590E-09  0.3839590E-09  0.5000000E-15
  1.000000000000000E-004
  CAR 
 unknown system                          
      8     60      8
 
  0.6250000E-01  0.6250000E-01  0.6250000E-01  0.3906250E-02
    1       -6.080991   1.000000
    2        5.318764   1.000000
    3        5.766716   0.997182
    4        5.766716   0.997182
    5        8.487164   0.000000
    6        8.549835   0.000000
    7        8.549835   0.000000
    8        9.586469   0.000000
 
  0.1875000E+00  0.6250000E-01  0.6250000E-01  0.1171875E-01
    1       -5.809646   1.000000
    2        3.804304   1.000000
    3        4.942320   1.000000
    4        5.647476   0.999848
    5        8.569922   0.000000
    6        8.797413   0.000000
    7        9.105938   0.000000
    8       11.021205   0.000000
 
  0.3125000E+00  0.6250000E-01  0.6250000E-01  0.1171875E-01
    1       -5.154042   1.000000
    2        1.548576   1.000000
    3        4.450029   1.000000
    4        5.176727   1.000000
    5        8.130813   0.000000
    6        9.295027   0.000000
    7        9.588432   0.000000
    8       12.519321   0.000000
 
  0.4375000E+00  0.6250000E-01  0.6250000E-01  0.1171875E-01
    1       -4.236709   1.000000
    2       -0.364994   1.000000
    3        4.230681   1.000000
    4        4.761634   1.000000
    5        7.817212   0.000000
    6        9.348831   0.000000
    7        9.366626   0.000000
    8       13.705751   0.000000
 
 -0.4375000E+00  0.6250000E-01  0.6250000E-01  0.1171875E-01
    1       -3.777465   1.000000
    2       -1.078993   1.000000
    3        4.283107   1.000000
    4        4.537977   1.000000
    5        7.735066   0.000000
    6        9.147807   0.000000
    7        9.428879   0.000000
    8       13.750945   0.000000
 
 -0.3125000E+00  0.6250000E-01  0.6250000E-01  0.1171875E-01
    1       -4.551559   1.000000
    2        0.201984   1.000000
    3        4.558153   1.000000
    4        4.575256   1.000000
    5        7.899648   0.000000
    6        9.163382   0.000000
    7        9.692868   0.000000
    8       12.853576   0.000000
 
 -0.1875000E+00  0.6250000E-01  0.6250000E-01  0.1171875E-01
    1       -5.411294   1.000000
    2        2.287289   1.000000
    3        4.838933   1.000000
    4        5.047867   1.000000
    5        8.246026   0.000000
    6        9.041827   0.000000
    7        9.766778   0.000000
    8       11.669840   0.000000
 
 -0.6250000E-01  0.6250000E-01  0.6250000E-01  0.1171875E-01
    1       -5.944632   1.000000
    2        4.566234   1.000000
    3        5.329123   1.000000
    4        5.497733   0.999998
    5        8.260213   0.000000
    6        8.876205   0.000000
    7        9.142976   0.000000
    8       10.300603   0.000000
 
  0.1875000E+00  0.1875000E+00  0.6250000E-01  0.1171875E-01
    1       -5.673148   1.000000
    2        3.672947   1.000000
    3        4.760300   1.000000
    4        4.853206   1.000000
    5        7.831324   0.000000
    6        9.660323   0.000000
    7       10.018447   0.000000
    8       10.565424   0.000000
 
  0.3125000E+00  0.1875000E+00  0.6250000E-01  0.2343750E-01
    1       -5.141942   1.000000
    2        2.153395   1.000000
    3        3.772917   1.000000
    4        4.588081   1.000000
    5        8.005582   0.000000
    6        9.775588   0.000000
    7       10.329986   0.000000
    8       10.833904   0.000000
 
  0.4375000E+00  0.1875000E+00  0.6250000E-01  0.2343750E-01
    1       -4.284187   1.000000
    2        0.265106   1.000000
    3        3.278955   1.000000
    4        4.165494   1.000000
    5        8.210571   0.000000
    6        9.671105   0.000000
    7       10.858260   0.000000
    8       11.110820   0.000000
 
 -0.4375000E+00  0.1875000E+00  0.6250000E-01  0.2343750E-01
    1       -3.506101   1.000000
    2       -0.967954   1.000000
    3        2.988891   1.000000
    4        4.069605   1.000000
    5        8.291672   0.000000
    6        9.345011   0.000000
    7       10.699434   0.000000
    8       13.174495   0.000000
 
 -0.3125000E+00  0.1875000E+00  0.6250000E-01  0.2343750E-01
    1       -3.974684   1.000000
    2       -0.263793   1.000000
    3        2.910461   1.000000
    4        4.361203   1.000000
    5        8.591111   0.000000
    6        9.241334   0.000000
    7       10.645281   0.000000
    8       12.412043   0.000000
 
 -0.1875000E+00  0.1875000E+00  0.6250000E-01  0.2343750E-01
    1       -4.890386   1.000000
    2        1.493560   1.000000
    3        3.207589   1.000000
    4        4.880831   1.000000
    5        8.900122   0.000000
    6        9.202506   0.000000
    7       10.521717   0.000000
    8       10.982904   0.000000
 
 -0.6250000E-01  0.1875000E+00  0.6250000E-01  0.2343750E-01
    1       -5.541087   1.000000
    2        2.981953   1.000000
    3        4.355003   1.000000
    4        5.263455   1.000000
    5        8.414282   0.000000
    6        9.132713   0.000000
    7        9.827868   0.000000
    8       11.087007   0.000000
 
  0.3125000E+00  0.3125000E+00  0.6250000E-01  0.1171875E-01
    1       -4.736550   1.000000
    2        1.658823   1.000000
    3        3.627535   1.000000
    4        3.752309   1.000000
    5        7.006512   0.000000
    6        8.680612   0.000000
    7       11.931696   0.000000
    8       12.069512   0.000000
 
  0.4375000E+00  0.3125000E+00  0.6250000E-01  0.2343750E-01
    1       -3.974447   1.000000
    2        0.406534   1.000000
    3        2.825605   1.000000
    4        3.397293   1.000000
    5        7.324789   0.000000
    6        8.516914   0.000000
    7       11.888137   0.000000
    8       13.085981   0.000000
 
 -0.4375000E+00  0.3125000E+00  0.6250000E-01  0.2343750E-01
    1       -3.060188   1.000000
    2       -0.812315   1.000000
    3        1.971416   1.000000
    4        3.365548   1.000000
    5        7.560689   0.000000
    6       10.211177   0.000000
    7       11.450430   0.000000
    8       12.994775   0.000000
 
 -0.3125000E+00  0.3125000E+00  0.6250000E-01  0.2343750E-01
    1       -3.131309   1.000000
    2       -0.717831   1.000000
    3        1.609753   1.000000
    4        3.717341   1.000000
    5        7.973082   0.000000
    6       10.967975   0.000000
    7       12.302008   0.000000
    8       12.583787   0.000000
 
 -0.1875000E+00  0.3125000E+00  0.6250000E-01  0.2343750E-01
    1       -4.042957   1.000000
    2        0.241816   1.000000
    3        2.228318   1.000000
    4        4.316044   1.000000
    5        8.631548   0.000000
    6        9.844019   0.000000
    7       11.308405   0.000000
    8       11.578290   0.000000
 
 -0.6250000E-01  0.3125000E+00  0.6250000E-01  0.2343750E-01
    1       -4.775126   1.000000
    2        0.869927   1.000000
    3        3.897736   1.000000
    4        4.780640   1.000000
    5        8.376873   0.000000
    6        9.200482   0.000000
    7       10.069348   0.000000
    8       11.772891   0.000000
 
  0.4375000E+00  0.4375000E+00  0.6250000E-01  0.1171875E-01
    1       -3.313046   1.000000
    2       -0.464338   1.000000
    3        2.925908   1.000000
    4        3.148563   1.000000
    5        6.600045   0.000891
    6        7.315491   0.000000
    7       14.274314   0.000000
    8       14.276859   0.000000
 
 -0.4375000E+00  0.4375000E+00  0.6250000E-01  0.2343750E-01
    1       -2.389227   1.000000
    2       -1.466106   1.000000
    3        2.354590   1.000000
    4        2.899141   1.000000
    5        7.037458   0.000000
    6        7.782141   0.000000
    7       14.007200   0.000000
    8       15.046392   0.000000
 
 -0.3125000E+00  0.4375000E+00  0.6250000E-01  0.2343750E-01
    1       -2.481846   1.000000
    2       -1.302554   1.000000
    3        1.608635   1.000000
    4        3.220283   1.000000
    5        7.409325   0.000000
    6       10.053919   0.000000
    7       12.444504   0.000000
    8       13.612590   0.000000
 
 -0.1875000E+00  0.4375000E+00  0.6250000E-01  0.2343750E-01
    1       -3.247445   1.000000
    2       -0.911614   1.000000
    3        2.187880   1.000000
    4        3.833255   1.000000
    5        8.099612   0.000000
    6       10.104658   0.000000
    7       11.676688   0.000000
    8       12.928110   0.000000
 
 -0.6250000E-01  0.4375000E+00  0.6250000E-01  0.2343750E-01
    1       -3.865910   1.000000
    2       -0.773154   1.000000
    3        3.725346   1.000000
    4        4.435377   1.000000
    5        8.184971   0.000000
    6        9.082300   0.000000
    7        9.883396   0.000000
    8       13.481183   0.000000
 
 -0.4375000E+00 -0.4375000E+00  0.6250000E-01  0.1171875E-01
    1       -2.442876   1.000000
    2       -1.485248   1.000000
    3        2.786005   1.000000
    4        3.025668   1.000000
    5        6.590436   0.001120
    6        6.957723   0.000000
    7       15.364127   0.000000
    8       15.444513   0.000000
 
 -0.3125000E+00 -0.4375000E+00  0.6250000E-01  0.2343750E-01
    1       -3.225231   1.000000
    2       -0.528643   1.000000
    3        2.515935   1.000000
    4        3.060989   1.000000
    5        7.130104   0.000000
    6        8.033150   0.000000
    7       12.915017   0.000000
    8       14.270807   0.000000
 
 -0.1875000E+00 -0.4375000E+00  0.6250000E-01  0.2343750E-01
    1       -3.699939   1.000000
    2       -0.283605   1.000000
    3        2.590422   1.000000
    4        3.672071   1.000000
    5        7.847127   0.000000
    6       10.397719   0.000000
    7       10.660822   0.000000
    8       11.897460   0.000000
 
 -0.3125000E+00 -0.3125000E+00  0.6250000E-01  0.1171875E-01
    1       -4.081736   1.000000
    2        0.594190   1.000000
    3        3.206283   1.000000
    4        3.392721   1.000000
    5        6.737706   0.000021
    6        7.899623   0.000000
    7       13.085329   0.000000
    8       13.156361   0.000000
 
 -0.1875000E+00 -0.3125000E+00  0.6250000E-01  0.2343750E-01
    1       -4.617205   1.000000
    2        1.302672   1.000000
    3        3.255259   1.000000
    4        3.919190   1.000000
    5        7.624151   0.000000
    6        9.209117   0.000000
    7       10.926583   0.000000
    8       11.929729   0.000000
 
 -0.1875000E+00 -0.1875000E+00  0.6250000E-01  0.1171875E-01
    1       -5.269054   1.000000
    2        2.695368   1.000000
    3        4.187352   1.000000
    4        4.215003   1.000000
    5        7.385711   0.000000
    6        9.580437   0.000000
    7       10.851260   0.000000
    8       11.018263   0.000000
 
  0.1875000E+00  0.1875000E+00  0.1875000E+00  0.3906250E-02
    1       -5.676405   1.000000
    2        3.064445   1.000000
    3        5.315452   1.000000
    4        5.315452   1.000000
    5        8.127999   0.000000
    6        9.178213   0.000000
    7        9.178213   0.000000
    8       11.678829   0.000000
 
  0.3125000E+00  0.1875000E+00  0.1875000E+00  0.1171875E-01
    1       -5.278801   1.000000
    2        2.225906   1.000000
    3        3.770132   1.000000
    4        5.337431   1.000000
    5        8.785625   0.000000
    6        9.300555   0.000000
    7        9.611552   0.000000
    8       11.663707   0.000000
 
  0.4375000E+00  0.1875000E+00  0.1875000E+00  0.1171875E-01
    1       -4.520327   1.000000
    2        0.846328   1.000000
    3        2.669351   1.000000
    4        4.821153   1.000000
    5        8.602201   0.000000
    6       10.069585   0.000000
    7       10.294023   0.000000
    8       11.948266   0.000000
 
 -0.4375000E+00  0.1875000E+00  0.1875000E+00  0.1171875E-01
    1       -3.608598   1.000000
    2       -0.672636   1.000000
    3        2.523786   1.000000
    4        4.278466   1.000000
    5        8.077812   0.000000
    6       10.275034   0.000000
    7       10.459939   0.000000
    8       13.825075   0.000000
 
 -0.3125000E+00  0.1875000E+00  0.1875000E+00  0.1171875E-01
    1       -3.593032   1.000000
    2       -0.701068   1.000000
    3        2.831428   1.000000
    4        3.953184   1.000000
    5        7.786330   0.000000
    6       10.355729   0.000000
    7       10.814030   0.000000
    8       11.822894   0.000000
 
 -0.1875000E+00  0.1875000E+00  0.1875000E+00  0.1171875E-01
    1       -4.503908   1.000000
    2        0.841992   1.000000
    3        3.452628   1.000000
    4        3.927652   1.000000
    5        7.714037   0.000000
    6        9.947133   0.000000
    7       10.633275   0.000000
    8       11.202102   0.000000
 
  0.3125000E+00  0.3125000E+00  0.1875000E+00  0.1171875E-01
    1       -5.018346   1.000000
    2        1.548769   1.000000
    3        4.299424   1.000000
    4        4.353557   1.000000
    5        8.127846   0.000000
    6        9.560185   0.000000
    7       10.442886   0.000000
    8       10.790209   0.000000
 
  0.4375000E+00  0.3125000E+00  0.1875000E+00  0.2343750E-01
    1       -4.382680   1.000000
    2        0.784860   1.000000
    3        2.726612   1.000000
    4        4.155365   1.000000
    5        8.618741   0.000000
    6        9.703067   0.000000
    7       10.156885   0.000000
    8       11.739150   0.000000
 
 -0.4375000E+00  0.3125000E+00  0.1875000E+00  0.2343750E-01
    1       -3.476302   1.000000
    2       -0.326459   1.000000
    3        1.920486   1.000000
    4        3.572081   1.000000
    5        9.077161   0.000000
    6        9.572120   0.000000
    7       10.878054   0.000000
    8       12.859095   0.000000
 
 -0.3125000E+00  0.3125000E+00  0.1875000E+00  0.2343750E-01
    1       -2.978097   1.000000
    2       -0.954271   1.000000
    3        1.929115   1.000000
    4        3.251492   1.000000
    5        8.595164   0.000000
    6        9.908264   0.000000
    7       11.671087   0.000000
    8       13.016603   0.000000
 
 -0.1875000E+00  0.3125000E+00  0.1875000E+00  0.2343750E-01
    1       -3.767158   1.000000
    2        0.073772   1.000000
    3        2.354814   1.000000
    4        3.434924   1.000000
    5        8.322247   0.000000
    6        9.545731   0.000000
    7       10.474380   0.000000
    8       12.996185   0.000000
 
  0.4375000E+00  0.4375000E+00  0.1875000E+00  0.1171875E-01
    1       -3.878509   1.000000
    2        0.127027   1.000000
    3        2.698715   1.000000
    4        3.590610   1.000000
    5        7.320231   0.000000
    6        9.381874   0.000000
    7       11.750864   0.000000
    8       12.040561   0.000000
 
 -0.4375000E+00  0.4375000E+00  0.1875000E+00  0.2343750E-01
    1       -3.062006   1.000000
    2       -0.671199   1.000000
    3        2.103465   1.000000
    4        2.885818   1.000000
    5        8.111240   0.000000
    6        9.138600   0.000000
    7       11.373761   0.000000
    8       14.247475   0.000000
 
 -0.3125000E+00  0.4375000E+00  0.1875000E+00  0.2343750E-01
    1       -2.238961   1.000000
    2       -1.434173   1.000000
    3        1.773798   1.000000
    4        2.371741   1.000000
    5        9.249766   0.000000
    6       10.181175   0.000000
    7       10.920657   0.000000
    8       11.928644   0.000000
 
 -0.1875000E+00  0.4375000E+00  0.1875000E+00  0.2343750E-01
    1       -2.851337   1.000000
    2       -0.883464   1.000000
    3        1.770307   1.000000
    4        2.858451   1.000000
    5        9.346937   0.000000
    6        9.789388   0.000000
    7       10.585398   0.000000
    8       13.110906   0.000000
 
 -0.4375000E+00 -0.4375000E+00  0.1875000E+00  0.1171875E-01
    1       -2.407237   1.000000
    2       -1.417288   1.000000
    3        1.881178   1.000000
    4        3.241931   1.000000
    5        6.871548   0.000000
    6        8.815361   0.000000
    7       13.908276   0.000000
    8       14.143324   0.000000
 
 -0.3125000E+00 -0.4375000E+00  0.1875000E+00  0.2343750E-01
    1       -2.305444   1.000000
    2       -1.444251   1.000000
    3        1.977310   1.000000
    4        2.594442   1.000000
    5        8.001640   0.000000
    6        8.933915   0.000000
    7       12.388405   0.000000
    8       13.521418   0.000000
 
 -0.3125000E+00 -0.3125000E+00  0.1875000E+00  0.1171875E-01
    1       -3.161396   1.000000
    2       -0.635903   1.000000
    3        2.156741   1.000000
    4        3.359766   1.000000
    5        7.029384   0.000000
    6        9.003630   0.000000
    7       12.931110   0.000000
    8       12.960526   0.000000
 
  0.3125000E+00  0.3125000E+00  0.3125000E+00  0.3906250E-02
    1       -4.908600   1.000000
    2        0.833263   1.000000
    3        4.895708   1.000000
    4        4.895708   1.000000
    5        7.678714   0.000000
    6        9.406592   0.000000
    7        9.406592   0.000000
    8       13.604648   0.000000
 
  0.4375000E+00  0.3125000E+00  0.3125000E+00  0.1171875E-01
    1       -4.421167   1.000000
    2        0.253635   1.000000
    3        3.406635   1.000000
    4        4.806741   1.000000
    5        8.385344   0.000000
    6        9.639961   0.000000
    7        9.680610   0.000000
    8       12.965762   0.000000
 
 -0.4375000E+00  0.3125000E+00  0.3125000E+00  0.1171875E-01
    1       -3.615723   1.000000
    2       -0.266139   1.000000
    3        1.839227   1.000000
    4        4.212980   1.000000
    5        7.993206   0.000000
    6       11.111447   0.000000
    7       11.307554   0.000000
    8       12.739458   0.000000
 
 -0.3125000E+00  0.3125000E+00  0.3125000E+00  0.1171875E-01
    1       -2.779070   1.000000
    2       -1.052506   1.000000
    3        1.488454   1.000000
    4        3.654419   1.000000
    5        7.351275   0.000000
    6       11.306026   0.000000
    7       12.406442   0.000000
    8       12.721916   0.000000
 
  0.4375000E+00  0.4375000E+00  0.3125000E+00  0.1171875E-01
    1       -4.100710   1.000000
    2       -0.314778   1.000000
    3        3.754879   1.000000
    4        4.228942   1.000000
    5        8.065774   0.000000
    6        9.434703   0.000000
    7       10.171943   0.000000
    8       12.248621   0.000000
 
 -0.4375000E+00  0.4375000E+00  0.3125000E+00  0.2343750E-01
    1       -3.470021   1.000000
    2       -0.667936   1.000000
    3        2.415830   1.000000
    4        3.740412   1.000000
    5        8.834868   0.000000
    6        9.174843   0.000000
    7       11.787081   0.000000
    8       11.983475   0.000000
 
 -0.3125000E+00  0.4375000E+00  0.3125000E+00  0.2343750E-01
    1       -2.639411   1.000000
    2       -1.114149   1.000000
    3        1.582161   1.000000
    4        3.011136   1.000000
    5        8.461803   0.000000
    6       10.746447   0.000000
    7       11.562782   0.000000
    8       12.108796   0.000000
 
 -0.4375000E+00 -0.4375000E+00  0.3125000E+00  0.1171875E-01
    1       -3.104353   1.000000
    2       -0.946334   1.000000
    3        2.009428   1.000000
    4        3.756504   1.000000
    5        7.506129   0.000000
    6       11.275800   0.000000
    7       11.593864   0.000000
    8       11.736593   0.000000
 
  0.4375000E+00  0.4375000E+00  0.4375000E+00  0.3906250E-02
    1       -4.000607   1.000000
    2       -0.839121   1.000000
    3        4.669679   1.000000
    4        4.669679   1.000000
    5        7.425902   0.000000
    6        9.252026   0.000000
    7        9.252026   0.000000
    8       13.625920   0.000000
 
 -0.4375000E+00  0.4375000E+00  0.4375000E+00  0.1171875E-01
    1       -3.642586   1.000000
    2       -1.014204   1.000000
    3        3.431428   1.000000
    4        4.395820   1.000000
    5        8.111062   0.000000
    6        9.411246   0.000000
    7        9.849296   0.000000
    8       14.078302   0.000000
