   2   2   0   0
  0.1529437E+02  0.3691622E-09  0.3691622E-09  0.3691622E-09  0.5000000E-15
  1.000000000000000E-004
  CAR 
 unknown system                          
     22.01083479     -6.24066676  301      9.25974041      1.00000000
     -6.241  0.0000E+00  0.0000E+00
     -6.146  0.0000E+00  0.0000E+00
     -6.052  0.0000E+00  0.0000E+00
     -5.958  0.0000E+00  0.0000E+00
     -5.864  0.0000E+00  0.0000E+00
     -5.770  0.0000E+00  0.0000E+00
     -5.676  0.0000E+00  0.0000E+00
     -5.581  0.0000E+00  0.0000E+00
     -5.487  0.0000E+00  0.0000E+00
     -5.393  0.1474E-16  0.1388E-17
     -5.299  0.3193E-14  0.3021E-15
     -5.205  0.4072E-12  0.3865E-13
     -5.111  0.3357E-10  0.3200E-11
     -5.016  0.1790E-08  0.1718E-09
     -4.922  0.6182E-07  0.5993E-08
     -4.828  0.1384E-05  0.1363E-06
     -4.734  0.2010E-04  0.2029E-05
     -4.640  0.1897E-03  0.1989E-04
     -4.546  0.1164E-02  0.1295E-03
     -4.451  0.4650E-02  0.5674E-03
     -4.357  0.1211E-01  0.1707E-02
     -4.263  0.2055E-01  0.3642E-02
     -4.169  0.2274E-01  0.5784E-02
     -4.075  0.1642E-01  0.7331E-02
     -3.981  0.7732E-02  0.8059E-02
     -3.886  0.2373E-02  0.8282E-02
     -3.792  0.4755E-03  0.8327E-02
     -3.698  0.7823E-04  0.8334E-02
     -3.604  0.1481E-03  0.8348E-02
     -3.510  0.8028E-03  0.8424E-02
     -3.416  0.2935E-02  0.8700E-02
     -3.321  0.7000E-02  0.9360E-02
     -3.227  0.1095E-01  0.1039E-01
     -3.133  0.1173E-01  0.1150E-01
     -3.039  0.1111E-01  0.1254E-01
     -2.945  0.1653E-01  0.1410E-01
     -2.850  0.3179E-01  0.1709E-01
     -2.756  0.4876E-01  0.2168E-01
     -2.662  0.5684E-01  0.2704E-01
     -2.568  0.5792E-01  0.3249E-01
     -2.474  0.5590E-01  0.3776E-01
     -2.380  0.4533E-01  0.4202E-01
     -2.285  0.2664E-01  0.4453E-01
     -2.191  0.1072E-01  0.4554E-01
     -2.097  0.3970E-02  0.4592E-01
     -2.003  0.6210E-02  0.4650E-01
     -1.909  0.1768E-01  0.4817E-01
     -1.815  0.3530E-01  0.5149E-01
     -1.720  0.4630E-01  0.5585E-01
     -1.626  0.4075E-01  0.5969E-01
     -1.532  0.2757E-01  0.6228E-01
     -1.438  0.2180E-01  0.6434E-01
     -1.344  0.2356E-01  0.6656E-01
     -1.250  0.2233E-01  0.6866E-01
     -1.155  0.1464E-01  0.7004E-01
     -1.061  0.6314E-02  0.7063E-01
     -0.967  0.1778E-02  0.7080E-01
     -0.873  0.3300E-03  0.7083E-01
     -0.779  0.9451E-04  0.7084E-01
     -0.685  0.4986E-03  0.7089E-01
     -0.590  0.2872E-02  0.7116E-01
     -0.496  0.1084E-01  0.7218E-01
     -0.402  0.2666E-01  0.7469E-01
     -0.308  0.4289E-01  0.7873E-01
     -0.214  0.4602E-01  0.8306E-01
     -0.120  0.3680E-01  0.8653E-01
     -0.025  0.3285E-01  0.8962E-01
      0.069  0.4393E-01  0.9376E-01
      0.163  0.6216E-01  0.9961E-01
      0.257  0.8081E-01  0.1072E+00
      0.351  0.9807E-01  0.1165E+00
      0.446  0.9951E-01  0.1258E+00
      0.540  0.7454E-01  0.1328E+00
      0.634  0.4205E-01  0.1368E+00
      0.728  0.2573E-01  0.1392E+00
      0.822  0.2460E-01  0.1415E+00
      0.916  0.2511E-01  0.1439E+00
      1.011  0.2496E-01  0.1463E+00
      1.105  0.3199E-01  0.1493E+00
      1.199  0.4384E-01  0.1534E+00
      1.293  0.4542E-01  0.1577E+00
      1.387  0.3170E-01  0.1607E+00
      1.481  0.1517E-01  0.1621E+00
      1.576  0.7673E-02  0.1628E+00
      1.670  0.1060E-01  0.1638E+00
      1.764  0.1857E-01  0.1656E+00
      1.858  0.2293E-01  0.1677E+00
      1.952  0.1877E-01  0.1695E+00
      2.046  0.1086E-01  0.1705E+00
      2.141  0.8007E-02  0.1713E+00
      2.235  0.1588E-01  0.1728E+00
      2.329  0.3344E-01  0.1759E+00
      2.423  0.4999E-01  0.1806E+00
      2.517  0.5405E-01  0.1857E+00
      2.611  0.4749E-01  0.1902E+00
      2.706  0.4078E-01  0.1940E+00
      2.800  0.4162E-01  0.1979E+00
      2.894  0.4996E-01  0.2026E+00
      2.988  0.5831E-01  0.2081E+00
      3.082  0.6667E-01  0.2144E+00
      3.177  0.8294E-01  0.2222E+00
      3.271  0.9629E-01  0.2313E+00
      3.365  0.8588E-01  0.2394E+00
      3.459  0.5938E-01  0.2450E+00
      3.553  0.4253E-01  0.2490E+00
      3.647  0.4105E-01  0.2528E+00
      3.742  0.4202E-01  0.2568E+00
      3.836  0.3855E-01  0.2604E+00
      3.930  0.3725E-01  0.2639E+00
      4.024  0.4370E-01  0.2681E+00
      4.118  0.4828E-01  0.2726E+00
      4.212  0.3904E-01  0.2763E+00
      4.307  0.2121E-01  0.2783E+00
      4.401  0.7922E-02  0.2790E+00
      4.495  0.3932E-02  0.2794E+00
      4.589  0.8447E-02  0.2802E+00
      4.683  0.2149E-01  0.2822E+00
      4.777  0.4096E-01  0.2861E+00
      4.872  0.5873E-01  0.2916E+00
      4.966  0.6540E-01  0.2978E+00
      5.060  0.6194E-01  0.3036E+00
      5.154  0.6066E-01  0.3093E+00
      5.248  0.6701E-01  0.3156E+00
      5.342  0.7206E-01  0.3224E+00
      5.437  0.7003E-01  0.3290E+00
      5.531  0.6458E-01  0.3351E+00
      5.625  0.5459E-01  0.3402E+00
      5.719  0.3736E-01  0.3437E+00
      5.813  0.2298E-01  0.3459E+00
      5.907  0.2702E-01  0.3484E+00
      6.002  0.5422E-01  0.3535E+00
      6.096  0.9123E-01  0.3621E+00
      6.190  0.1177E+00  0.3732E+00
      6.284  0.1273E+00  0.3852E+00
      6.378  0.1206E+00  0.3966E+00
      6.473  0.9246E-01  0.4053E+00
      6.567  0.5150E-01  0.4101E+00
      6.661  0.1953E-01  0.4120E+00
      6.755  0.4906E-02  0.4124E+00
      6.849  0.8087E-03  0.4125E+00
      6.943  0.1144E-03  0.4125E+00
      7.038  0.3046E-03  0.4125E+00
      7.132  0.2108E-02  0.4127E+00
      7.226  0.9834E-02  0.4137E+00
      7.320  0.3042E-01  0.4165E+00
      7.414  0.6264E-01  0.4224E+00
      7.508  0.8636E-01  0.4306E+00
      7.603  0.8043E-01  0.4381E+00
      7.697  0.5165E-01  0.4430E+00
      7.791  0.2588E-01  0.4454E+00
      7.885  0.1962E-01  0.4473E+00
      7.979  0.3257E-01  0.4503E+00
      8.073  0.5316E-01  0.4553E+00
      8.168  0.6897E-01  0.4618E+00
      8.262  0.7796E-01  0.4692E+00
      8.356  0.8265E-01  0.4770E+00
      8.450  0.8017E-01  0.4845E+00
      8.544  0.6931E-01  0.4910E+00
      8.638  0.6173E-01  0.4969E+00
      8.733  0.7212E-01  0.5036E+00
      8.827  0.9049E-01  0.5122E+00
      8.921  0.8779E-01  0.5204E+00
      9.015  0.5898E-01  0.5260E+00
      9.109  0.3032E-01  0.5288E+00
      9.203  0.2466E-01  0.5312E+00
      9.298  0.4447E-01  0.5354E+00
      9.392  0.7609E-01  0.5425E+00
      9.486  0.9880E-01  0.5518E+00
      9.580  0.1020E+00  0.5614E+00
      9.674  0.9195E-01  0.5701E+00
      9.769  0.7693E-01  0.5773E+00
      9.863  0.5687E-01  0.5827E+00
      9.957  0.3292E-01  0.5858E+00
     10.051  0.1356E-01  0.5871E+00
     10.145  0.3929E-02  0.5874E+00
     10.239  0.1868E-02  0.5876E+00
     10.334  0.5678E-02  0.5882E+00
     10.428  0.1743E-01  0.5898E+00
     10.522  0.3594E-01  0.5932E+00
     10.616  0.5102E-01  0.5980E+00
     10.710  0.5575E-01  0.6032E+00
     10.804  0.5698E-01  0.6086E+00
     10.899  0.6102E-01  0.6143E+00
     10.993  0.7086E-01  0.6210E+00
     11.087  0.9914E-01  0.6304E+00
     11.181  0.1454E+00  0.6440E+00
     11.275  0.1725E+00  0.6603E+00
     11.369  0.1485E+00  0.6743E+00
     11.464  0.9204E-01  0.6829E+00
     11.558  0.4779E-01  0.6874E+00
     11.652  0.3667E-01  0.6909E+00
     11.746  0.4580E-01  0.6952E+00
     11.840  0.5129E-01  0.7000E+00
     11.934  0.4522E-01  0.7043E+00
     12.029  0.3768E-01  0.7078E+00
     12.123  0.3847E-01  0.7115E+00
     12.217  0.4977E-01  0.7162E+00
     12.311  0.6608E-01  0.7224E+00
     12.405  0.7492E-01  0.7294E+00
     12.499  0.6995E-01  0.7360E+00
     12.594  0.6097E-01  0.7418E+00
     12.688  0.6060E-01  0.7475E+00
     12.782  0.6505E-01  0.7536E+00
     12.876  0.6036E-01  0.7593E+00
     12.970  0.4329E-01  0.7634E+00
     13.065  0.2318E-01  0.7655E+00
     13.159  0.9005E-02  0.7664E+00
     13.253  0.2458E-02  0.7666E+00
     13.347  0.4902E-03  0.7667E+00
     13.441  0.4200E-03  0.7667E+00
     13.535  0.2574E-02  0.7669E+00
     13.630  0.1203E-01  0.7681E+00
     13.724  0.3762E-01  0.7716E+00
     13.818  0.7968E-01  0.7791E+00
     13.912  0.1166E+00  0.7901E+00
     14.006  0.1210E+00  0.8015E+00
     14.100  0.9352E-01  0.8103E+00
     14.195  0.6490E-01  0.8164E+00
     14.289  0.6624E-01  0.8227E+00
     14.383  0.9915E-01  0.8320E+00
     14.477  0.1315E+00  0.8444E+00
     14.571  0.1327E+00  0.8569E+00
     14.665  0.1134E+00  0.8675E+00
     14.760  0.1053E+00  0.8775E+00
     14.854  0.1100E+00  0.8878E+00
     14.948  0.1061E+00  0.8978E+00
     15.042  0.8985E-01  0.9063E+00
     15.136  0.7098E-01  0.9129E+00
     15.230  0.5290E-01  0.9179E+00
     15.325  0.4123E-01  0.9218E+00
     15.419  0.4278E-01  0.9258E+00
     15.513  0.4797E-01  0.9304E+00
     15.607  0.4120E-01  0.9342E+00
     15.701  0.2514E-01  0.9366E+00
     15.796  0.1477E-01  0.9380E+00
     15.890  0.1622E-01  0.9395E+00
     15.984  0.2211E-01  0.9416E+00
     16.078  0.2204E-01  0.9437E+00
     16.172  0.1456E-01  0.9451E+00
     16.266  0.6665E-02  0.9457E+00
     16.361  0.4110E-02  0.9461E+00
     16.455  0.9171E-02  0.9469E+00
     16.549  0.2324E-01  0.9491E+00
     16.643  0.4367E-01  0.9532E+00
     16.737  0.5980E-01  0.9589E+00
     16.831  0.5922E-01  0.9644E+00
     16.926  0.4216E-01  0.9684E+00
     17.020  0.2340E-01  0.9706E+00
     17.114  0.1449E-01  0.9720E+00
     17.208  0.1280E-01  0.9732E+00
     17.302  0.1130E-01  0.9742E+00
     17.396  0.1124E-01  0.9753E+00
     17.491  0.2253E-01  0.9774E+00
     17.585  0.5161E-01  0.9823E+00
     17.679  0.8407E-01  0.9902E+00
     17.773  0.9036E-01  0.9987E+00
     17.867  0.6460E-01  0.1005E+01
     17.961  0.3501E-01  0.1008E+01
     18.056  0.2624E-01  0.1011E+01
     18.150  0.3827E-01  0.1014E+01
     18.244  0.5913E-01  0.1020E+01
     18.338  0.7825E-01  0.1027E+01
     18.432  0.8624E-01  0.1035E+01
     18.526  0.7526E-01  0.1042E+01
     18.621  0.4910E-01  0.1047E+01
     18.715  0.2300E-01  0.1049E+01
     18.809  0.7615E-02  0.1050E+01
     18.903  0.2289E-02  0.1050E+01
     18.997  0.3069E-02  0.1050E+01
     19.092  0.8711E-02  0.1051E+01
     19.186  0.1750E-01  0.1053E+01
     19.280  0.2299E-01  0.1055E+01
     19.374  0.1970E-01  0.1057E+01
     19.468  0.1101E-01  0.1058E+01
     19.562  0.4073E-02  0.1058E+01
     19.657  0.1427E-02  0.1058E+01
     19.751  0.2520E-02  0.1059E+01
     19.845  0.7747E-02  0.1059E+01
     19.939  0.1642E-01  0.1061E+01
     20.033  0.2274E-01  0.1063E+01
     20.127  0.2055E-01  0.1065E+01
     20.222  0.1211E-01  0.1066E+01
     20.316  0.4650E-02  0.1067E+01
     20.410  0.1164E-02  0.1067E+01
     20.504  0.1897E-03  0.1067E+01
     20.598  0.2010E-04  0.1067E+01
     20.692  0.1384E-05  0.1067E+01
     20.787  0.6182E-07  0.1067E+01
     20.881  0.1790E-08  0.1067E+01
     20.975  0.3357E-10  0.1067E+01
     21.069  0.4073E-12  0.1067E+01
     21.163  0.3183E-14  0.1067E+01
     21.257  0.1965E-16  0.1067E+01
     21.352  0.0000E+00  0.1067E+01
     21.446  0.0000E+00  0.1067E+01
     21.540  0.0000E+00  0.1067E+01
     21.634  0.0000E+00  0.1067E+01
     21.728  0.0000E+00  0.1067E+01
     21.822  0.0000E+00  0.1067E+01
     21.917  0.0000E+00  0.1067E+01
     22.011  0.0000E+00  0.1067E+01
