<?xml version="1.0" encoding="ISO-8859-1"?>
<modeling>
 <generator>
  <i name="program" type="string">vasp </i>
  <i name="version" type="string">5.4.4.18Apr17-6-g9f103f2a35  </i>
  <i name="subversion" type="string">(build Dec 09 2018 21:25:21) complex            parallel </i>
  <i name="platform" type="string">IFC18.0.1.163_CrayMPICH7.7.0_MKL18.0.1.163 </i>
  <i name="date" type="string">2019 03 19 </i>
  <i name="time" type="string">13:08:48 </i>
 </generator>
 <incar>
  <i type="string" name="PREC">normal</i>
  <i type="int" name="IBRION">     2</i>
  <i name="EDIFF">      0.00040000</i>
  <i name="EDIFFG">     -0.01000000</i>
  <i type="int" name="NSW">    15</i>
  <i type="int" name="ISIF">     2</i>
  <i name="ENCUT">    200.00000000</i>
  <i type="int" name="NBANDS">     8</i>
  <i type="logical" name="LREAL"> F  </i>
  <i type="int" name="ISMEAR">     0</i>
  <i name="SIGMA">      0.20000000</i>
  <v type="int" name="KPOINT_BSE">    -1     0     0     0</v>
 </incar>
 <structure name="primitive_cell" >
  <crystal>
   <varray name="basis" >
    <v>      -2.45000000       2.45000000       1.27400000 </v>
    <v>       2.45000000      -2.45000000       1.27400000 </v>
    <v>       2.45000000       2.45000000      -1.27400000 </v>
   </varray>
   <i name="volume">     30.58874000 </i>
   <varray name="rec_basis" >
    <v>       0.00000000       0.20408163       0.39246468 </v>
    <v>       0.20408163       0.00000000       0.39246468 </v>
    <v>       0.20408163       0.20408163      -0.00000000 </v>
   </varray>
  </crystal>
  <varray name="positions" >
   <v>       0.25000000      -0.25000000      -0.50000000 </v>
   <v>       0.00000000       0.00000000       0.00000000 </v>
  </varray>
 </structure>
 <varray name="primitive_index" >
  <v type="int" >        1 </v>
  <v type="int" >        2 </v>
 </varray>
 <kpoints>
  <generation param="Monkhorst-Pack">
   <v type="int" name="divisions">       7        7        7 </v>
   <v name="usershift">      0.00000000       0.00000000       0.00000000 </v>
   <v name="genvec1">      0.14285714       0.00000000      -0.00000000 </v>
   <v name="genvec2">      0.00000000       0.14285714      -0.00000000 </v>
   <v name="genvec3">      0.00000000      -0.00000000       0.14285714 </v>
   <v name="shift">      0.00000000       0.00000000       0.00000000 </v>
  </generation>
  <varray name="kpointlist" >
   <v>       0.00000000       0.00000000       0.00000000 </v>
   <v>       0.14285714      -0.00000000       0.00000000 </v>
   <v>       0.28571429      -0.00000000       0.00000000 </v>
   <v>       0.42857143      -0.00000000       0.00000000 </v>
   <v>       0.14285714       0.14285714       0.00000000 </v>
   <v>       0.28571429       0.14285714       0.00000000 </v>
   <v>       0.42857143       0.14285714       0.00000000 </v>
   <v>      -0.42857143       0.14285714      -0.00000000 </v>
   <v>      -0.28571429       0.14285714      -0.00000000 </v>
   <v>      -0.14285714       0.14285714      -0.00000000 </v>
   <v>       0.28571429       0.28571429       0.00000000 </v>
   <v>       0.42857143       0.28571429       0.00000000 </v>
   <v>      -0.42857143       0.28571429      -0.00000000 </v>
   <v>      -0.28571429       0.28571429      -0.00000000 </v>
   <v>       0.42857143       0.42857143       0.00000000 </v>
   <v>      -0.42857143       0.42857143       0.00000000 </v>
   <v>       0.14285714       0.14285714       0.14285714 </v>
   <v>       0.28571429       0.14285714       0.14285714 </v>
   <v>      -0.14285714       0.14285714       0.14285714 </v>
   <v>       0.28571429       0.28571429       0.14285714 </v>
   <v>       0.42857143       0.28571429       0.14285714 </v>
   <v>      -0.28571429       0.28571429       0.14285714 </v>
   <v>      -0.14285714       0.28571429       0.14285714 </v>
   <v>      -0.42857143       0.42857143       0.14285714 </v>
   <v>      -0.28571429       0.42857143       0.14285714 </v>
   <v>      -0.14285714       0.42857143       0.14285714 </v>
   <v>      -0.42857143      -0.42857143       0.14285714 </v>
   <v>      -0.28571429      -0.42857143       0.14285714 </v>
   <v>      -0.14285714      -0.42857143       0.14285714 </v>
   <v>      -0.28571429      -0.28571429       0.14285714 </v>
   <v>      -0.14285714      -0.28571429       0.14285714 </v>
   <v>      -0.14285714      -0.14285714       0.14285714 </v>
   <v>      -0.28571429       0.28571429       0.28571429 </v>
   <v>      -0.42857143       0.42857143       0.28571429 </v>
   <v>      -0.28571429       0.42857143       0.28571429 </v>
   <v>      -0.42857143      -0.42857143       0.28571429 </v>
   <v>      -0.28571429      -0.42857143       0.28571429 </v>
   <v>      -0.28571429      -0.28571429       0.28571429 </v>
   <v>      -0.42857143       0.42857143       0.42857143 </v>
   <v>      -0.42857143      -0.42857143       0.42857143 </v>
  </varray>
  <varray name="weights" >
   <v>       0.00291545 </v>
   <v>       0.02332362 </v>
   <v>       0.02332362 </v>
   <v>       0.02332362 </v>
   <v>       0.02332362 </v>
   <v>       0.04664723 </v>
   <v>       0.04664723 </v>
   <v>       0.04664723 </v>
   <v>       0.04664723 </v>
   <v>       0.01166181 </v>
   <v>       0.02332362 </v>
   <v>       0.04664723 </v>
   <v>       0.04664723 </v>
   <v>       0.01166181 </v>
   <v>       0.02332362 </v>
   <v>       0.01166181 </v>
   <v>       0.02332362 </v>
   <v>       0.04664723 </v>
   <v>       0.01166181 </v>
   <v>       0.02332362 </v>
   <v>       0.02332362 </v>
   <v>       0.02332362 </v>
   <v>       0.02332362 </v>
   <v>       0.02332362 </v>
   <v>       0.04664723 </v>
   <v>       0.02332362 </v>
   <v>       0.02332362 </v>
   <v>       0.04664723 </v>
   <v>       0.02332362 </v>
   <v>       0.02332362 </v>
   <v>       0.02332362 </v>
   <v>       0.00583090 </v>
   <v>       0.01166181 </v>
   <v>       0.02332362 </v>
   <v>       0.02332362 </v>
   <v>       0.02332362 </v>
   <v>       0.02332362 </v>
   <v>       0.00583090 </v>
   <v>       0.01166181 </v>
   <v>       0.00583090 </v>
  </varray>
 </kpoints>
 <parameters>
  <separator name="general" >
   <i type="string" name="SYSTEM">unknown system</i>
   <i type="logical" name="LCOMPAT"> F  </i>
  </separator>
  <separator name="electronic" >
   <i type="string" name="PREC">normal</i>
   <i name="ENMAX">    200.00000000</i>
   <i name="ENAUG">    322.06900000</i>
   <i name="EDIFF">      0.00040000</i>
   <i type="int" name="IALGO">    38</i>
   <i type="int" name="IWAVPR">    11</i>
   <i type="int" name="NBANDS">     8</i>
   <i name="NELECT">      8.00000000</i>
   <i type="int" name="TURBO">     0</i>
   <i type="int" name="IRESTART">     0</i>
   <i type="int" name="NREBOOT">     0</i>
   <i type="int" name="NMIN">     0</i>
   <i name="EREF">      0.00000000</i>
   <separator name="electronic smearing" >
    <i type="int" name="ISMEAR">     0</i>
    <i name="SIGMA">      0.20000000</i>
    <i name="KSPACING">      0.50000000</i>
    <i type="logical" name="KGAMMA"> T  </i>
   </separator>
   <separator name="electronic projectors" >
    <i type="logical" name="LREAL"> F  </i>
    <v name="ROPT">      0.00000000</v>
    <i type="int" name="LMAXPAW">  -100</i>
    <i type="int" name="LMAXMIX">     2</i>
    <i type="logical" name="NLSPLINE"> F  </i>
   </separator>
   <separator name="electronic startup" >
    <i type="int" name="ISTART">     1</i>
    <i type="int" name="ICHARG">     0</i>
    <i type="int" name="INIWAV">     1</i>
   </separator>
   <separator name="electronic spin" >
    <i type="int" name="ISPIN">     1</i>
    <i type="logical" name="LNONCOLLINEAR"> F  </i>
    <v name="MAGMOM">      1.00000000      1.00000000</v>
    <i name="NUPDOWN">     -1.00000000</i>
    <i type="logical" name="LSORBIT"> F  </i>
    <v name="SAXIS">      0.00000000      0.00000000      1.00000000</v>
    <i type="logical" name="LSPIRAL"> F  </i>
    <v name="QSPIRAL">      0.00000000      0.00000000      0.00000000</v>
    <i type="logical" name="LZEROZ"> F  </i>
   </separator>
   <separator name="electronic exchange-correlation" >
    <i type="logical" name="LASPH"> F  </i>
    <i type="logical" name="LMETAGGA"> F  </i>
   </separator>
   <separator name="electronic convergence" >
    <i type="int" name="NELM">    60</i>
    <i type="int" name="NELMDL">     0</i>
    <i type="int" name="NELMIN">     2</i>
    <i name="ENINI">    200.00000000</i>
    <separator name="electronic convergence detail" >
     <i type="logical" name="LDIAG"> T  </i>
     <i type="logical" name="LSUBROT"> F  </i>
     <i name="WEIMIN">      0.00100000</i>
     <i name="EBREAK">      0.00001250</i>
     <i name="DEPER">      0.30000000</i>
     <i type="int" name="NRMM">     4</i>
     <i name="TIME">      0.40000000</i>
    </separator>
   </separator>
   <separator name="electronic mixer" >
    <i name="AMIX">      0.40000000</i>
    <i name="BMIX">      1.00000000</i>
    <i name="AMIN">      0.10000000</i>
    <i name="AMIX_MAG">      1.60000000</i>
    <i name="BMIX_MAG">      1.00000000</i>
    <separator name="electronic mixer details" >
     <i type="int" name="IMIX">     4</i>
     <i type="logical" name="MIXFIRST"> F  </i>
     <i type="int" name="MAXMIX">   -45</i>
     <i name="WC">    100.00000000</i>
     <i type="int" name="INIMIX">     1</i>
     <i type="int" name="MIXPRE">     1</i>
     <i type="int" name="MREMOVE">     5</i>
    </separator>
   </separator>
   <separator name="electronic dipolcorrection" >
    <i type="logical" name="LDIPOL"> F  </i>
    <i type="logical" name="LMONO"> F  </i>
    <i type="int" name="IDIPOL">     0</i>
    <i name="EPSILON">      1.00000000</i>
    <v name="DIPOL">   -100.00000000   -100.00000000   -100.00000000</v>
    <i name="EFIELD">      0.00000000</i>
   </separator>
  </separator>
  <separator name="grids" >
   <i type="int" name="NGX">    14</i>
   <i type="int" name="NGY">    14</i>
   <i type="int" name="NGZ">    14</i>
   <i type="int" name="NGXF">    28</i>
   <i type="int" name="NGYF">    28</i>
   <i type="int" name="NGZF">    28</i>
   <i type="logical" name="ADDGRID"> F  </i>
  </separator>
  <separator name="ionic" >
   <i type="int" name="NSW">    15</i>
   <i type="int" name="IBRION">     2</i>
   <i type="int" name="MDALGO">     0</i>
   <i type="int" name="ISIF">     2</i>
   <i name="PSTRESS">      0.00000000</i>
   <i name="EDIFFG">     -0.01000000</i>
   <i type="int" name="NFREE">     1</i>
   <i name="POTIM">      0.50000000</i>
   <i name="SMASS">     -3.00000000</i>
   <i name="SCALEE">      1.00000000</i>
  </separator>
  <separator name="ionic md" >
   <i name="TEBEG">      0.00010000</i>
   <i name="TEEND">      0.00010000</i>
   <i type="int" name="NBLOCK">     1</i>
   <i type="int" name="KBLOCK">    15</i>
   <i type="int" name="NPACO">   256</i>
   <i name="APACO">     16.00000000</i>
  </separator>
  <separator name="symmetry" >
   <i type="int" name="ISYM">     2</i>
   <i name="SYMPREC">      0.00001000</i>
  </separator>
  <separator name="dos" >
   <i type="int" name="LORBIT">     0</i>
   <v name="RWIGS">     -1.00000000</v>
   <i type="int" name="NEDOS">   301</i>
   <i name="EMIN">     10.00000000</i>
   <i name="EMAX">    -10.00000000</i>
   <i name="EFERMI">      0.00000000</i>
  </separator>
  <separator name="writing" >
   <i type="int" name="NWRITE">     2</i>
   <i type="logical" name="LWAVE"> T  </i>
   <i type="logical" name="LDOWNSAMPLE"> F  </i>
   <i type="logical" name="LCHARG"> T  </i>
   <i type="logical" name="LPARD"> F  </i>
   <i type="logical" name="LVTOT"> F  </i>
   <i type="logical" name="LVHAR"> F  </i>
   <i type="logical" name="LELF"> F  </i>
   <i type="logical" name="LOPTICS"> F  </i>
   <v name="STM">      0.00000000      0.00000000      0.00000000      0.00000000      0.00000000      0.00000000      0.00000000</v>
  </separator>
  <separator name="performance" >
   <i type="int" name="NPAR">     8</i>
   <i type="int" name="NSIM">     4</i>
   <i type="int" name="NBLK">    -1</i>
   <i type="logical" name="LPLANE"> T  </i>
   <i type="logical" name="LSCALAPACK"> T  </i>
   <i type="logical" name="LSCAAWARE"> F  </i>
   <i type="logical" name="LSCALU"> F  </i>
   <i type="logical" name="LASYNC"> F  </i>
   <i type="logical" name="LORBITALREAL"> F  </i>
  </separator>
  <separator name="miscellaneous" >
   <i type="int" name="IDIOT">     3</i>
   <i type="int" name="ISPECIAL">     0</i>
   <i type="logical" name="LMUSIC"> F  </i>
   <v name="POMASS">     28.08500000</v>
   <v name="DARWINR">      0.00000000</v>
   <v name="DARWINV">      1.00000000</v>
   <i type="logical" name="LCORR"> T  </i>
  </separator>
  <i type="logical" name="GGA_COMPAT"> T  </i>
  <i type="logical" name="LBERRY"> F  </i>
  <i type="int" name="ICORELEVEL">     0</i>
  <i type="logical" name="LDAU"> F  </i>
  <i type="int" name="I_CONSTRAINED_M">     0</i>
  <separator name="electronic exchange-correlation" >
   <i type="string" name="GGA">--</i>
   <i type="int" name="VOSKOWN">     0</i>
   <i type="logical" name="LHFCALC"> F  </i>
   <i type="string" name="PRECFOCK"></i>
   <i type="logical" name="LSYMGRAD"> F  </i>
   <i type="logical" name="LHFONE"> F  </i>
   <i type="logical" name="LRHFCALC"> F  </i>
   <i type="logical" name="LTHOMAS"> F  </i>
   <i type="logical" name="LMODELHF"> F  </i>
   <i name="ENCUT4O">     -1.00000000</i>
   <i type="int" name="EXXOEP">     0</i>
   <i type="int" name="FOURORBIT">     0</i>
   <i name="AEXX">      0.00000000</i>
   <i name="HFALPHA">      0.00000000</i>
   <i name="MCALPHA">      0.00000000</i>
   <i name="ALDAX">      1.00000000</i>
   <i name="AGGAX">      1.00000000</i>
   <i name="ALDAC">      1.00000000</i>
   <i name="AGGAC">      1.00000000</i>
   <i type="int" name="NKREDX">     1</i>
   <i type="int" name="NKREDY">     1</i>
   <i type="int" name="NKREDZ">     1</i>
   <i type="logical" name="SHIFTRED"> F  </i>
   <i type="logical" name="ODDONLY"> F  </i>
   <i type="logical" name="EVENONLY"> F  </i>
   <i type="int" name="LMAXFOCK">     0</i>
   <i type="int" name="NMAXFOCKAE">     0</i>
   <i type="logical" name="LFOCKAEDFT"> F  </i>
   <i name="HFSCREEN">      0.00000000</i>
   <i name="HFSCREENC">      0.00000000</i>
   <i type="int" name="NBANDSGWLOW">     0</i>
  </separator>
  <separator name="vdW DFT" >
   <i type="logical" name="LUSE_VDW"> F  </i>
   <i name="Zab_VDW">     -0.84910000</i>
   <i name="PARAM1">      0.12340000</i>
   <i name="PARAM2">      1.00000000</i>
   <i name="PARAM3">      0.00000000</i>
  </separator>
  <separator name="model GW" >
   <i type="int" name="MODEL_GW">     0</i>
   <i name="MODEL_EPS0">      9.17662200</i>
   <i name="MODEL_ALPHA">      1.00000000</i>
  </separator>
  <separator name="linear response parameters" >
   <i type="logical" name="LEPSILON"> F  </i>
   <i type="logical" name="LRPA"> F  </i>
   <i type="logical" name="LNABLA"> F  </i>
   <i type="logical" name="LVEL"> F  </i>
   <i type="int" name="KINTER">     0</i>
   <i name="CSHIFT">      0.10000000</i>
   <i name="OMEGAMAX">     -1.00000000</i>
   <i name="DEG_THRESHOLD">      0.00200000</i>
   <i name="RTIME">     -0.10000000</i>
   <i name="WPLASMAI">      0.00000000</i>
   <v name="DFIELD">      0.00000000      0.00000000      0.00000000</v>
   <v name="WPLASMA">      0.00000000      0.00000000      0.00000000      0.00000000      0.00000000      0.00000000      0.00000000      0.00000000      0.00000000</v>
  </separator>
  <separator name="orbital magnetization" >
   <i type="logical" name="NUCIND"> F  </i>
   <v name="MAGPOS">      0.00000000      0.00000000      0.00000000</v>
   <i type="logical" name="LNICSALL"> T  </i>
   <i type="logical" name="ORBITALMAG"> F  </i>
   <i type="logical" name="LMAGBLOCH"> F  </i>
   <i type="logical" name="LCHIMAG"> F  </i>
   <i type="logical" name="LGAUGE"> T  </i>
   <i type="int" name="MAGATOM">     0</i>
   <v name="MAGDIPOL">      0.00000000      0.00000000      0.00000000</v>
   <v name="AVECCONST">      0.00000000      0.00000000      0.00000000</v>
  </separator>
  <separator name="response functions" >
   <i type="logical" name="LADDER"> F  </i>
   <i type="logical" name="LRPAFORCE"> F  </i>
   <i type="logical" name="LFXC"> F  </i>
   <i type="logical" name="LHARTREE"> T  </i>
   <i type="int" name="IBSE">     0</i>
   <v type="int" name="KPOINT">    -1     0     0     0</v>
   <i type="logical" name="LTCTE"> F  </i>
   <i type="logical" name="LTETE"> F  </i>
   <i type="logical" name="LTRIPLET"> F  </i>
   <i type="logical" name="LFXCEPS"> F  </i>
   <i type="logical" name="LFXHEG"> F  </i>
   <i type="int" name="NATURALO">     2</i>
   <i type="logical" name="L2ORDER"> F  </i>
   <i type="logical" name="LMP2LT"> F  </i>
   <i type="logical" name="LUSEW"> F  </i>
   <i name="ENCUTGW">     -2.00000000</i>
   <i name="ENCUTGWSOFT">     -2.00000000</i>
   <i name="ENCUTLF">     -1.00000000</i>
   <i type="int" name="LMAXMP2">    -1</i>
   <i name="SCISSOR">      0.00000000</i>
   <i type="int" name="NOMEGA">     0</i>
   <i type="int" name="NOMEGAR">     0</i>
   <i type="int" name="NBANDSGW">    -1</i>
   <i type="int" name="NBANDSO">    -1</i>
   <i type="int" name="NBANDSV">    -1</i>
   <i type="int" name="NELM">     1</i>
   <i type="int" name="NELMHF">     1</i>
   <i type="int" name="DIM">     3</i>
   <i type="int" name="ANTIRES">     0</i>
   <i name="OMEGAMAX">    -30.00000000</i>
   <i name="OMEGAMIN">    -30.00000000</i>
   <i name="OMEGATL">   -200.00000000</i>
   <i type="int" name="OMEGAGRID">   140</i>
   <i name="CSHIFT">     -0.10000000</i>
   <i type="logical" name="SELFENERGY"> F  </i>
   <i type="logical" name="LSPECTRAL"> F  </i>
   <i type="logical" name="LSPECTRALGW"> F  </i>
   <i type="logical" name="LSINGLES"> F  </i>
   <i type="logical" name="LFERMIGW"> F  </i>
   <i type="logical" name="ODDONLYGW"> F  </i>
   <i type="logical" name="EVENONLYGW"> F  </i>
   <i type="int" name="NKREDLFX">     1</i>
   <i type="int" name="NKREDLFY">     1</i>
   <i type="int" name="NKREDLFZ">     1</i>
   <i type="int" name="MAXMEM">  2800</i>
   <i type="int" name="TELESCOPE">     0</i>
   <i type="int" name="TAUPAR">     1</i>
   <i type="int" name="OMEGAPAR">    -1</i>
   <i name="LAMBDA">      1.00000000</i>
  </separator>
  <separator name="External order field" >
   <i name="OFIELD_KAPPA">      0.00000000</i>
   <v name="OFIELD_K">      0.00000000      0.00000000      0.00000000</v>
   <i name="OFIELD_Q6_NEAR">      0.00000000</i>
   <i name="OFIELD_Q6_FAR">      0.00000000</i>
   <i name="OFIELD_A">      0.00000000</i>
  </separator>
 </parameters>
 <atominfo>
  <atoms>       2 </atoms>
  <types>       1 </types>
  <array name="atoms" >
   <dimension dim="1">ion</dimension>
   <field type="string">element</field>
   <field type="int">atomtype</field>
   <set>
    <rc><c>Si</c><c>   1</c></rc>
    <rc><c>Si</c><c>   1</c></rc>
   </set>
  </array>
  <array name="atomtypes" >
   <dimension dim="1">type</dimension>
   <field type="int">atomspertype</field>
   <field type="string">element</field>
   <field>mass</field>
   <field>valence</field>
   <field type="string">pseudopotential</field>
   <set>
    <rc><c>   2</c><c>Si</c><c>     28.08500000</c><c>      4.00000000</c><c> PAW_PBE Si 05Jan2001                   </c></rc>
   </set>
  </array>
 </atominfo>
 <structure name="initialpos" >
  <crystal>
   <varray name="basis" >
    <v>      -2.45000000       2.45000000       1.27400000 </v>
    <v>       2.45000000      -2.45000000       1.27400000 </v>
    <v>       2.45000000       2.45000000      -1.27400000 </v>
   </varray>
   <i name="volume">     30.58874000 </i>
   <varray name="rec_basis" >
    <v>       0.00000000       0.20408163       0.39246468 </v>
    <v>       0.20408163       0.00000000       0.39246468 </v>
    <v>       0.20408163       0.20408163      -0.00000000 </v>
   </varray>
  </crystal>
  <varray name="positions" >
   <v>       0.25000000       0.75000000       0.50000000 </v>
   <v>       0.00000000       0.00000000       0.00000000 </v>
  </varray>
 </structure>
 <calculation>
  <scstep>
   <time name="dav">    0.19    0.19</time>
   <time name="total">    0.24    0.28</time>
   <energy>
    <i name="alphaZ">      4.40202223 </i>
    <i name="ewald">   -265.18101312 </i>
    <i name="hartreedc">     -2.50570435 </i>
    <i name="XCdc">    -17.56202815 </i>
    <i name="pawpsdc">     71.43944344 </i>
    <i name="pawaedc">    -36.36273430 </i>
    <i name="eentropy">     -0.01612530 </i>
    <i name="bandstr">     29.46069696 </i>
    <i name="atom">    206.11247263 </i>
    <i name="e_fr_energy">    -10.21296997 </i>
    <i name="e_wo_entrp">    -10.19684467 </i>
    <i name="e_0_energy">    -10.20490732 </i>
   </energy>
  </scstep>
  <scstep>
   <time name="dav">    0.19    0.19</time>
   <time name="total">    0.22    0.23</time>
   <energy>
    <i name="alphaZ">      4.40202223 </i>
    <i name="ewald">   -265.18101312 </i>
    <i name="hartreedc">     -2.50603647 </i>
    <i name="XCdc">    -17.56200362 </i>
    <i name="pawpsdc">     71.43980317 </i>
    <i name="pawaedc">    -36.36311080 </i>
    <i name="eentropy">     -0.01612219 </i>
    <i name="bandstr">     29.46101875 </i>
    <i name="atom">    206.11247263 </i>
    <i name="e_fr_energy">    -10.21296942 </i>
    <i name="e_wo_entrp">    -10.19684723 </i>
    <i name="e_0_energy">    -10.20490832 </i>
   </energy>
  </scstep>
  <structure>
   <crystal>
    <varray name="basis" >
     <v>      -2.45000000       2.45000000       1.27400000 </v>
     <v>       2.45000000      -2.45000000       1.27400000 </v>
     <v>       2.45000000       2.45000000      -1.27400000 </v>
    </varray>
    <i name="volume">     30.58874000 </i>
    <varray name="rec_basis" >
     <v>       0.00000000       0.20408163       0.39246468 </v>
     <v>       0.20408163       0.00000000       0.39246468 </v>
     <v>       0.20408163       0.20408163      -0.00000000 </v>
    </varray>
   </crystal>
   <varray name="positions" >
    <v>       0.25000000       0.75000000       0.50000000 </v>
    <v>       0.00000000       0.00000000       0.00000000 </v>
   </varray>
  </structure>
  <varray name="forces" >
   <v>       0.00000000      -0.00000000      -0.00000000 </v>
   <v>      -0.00000000       0.00000000       0.00000000 </v>
  </varray>
  <varray name="stress" >
   <v>     -37.88294120       0.00000000      -0.00000000 </v>
   <v>      -0.00000000     -37.88294120       0.00000000 </v>
   <v>       0.00000000       0.00000000      89.56688881 </v>
  </varray>
  <energy>
   <i name="e_fr_energy">    -10.21296942 </i>
   <i name="e_wo_entrp">    -10.20490832 </i>
   <i name="e_0_energy">     -0.01612219 </i>
  </energy>
  <time name="totalsc">    1.21    1.72</time>
  <eigenvalues>
   <array>
    <dimension dim="1">band</dimension>
    <dimension dim="2">kpoint</dimension>
    <dimension dim="3">spin</dimension>
    <field>eigene</field>
    <field>occ</field>
    <set>
     <set comment="spin 1">
      <set comment="kpoint 1">
       <r>   -4.6137    1.0000 </r>
       <r>    6.2034    1.0000 </r>
       <r>    6.3030    1.0000 </r>
       <r>    6.3030    1.0000 </r>
       <r>   10.6000    0.0000 </r>
       <r>   16.9504    0.0000 </r>
       <r>   17.3769    0.0000 </r>
       <r>   17.3769    0.0000 </r>
      </set>
      <set comment="kpoint 2">
       <r>   -4.0380    1.0000 </r>
       <r>    5.1672    1.0000 </r>
       <r>    6.2419    1.0000 </r>
       <r>    8.3309    1.0000 </r>
       <r>   11.7328    0.0000 </r>
       <r>   14.5853    0.0000 </r>
       <r>   14.9613    0.0000 </r>
       <r>   16.6416    0.0000 </r>
      </set>
      <set comment="kpoint 3">
       <r>   -2.3223    1.0000 </r>
       <r>    5.1474    1.0000 </r>
       <r>    6.5444    1.0000 </r>
       <r>    8.9765    0.5924 </r>
       <r>   11.2381    0.0000 </r>
       <r>   12.1720    0.0000 </r>
       <r>   13.5691    0.0000 </r>
       <r>   14.4277    0.0000 </r>
      </set>
      <set comment="kpoint 4">
       <r>    0.4901    1.0000 </r>
       <r>    4.3641    1.0000 </r>
       <r>    6.2326    1.0000 </r>
       <r>    7.4715    1.0000 </r>
       <r>    8.4599    0.9999 </r>
       <r>   10.9762    0.0000 </r>
       <r>   13.5928    0.0000 </r>
       <r>   14.5395    0.0000 </r>
      </set>
      <set comment="kpoint 5">
       <r>   -2.5624    1.0000 </r>
       <r>    5.4387    1.0000 </r>
       <r>    7.9465    1.0000 </r>
       <r>    9.0911    0.2822 </r>
       <r>   10.6969    0.0000 </r>
       <r>   11.1671    0.0000 </r>
       <r>   13.6639    0.0000 </r>
       <r>   14.4438    0.0000 </r>
      </set>
      <set comment="kpoint 6">
       <r>    0.0224    1.0000 </r>
       <r>    5.4580    1.0000 </r>
       <r>    6.3285    1.0000 </r>
       <r>    6.8951    1.0000 </r>
       <r>    9.4369    0.0013 </r>
       <r>   11.5783    0.0000 </r>
       <r>   12.3800    0.0000 </r>
       <r>   13.6940    0.0000 </r>
      </set>
      <set comment="kpoint 7">
       <r>    1.4127    1.0000 </r>
       <r>    3.6581    1.0000 </r>
       <r>    4.6524    1.0000 </r>
       <r>    7.5393    1.0000 </r>
       <r>    8.8547    0.8632 </r>
       <r>   11.5512    0.0000 </r>
       <r>   12.6709    0.0000 </r>
       <r>   16.1587    0.0000 </r>
      </set>
      <set comment="kpoint 8">
       <r>   -1.6047    1.0000 </r>
       <r>    3.2234    1.0000 </r>
       <r>    6.7272    1.0000 </r>
       <r>    8.2939    1.0000 </r>
       <r>   10.6944    0.0000 </r>
       <r>   12.5696    0.0000 </r>
       <r>   13.3014    0.0000 </r>
       <r>   15.3191    0.0000 </r>
      </set>
      <set comment="kpoint 9">
       <r>   -3.5538    1.0000 </r>
       <r>    2.9633    1.0000 </r>
       <r>    6.3993    1.0000 </r>
       <r>    9.6896    0.0000 </r>
       <r>   12.4821    0.0000 </r>
       <r>   13.8026    0.0000 </r>
       <r>   14.3563    0.0000 </r>
       <r>   16.0373    0.0000 </r>
      </set>
      <set comment="kpoint 10">
       <r>   -4.3707    1.0000 </r>
       <r>    3.7554    1.0000 </r>
       <r>    6.5292    1.0000 </r>
       <r>    7.9452    1.0000 </r>
       <r>   12.0305    0.0000 </r>
       <r>   14.3559    0.0000 </r>
       <r>   15.9105    0.0000 </r>
       <r>   19.4474    0.0000 </r>
      </set>
      <set comment="kpoint 11">
       <r>    2.6515    1.0000 </r>
       <r>    2.8197    1.0000 </r>
       <r>    3.6486    1.0000 </r>
       <r>    7.6789    1.0000 </r>
       <r>    9.3391    0.0099 </r>
       <r>   10.4947    0.0000 </r>
       <r>   14.6595    0.0000 </r>
       <r>   15.3188    0.0000 </r>
      </set>
      <set comment="kpoint 12">
       <r>   -0.4192    1.0000 </r>
       <r>    1.2110    1.0000 </r>
       <r>    7.5977    1.0000 </r>
       <r>    8.0204    1.0000 </r>
       <r>    9.2911    0.0233 </r>
       <r>   11.8151    0.0000 </r>
       <r>   14.4128    0.0000 </r>
       <r>   15.9653    0.0000 </r>
      </set>
      <set comment="kpoint 13">
       <r>   -2.5907    1.0000 </r>
       <r>    0.7120    1.0000 </r>
       <r>    7.2804    1.0000 </r>
       <r>   10.3589    0.0000 </r>
       <r>   10.7892    0.0000 </r>
       <r>   13.2083    0.0000 </r>
       <r>   14.7888    0.0000 </r>
       <r>   15.2254    0.0000 </r>
      </set>
      <set comment="kpoint 14">
       <r>   -3.6438    1.0000 </r>
       <r>    1.3139    1.0000 </r>
       <r>    7.2072    1.0000 </r>
       <r>    9.0081    0.5041 </r>
       <r>   11.9330    0.0000 </r>
       <r>   13.7893    0.0000 </r>
       <r>   15.2986    0.0000 </r>
       <r>   19.0457    0.0000 </r>
      </set>
      <set comment="kpoint 15">
       <r>   -1.1617    1.0000 </r>
       <r>   -1.1600    1.0000 </r>
       <r>    8.6014    0.9981 </r>
       <r>    8.6436    0.9952 </r>
       <r>   11.7516    0.0000 </r>
       <r>   12.3187    0.0000 </r>
       <r>   14.1781    0.0000 </r>
       <r>   15.0795    0.0000 </r>
      </set>
      <set comment="kpoint 16">
       <r>   -2.4409    1.0000 </r>
       <r>   -0.7780    1.0000 </r>
       <r>    8.3375    1.0000 </r>
       <r>    9.9154    0.0000 </r>
       <r>   10.2530    0.0000 </r>
       <r>   11.8521    0.0000 </r>
       <r>   18.8100    0.0000 </r>
       <r>   18.8674    0.0000 </r>
      </set>
      <set comment="kpoint 17">
       <r>   -1.8426    1.0000 </r>
       <r>    3.0541    1.0000 </r>
       <r>    8.3674    1.0000 </r>
       <r>    9.2106    0.0776 </r>
       <r>   10.2902    0.0000 </r>
       <r>   11.1915    0.0000 </r>
       <r>   14.1246    0.0000 </r>
       <r>   14.8358    0.0000 </r>
      </set>
      <set comment="kpoint 18">
       <r>    0.9609    1.0000 </r>
       <r>    4.1149    1.0000 </r>
       <r>    4.9155    1.0000 </r>
       <r>    6.3518    1.0000 </r>
       <r>   10.6262    0.0000 </r>
       <r>   13.2029    0.0000 </r>
       <r>   13.9142    0.0000 </r>
       <r>   14.2477    0.0000 </r>
      </set>
      <set comment="kpoint 19">
       <r>   -4.1284    1.0000 </r>
       <r>    3.4540    1.0000 </r>
       <r>    4.9308    1.0000 </r>
       <r>    9.8476    0.0000 </r>
       <r>   12.2538    0.0000 </r>
       <r>   12.8937    0.0000 </r>
       <r>   17.7783    0.0000 </r>
       <r>   18.0815    0.0000 </r>
      </set>
      <set comment="kpoint 20">
       <r>    2.3311    1.0000 </r>
       <r>    2.3613    1.0000 </r>
       <r>    4.6635    1.0000 </r>
       <r>    6.1571    1.0000 </r>
       <r>   11.7026    0.0000 </r>
       <r>   12.5272    0.0000 </r>
       <r>   14.4906    0.0000 </r>
       <r>   15.4770    0.0000 </r>
      </set>
      <set comment="kpoint 21">
       <r>   -0.6512    1.0000 </r>
       <r>    0.9931    1.0000 </r>
       <r>    8.7038    0.9847 </r>
       <r>    8.9242    0.7269 </r>
       <r>   10.6865    0.0000 </r>
       <r>   11.7105    0.0000 </r>
       <r>   12.5784    0.0000 </r>
       <r>   13.6228    0.0000 </r>
      </set>
      <set comment="kpoint 22">
       <r>   -3.4040    1.0000 </r>
       <r>    1.4848    1.0000 </r>
       <r>    5.1286    1.0000 </r>
       <r>    9.8448    0.0000 </r>
       <r>   11.3604    0.0000 </r>
       <r>   15.6998    0.0000 </r>
       <r>   16.0223    0.0000 </r>
       <r>   18.6324    0.0000 </r>
      </set>
      <set comment="kpoint 23">
       <r>   -3.0730    1.0000 </r>
       <r>    2.8209    1.0000 </r>
       <r>    4.4514    1.0000 </r>
       <r>   10.1080    0.0000 </r>
       <r>   11.7283    0.0000 </r>
       <r>   13.7672    0.0000 </r>
       <r>   15.3047    0.0000 </r>
       <r>   16.9693    0.0000 </r>
      </set>
      <set comment="kpoint 24">
       <r>   -2.2069    1.0000 </r>
       <r>   -0.5577    1.0000 </r>
       <r>    6.2264    1.0000 </r>
       <r>    7.8176    1.0000 </r>
       <r>   12.6630    0.0000 </r>
       <r>   14.2147    0.0000 </r>
       <r>   18.0871    0.0000 </r>
       <r>   18.2269    0.0000 </r>
      </set>
      <set comment="kpoint 25">
       <r>   -2.1182    1.0000 </r>
       <r>    1.1001    1.0000 </r>
       <r>    4.8054    1.0000 </r>
       <r>    7.9132    1.0000 </r>
       <r>   11.9449    0.0000 </r>
       <r>   14.5453    0.0000 </r>
       <r>   16.8407    0.0000 </r>
       <r>   17.4595    0.0000 </r>
      </set>
      <set comment="kpoint 26">
       <r>   -0.8961    1.0000 </r>
       <r>    3.2881    1.0000 </r>
       <r>    4.9674    1.0000 </r>
       <r>    7.4495    1.0000 </r>
       <r>    8.9894    0.5566 </r>
       <r>   13.4176    0.0000 </r>
       <r>   15.0113    0.0000 </r>
       <r>   16.0700    0.0000 </r>
      </set>
      <set comment="kpoint 27">
       <r>   -0.7101    1.0000 </r>
       <r>   -0.7050    1.0000 </r>
       <r>    6.1115    1.0000 </r>
       <r>    6.1155    1.0000 </r>
       <r>   11.8524    0.0000 </r>
       <r>   15.5187    0.0000 </r>
       <r>   16.2768    0.0000 </r>
       <r>   16.8072    0.0000 </r>
      </set>
      <set comment="kpoint 28">
       <r>    0.2664    1.0000 </r>
       <r>    1.8245    1.0000 </r>
       <r>    5.5012    1.0000 </r>
       <r>    6.8269    1.0000 </r>
       <r>    7.2655    1.0000 </r>
       <r>   13.5600    0.0000 </r>
       <r>   16.6343    0.0000 </r>
       <r>   17.6015    0.0000 </r>
      </set>
      <set comment="kpoint 29">
       <r>    2.2517    1.0000 </r>
       <r>    3.0695    1.0000 </r>
       <r>    4.9394    1.0000 </r>
       <r>    6.4530    1.0000 </r>
       <r>    8.5783    0.9989 </r>
       <r>   11.1529    0.0000 </r>
       <r>   12.3533    0.0000 </r>
       <r>   16.5032    0.0000 </r>
      </set>
      <set comment="kpoint 30">
       <r>    2.6155    1.0000 </r>
       <r>    3.6679    1.0000 </r>
       <r>    3.8336    1.0000 </r>
       <r>    7.1086    1.0000 </r>
       <r>    7.2584    1.0000 </r>
       <r>   11.1964    0.0000 </r>
       <r>   13.9386    0.0000 </r>
       <r>   14.7876    0.0000 </r>
      </set>
      <set comment="kpoint 31">
       <r>   -0.4506    1.0000 </r>
       <r>    6.5092    1.0000 </r>
       <r>    7.3596    1.0000 </r>
       <r>    8.2296    1.0000 </r>
       <r>    8.3120    1.0000 </r>
       <r>   10.7583    0.0000 </r>
       <r>   11.1953    0.0000 </r>
       <r>   12.5008    0.0000 </r>
      </set>
      <set comment="kpoint 32">
       <r>   -2.8033    1.0000 </r>
       <r>    7.7744    1.0000 </r>
       <r>    7.7744    1.0000 </r>
       <r>    7.7801    1.0000 </r>
       <r>   11.1002    0.0000 </r>
       <r>   11.5297    0.0000 </r>
       <r>   12.4062    0.0000 </r>
       <r>   13.7722    0.0000 </r>
      </set>
      <set comment="kpoint 33">
       <r>   -2.6887    1.0000 </r>
       <r>    1.5452    1.0000 </r>
       <r>    3.2820    1.0000 </r>
       <r>    7.4142    1.0000 </r>
       <r>   13.9882    0.0000 </r>
       <r>   17.1213    0.0000 </r>
       <r>   17.3360    0.0000 </r>
       <r>   18.1182    0.0000 </r>
      </set>
      <set comment="kpoint 34">
       <r>   -1.5142    1.0000 </r>
       <r>    0.0616    1.0000 </r>
       <r>    3.8310    1.0000 </r>
       <r>    5.3748    1.0000 </r>
       <r>   15.5109    0.0000 </r>
       <r>   16.4563    0.0000 </r>
       <r>   17.9889    0.0000 </r>
       <r>   18.5540    0.0000 </r>
      </set>
      <set comment="kpoint 35">
       <r>   -1.1867    1.0000 </r>
       <r>    1.3859    1.0000 </r>
       <r>    3.1608    1.0000 </r>
       <r>    5.6830    1.0000 </r>
       <r>   11.5217    0.0000 </r>
       <r>   17.2395    0.0000 </r>
       <r>   18.4674    0.0000 </r>
       <r>   19.2055    0.0000 </r>
      </set>
      <set comment="kpoint 36">
       <r>    0.1431    1.0000 </r>
       <r>    0.1526    1.0000 </r>
       <r>    3.9219    1.0000 </r>
       <r>    3.9260    1.0000 </r>
       <r>   11.3416    0.0000 </r>
       <r>   18.6630    0.0000 </r>
       <r>   18.7876    0.0000 </r>
       <r>   19.4500    0.0000 </r>
      </set>
      <set comment="kpoint 37">
       <r>    1.3511    1.0000 </r>
       <r>    2.3404    1.0000 </r>
       <r>    4.1057    1.0000 </r>
       <r>    5.0667    1.0000 </r>
       <r>    6.6440    1.0000 </r>
       <r>   15.4019    0.0000 </r>
       <r>   16.8256    0.0000 </r>
       <r>   18.1486    0.0000 </r>
      </set>
      <set comment="kpoint 38">
       <r>    2.4417    1.0000 </r>
       <r>    4.4208    1.0000 </r>
       <r>    4.5528    1.0000 </r>
       <r>    6.0592    1.0000 </r>
       <r>    6.0592    1.0000 </r>
       <r>   13.0194    0.0000 </r>
       <r>   13.6952    0.0000 </r>
       <r>   13.6953    0.0000 </r>
      </set>
      <set comment="kpoint 39">
       <r>   -0.4182    1.0000 </r>
       <r>    0.5787    1.0000 </r>
       <r>    2.3988    1.0000 </r>
       <r>    3.3832    1.0000 </r>
       <r>   16.3088    0.0000 </r>
       <r>   16.4470    0.0000 </r>
       <r>   19.7197    0.0000 </r>
       <r>   20.6445    0.0000 </r>
      </set>
      <set comment="kpoint 40">
       <r>    0.8958    1.0000 </r>
       <r>    0.9106    1.0000 </r>
       <r>    2.7166    1.0000 </r>
       <r>    2.7166    1.0000 </r>
       <r>   11.1496    0.0000 </r>
       <r>   19.7798    0.0000 </r>
       <r>   20.7243    0.0000 </r>
       <r>   20.7243    0.0000 </r>
      </set>
     </set>
    </set>
   </array>
  </eigenvalues>
  <separator name="orbital magnetization" >
   <v name="MAGDIPOLOUT">      0.00000000      0.00000000      0.00000000</v>
  </separator>
  <dos>
   <i name="efermi">      9.00957216 </i>
   <total>
    <array>
     <dimension dim="1">gridpoints</dimension>
     <dimension dim="2">spin</dimension>
     <field>energy</field>
     <field>total</field>
     <field>integrated</field>
     <set>
      <set comment="spin 1">
       <r>    -6.6137     0.0000     0.0000 </r>
       <r>    -6.5159     0.0000     0.0000 </r>
       <r>    -6.4181     0.0000     0.0000 </r>
       <r>    -6.3203     0.0000     0.0000 </r>
       <r>    -6.2225     0.0000     0.0000 </r>
       <r>    -6.1247     0.0000     0.0000 </r>
       <r>    -6.0269     0.0000     0.0000 </r>
       <r>    -5.9291     0.0000     0.0000 </r>
       <r>    -5.8313     0.0000     0.0000 </r>
       <r>    -5.7335     0.0000     0.0000 </r>
       <r>    -5.6357     0.0000     0.0000 </r>
       <r>    -5.5379     0.0000     0.0000 </r>
       <r>    -5.4402     0.0000     0.0000 </r>
       <r>    -5.3424     0.0000     0.0000 </r>
       <r>    -5.2446     0.0000     0.0000 </r>
       <r>    -5.1468     0.0000     0.0000 </r>
       <r>    -5.0490     0.0001     0.0000 </r>
       <r>    -4.9512     0.0004     0.0001 </r>
       <r>    -4.8534     0.0022     0.0003 </r>
       <r>    -4.7556     0.0074     0.0010 </r>
       <r>    -4.6578     0.0174     0.0027 </r>
       <r>    -4.5600     0.0329     0.0059 </r>
       <r>    -4.4622     0.0552     0.0113 </r>
       <r>    -4.3644     0.0814     0.0193 </r>
       <r>    -4.2666     0.1099     0.0300 </r>
       <r>    -4.1688     0.1498     0.0447 </r>
       <r>    -4.0710     0.1888     0.0631 </r>
       <r>    -3.9733     0.1843     0.0812 </r>
       <r>    -3.8755     0.1383     0.0947 </r>
       <r>    -3.7777     0.1252     0.1069 </r>
       <r>    -3.6799     0.2025     0.1267 </r>
       <r>    -3.5821     0.3279     0.1588 </r>
       <r>    -3.4843     0.3910     0.1970 </r>
       <r>    -3.3865     0.3385     0.2301 </r>
       <r>    -3.2887     0.2308     0.2527 </r>
       <r>    -3.1909     0.1594     0.2683 </r>
       <r>    -3.0931     0.1471     0.2827 </r>
       <r>    -2.9953     0.1461     0.2970 </r>
       <r>    -2.8975     0.1377     0.3104 </r>
       <r>    -2.7997     0.1757     0.3276 </r>
       <r>    -2.7019     0.3021     0.3572 </r>
       <r>    -2.6041     0.4566     0.4018 </r>
       <r>    -2.5064     0.5205     0.4527 </r>
       <r>    -2.4086     0.4792     0.4996 </r>
       <r>    -2.3108     0.4419     0.5428 </r>
       <r>    -2.2130     0.4618     0.5879 </r>
       <r>    -2.1152     0.4668     0.6336 </r>
       <r>    -2.0174     0.3921     0.6719 </r>
       <r>    -1.9196     0.2900     0.7003 </r>
       <r>    -1.8218     0.2485     0.7246 </r>
       <r>    -1.7240     0.2876     0.7527 </r>
       <r>    -1.6262     0.3674     0.7886 </r>
       <r>    -1.5284     0.4020     0.8280 </r>
       <r>    -1.4306     0.3468     0.8619 </r>
       <r>    -1.3328     0.2956     0.8908 </r>
       <r>    -1.2350     0.3437     0.9244 </r>
       <r>    -1.1372     0.4161     0.9651 </r>
       <r>    -1.0395     0.4006     1.0043 </r>
       <r>    -0.9417     0.3533     1.0388 </r>
       <r>    -0.8439     0.3943     1.0774 </r>
       <r>    -0.7461     0.5234     1.1286 </r>
       <r>    -0.6483     0.6478     1.1919 </r>
       <r>    -0.5505     0.7085     1.2612 </r>
       <r>    -0.4527     0.6968     1.3293 </r>
       <r>    -0.3549     0.5807     1.3861 </r>
       <r>    -0.2571     0.3828     1.4236 </r>
       <r>    -0.1593     0.2587     1.4489 </r>
       <r>    -0.0615     0.3346     1.4816 </r>
       <r>     0.0363     0.5500     1.5354 </r>
       <r>     0.1341     0.7175     1.6055 </r>
       <r>     0.2319     0.7134     1.6753 </r>
       <r>     0.3297     0.5738     1.7314 </r>
       <r>     0.4274     0.4247     1.7730 </r>
       <r>     0.5252     0.3611     1.8083 </r>
       <r>     0.6230     0.3810     1.8455 </r>
       <r>     0.7208     0.4309     1.8877 </r>
       <r>     0.8186     0.4947     1.9361 </r>
       <r>     0.9164     0.6042     1.9951 </r>
       <r>     1.0142     0.7393     2.0674 </r>
       <r>     1.1120     0.8242     2.1480 </r>
       <r>     1.2098     0.8560     2.2318 </r>
       <r>     1.3076     0.8882     2.3186 </r>
       <r>     1.4054     0.8920     2.4058 </r>
       <r>     1.5032     0.7680     2.4810 </r>
       <r>     1.6010     0.5350     2.5333 </r>
       <r>     1.6988     0.3537     2.5679 </r>
       <r>     1.7966     0.2997     2.5972 </r>
       <r>     1.8943     0.2760     2.6242 </r>
       <r>     1.9921     0.2085     2.6446 </r>
       <r>     2.0899     0.1751     2.6617 </r>
       <r>     2.1877     0.2771     2.6888 </r>
       <r>     2.2855     0.4777     2.7355 </r>
       <r>     2.3833     0.6111     2.7952 </r>
       <r>     2.4811     0.5892     2.8529 </r>
       <r>     2.5789     0.5226     2.9040 </r>
       <r>     2.6767     0.5287     2.9557 </r>
       <r>     2.7745     0.5897     3.0133 </r>
       <r>     2.8723     0.6619     3.0781 </r>
       <r>     2.9701     0.7394     3.1504 </r>
       <r>     3.0679     0.8132     3.2299 </r>
       <r>     3.1657     0.8529     3.3133 </r>
       <r>     3.2635     0.8129     3.3928 </r>
       <r>     3.3612     0.6771     3.4590 </r>
       <r>     3.4590     0.5411     3.5119 </r>
       <r>     3.5568     0.5498     3.5657 </r>
       <r>     3.6546     0.7012     3.6343 </r>
       <r>     3.7524     0.8357     3.7160 </r>
       <r>     3.8502     0.8518     3.7993 </r>
       <r>     3.9480     0.7855     3.8761 </r>
       <r>     4.0458     0.6986     3.9444 </r>
       <r>     4.1436     0.6024     4.0034 </r>
       <r>     4.2414     0.4914     4.0514 </r>
       <r>     4.3392     0.4181     4.0923 </r>
       <r>     4.4370     0.4295     4.1343 </r>
       <r>     4.5348     0.5076     4.1839 </r>
       <r>     4.6326     0.6283     4.2454 </r>
       <r>     4.7304     0.7687     4.3206 </r>
       <r>     4.8281     0.9055     4.4091 </r>
       <r>     4.9259     1.0078     4.5077 </r>
       <r>     5.0237     1.0159     4.6070 </r>
       <r>     5.1215     0.9133     4.6963 </r>
       <r>     5.2193     0.7692     4.7716 </r>
       <r>     5.3171     0.7071     4.8407 </r>
       <r>     5.4149     0.7771     4.9167 </r>
       <r>     5.5127     0.8213     4.9970 </r>
       <r>     5.6105     0.6792     5.0634 </r>
       <r>     5.7083     0.4290     5.1054 </r>
       <r>     5.8061     0.2358     5.1285 </r>
       <r>     5.9039     0.1899     5.1470 </r>
       <r>     6.0017     0.3409     5.1804 </r>
       <r>     6.0995     0.6792     5.2468 </r>
       <r>     6.1973     1.0868     5.3531 </r>
       <r>     6.2950     1.3967     5.4897 </r>
       <r>     6.3928     1.4855     5.6349 </r>
       <r>     6.4906     1.3420     5.7662 </r>
       <r>     6.5884     1.1028     5.8740 </r>
       <r>     6.6862     0.9402     5.9660 </r>
       <r>     6.7840     0.8840     6.0524 </r>
       <r>     6.8818     0.8181     6.1324 </r>
       <r>     6.9796     0.6841     6.1993 </r>
       <r>     7.0774     0.6137     6.2593 </r>
       <r>     7.1752     0.7504     6.3327 </r>
       <r>     7.2730     1.0069     6.4312 </r>
       <r>     7.3708     1.1693     6.5455 </r>
       <r>     7.4686     1.1791     6.6608 </r>
       <r>     7.5664     1.1045     6.7688 </r>
       <r>     7.6642     0.9825     6.8649 </r>
       <r>     7.7619     0.8790     6.9509 </r>
       <r>     7.8597     0.8737     7.0363 </r>
       <r>     7.9575     0.9032     7.1247 </r>
       <r>     8.0553     0.8510     7.2079 </r>
       <r>     8.1531     0.7885     7.2850 </r>
       <r>     8.2509     0.8602     7.3691 </r>
       <r>     8.3487     0.9762     7.4646 </r>
       <r>     8.4465     0.9546     7.5579 </r>
       <r>     8.5443     0.8382     7.6399 </r>
       <r>     8.6421     0.7568     7.7139 </r>
       <r>     8.7399     0.7305     7.7854 </r>
       <r>     8.8377     0.7572     7.8594 </r>
       <r>     8.9355     0.8143     7.9390 </r>
       <r>     9.0333     0.8167     8.0189 </r>
       <r>     9.1310     0.7566     8.0929 </r>
       <r>     9.2288     0.7293     8.1642 </r>
       <r>     9.3266     0.7445     8.2370 </r>
       <r>     9.4244     0.6989     8.3054 </r>
       <r>     9.5222     0.5708     8.3612 </r>
       <r>     9.6200     0.4679     8.4069 </r>
       <r>     9.7178     0.4524     8.4512 </r>
       <r>     9.8156     0.4582     8.4960 </r>
       <r>     9.9134     0.4148     8.5366 </r>
       <r>    10.0112     0.3461     8.5704 </r>
       <r>    10.1090     0.3290     8.6026 </r>
       <r>    10.2068     0.4019     8.6419 </r>
       <r>    10.3046     0.5224     8.6930 </r>
       <r>    10.4024     0.6214     8.7537 </r>
       <r>    10.5002     0.7255     8.8247 </r>
       <r>    10.5979     0.9269     8.9153 </r>
       <r>    10.6957     1.1426     9.0271 </r>
       <r>    10.7935     1.1347     9.1380 </r>
       <r>    10.8913     0.8877     9.2248 </r>
       <r>    10.9891     0.6892     9.2922 </r>
       <r>    11.0869     0.7539     9.3660 </r>
       <r>    11.1847     0.9639     9.4602 </r>
       <r>    11.2825     1.0525     9.5632 </r>
       <r>    11.3803     0.9883     9.6598 </r>
       <r>    11.4781     0.9854     9.7562 </r>
       <r>    11.5759     1.1449     9.8682 </r>
       <r>    11.6737     1.3482    10.0000 </r>
       <r>    11.7715     1.4448    10.1413 </r>
       <r>    11.8693     1.3481    10.2731 </r>
       <r>    11.9671     1.0726    10.3780 </r>
       <r>    12.0648     0.7628    10.4526 </r>
       <r>    12.1626     0.6081    10.5121 </r>
       <r>    12.2604     0.7030    10.5808 </r>
       <r>    12.3582     0.9848    10.6771 </r>
       <r>    12.4560     1.2852    10.8028 </r>
       <r>    12.5538     1.4205    10.9417 </r>
       <r>    12.6516     1.2751    11.0664 </r>
       <r>    12.7494     0.9005    11.1545 </r>
       <r>    12.8472     0.5106    11.2044 </r>
       <r>    12.9450     0.2990    11.2337 </r>
       <r>    13.0428     0.3241    11.2654 </r>
       <r>    13.1406     0.5395    11.3181 </r>
       <r>    13.2384     0.7841    11.3948 </r>
       <r>    13.3362     0.8856    11.4814 </r>
       <r>    13.4340     0.9058    11.5700 </r>
       <r>    13.5317     1.0482    11.6725 </r>
       <r>    13.6295     1.3032    11.7999 </r>
       <r>    13.7273     1.4543    11.9422 </r>
       <r>    13.8251     1.3826    12.0774 </r>
       <r>    13.9229     1.1584    12.1906 </r>
       <r>    14.0207     0.9343    12.2820 </r>
       <r>    14.1185     0.8647    12.3666 </r>
       <r>    14.2163     1.0045    12.4648 </r>
       <r>    14.3141     1.2597    12.5880 </r>
       <r>    14.4119     1.4766    12.7324 </r>
       <r>    14.5097     1.5186    12.8809 </r>
       <r>    14.6075     1.3541    13.0133 </r>
       <r>    14.7053     1.1165    13.1225 </r>
       <r>    14.8031     0.9429    13.2147 </r>
       <r>    14.9009     0.8249    13.2954 </r>
       <r>    14.9986     0.7324    13.3670 </r>
       <r>    15.0964     0.7213    13.4375 </r>
       <r>    15.1942     0.8499    13.5207 </r>
       <r>    15.2920     1.0481    13.6232 </r>
       <r>    15.3898     1.1270    13.7334 </r>
       <r>    15.4876     0.9924    13.8304 </r>
       <r>    15.5854     0.7339    13.9022 </r>
       <r>    15.6832     0.4990    13.9510 </r>
       <r>    15.7810     0.4105    13.9911 </r>
       <r>    15.8788     0.5375    14.0437 </r>
       <r>    15.9766     0.8134    14.1232 </r>
       <r>    16.0744     1.0125    14.2223 </r>
       <r>    16.1722     0.9735    14.3175 </r>
       <r>    16.2700     0.7860    14.3943 </r>
       <r>    16.3678     0.6421    14.4571 </r>
       <r>    16.4655     0.6271    14.5184 </r>
       <r>    16.5633     0.6973    14.5866 </r>
       <r>    16.6611     0.7773    14.6626 </r>
       <r>    16.7589     0.8275    14.7436 </r>
       <r>    16.8567     0.8102    14.8228 </r>
       <r>    16.9545     0.6817    14.8895 </r>
       <r>    17.0523     0.4918    14.9375 </r>
       <r>    17.1501     0.3640    14.9731 </r>
       <r>    17.2479     0.3515    15.0075 </r>
       <r>    17.3457     0.4179    15.0484 </r>
       <r>    17.4435     0.5039    15.0977 </r>
       <r>    17.5413     0.5442    15.1509 </r>
       <r>    17.6391     0.4910    15.1989 </r>
       <r>    17.7369     0.3703    15.2351 </r>
       <r>    17.8347     0.2811    15.2626 </r>
       <r>    17.9324     0.3114    15.2931 </r>
       <r>    18.0302     0.4483    15.3369 </r>
       <r>    18.1280     0.5654    15.3922 </r>
       <r>    18.2258     0.5448    15.4455 </r>
       <r>    18.3236     0.4283    15.4874 </r>
       <r>    18.4214     0.3679    15.5233 </r>
       <r>    18.5192     0.4275    15.5651 </r>
       <r>    18.6170     0.5253    15.6165 </r>
       <r>    18.7148     0.5577    15.6711 </r>
       <r>    18.8126     0.4961    15.7196 </r>
       <r>    18.9104     0.3773    15.7565 </r>
       <r>    19.0082     0.2670    15.7826 </r>
       <r>    19.1060     0.2148    15.8036 </r>
       <r>    19.2038     0.2121    15.8243 </r>
       <r>    19.3016     0.2254    15.8464 </r>
       <r>    19.3993     0.2411    15.8699 </r>
       <r>    19.4971     0.2394    15.8934 </r>
       <r>    19.5949     0.2025    15.9132 </r>
       <r>    19.6927     0.1560    15.9284 </r>
       <r>    19.7905     0.1198    15.9401 </r>
       <r>    19.8883     0.0803    15.9480 </r>
       <r>    19.9861     0.0391    15.9518 </r>
       <r>    20.0839     0.0127    15.9531 </r>
       <r>    20.1817     0.0028    15.9533 </r>
       <r>    20.2795     0.0016    15.9535 </r>
       <r>    20.3773     0.0074    15.9542 </r>
       <r>    20.4751     0.0281    15.9570 </r>
       <r>    20.5729     0.0701    15.9638 </r>
       <r>    20.6707     0.1138    15.9749 </r>
       <r>    20.7685     0.1208    15.9868 </r>
       <r>    20.8662     0.0839    15.9950 </r>
       <r>    20.9640     0.0380    15.9987 </r>
       <r>    21.0618     0.0112    15.9998 </r>
       <r>    21.1596     0.0021    16.0000 </r>
       <r>    21.2574     0.0003    16.0000 </r>
       <r>    21.3552     0.0000    16.0000 </r>
       <r>    21.4530     0.0000    16.0000 </r>
       <r>    21.5508     0.0000    16.0000 </r>
       <r>    21.6486     0.0000    16.0000 </r>
       <r>    21.7464     0.0000    16.0000 </r>
       <r>    21.8442     0.0000    16.0000 </r>
       <r>    21.9420     0.0000    16.0000 </r>
       <r>    22.0398     0.0000    16.0000 </r>
       <r>    22.1376     0.0000    16.0000 </r>
       <r>    22.2354     0.0000    16.0000 </r>
       <r>    22.3331     0.0000    16.0000 </r>
       <r>    22.4309     0.0000    16.0000 </r>
       <r>    22.5287     0.0000    16.0000 </r>
       <r>    22.6265     0.0000    16.0000 </r>
       <r>    22.7243     0.0000    16.0000 </r>
      </set>
     </set>
    </array>
   </total>
  </dos>
 </calculation>
 <structure name="finalpos" >
  <crystal>
   <varray name="basis" >
    <v>      -2.45000000       2.45000000       1.27400000 </v>
    <v>       2.45000000      -2.45000000       1.27400000 </v>
    <v>       2.45000000       2.45000000      -1.27400000 </v>
   </varray>
   <i name="volume">     30.58874000 </i>
   <varray name="rec_basis" >
    <v>       0.00000000       0.20408163       0.39246468 </v>
    <v>       0.20408163       0.00000000       0.39246468 </v>
    <v>       0.20408163       0.20408163      -0.00000000 </v>
   </varray>
  </crystal>
  <varray name="positions" >
   <v>       0.25000000       0.75000000       0.50000000 </v>
   <v>       0.00000000       0.00000000       0.00000000 </v>
  </varray>
 </structure>
</modeling>
