unknown system                          
   1.00000000000000     
    -2.434430    2.434430    1.294779
     2.434430   -2.434430    1.294779
     2.434430    2.434430   -1.294779
   Si
     2
Direct
  0.250000  0.750000  0.500000
  0.000000  0.000000  0.000000
 
   28   28   28
 -5.4770     -3.9422     0.48485E-01  4.9709      9.1385      11.440      11.693      10.504      8.8105      7.1959    
  5.8357      4.7964      4.0807      3.6655      3.5296      3.6654      4.0807      4.7966      5.8358      7.1958    
  8.8105      10.504      11.693      11.440      9.1385      4.9710     0.48362E-01 -3.9424     -3.9424     -4.7318    
 -2.5789      1.6508      6.3591      9.9867      11.664      11.436      10.028      8.3344      6.7833      5.5107    
  4.5629      3.9322      3.5938      3.5295      3.7354      4.2229      5.0146      6.1301      7.5557      9.2067    
  10.863      11.827      11.199      8.5240      4.1937     -.52342     0.48362E-01 -2.5790     -2.6357     -.10875    
  3.9731      8.0688      10.856      11.757      11.028      9.4581      7.8035      6.3403      5.1724      4.3258    
  3.7845      3.5239      3.5293      3.8005      4.3515      5.2056      6.3777      7.8434      9.5034      11.098    
  11.883      11.048      8.2999      4.1937      4.9710      1.6507     -.10881     0.42682      3.0181      6.5848    
  9.7620      11.539      11.635      10.473      8.8327      7.2469      5.8913      4.8386      4.0969      3.6447    
  3.4592      3.5293      3.8576      4.4601      5.3592      6.5650      8.0438      9.6867      11.213      11.897    
  11.048      8.5240      9.1385      6.3592      3.9731      3.0181      3.9197      6.2668      9.0395      11.136    
  11.884      11.268      9.8136      8.1871      6.6956      5.4605      4.5264      3.8874      3.5197      3.4031    
  3.5295      3.9037      4.5425      5.4670      6.6818      8.1466      9.7487      11.213      11.883      11.199    
  11.440      9.9867      8.0688      6.5849      6.2669      7.2815      9.1412      10.977      11.993      11.836    
  10.696      9.1213      7.5580      6.1794      5.0699      4.2509      3.7074      3.4157      3.3584      3.5298    
  3.9361      4.5941      5.5225      6.7215      8.1466      9.6867      11.098      11.827      11.693      11.664    
  10.856      9.7619      9.0396      9.1413      10.050      11.288      12.194      12.276      11.445      10.017    
  8.4509      6.9805      5.7248      4.7378      4.0244      3.5651      3.3377      3.3275      3.5302      3.9528    
  4.6117      5.5225      6.6818      8.0438      9.5034      10.863      10.504      11.436      11.757      11.539    
  11.136      10.977      11.288      11.948      12.555      12.671      12.065      10.840      9.3428      7.8435    
  6.4849      5.3526      4.4782      3.8564      3.4669      3.2895      3.3116      3.5303      3.9528      4.5941    
  5.4670      6.5650      7.8434      9.2067      8.8105      10.028      11.028      11.635      11.884      11.993    
  12.194      12.555      12.919      12.995      12.545      11.542      10.191      8.7367      7.3345      6.0948    
  5.0778      4.3004      3.7532      3.4167      3.2731      3.3116      3.5302      3.9361      4.5425      5.3592    
  6.3777      7.5557      7.1958      8.3344      9.4582      10.473      11.268      11.836      12.276      12.671    
  12.995      13.101      12.816      12.061      10.933      9.6108      8.2420      6.9520      5.8267      4.9096    
  4.2103      3.7184      3.4167      3.2895      3.3275      3.5298      3.9037      4.4601      5.2056      6.1301    
  5.8358      6.7832      7.8035      8.8327      9.8138      10.696      11.445      12.065      12.545      12.816    
  12.764      12.314      11.490      10.396      9.1550      7.8930      6.7150      5.6903      4.8530      4.2103    
  3.7532      3.4669      3.3377      3.3584      3.5295      3.8576      4.3515      5.0146      4.7966      5.5108    
  6.3402      7.2468      8.1871      9.1213      10.017      10.840      11.542      12.061      12.314      12.227    
  11.781      11.010      10.000      8.8643      7.7126      6.6349      5.6903      4.9096      4.3004      3.8564    
  3.5651      3.4157      3.4031      3.5293      3.8005      4.2229      4.0807      4.5630      5.1725      5.8913    
  6.6955      7.5580      8.4509      9.3428      10.191      10.933      11.490      11.781      11.746      11.371    
  10.692      9.7903      8.7644      7.7126      6.7150      5.8267      5.0778      4.4782      4.0244      3.7074    
  3.5197      3.4592      3.5293      3.7354      3.6654      3.9321      4.3258      4.8387      5.4605      6.1793    
  6.9804      7.8435      8.7367      9.6109      10.396      11.010      11.371      11.422      11.148      10.581    
  9.7903      8.8643      7.8930      6.9520      6.0948      5.3526      4.7378      4.2509      3.8874      3.6447    
  3.5239      3.5295      3.5296      3.5937      3.7843      4.0968      4.5264      5.0699      5.7247      6.4848    
  7.3345      8.2420      9.1550      10.000      10.692      11.148      11.308      11.148      10.692      10.000    
  9.1550      8.2420      7.3345      6.4849      5.7248      5.0699      4.5264      4.0969      3.7845      3.5938    
  3.6655      3.5295      3.5238      3.6445      3.8873      4.2508      4.7378      5.3526      6.0948      6.9519    
  7.8930      8.8643      9.7903      10.581      11.148      11.422      11.371      11.010      10.396      9.6108    
  8.7367      7.8435      6.9805      6.1794      5.4605      4.8386      4.3258      3.9322      4.0807      3.7354    
  3.5293      3.4591      3.5195      3.7073      4.0243      4.4782      5.0778      5.8266      6.7150      7.7126    
  8.7644      9.7903      10.692      11.371      11.746      11.781      11.490      10.933      10.191      9.3428    
  8.4509      7.5580      6.6956      5.8913      5.1724      4.5629      4.7964      4.2227      3.8005      3.5292    
  3.4030      3.4156      3.5650      3.8563      4.3004      4.9096      5.6903      6.6348      7.7126      8.8643    
  10.000      11.010      11.781      12.227      12.314      12.061      11.542      10.840      10.017      9.1213    
  8.1871      7.2469      6.3403      5.5107      5.8357      5.0144      4.3514      3.8575      3.5294      3.3584    
  3.3377      3.4668      3.7531      4.2102      4.8530      5.6903      6.7150      7.8930      9.1550      10.396    
  11.490      12.314      12.764      12.816      12.545      12.065      11.445      10.696      9.8136      8.8327    
  7.8035      6.7833      7.1959      6.1300      5.2054      4.4599      3.9035      3.5298      3.3275      3.2895    
  3.4166      3.7183      4.2102      4.9096      5.8266      6.9519      8.2420      9.6109      10.933      12.061    
  12.816      13.101      12.995      12.671      12.276      11.836      11.268      10.473      9.4581      8.3344    
  8.8105      7.5557      6.3776      5.3592      4.5424      3.9360      3.5301      3.3117      3.2732      3.4166    
  3.7531      4.3004      5.0778      6.0948      7.3345      8.7367      10.191      11.542      12.545      12.995    
  12.919      12.555      12.194      11.993      11.884      11.635      11.028      10.028      10.504      9.2066    
  7.8433      6.5650      5.4670      4.5940      3.9527      3.5303      3.3117      3.2895      3.4668      3.8563    
  4.4782      5.3526      6.4848      7.8435      9.3428      10.840      12.065      12.671      12.555      11.948    
  11.288      10.977      11.136      11.539      11.757      11.436      11.693      10.863      9.5032      8.0437    
  6.6818      5.5225      4.6116      3.9527      3.5301      3.3275      3.3377      3.5650      4.0243      4.7378    
  5.7247      6.9804      8.4509      10.017      11.445      12.276      12.194      11.288      10.050      9.1412    
  9.0395      9.7620      10.856      11.664      11.440      11.828      11.098      9.6866      8.1465      6.7215    
  5.5225      4.5940      3.9360      3.5298      3.3584      3.4156      3.7073      4.2508      5.0699      6.1793    
  7.5580      9.1213      10.696      11.836      11.993      10.977      9.1413      7.2815      6.2668      6.5848    
  8.0688      9.9867      9.1385      11.200      11.883      11.213      9.7486      8.1465      6.6818      5.4670    
  4.5424      3.9035      3.5294      3.4030      3.5195      3.8873      4.5264      5.4605      6.6955      8.1871    
  9.8138      11.268      11.884      11.136      9.0396      6.2669      3.9197      3.0181      3.9731      6.3591    
  4.9709      8.5239      11.048      11.897      11.213      9.6866      8.0437      6.5650      5.3592      4.4599    
  3.8575      3.5292      3.4591      3.6445      4.0968      4.8387      5.8913      7.2468      8.8327      10.473    
  11.635      11.539      9.7619      6.5849      3.0181     0.42682     -.10875      1.6508     0.48485E-01  4.1936    
  8.2998      11.048      11.883      11.098      9.5032      7.8433      6.3776      5.2054      4.3514      3.8005    
  3.5293      3.5238      3.7843      4.3258      5.1725      6.3402      7.8035      9.4582      11.028      11.757    
  10.856      8.0688      3.9731     -.10881     -2.6357     -2.5789     -3.9422     -.52327      4.1936      8.5239    
  11.200      11.828      10.863      9.2066      7.5557      6.1300      5.0144      4.2227      3.7354      3.5295    
  3.5937      3.9321      4.5630      5.5108      6.7832      8.3344      10.028      11.436      11.664      9.9867    
  6.3592      1.6507     -2.5790     -4.7318     -3.9419     -2.8316     0.64418      5.1356      9.0531      11.280    
  11.557      10.410      8.7267      7.1041      5.7258      4.6638      3.9236      3.4809      3.3113      3.4039    
  3.7651      4.4164      5.3842      6.6740      8.2330      9.9140      11.253      11.368      9.6100      6.0330    
  1.5708     -2.2442     -2.8318     -3.9419     -2.2440      1.5709      6.0331      9.6102      11.369      11.253    
  9.9140      8.2331      6.6741      5.3842      4.4163      3.7650      3.4040      3.3113      3.4809      3.9236    
  4.6639      5.7257      7.1039      8.7267      10.410      11.557      11.280      9.0530      5.1357     0.64406    
 0.76491     -2.1116     -2.5786     -.46452      3.3536      7.4012      10.316      11.413      10.843      9.3424    
  7.6980      6.2260      5.0418      4.1784      3.6213      3.3435      3.3272      3.5712      4.0901      4.9095    
  6.0494      7.4938      9.1548      10.811      11.785      11.244      8.8121      4.9157      5.4335      1.9153    
 -.21933     -.10857      2.1686      5.6398      8.9417      10.970      11.318      10.318      8.7272      7.1477    
  5.7821      4.7152      3.9609      3.4982      3.3018      3.3584      3.6708      4.2564      5.1404      6.3380    
  7.8230      9.4960      11.107      11.964      11.330      8.9728      9.5135      6.5869      3.8727      2.4923    
  3.0182      5.1775      8.0042      10.343      11.397      11.029      9.6983      8.0999      6.6093      5.3640    
  4.4191      3.7729      3.4008      3.2806      3.4033      3.7748      4.4139      5.3442      6.5754      8.0732    
  9.7315      11.294      12.106      11.549      11.851      10.311      8.1381      6.2662      5.5395      6.2668    
  8.0597      10.052      11.356      11.492      10.546      9.0389      7.4911      6.1092      4.9912      4.1663    
  3.6220      3.3329      3.2806      3.4596      3.8777      4.5537      5.5089      6.7476      8.2295      9.8469    
  11.360      12.194      12.191      12.143      11.175      9.7756      8.6679      8.4229      9.1411      10.402    
  11.505      11.855      11.249      9.9339      8.3964      6.9314      5.6711      4.6798      3.9672      3.5143    
  3.2975      3.3019      3.5244      3.9737      4.6676      5.6245      6.8436      8.2813      9.8324      11.291    
  11.075      12.049      12.311      11.900      11.192      10.693      10.738      11.288      11.960      12.256    
  11.848      10.753      9.2958      7.8080      6.4492      5.3147      4.4425      3.8294      3.4543      3.2964    
  3.3436      3.5943      4.0573      4.7489      5.6838      6.8569      8.2234      9.6845      9.4076      10.708    
  11.733      12.262      12.319      12.158      12.084      12.253      12.555      12.693      12.365      11.466    
  10.152      8.7082      7.3077      6.0677      5.0545      4.2880      3.7582      3.4449      3.3302      3.4040    
  3.6658      4.1240      4.7927      5.6828      6.7857      8.0570      7.7902      9.0148      10.205      11.234    
  11.950      12.349      12.567      12.751      12.934      12.995      12.734      12.024      10.909      9.5858    
  8.2149      6.9244      5.8043      4.9003      4.2216      3.7567      3.4873      3.3981      3.4809      3.7356    
  4.1703      4.7967      5.6214      6.6332      6.4079      7.4374      8.5280      9.6015      10.584      11.396    
  12.005      12.451      12.769      12.925      12.816      12.339      11.488      10.373      9.1192      7.8526    
  6.6797      5.6703      4.8574      4.2461      3.8258      3.5809      3.4981      3.5710      3.8005      4.1940    
  4.7606      5.5030      5.3342      6.1225      7.0193      7.9762      8.9374      9.8520      10.682      11.391    
  11.954      12.339      12.483      12.314      11.801      10.986      9.9477      8.7986      7.6490      6.5876    
  5.6716      4.9280      4.3617      3.9643      3.7228      3.6264      3.6704      3.8573      4.1940      4.6866    
  4.5786      5.1245      5.7935      6.5609      7.3933      8.2541      9.1087      9.9249      10.667      11.288    
  11.723      11.905      11.781      11.338      10.614      9.6868      8.6569      7.6208      6.6550      5.8100    
  5.1114      4.5659      4.1682      3.9079      3.7772      3.7743      3.9032      4.1702      4.1237      4.4424    
  4.8853      5.4400      6.0896      6.8144      7.5932      8.4023      9.2118      9.9800      10.649      11.147    
  11.405      11.370      11.034      10.429      9.6253      8.7117      7.7739      6.8815      6.0825      5.4033    
  4.8532      4.4302      4.1282      3.9433      3.8772      3.9355      3.9522      4.0569      4.2853      4.6302    
  5.0822      5.6323      6.2724      6.9922      7.7748      8.5915      9.3969      10.128      10.709      11.066    
  11.148      10.938      10.460      9.7757      8.9636      8.1030      7.2599      6.4813      5.7951      5.2136    
  4.7397      4.3732      4.1159      3.9732      4.0570      3.9523      3.9732      4.1158      4.3732      4.7397    
  5.2135      5.7950      6.4813      7.2598      8.1029      8.9636      9.7757      10.460      10.938      11.148    
  11.066      10.709      10.128      9.3969      8.5916      7.7749      6.9923      6.2725      5.6324      5.0822    
  4.6302      4.2854      4.4425      4.1239      3.9356      3.8772      3.9433      4.1282      4.4302      4.8531    
  5.4032      6.0824      6.8815      7.7738      8.7117      9.6253      10.429      11.034      11.370      11.405    
  11.147      10.649      9.9801      9.2119      8.4024      7.5933      6.8145      6.0896      5.4400      4.8853    
  5.1244      4.5786      4.1703      3.9033      3.7743      3.7773      3.9079      4.1681      4.5659      5.1114    
  5.8099      6.6550      7.6208      8.6570      9.6869      10.614      11.338      11.781      11.905      11.723    
  11.288      10.667      9.9250      9.1087      8.2542      7.3934      6.5610      5.7935      6.1225      5.3341    
  4.6866      4.1941      3.8574      3.6705      3.6264      3.7228      3.9642      4.3616      4.9280      5.6716    
  6.5876      7.6490      8.7986      9.9477      10.985      11.801      12.314      12.483      12.339      11.954    
  11.391      10.682      9.8520      8.9374      7.9763      7.0194      7.4374      6.4079      5.5030      4.7606    
  4.1941      3.8006      3.5711      3.4982      3.5809      3.8257      4.2461      4.8574      5.6703      6.6797    
  7.8527      9.1192      10.373      11.488      12.339      12.816      12.925      12.769      12.451      12.005    
  11.396      10.584      9.6015      8.5281      9.0148      7.7902      6.6332      5.6214      4.7967      4.1703    
  3.7356      3.4809      3.3982      3.4873      3.7566      4.2216      4.9003      5.8043      6.9244      8.2150    
  9.5859      10.909      12.024      12.734      12.994      12.934      12.751      12.567      12.349      11.950    
  11.233      10.205      10.708      9.4075      8.0570      6.7856      5.6828      4.7927      4.1239      3.6658    
  3.4040      3.3302      3.4448      3.7582      4.2880      5.0546      6.0677      7.3077      8.7083      10.152    
  11.466      12.365      12.693      12.555      12.252      12.084      12.157      12.319      12.261      11.733    
  12.049      11.075      9.6843      8.2232      6.8569      5.6838      4.7489      4.0571      3.5942      3.3435    
  3.2963      3.4542      3.8294      4.4426      5.3148      6.4492      7.8080      9.2959      10.753      11.848    
  12.256      11.960      11.288      10.738      10.693      11.192      11.899      12.311      12.143      12.191    
  11.291      9.8322      8.2811      6.8436      5.6246      4.6675      3.9735      3.5243      3.3018      3.2974    
  3.5142      3.9672      4.6799      5.6712      6.9314      8.3965      9.9340      11.249      11.855      11.505    
  10.402      9.1410      8.4226      8.6677      9.7754      11.175      10.311      11.851      12.194      11.360    
  9.8468      8.2294      6.7476      5.5089      4.5536      3.8775      3.4595      3.2805      3.3327      3.6219    
  4.1664      4.9913      6.1092      7.4910      9.0390      10.546      11.492      11.356      10.051      8.0597    
  6.2667      5.5394      6.2661      8.1379      6.5867      9.5133      11.549      12.106      11.294      9.7314    
  8.0732      6.5755      5.3442      4.4137      3.7747      3.4032      3.2805      3.4006      3.7728      4.4192    
  5.3641      6.6093      8.0999      9.6983      11.029      11.396      10.342      8.0041      5.1775      3.0182    
  2.4923      3.8727      1.9154      5.4334      8.9726      11.330      11.964      11.108      9.4959      7.8230    
  6.3381      5.1404      4.2562      3.6707      3.3584      3.3017      3.4981      3.9610      4.7153      5.7821    
  7.1476      8.7272      10.318      11.318      10.970      8.9416      5.6398      2.1686     -.10852     -.21919    
 -2.1114     0.76503      4.9156      8.8121      11.244      11.785      10.811      9.1549      7.4939      6.0495    
  4.9094      4.0900      3.5712      3.3272      3.3434      3.6212      4.1785      5.0419      6.2259      7.6979    
  9.3424      10.843      11.413      10.316      7.4011      3.3536     -.46457     -2.5786     0.49421E-01 0.76564    
  3.4396      6.9879      10.072      11.723      11.703      10.462      8.7844      7.1750      5.8001      4.7296    
  3.9702      3.4985      3.2895      3.3303      3.6242      4.1899      5.0542      6.2298      7.6815      9.2942    
  10.774      11.403      10.530      8.0623      4.6641      1.5713     0.64474     -.52222     0.64484      3.6542    
  7.2869      10.207      11.563      11.274      9.9064      8.2472      6.7052      5.4210      4.4479      3.7824    
  3.3984      3.2731      3.3983      3.7824      4.4480      5.4210      6.7051      8.2472      9.9064      11.274    
  11.563      10.207      7.2869      3.6541      3.4396     0.76557     0.49483E-01  1.5715      4.6641      8.0623    
  10.530      11.404      10.774      9.2942      7.6815      6.2299      5.0542      4.1898      3.6242      3.3303    
  3.2894      3.4984      3.9702      4.7297      5.8001      7.1749      8.7844      10.462      11.702      11.723    
  10.072      6.9880      7.2635      4.0806      1.9159      1.6516      3.3540      6.2438      9.1073      10.897    
  11.175      10.199      8.6561      7.1138      5.7712      4.7160      3.9659      3.5012      3.2964      3.3377    
  3.6267      4.1798      5.0223      6.1729      7.6151      9.2661      10.937      12.070      11.941      10.219    
  10.655      8.0751      5.4562      3.8730      3.9735      5.6400      8.0606      10.164      11.151      10.822    
  9.5613      8.0199      6.5692      5.3493      4.4202      3.7840      3.4172      3.2974      3.4157      3.7776    
  4.4011      5.3106      6.5192      8.0014      9.6652      11.309      12.377      12.231      12.558      11.297    
  9.2581      7.2955      6.2662      6.5848      8.0040      9.7611      10.995      11.179      10.328      8.9016    
  7.4118      6.0709      4.9813      4.1776      3.6502      3.3746      3.3327      3.5197      3.9435      4.6226    
  5.5785      6.8187      8.3102      9.9562      11.558      12.604      12.715      12.848      11.997      10.565    
  9.2473      8.6677      9.0392      10.051      11.058      11.443      10.940      9.7293      8.2661      6.8579    
  5.6398      4.6813      3.9964      3.5684      3.3745      3.4006      3.6447      4.1159      4.8316      5.8099    
  7.0524      8.5208      10.117      11.660      11.594      12.665      13.004      12.582      11.731      10.965    
  10.693      10.976      11.505      11.792      11.466      10.478      9.1057      7.6860      6.3825      5.2931    
  4.4599      3.8826      3.5416      3.4169      3.4980      3.7845      4.2853      5.0158      5.9902      7.2048    
  8.6175      10.133      9.9970      11.349      12.417      12.941      12.902      12.537      12.188      12.084    
  12.194      12.256      11.957      11.137      9.9032      8.5279      7.1907      6.0067      5.0440      4.3246    
  3.8401      3.5710      3.5008      3.6210      3.9322      4.4423      5.1643      6.1080      7.2648      8.5911    
  8.4410      9.7138      10.935      11.962      12.616      12.869      12.863      12.791      12.750      12.670    
  12.365      11.679      10.615      9.3454      8.0357      6.8068      5.7470      4.9017      4.2802      3.8711    
  3.6569      3.6237      3.7647      4.0807      4.5785      5.2684      6.1557      7.2278      7.0950      8.1748    
  9.2995      10.380      11.326      12.040      12.480      12.706      12.797      12.769      12.545      12.024    
  11.172      10.080      8.8722      7.6638      6.5559      5.6151      4.8717      4.3291      3.9761      3.7976    
  3.7819      3.9232      4.2227      4.6865      5.3220      6.1301      6.0327      6.8741      7.8090      8.7805    
  9.7218      10.570      11.280      11.815      12.173      12.357      12.339      12.061      11.488      10.655    
  9.6347      8.5288      7.4406      6.4532      5.6177      4.9566      4.4717      4.1536      3.9896      3.9697    
  4.0895      4.3513      4.7606      5.3222      5.2688      5.8690      6.5789      7.3669      8.1913      9.0062    
  9.7692      10.448      11.015      11.443      11.694      11.723      11.490      10.985      10.242      9.3325    
  8.3504      7.3857      6.5073      5.7576      5.1561      4.7056      4.3991      4.2264      4.1793      4.2558    
  4.4598      4.7968      4.7930      5.1649      5.6489      6.2274      6.8771      7.5706      8.2797      8.9770    
  9.6360      10.227      10.709      11.034      11.147      11.010      10.614      9.9927      9.2137      8.3598    
  7.5089      6.7207      6.0335      5.4666      5.0251      4.7049      4.4985      4.4008      4.4134      4.5423    
  4.5940      4.7491      5.0164      5.3854      5.8416      6.3701      6.9566      7.5864      8.2419      8.8996    
  9.5261      10.075      10.489      10.709      10.692      10.429      9.9452      9.3000      8.5654      7.8105    
  7.0896      6.4393      5.8803      5.4203      5.0588      4.7929      4.6226      4.5535      4.6677      4.6116    
  4.6678      4.8320      5.0944      5.4445      5.8757      6.3839      6.9635      7.6031      8.2807      8.9610    
  9.5931      10.114      10.460      10.581      10.460      10.114      9.5931      8.9610      8.2807      7.6031    
  6.9634      6.3838      5.8757      5.4444      5.0942      4.8319      5.0164      4.7492      4.5941      4.5536    
  4.6228      4.7931      5.0589      5.4203      5.8804      6.4394      7.0896      7.8105      8.5654      9.3000    
  9.9452      10.429      10.692      10.709      10.489      10.075      9.5261      8.8996      8.2419      7.5863    
  6.9565      6.3700      5.8415      5.3853      5.6489      5.1650      4.7932      4.5425      4.4136      4.4010    
  4.4986      4.7050      5.0251      5.4666      6.0335      6.7207      7.5089      8.3598      9.2137      9.9926    
  10.614      11.010      11.147      11.034      10.709      10.227      9.6360      8.9770      8.2796      7.5706    
  6.8771      6.2274      6.5789      5.8691      5.2690      4.7970      4.4600      4.2560      4.1795      4.2265    
  4.3991      4.7056      5.1561      5.7577      6.5073      7.3857      8.3504      9.3325      10.242      10.985    
  11.490      11.723      11.694      11.443      11.015      10.448      9.7692      9.0062      8.1914      7.3670    
  7.8091      6.8742      6.0328      5.3224      4.7608      4.3514      4.0896      3.9698      3.9896      4.1535    
  4.4717      4.9567      5.6177      6.4531      7.4406      8.5288      9.6347      10.655      11.488      12.061    
  12.339      12.357      12.173      11.815      11.280      10.570      9.7218      8.7806      9.2996      8.1749    
  7.0950      6.1303      5.3222      4.6866      4.2227      3.9232      3.7819      3.7976      3.9761      4.3291    
  4.8718      5.6150      6.5558      7.6638      8.8723      10.080      11.172      12.024      12.545      12.769    
  12.797      12.706      12.480      12.040      11.326      10.380      10.935      9.7139      8.4410      7.2279    
  6.1558      5.2685      4.5785      4.0806      3.7647      3.6237      3.6569      3.8710      4.2802      4.9017    
  5.7469      6.8067      8.0357      9.3455      10.615      11.679      12.365      12.670      12.750      12.791    
  12.863      12.869      12.616      11.962      12.417      11.349      9.9970      8.5911      7.2649      6.1081    
  5.1644      4.4422      3.9321      3.6210      3.5007      3.5710      3.8401      4.3246      5.0440      6.0066    
  7.1906      8.5280      9.9032      11.137      11.956      12.256      12.193      12.084      12.188      12.537    
  12.902      12.941      13.003      12.665      11.594      10.133      8.6174      7.2048      5.9903      5.0158    
  4.2852      3.7845      3.4980      3.4169      3.5415      3.8826      4.4599      5.2931      6.3824      7.6860    
  9.1057      10.478      11.466      11.792      11.505      10.976      10.693      10.965      11.731      12.582    
  11.997      12.848      12.715      11.660      10.117      8.5208      7.0525      5.8099      4.8315      4.1158    
  3.6447      3.4006      3.3744      3.5684      3.9965      4.6813      5.6398      6.8579      8.2662      9.7293    
  10.940      11.443      11.058      10.051      9.0390      8.6675      9.2473      10.565      9.2580      11.296    
  12.558      12.604      11.558      9.9562      8.3102      6.8187      5.5785      4.6225      3.9435      3.5198    
  3.3328      3.3745      3.6501      4.1777      4.9814      6.0709      7.4118      8.9016      10.328      11.179    
  10.995      9.7611      8.0040      6.5847      6.2661      7.2955      5.4562      8.0750      10.654      12.231    
  12.377      11.309      9.6652      8.0014      6.5192      5.3106      4.4010      3.7776      3.4158      3.2974    
  3.4171      3.7840      4.4203      5.3493      6.5691      8.0199      9.5614      10.822      11.151      10.164    
  8.0606      5.6399      3.9734      3.8730      1.9159      4.0807      7.2634      10.219      11.941      12.070    
  10.937      9.2661      7.6152      6.1729      5.0222      4.1797      3.6268      3.3378      3.2964      3.5011    
  3.9659      4.7161      5.7712      7.1138      8.6561      10.199      11.175      10.897      9.1072      6.2438    
  3.3539      1.6514      4.9717      5.4338      7.2633      9.6704      11.650      12.476      12.000      10.622    
  8.9745      7.4090      6.0633      5.0000      4.2265      3.7230      3.4667      3.4448      3.6571      4.1171    
  4.8481      5.8673      7.1572      8.6362      10.136      11.209      11.268      10.096      8.0624      6.0335    
  5.1362      4.1947      4.9162      6.9878      9.4976      11.412      12.071      11.436      9.9940      8.3786    
  6.8821      5.6277      4.6643      3.9899      3.5810      3.4166      3.4873      3.7980      4.3663      5.2167    
  6.3600      7.7629      9.3213      10.810      11.658      11.309      9.6732      7.2869      6.9879      4.9163    
  4.1947      5.1363      7.2868      9.6731      11.309      11.658      10.810      9.3211      7.7629      6.3600    
  5.2166      4.3662      3.7980      3.4874      3.4166      3.5810      3.9899      4.6645      5.6277      6.8820    
  8.3786      9.9942      11.436      12.071      11.412      9.4976      9.6704      7.2633      5.4339      4.9719    
  6.0336      8.0622      10.096      11.268      11.209      10.136      8.6360      7.1572      5.8674      4.8480    