unknown system                          
   1.00000000000000     
    -2.191402    2.191402    1.250502
     2.191402   -2.191402    1.250502
     2.191402    2.191402   -1.250502
   Si
     2
Direct
  0.000000  0.000000  0.000000
  0.250000  0.750000  0.500000
 
   32   32   32
 -4.6154     -3.7891     -1.5229      1.6209      4.9197      7.7112      9.5610      10.333      10.164      9.3760    
  8.3481      7.3194      6.3917      5.6325      5.0782      4.7434      4.6317      4.7434      5.0781      5.6324    
  6.3917      7.3194      8.3481      9.3760      10.164      10.333      9.5610      7.7112      4.9197      1.6209    
 -1.5229     -3.7892     -3.7892     -4.1719     -2.9529     -.45056      2.7177      5.8398      8.3186      9.8099    
  10.263      9.8757      8.9923      7.9665      6.9744      6.1047      5.4148      4.9337      4.6720      4.6319    
  4.8139      5.2179      5.8391      6.6583      7.6316      8.6833      9.6938      10.372      10.341      9.3176    
  7.2327      4.3026      1.0293     -1.8979     -1.5229     -2.9530     -2.9021     -1.3953      1.1694      4.1613    
  6.9212      8.9467      9.9964      10.102      9.5065      8.5598      7.5532      6.6107      5.8092      5.1954    
  4.7908      4.6026      4.6321      4.8804      5.3473      6.0261      6.8933      7.8982      8.9591      9.9359    
  10.508      10.321      9.1420      6.9696      4.0855      1.0293      1.6209     -.45058     -1.3953     -.97814    
 0.67317      3.1166      5.7505      8.0038      9.4869      10.062      9.8325      9.0679      8.0972      7.1243    
  6.2430      5.5173      4.9830      4.6551      4.5378      4.6323      4.9400      5.4607      6.1855      7.0867    
  8.1083      9.1644      10.098      10.584      10.303      9.0783      6.9696      4.3026      4.9197      2.7177    
  1.1694     0.67317      1.3455      2.9828      5.1385      7.2773      8.9389      9.8519      9.9730      9.4577    
  8.5842      7.6218      6.6964      5.8857      5.2403      4.7858      4.5318      4.4802      4.6325      4.9904    
  5.5536      6.3108      7.2306      8.2533      9.2909      10.179      10.608      10.303      9.1420      7.2327    
  7.7112      5.8398      4.1613      3.1166      2.9828      3.7766      5.2526      6.9963      8.5646      9.6166    
  9.9918      9.7242      9.0021      8.0862      7.1519      6.2863      5.5527      4.9885      4.6110      4.4250    
  4.4316      4.6323      5.0297      5.6223      6.3970      7.3192      8.3272      9.3336      10.179      10.584    
  10.321      9.3176      9.5610      8.3186      6.9212      5.7505      5.1386      5.2526      6.0371      7.2397    
  8.5052      9.4949      9.9824      9.9021      9.3443      8.5090      7.5963      6.7064      5.9101      5.2561    
  4.7708      4.4642      4.3384      4.3936      4.6321      5.0564      5.6645      6.4409      7.3492      8.3272    
  9.2909      10.098      10.508      10.341      10.333      9.8099      8.9467      8.0038      7.2773      6.9963    
  7.2397      7.9105      8.7773      9.5605      10.024      10.042      9.6221      8.8885      8.0220      7.1361    
  6.3039      5.5821      5.0065      4.5943      4.3503      4.2746      4.3675      4.6318      5.0700      5.6787    
  6.4409      7.3192      8.2533      9.1644      9.9359      10.372      10.164      10.263      9.9964      9.4870    
  8.9389      8.5646      8.5052      8.7773      9.2706      9.7935      10.145      10.181      9.8543      9.2241    
  8.4242      7.5683      6.7271      5.9613      5.3146      4.8123      4.4645      4.2725      4.2355      4.3542    
  4.6317      5.0700      5.6645      6.3970      7.2306      8.1083      8.9591      9.6938      9.3760      9.8757    
  10.102      10.062      9.8519      9.6166      9.4949      9.5605      9.7935      10.090      10.308      10.317    
  10.049      9.5135      8.7971      7.9953      7.1724      6.3884      5.6922      5.1169      4.6795      4.3851    
  4.2331      4.2224      4.3542      4.6318      5.0564      5.6223      6.3108      7.0867      7.8982      8.6833    
  8.3481      8.9923      9.5065      9.8325      9.9730      9.9918      9.9824      10.024      10.145      10.308    
  10.429      10.413      10.190      9.7470      9.1293      8.4059      7.6298      6.8561      6.1356      5.5073    
  4.9958      4.6121      4.3584      4.2331      4.2355      4.3675      4.6321      5.0297      5.5536      6.1855    
  6.8933      7.6316      7.3194      7.9665      8.5598      9.0679      9.4577      9.7242      9.9021      10.042    
  10.181      10.317      10.413      10.407      10.245      9.9036      9.4027      8.7828      8.0833      7.3515    
  6.6361      5.9795      5.4131      4.9550      4.6121      4.3851      4.2725      4.2746      4.3936      4.6323    
  4.9904      5.4607      6.0261      6.6583      6.3917      6.9744      7.5532      8.0972      8.5842      9.0021    
  9.3443      9.6221      9.8543      10.049      10.190      10.245      10.175      9.9569      9.5940      9.1028    
  8.5102      7.8540      7.1776      6.5233      5.9269      5.4131      4.9958      4.6795      4.4645      4.3503    
  4.3384      4.4316      4.6325      4.9400      5.3473      5.8391      5.6324      6.1047      6.6107      7.1243    
  7.6218      8.0862      8.5090      8.8885      9.2241      9.5135      9.7470      9.9036      9.9569      9.8857    
  9.6795      9.3402      8.8834      8.3365      7.7352      7.1185      6.5233      5.9795      5.5073      5.1169    
  4.8123      4.5943      4.4642      4.4250      4.4802      4.6323      4.8804      5.2179      5.0781      5.4148    
  5.8092      6.2430      6.6964      7.1519      7.5963      8.0220      8.4242      8.7971      9.1293      9.4027    
  9.5940      9.6795      9.6413      9.4716      9.1749      8.7679      8.2770      7.7352      7.1776      6.6361    
  6.1356      5.6922      5.3146      5.0065      4.7708      4.6110      4.5318      4.5378      4.6321      4.8139    
  4.7434      4.9337      5.1954      5.5173      5.8858      6.2864      6.7064      7.1361      7.5683      7.9953    
  8.4059      8.7828      9.1028      9.3402      9.4716      9.4804      9.3606      9.1176      8.7679      8.3365    
  7.8540      7.3515      6.8561      6.3884      5.9613      5.5821      5.2561      4.9885      4.7858      4.6551    
  4.6026      4.6319      4.6317      4.6720      4.7909      4.9831      5.2403      5.5527      5.9101      6.3040    
  6.7271      7.1724      7.6298      8.0832      8.5102      8.8834      9.1749      9.3606      9.4244      9.3606    
  9.1749      8.8834      8.5102      8.0833      7.6298      7.1724      6.7271      6.3039      5.9101      5.5527    
  5.2403      4.9830      4.7908      4.6720      4.7434      4.6319      4.6026      4.6552      4.7859      4.9885    
  5.2561      5.5821      5.9613      6.3884      6.8561      7.3515      7.8540      8.3365      8.7679      9.1176    
  9.3606      9.4804      9.4716      9.3402      9.1028      8.7828      8.4059      7.9953      7.5683      7.1361    
  6.7064      6.2863      5.8857      5.5173      5.1954      4.9337      5.0782      4.8139      4.6321      4.5379    
  4.5318      4.6110      4.7708      5.0065      5.3146      5.6922      6.1356      6.6361      7.1776      7.7352    
  8.2770      8.7679      9.1749      9.4716      9.6413      9.6795      9.5940      9.4027      9.1293      8.7971    
  8.4242      8.0220      7.5963      7.1519      6.6964      6.2430      5.8092      5.4148      5.6325      5.2180    
  4.8804      4.6324      4.4803      4.4250      4.4643      4.5943      4.8123      5.1169      5.5073      5.9796    
  6.5233      7.1185      7.7352      8.3365      8.8834      9.3402      9.6795      9.8857      9.9569      9.9036    
  9.7470      9.5135      9.2241      8.8885      8.5090      8.0862      7.6218      7.1243      6.6107      6.1047    
  6.3917      5.8391      5.3473      4.9401      4.6325      4.4316      4.3384      4.3503      4.4645      4.6795    
  4.9958      5.4131      5.9269      6.5233      7.1776      7.8540      8.5102      9.1028      9.5940      9.9569    
  10.175      10.245      10.190      10.049      9.8543      9.6221      9.3443      9.0021      8.5842      8.0972    
  7.5532      6.9744      7.3194      6.6583      6.0261      5.4607      4.9904      4.6323      4.3936      4.2745    
  4.2725      4.3851      4.6121      4.9550      5.4131      5.9796      6.6361      7.3515      8.0832      8.7828    
  9.4027      9.9036      10.245      10.407      10.413      10.317      10.181      10.042      9.9021      9.7242    
  9.4577      9.0679      8.5598      7.9665      8.3481      7.6316      6.8933      6.1855      5.5536      5.0297    
  4.6321      4.3675      4.2355      4.2330      4.3584      4.6121      4.9958      5.5073      6.1356      6.8561    
  7.6298      8.4059      9.1293      9.7470      10.190      10.413      10.429      10.308      10.145      10.024    
  9.9824      9.9918      9.9730      9.8325      9.5065      8.9923      9.3760      8.6834      7.8982      7.0866    
  6.3108      5.6223      5.0564      4.6318      4.3542      4.2223      4.2330      4.3851      4.6795      5.1169    
  5.6922      6.3884      7.1724      7.9953      8.7971      9.5135      10.049      10.317      10.308      10.090    
  9.7935      9.5605      9.4949      9.6166      9.8519      10.062      10.102      9.8757      10.164      9.6938    
  8.9591      8.1083      7.2306      6.3970      5.6645      5.0700      4.6317      4.3542      4.2355      4.2725    
  4.4645      4.8123      5.3146      5.9613      6.7271      7.5683      8.4242      9.2241      9.8543      10.181    
  10.145      9.7935      9.2706      8.7773      8.5052      8.5646      8.9389      9.4869      9.9964      10.263    
  10.333      10.372      9.9359      9.1644      8.2533      7.3192      6.4409      5.6787      5.0700      4.6318    
  4.3675      4.2745      4.3503      4.5943      5.0065      5.5821      6.3040      7.1361      8.0220      8.8885    
  9.6221      10.042      10.024      9.5605      8.7773      7.9105      7.2397      6.9963      7.2773      8.0038    
  8.9467      9.8099      9.5610      10.341      10.508      10.098      9.2909      8.3272      7.3492      6.4409    
  5.6645      5.0564      4.6321      4.3936      4.3384      4.4643      4.7708      5.2561      5.9101      6.7064    
  7.5963      8.5090      9.3443      9.9021      9.9824      9.4949      8.5052      7.2397      6.0371      5.2526    
  5.1385      5.7505      6.9212      8.3186      7.7112      9.3176      10.321      10.584      10.179      9.3336    
  8.3272      7.3192      6.3970      5.6223      5.0297      4.6323      4.4316      4.4250      4.6110      4.9885    
  5.5527      6.2864      7.1519      8.0862      9.0021      9.7242      9.9918      9.6166      8.5646      6.9963    
  5.2526      3.7766      2.9828      3.1166      4.1613      5.8398      4.9197      7.2327      9.1421      10.303    
  10.608      10.179      9.2909      8.2533      7.2306      6.3108      5.5536      4.9904      4.6325      4.4803    
  4.5318      4.7859      5.2403      5.8858      6.6964      7.6218      8.5842      9.4577      9.9730      9.8519    
  8.9389      7.2773      5.1386      2.9828      1.3455     0.67317      1.1694      2.7177      1.6209      4.3026    
  6.9696      9.0784      10.303      10.584      10.098      9.1644      8.1083      7.0866      6.1855      5.4607    
  4.9401      4.6324      4.5379      4.6552      4.9831      5.5173      6.2430      7.1243      8.0972      9.0679    
  9.8325      10.062      9.4870      8.0038      5.7505      3.1166     0.67317     -.97814     -1.3953     -.45056    
 -1.5229      1.0293      4.0855      6.9696      9.1421      10.321      10.508      9.9359      8.9591      7.8982    
  6.8933      6.0261      5.3473      4.8804      4.6321      4.6026      4.7909      5.1954      5.8092      6.6107    
  7.5532      8.5598      9.5065      10.102      9.9964      8.9467      6.9212      4.1613      1.1694     -1.3953    
 -2.9021     -2.9529     -3.7891     -1.8979      1.0293      4.3026      7.2327      9.3176      10.341      10.372    
  9.6938      8.6834      7.6316      6.6583      5.8391      5.2180      4.8139      4.6319      4.6720      4.9337    
  5.4148      6.1047      6.9744      7.9665      8.9923      9.8757      10.263      9.8099      8.3186      5.8398    
  2.7177     -.45058     -2.9530     -4.1719     -3.7891     -3.1961     -1.2125      1.6701      4.7817      7.4790    
  9.3141      10.117      9.9900      9.2274      8.2004      7.1624      6.2196      5.4407      4.8629      4.5000    
  4.3542      4.4248      4.7115      5.2132      5.9198      6.8018      7.7996      8.8210      9.6696      9.9868    
  9.4468      7.8880      5.4038      2.3717     -.60438     -2.8431     -3.1961     -3.7892     -2.8432     -.60436    
  2.3717      5.4038      7.8880      9.4468      9.9869      9.6696      8.8209      7.7996      6.8018      5.9198    
  5.2131      4.7115      4.4248      4.3543      4.5000      4.8628      5.4407      6.2196      7.1624      8.2004    
  9.2274      9.9900      10.117      9.3141      7.4790      4.7817      1.6701     -1.2125     -1.1097     -2.7332    
 -2.9529     -1.7239     0.62657      3.5128      6.2814      8.4001      9.5801      9.8073      9.2939      8.3802    
  7.3803      6.4341      5.6225      4.9946      4.5727      4.3633      4.3675      4.5863      5.0212      5.6687    
  6.5106      7.5027      8.5688      9.5854      10.258      10.227      9.2414      7.2613      4.5219      1.5161    
  1.9361     -.30871     -1.5179     -1.3953     0.63539E-02  2.3053      4.9228      7.2697      8.9099      9.6518    
  9.5548      8.8674      7.9224      6.9564      6.0723      5.3383      4.7928      4.4513      4.3178      4.3936    
  4.6806      5.1807      5.8887      6.7819      7.8099      8.8911      9.8848      10.479      10.342      9.2713    
  7.2875      4.6730      5.2176      2.8716      1.0792     0.28401     0.67316      2.1135      4.2008      6.4002    
  8.2148      9.3178      9.6128      9.2198      8.4050      7.4619      6.5421      5.7289      5.0771      4.6146    
  4.3515      4.2900      4.4316      4.7795      5.3354      6.0921      7.0225      8.0714      9.1539      10.118    
  10.655      10.472      9.4193      7.5648      8.0534      6.0756      4.1901      2.8647      2.4333      2.9828    
  4.3254      6.0685      7.7508      8.9838      9.5506      9.4389      8.8119      7.9328      7.0132      6.1514    
  5.4157      4.8477      4.4661      4.2766      4.2806      4.4802      4.8795      5.4797      6.2710      7.2226    
  8.2758      9.3449      10.276      10.783      10.615      9.6705      9.9825      8.6748      7.1198      5.7089    
  4.8128      4.6586      5.2526      6.3820      7.6954      8.8232      9.4887      9.5754      9.1376      8.3612    
  7.4717      6.5919      5.7980      5.1434      4.6575      4.3518      4.2290      4.2900      4.5379      4.9770    
  5.6078      6.4178      7.3732      8.4133      9.4537      10.351      10.851      10.749      10.842      10.294    
  9.3271      8.1990      7.2272      6.6844      6.7049      7.2396      8.0794      8.9341      9.5321      9.7002    
  9.4049      8.7464      7.9100      7.0395      6.2139      5.4945      4.9209      4.5125      4.2753      4.2101    
  4.3179      4.6025      5.0685      5.7146      6.5260      7.4667      8.4761      9.4730      10.334      10.845    
  10.747      10.858      10.539      9.9039      9.1649      8.5617      8.2778      8.3756      8.7773      9.2991    
  9.7218      9.8660      9.6464      9.0914      8.3250      7.4867      6.6552      5.8944      5.2519      4.7556    
  4.4172      4.2389      4.2204      4.3633      4.6720      5.1502      5.7952      6.5901      7.4979      8.4594    
  9.3992      10.218      10.002      10.545      10.765      10.656      10.314      9.8989      9.5768      9.4591    
  9.5594      9.7935      10.016      10.078      9.8789      9.4016      8.7136      7.9267      7.1141      6.3369    
  5.6467      5.0792      4.6531      4.3746      4.2436      4.2597      4.4248      4.7434      5.2185      5.8456    
  6.6062      7.4636      8.3620      9.2336      8.9823      9.6904      10.235      10.542      10.607      10.500    
  10.330      10.204      10.177      10.237      10.308      10.287      10.088      9.6715      9.0667      8.3499    
  7.5810      6.8139      6.1004      5.4815      4.9830      4.6172      4.3865      4.2897      4.3267      4.5000    
  4.8139      5.2701      5.8626      6.5724      7.3640      8.1871      7.9418      8.6559      9.2978      9.8247    
  10.188      10.380      10.444      10.446      10.445      10.461      10.469      10.413      10.228      9.8776    
  9.3664      8.7402      8.0408      7.3128      6.6042      5.9579      5.4061      4.9676      4.6497      4.4530    
  4.3761      4.4195      4.5863      4.8804      5.3023      5.8449      6.4892      7.2029      6.9872      7.6371    
  8.2689      8.8449      9.3372      9.7246      9.9968      10.173      10.287      10.362      10.400      10.374    
  10.245      9.9840      9.5867      9.0744      8.4720      7.8142      7.1423      6.4982      5.9174      5.4250    
  5.0346      4.7506      4.5728      4.5005      4.5352      4.6806      4.9401      5.3132      5.7924      6.3599    
  6.1904      6.7270      7.2872      7.8386      8.3520      8.8064      9.1915      9.5048      9.7494      9.9346    
  10.063      10.124      10.096      9.9569      9.6989      9.3245      8.8471      8.2913      7.6908      7.0830    
  6.5039      5.9828      5.5393      5.1833      4.9179      4.7430      4.6595      4.6703      4.7795      4.9904    
  5.3023      5.7075      5.5942      5.9888      6.4347      6.9081      7.3840      7.8404      8.2617      8.6397    
  8.9722      9.2585      9.4950      9.6717      9.7728      9.7803      9.6795      9.4636      9.1365      8.7133    
  8.2186      7.6836      7.1417      6.6238      6.1537      5.7467      5.4104      5.1474      4.9592      4.8485    
  4.8202      4.8795      5.0297      5.2701      5.2185      5.4580      5.7648      6.1238      6.5168      6.9250    
  7.3324      7.7277      8.1042      8.4577      8.7824      9.0679      9.2984      9.4543      9.5167      9.4716    
  9.3138      9.0485      8.6908      8.2642      7.7970      7.3187      6.8551      6.4254      6.0415      5.7094    
  5.4325      5.2147      5.0615      4.9801      4.9770      5.0565      5.0700      5.1502      5.3057      5.5288    
  5.8082      6.1301      6.4812      6.8501      7.2291      7.6125      7.9938      8.3627      8.7031      8.9941    
  9.2132      9.3400      9.3606      9.2702      9.0738      8.7861      8.4288      8.0274      7.6073      7.1895    
  6.7887      6.4140      6.0707      5.7640      5.5011      5.2912      5.1440      5.0684      5.1501      5.0700    
  5.0685      5.1440      5.2911      5.5011      5.7640      6.0707      6.4140      6.7887      7.1895      7.6073    
  8.0274      8.4288      8.7861      9.0738      9.2702      9.3606      9.3400      9.2132      8.9941      8.7030    
  8.3627      7.9939      7.6125      7.2291      6.8501      6.4812      6.1301      5.8082      5.5288      5.3056    
  5.4580      5.2185      5.0565      4.9770      4.9801      5.0615      5.2147      5.4325      5.7094      6.0416    
  6.4254      6.8551      7.3187      7.7971      8.2642      8.6908      9.0485      9.3138      9.4716      9.5167    
  9.4543      9.2984      9.0679      8.7824      8.4577      8.1042      7.7277      7.3324      6.9250      6.5167    
  6.1238      5.7648      5.9888      5.5942      5.2701      5.0297      4.8795      4.8203      4.8485      4.9591    
  5.1474      5.4104      5.7467      6.1537      6.6238      7.1418      7.6836      8.2186      8.7133      9.1365    
  9.4636      9.6795      9.7803      9.7728      9.6717      9.4950      9.2585      8.9722      8.6397      8.2617    
  7.8404      7.3840      6.9081      6.4347      6.7270      6.1904      5.7075      5.3023      4.9904      4.7795    
  4.6703      4.6595      4.7430      4.9179      5.1833      5.5393      5.9828      6.5039      7.0830      7.6908    
  8.2914      8.8471      9.3245      9.6989      9.9569      10.096      10.124      10.063      9.9346      9.7494    
  9.5048      9.1915      8.8064      8.3520      7.8386      7.2872      7.6371      6.9872      6.3599      5.7924    
  5.3132      4.9400      4.6806      4.5352      4.5005      4.5727      4.7505      5.0346      5.4250      5.9174    
  6.4982      7.1423      7.8142      8.4720      9.0744      9.5867      9.9840      10.245      10.374      10.400    
  10.362      10.287      10.173      9.9968      9.7246      9.3372      8.8449      8.2689      8.6559      7.9418    
  7.2029      6.4892      5.8449      5.3023      4.8804      4.5863      4.4195      4.3761      4.4529      4.6497    
  4.9676      5.4061      5.9580      6.6042      7.3128      8.0408      8.7402      9.3664      9.8776      10.228    
  10.413      10.469      10.461      10.445      10.446      10.444      10.380      10.188      9.8247      9.2978    
  9.6904      8.9822      8.1871      7.3640      6.5724      5.8627      5.2701      4.8138      4.5000      4.3267    
  4.2897      4.3865      4.6172      4.9830      5.4815      6.1004      6.8139      7.5810      8.3499      9.0667    
  9.6715      10.088      10.287      10.308      10.237      10.177      10.204      10.330      10.500      10.607    
  10.542      10.235      10.545      10.002      9.2336      8.3620      7.4636      6.6062      5.8456      5.2185    
  4.7434      4.4247      4.2596      4.2436      4.3746      4.6531      5.0792      5.6467      6.3369      7.1141    
  7.9267      8.7136      9.4016      9.8789      10.078      10.016      9.7935      9.5594      9.4591      9.5768    
  9.8989      10.314      10.656      10.765      10.858      10.747      10.218      9.3992      8.4593      7.4978    
  6.5901      5.7952      5.1502      4.6719      4.3633      4.2204      4.2389      4.4171      4.7556      5.2519    
  5.8944      6.6552      7.4867      8.3250      9.0914      9.6464      9.8660      9.7218      9.2991      8.7773    
  8.3756      8.2778      8.5617      9.1650      9.9039      10.539      10.294      10.842      10.845      10.334    
  9.4730      8.4761      7.4667      6.5260      5.7145      5.0685      4.6025      4.3179      4.2100      4.2753    
  4.5125      4.9209      5.4945      6.2139      7.0395      7.9100      8.7464      9.4049      9.7002      9.5321    
  8.9341      8.0793      7.2396      6.7049      6.6844      7.2272      8.1990      9.3271      8.6749      9.9825    
  10.749      10.851      10.351      9.4538      8.4133      7.3731      6.4178      5.6078      4.9770      4.5378    
  4.2900      4.2290      4.3518      4.6575      5.1434      5.7980      6.5919      7.4717      8.3612      9.1376    
  9.5754      9.4887      8.8232      7.6954      6.3820      5.2526      4.6586      4.8127      5.7089      7.1199    
  6.0756      8.0534      9.6705      10.615      10.783      10.276      9.3449      8.2758      7.2226      6.2710    
  5.4797      4.8795      4.4802      4.2806      4.2766      4.4661      4.8477      5.4158      6.1514      7.0132    
  7.9328      8.8119      9.4389      9.5506      8.9838      7.7508      6.0686      4.3254      2.9828      2.4333    
  2.8647      4.1902      2.8716      5.2176      7.5649      9.4194      10.472      10.655      10.118      9.1539    
  8.0714      7.0225      6.0921      5.3354      4.7795      4.4316      4.2899      4.3515      4.6146      5.0771    
  5.7289      6.5421      7.4619      8.4051      9.2198      9.6128      9.3178      8.2149      6.4002      4.2007    
  2.1135     0.67324     0.28410      1.0793     -.30870      1.9361      4.6731      7.2876      9.2713      10.342    
  10.479      9.8849      8.8911      7.8099      6.7819      5.8887      5.1807      4.6806      4.3936      4.3179    
  4.4513      4.7927      5.3383      6.0723      6.9564      7.9224      8.8673      9.5548      9.6518      8.9099    
  7.2697      4.9228      2.3053     0.64402E-02 -1.3953     -1.5179     -2.7331     -1.1096      1.5161      4.5218    
  7.2613      9.2414      10.228      10.258      9.5854      8.5688      7.5028      6.5106      5.6687      5.0212    
  4.5863      4.3675      4.3633      4.5726      4.9946      5.6225      6.4341      7.3803      8.3802      9.2940    
  9.8073      9.5801      8.4000      6.2814      3.5129     0.62660     -1.7239     -2.9529     -1.5228     -1.1096    
 0.53716      3.0031      5.6991      8.0457      9.6273      10.275      10.069      9.2723      8.2298      7.1776    
  6.2177      5.4176      4.8138      4.4195      4.2355      4.2596      4.4912      4.9301      5.5702      6.3890    
  7.3369      8.3333      9.2374      9.7436      9.5356      8.4310      6.4705      3.9528      1.3927     -.60431    
 -1.2125     -1.8979     -1.2125     0.66329      3.2519      5.9399      8.1650      9.5603      10.017      9.6687    
  8.8120      7.7862      6.7809      5.8871      5.1637      4.6405      4.3267      4.2224      4.3267      4.6406    
  5.1638      5.8871      6.7809      7.7861      8.8121      9.6687      10.017      9.5603      8.1651      5.9399    
  3.2519     0.66328     0.53716     -1.1096     -1.5228     -.60431      1.3927      3.9528      6.4705      8.4310    
  9.5356      9.7437      9.2374      8.3333      7.3370      6.3890      5.5702      4.9301      4.4913      4.2596    
  4.2355      4.4195      4.8138      5.4176      6.2177      7.1776      8.2298      9.2723      10.068      10.275    
  9.6273      8.0457      5.6992      3.0031      3.2538      1.0372     -.30867     -.45054     0.62661      2.6141    
  4.9884      7.1847      8.7618      9.5028      9.4347      8.7786      7.8522      6.8957      6.0143      5.2773    
  4.7239      4.3704      4.2204      4.2746      4.5353      5.0055      5.6832      6.5509      7.5654      8.6528    
  9.6984      10.435      10.535      9.7740      8.1254      5.8055      6.2565      3.9740      2.0949      1.0792    
  1.1695      2.3053      4.1463      6.1925      7.9490      9.0658      9.4123      9.0764      8.3026      7.3817    
  6.4752      5.6681      5.0170      4.5513      4.2816      4.2101      4.3384      4.6703      5.2092      5.9512    
  6.8743      7.9296      9.0387      10.076      10.764      10.803      10.014      8.4161      8.8866      6.9919    
  5.0633      3.5642      2.8647      3.1166      4.2007      5.7723      7.3840      8.6309      9.2626      9.2301    
  8.6688      7.8288      6.9336      6.0872      5.3605      4.7970      4.4172      4.2273      4.2290      4.4250    
  4.8203      5.4180      6.2118      7.1753      8.2550      9.3700      10.389      11.044      11.070      10.332    
  10.690      9.4699      7.9059      6.3699      5.2470      4.8127      5.1385      6.0685      7.2806      8.4015    
  9.1264      9.3016      8.9477      8.2300      7.3753      6.5202      5.7432      5.1004      4.6234      4.3251    
  4.2090      4.2767      4.5318      4.9801      5.6241      6.4543      7.4406      8.5260      9.6289      10.621    
  11.257      11.312      11.495      11.029      10.076      8.8669      7.7172      6.9275      6.6843      6.9962    
  7.6953      8.5038      9.1337      9.3795      9.1723      8.5853      7.7935      6.9556      6.1544      5.4536    
  4.8953      4.5009      4.2777      4.2273      4.3515      4.6552      5.1441      5.8192      6.6682      7.6573    
  8.7278      9.7994      10.756      11.383      11.398      11.582      11.289      10.608      9.7404      8.9349    
  8.4102      8.2777      8.5051      8.9341      9.3447      9.5353      9.3890      8.9047      8.1881      7.3864    
  6.5852      5.8492      5.2280      4.7516      4.4332      4.2764      4.2816      4.4513      4.7909      5.3057    
  5.9948      6.8429      7.8137      8.8481      9.8690      10.777      10.677      11.285      11.539      11.412    
  10.983      10.413      9.8866      9.5503      9.4590      9.5604      9.7217      9.7849      9.6271      9.2034    
  8.5603      7.8080      7.0280      6.2800      5.6164      5.0743      4.6739      4.4226      4.3214      4.3704    
  4.5727      4.9337      5.4580      6.1424      6.9689      7.9000      8.8778      9.8305      9.6831      10.454    
  11.039      11.346      11.360      11.142      10.810      10.491      10.274      10.177      10.145      10.078    
  9.8766      9.4835      8.9062      8.2145      7.4749      6.7382      6.0549      5.4662      4.9988      4.6657    
  4.4703      4.4120      4.4913      4.7115      5.0781      5.5942      6.2543      7.0387      7.9098      8.8129    
  8.6548      9.4329      10.120      10.664      11.003      11.121      11.063      10.906      10.730      10.583    
  10.461      10.317      10.088      9.7224      9.2116      8.5936      7.9140      7.2128      6.5351      5.9224    
  5.4064      5.0060      4.7289      4.5759      4.5462      4.6406      4.8628      5.2179      5.7075      6.3242    
  7.0474      7.8408      7.6957      8.4111      9.0920      9.6938      10.182      10.526      10.712      10.763    
  10.727      10.646      10.541      10.400      10.190      9.8776      9.4495      8.9242      8.3269      7.6872    