   2   2   0   0
  0.1201043E+02  0.3341892E-09  0.3341892E-09  0.3341892E-09  0.5000000E-15
  1.000000000000000E-004
  CAR 
 unknown system                          
     30.24273025     -5.41673989  301     12.51266124      1.00000000
     -5.417  0.0000E+00  0.0000E+00
     -5.298  0.0000E+00  0.0000E+00
     -5.179  0.0000E+00  0.0000E+00
     -5.060  0.0000E+00  0.0000E+00
     -4.941  0.0000E+00  0.0000E+00
     -4.822  0.0000E+00  0.0000E+00
     -4.704  0.0000E+00  0.0000E+00
     -4.585  0.4865E-18  0.5782E-19
     -4.466  0.5200E-15  0.6187E-16
     -4.347  0.2089E-12  0.2490E-13
     -4.228  0.4199E-10  0.5016E-11
     -4.109  0.4230E-08  0.5078E-09
     -3.990  0.2144E-06  0.2599E-07
     -3.871  0.5487E-05  0.6782E-06
     -3.753  0.7126E-04  0.9148E-05
     -3.634  0.4727E-03  0.6533E-04
     -3.515  0.1622E-02  0.2581E-03
     -3.396  0.2995E-02  0.6141E-03
     -3.277  0.3504E-02  0.1031E-02
     -3.158  0.4406E-02  0.1554E-02
     -3.039  0.8072E-02  0.2514E-02
     -2.921  0.1261E-01  0.4013E-02
     -2.802  0.1318E-01  0.5580E-02
     -2.683  0.1054E-01  0.6833E-02
     -2.564  0.7848E-02  0.7765E-02
     -2.445  0.6266E-02  0.8510E-02
     -2.326  0.6889E-02  0.9329E-02
     -2.207  0.1082E-01  0.1062E-01
     -2.089  0.1842E-01  0.1280E-01
     -1.970  0.2439E-01  0.1570E-01
     -1.851  0.1998E-01  0.1808E-01
     -1.732  0.1160E-01  0.1946E-01
     -1.613  0.1218E-01  0.2090E-01
     -1.494  0.1819E-01  0.2307E-01
     -1.375  0.1852E-01  0.2527E-01
     -1.256  0.1450E-01  0.2699E-01
     -1.138  0.1363E-01  0.2861E-01
     -1.019  0.1624E-01  0.3054E-01
     -0.900  0.1850E-01  0.3274E-01
     -0.781  0.2022E-01  0.3515E-01
     -0.662  0.2289E-01  0.3787E-01
     -0.543  0.2330E-01  0.4064E-01
     -0.424  0.1784E-01  0.4276E-01
     -0.306  0.1645E-01  0.4471E-01
     -0.187  0.2717E-01  0.4794E-01
     -0.068  0.3534E-01  0.5214E-01
      0.051  0.2746E-01  0.5541E-01
      0.170  0.1473E-01  0.5716E-01
      0.289  0.7571E-02  0.5806E-01
      0.408  0.6378E-02  0.5881E-01
      0.527  0.1270E-01  0.6032E-01
      0.645  0.2737E-01  0.6358E-01
      0.764  0.4532E-01  0.6896E-01
      0.883  0.5009E-01  0.7492E-01
      1.002  0.3588E-01  0.7918E-01
      1.121  0.2270E-01  0.8188E-01
      1.240  0.2196E-01  0.8449E-01
      1.359  0.2501E-01  0.8746E-01
      1.477  0.2546E-01  0.9049E-01
      1.596  0.2337E-01  0.9327E-01
      1.715  0.1975E-01  0.9562E-01
      1.834  0.1717E-01  0.9766E-01
      1.953  0.1836E-01  0.9984E-01
      2.072  0.2276E-01  0.1025E+00
      2.191  0.2485E-01  0.1055E+00
      2.309  0.2172E-01  0.1081E+00
      2.428  0.2233E-01  0.1107E+00
      2.547  0.3846E-01  0.1153E+00
      2.666  0.5736E-01  0.1221E+00
      2.785  0.5496E-01  0.1287E+00
      2.904  0.3660E-01  0.1330E+00
      3.023  0.2377E-01  0.1358E+00
      3.142  0.2090E-01  0.1383E+00
      3.260  0.2106E-01  0.1408E+00
      3.379  0.2732E-01  0.1441E+00
      3.498  0.4158E-01  0.1490E+00
      3.617  0.4904E-01  0.1548E+00
      3.736  0.4207E-01  0.1598E+00
      3.855  0.3516E-01  0.1640E+00
      3.974  0.3406E-01  0.1681E+00
      4.092  0.3092E-01  0.1717E+00
      4.211  0.2850E-01  0.1751E+00
      4.330  0.2722E-01  0.1784E+00
      4.449  0.2097E-01  0.1809E+00
      4.568  0.1374E-01  0.1825E+00
      4.687  0.1378E-01  0.1841E+00
      4.806  0.2324E-01  0.1869E+00
      4.925  0.3460E-01  0.1910E+00
      5.043  0.4197E-01  0.1960E+00
      5.162  0.4925E-01  0.2018E+00
      5.281  0.5698E-01  0.2086E+00
      5.400  0.5786E-01  0.2155E+00
      5.519  0.5069E-01  0.2215E+00
      5.638  0.4248E-01  0.2266E+00
      5.757  0.3410E-01  0.2306E+00
      5.875  0.2548E-01  0.2337E+00
      5.994  0.2689E-01  0.2368E+00
      6.113  0.4369E-01  0.2420E+00
      6.232  0.5841E-01  0.2490E+00
      6.351  0.5459E-01  0.2555E+00
      6.470  0.4125E-01  0.2604E+00
      6.589  0.2963E-01  0.2639E+00
      6.707  0.2124E-01  0.2664E+00
      6.826  0.1888E-01  0.2687E+00
      6.945  0.2617E-01  0.2718E+00
      7.064  0.3990E-01  0.2765E+00
      7.183  0.4684E-01  0.2821E+00
      7.302  0.4441E-01  0.2874E+00
      7.421  0.4890E-01  0.2932E+00
      7.540  0.5807E-01  0.3001E+00
      7.658  0.5521E-01  0.3066E+00
      7.777  0.4806E-01  0.3124E+00
      7.896  0.4708E-01  0.3180E+00
      8.015  0.4665E-01  0.3235E+00
      8.134  0.4315E-01  0.3286E+00
      8.253  0.3595E-01  0.3329E+00
      8.372  0.2664E-01  0.3361E+00
      8.490  0.2555E-01  0.3391E+00
      8.609  0.4028E-01  0.3439E+00
      8.728  0.6279E-01  0.3514E+00
      8.847  0.7207E-01  0.3599E+00
      8.966  0.6323E-01  0.3674E+00
      9.085  0.5485E-01  0.3740E+00
      9.204  0.5169E-01  0.3801E+00
      9.323  0.4439E-01  0.3854E+00
      9.441  0.3760E-01  0.3899E+00
      9.560  0.4058E-01  0.3947E+00
      9.679  0.4773E-01  0.4003E+00
      9.798  0.4959E-01  0.4062E+00
      9.917  0.4958E-01  0.4121E+00
     10.036  0.5071E-01  0.4182E+00
     10.155  0.4928E-01  0.4240E+00
     10.273  0.5155E-01  0.4301E+00
     10.392  0.7144E-01  0.4386E+00
     10.511  0.9940E-01  0.4505E+00
     10.630  0.9985E-01  0.4623E+00
     10.749  0.7195E-01  0.4709E+00
     10.868  0.4434E-01  0.4761E+00
     10.987  0.2763E-01  0.4794E+00
     11.105  0.2594E-01  0.4825E+00
     11.224  0.3518E-01  0.4867E+00
     11.343  0.3988E-01  0.4914E+00
     11.462  0.3804E-01  0.4960E+00
     11.581  0.3618E-01  0.5003E+00
     11.700  0.3544E-01  0.5045E+00
     11.819  0.3284E-01  0.5084E+00
     11.938  0.3100E-01  0.5121E+00
     12.056  0.3569E-01  0.5163E+00
     12.175  0.3759E-01  0.5208E+00
     12.294  0.3337E-01  0.5247E+00
     12.413  0.3551E-01  0.5290E+00
     12.532  0.4459E-01  0.5343E+00
     12.651  0.5038E-01  0.5402E+00
     12.770  0.4886E-01  0.5461E+00
     12.888  0.4674E-01  0.5516E+00
     13.007  0.4818E-01  0.5573E+00
     13.126  0.4504E-01  0.5627E+00
     13.245  0.3336E-01  0.5667E+00
     13.364  0.2518E-01  0.5696E+00
     13.483  0.3171E-01  0.5734E+00
     13.602  0.4780E-01  0.5791E+00
     13.721  0.6147E-01  0.5864E+00
     13.839  0.6539E-01  0.5942E+00
     13.958  0.5689E-01  0.6009E+00
     14.077  0.4433E-01  0.6062E+00
     14.196  0.3682E-01  0.6106E+00
     14.315  0.3449E-01  0.6147E+00
     14.434  0.3641E-01  0.6190E+00
     14.553  0.4452E-01  0.6243E+00
     14.671  0.5670E-01  0.6310E+00
     14.790  0.6313E-01  0.6386E+00
     14.909  0.6308E-01  0.6461E+00
     15.028  0.6704E-01  0.6540E+00
     15.147  0.7468E-01  0.6629E+00
     15.266  0.7471E-01  0.6718E+00
     15.385  0.6594E-01  0.6796E+00
     15.503  0.5619E-01  0.6863E+00
     15.622  0.4925E-01  0.6921E+00
     15.741  0.4465E-01  0.6975E+00
     15.860  0.4146E-01  0.7024E+00
     15.979  0.4005E-01  0.7071E+00
     16.098  0.4054E-01  0.7120E+00
     16.217  0.4491E-01  0.7173E+00
     16.336  0.5063E-01  0.7233E+00
     16.454  0.4987E-01  0.7292E+00
     16.573  0.4543E-01  0.7346E+00
     16.692  0.4500E-01  0.7400E+00
     16.811  0.4519E-01  0.7454E+00
     16.930  0.4205E-01  0.7504E+00
     17.049  0.4397E-01  0.7556E+00
     17.168  0.5624E-01  0.7623E+00
     17.286  0.6872E-01  0.7704E+00
     17.405  0.7245E-01  0.7791E+00
     17.524  0.6604E-01  0.7869E+00
     17.643  0.5320E-01  0.7932E+00
     17.762  0.4143E-01  0.7982E+00
     17.881  0.3547E-01  0.8024E+00
     18.000  0.4077E-01  0.8072E+00
     18.119  0.5269E-01  0.8135E+00
     18.237  0.5739E-01  0.8203E+00
     18.356  0.5947E-01  0.8274E+00
     18.475  0.7122E-01  0.8358E+00
     18.594  0.8175E-01  0.8456E+00
     18.713  0.7722E-01  0.8547E+00
     18.832  0.7190E-01  0.8633E+00
     18.951  0.7563E-01  0.8723E+00
     19.069  0.7807E-01  0.8815E+00
     19.188  0.7568E-01  0.8905E+00
     19.307  0.6798E-01  0.8986E+00
     19.426  0.5602E-01  0.9053E+00
     19.545  0.4569E-01  0.9107E+00
     19.664  0.3995E-01  0.9155E+00
     19.783  0.3546E-01  0.9197E+00
     19.901  0.2807E-01  0.9230E+00
     20.020  0.1951E-01  0.9253E+00
     20.139  0.1691E-01  0.9273E+00
     20.258  0.2769E-01  0.9306E+00
     20.377  0.4779E-01  0.9363E+00
     20.496  0.5774E-01  0.9432E+00
     20.615  0.4797E-01  0.9489E+00
     20.734  0.3610E-01  0.9532E+00
     20.852  0.4069E-01  0.9580E+00
     20.971  0.5687E-01  0.9648E+00
     21.090  0.6673E-01  0.9727E+00
     21.209  0.6176E-01  0.9800E+00
     21.328  0.5435E-01  0.9865E+00
     21.447  0.5285E-01  0.9928E+00
     21.566  0.4724E-01  0.9984E+00
     21.684  0.3196E-01  0.1002E+01
     21.803  0.1779E-01  0.1004E+01
     21.922  0.1306E-01  0.1006E+01
     22.041  0.1507E-01  0.1008E+01
     22.160  0.2098E-01  0.1010E+01
     22.279  0.2725E-01  0.1013E+01
     22.398  0.3089E-01  0.1017E+01
     22.517  0.3152E-01  0.1021E+01
     22.635  0.2755E-01  0.1024E+01
     22.754  0.1960E-01  0.1026E+01
     22.873  0.1466E-01  0.1028E+01
     22.992  0.1604E-01  0.1030E+01
     23.111  0.2233E-01  0.1033E+01
     23.230  0.2815E-01  0.1036E+01
     23.349  0.2488E-01  0.1039E+01
     23.467  0.1666E-01  0.1041E+01
     23.586  0.1421E-01  0.1043E+01
     23.705  0.1737E-01  0.1045E+01
     23.824  0.2213E-01  0.1047E+01
     23.943  0.2808E-01  0.1051E+01
     24.062  0.3014E-01  0.1054E+01
     24.181  0.2339E-01  0.1057E+01
     24.299  0.1296E-01  0.1059E+01
     24.418  0.4981E-02  0.1059E+01
     24.537  0.1197E-02  0.1059E+01
     24.656  0.1633E-03  0.1059E+01
     24.775  0.1198E-04  0.1059E+01
     24.894  0.1544E-05  0.1059E+01
     25.013  0.2323E-04  0.1059E+01
     25.132  0.2516E-03  0.1059E+01
     25.250  0.1391E-02  0.1060E+01
     25.369  0.3947E-02  0.1060E+01
     25.488  0.5907E-02  0.1061E+01
     25.607  0.5467E-02  0.1061E+01
     25.726  0.5373E-02  0.1062E+01
     25.845  0.6552E-02  0.1063E+01
     25.964  0.6313E-02  0.1064E+01
     26.082  0.4663E-02  0.1064E+01
     26.201  0.2688E-02  0.1064E+01
     26.320  0.1006E-02  0.1065E+01
     26.439  0.2095E-03  0.1065E+01
     26.558  0.2279E-04  0.1065E+01
     26.677  0.1355E-05  0.1065E+01
     26.796  0.2682E-05  0.1065E+01
     26.915  0.4051E-04  0.1065E+01
     27.033  0.3155E-03  0.1065E+01
     27.152  0.1256E-02  0.1065E+01
     27.271  0.2562E-02  0.1065E+01
     27.390  0.2684E-02  0.1065E+01
     27.509  0.1444E-02  0.1066E+01
     27.628  0.3987E-03  0.1066E+01
     27.747  0.5816E-04  0.1066E+01
     27.865  0.3551E-04  0.1066E+01
     27.984  0.2631E-03  0.1066E+01
     28.103  0.1122E-02  0.1066E+01
     28.222  0.2453E-02  0.1066E+01
     28.341  0.2755E-02  0.1066E+01
     28.460  0.1589E-02  0.1067E+01
     28.579  0.4703E-03  0.1067E+01
     28.697  0.7117E-04  0.1067E+01
     28.816  0.5485E-05  0.1067E+01
     28.935  0.2144E-06  0.1067E+01
     29.054  0.4230E-08  0.1067E+01
     29.173  0.4199E-10  0.1067E+01
     29.292  0.2089E-12  0.1067E+01
     29.411  0.5205E-15  0.1067E+01
     29.530  0.0000E+00  0.1067E+01
     29.648  0.0000E+00  0.1067E+01
     29.767  0.0000E+00  0.1067E+01
     29.886  0.0000E+00  0.1067E+01
     30.005  0.0000E+00  0.1067E+01
     30.124  0.0000E+00  0.1067E+01
     30.243  0.0000E+00  0.1067E+01
