    2    2   15    1
  0.1201043E+02  0.3341892E-09  0.3341892E-09  0.3341892E-09  0.5000000E-15
  1.000000000000000E-004
  CAR 
 unknown system                          
      8     56      8
 
  0.6250000E-01  0.6250000E-01  0.6250000E-01  0.1562500E-01
    1       -2.938024   1.000000
    2        7.817825   1.000000
    3       10.188603   1.000000
    4       12.797970   0.021825
    5       15.283413   0.000000
    6       18.498022   0.000000
    7       18.699315   0.000000
    8       21.534583   0.000000
 
  0.1875000E+00  0.6250000E-01  0.6250000E-01  0.3125000E-01
    1       -1.509966   1.000000
    2        7.445269   1.000000
    3       10.502638   1.000000
    4       12.629922   0.203508
    5       14.741015   0.000000
    6       15.638490   0.000000
    7       18.123265   0.000000
    8       19.119688   0.000000
 
  0.3125000E+00  0.6250000E-01  0.6250000E-01  0.3125000E-01
    1        0.842813   1.000000
    2        7.836163   1.000000
    3        8.216777   1.000000
    4       10.584918   1.000000
    5       12.444520   0.685036
    6       15.182898   0.000000
    7       18.539944   0.000000
    8       18.866712   0.000000
 
  0.4375000E+00  0.6250000E-01  0.6250000E-01  0.1562500E-01
    1        3.916689   1.000000
    2        4.252796   1.000000
    3        9.093889   1.000000
    4        9.283171   1.000000
    5       12.576955   0.324690
    6       13.624588   0.000000
    7       18.308163   0.000000
    8       18.579269   0.000000
 
 -0.6250000E-01  0.6250000E-01  0.6250000E-01  0.7812500E-02
    1       -3.416740   1.000000
    2        8.844846   1.000000
    3        9.036543   1.000000
    4       12.828382   0.012792
    5       13.936047   0.000000
    6       19.665514   0.000000
    7       22.631855   0.000000
    8       23.189168   0.000000
 
  0.1875000E+00  0.1875000E+00  0.6250000E-01  0.1562500E-01
    1        0.613656   1.000000
    2        7.693249   1.000000
    3        9.554425   1.000000
    4        9.591997   1.000000
    5       13.513455   0.000000
    6       16.191775   0.000000
    7       17.102256   0.000000
    8       17.517961   0.000000
 
  0.3125000E+00  0.1875000E+00  0.6250000E-01  0.3125000E-01
    1        3.618713   1.000000
    2        5.431990   1.000000
    3        7.158533   1.000000
    4        8.822380   1.000000
    5       13.944655   0.000000
    6       15.367210   0.000000
    7       17.061971   0.000000
    8       19.842525   0.000000
 
  0.4375000E+00  0.1875000E+00  0.6250000E-01  0.3125000E-01
    1        1.983803   1.000000
    2        5.555494   1.000000
    3        7.504229   1.000000
    4       10.526430   1.000000
    5       12.922332   0.001885
    6       15.946493   0.000000
    7       18.144277   0.000000
    8       20.368872   0.000000
 
 -0.4375000E+00  0.1875000E+00  0.6250000E-01  0.3125000E-01
    1       -0.581969   1.000000
    2        4.855327   1.000000
    3       11.160493   1.000000
    4       12.059172   0.999329
    5       14.074359   0.000000
    6       16.292690   0.000000
    7       17.141550   0.000000
    8       20.353215   0.000000
 
 -0.3125000E+00  0.1875000E+00  0.6250000E-01  0.1562500E-01
    1       -2.235569   1.000000
    2        5.046858   1.000000
    3       10.789972   1.000000
    4       13.485069   0.000000
    5       16.447543   0.000000
    6       17.704047   0.000000
    7       18.371392   0.000000
    8       20.526165   0.000000
 
 -0.1875000E+00  0.1875000E+00  0.6250000E-01  0.1562500E-01
    1       -2.946828   1.000000
    2        6.123804   1.000000
    3        9.372445   1.000000
    4       13.695928   0.000000
    5       16.902147   0.000000
    6       17.428612   0.000000
    7       21.060633   0.000000
    8       22.535128   0.000000
 
 -0.6250000E-01  0.1875000E+00  0.6250000E-01  0.1562500E-01
    1       -2.703614   1.000000
    2        7.886893   1.000000
    3        8.194648   1.000000
    4       14.503171   0.000000
    5       16.043755   0.000000
    6       17.479551   0.000000
    7       18.062535   0.000000
    8       21.497083   0.000000
 
  0.3125000E+00  0.3125000E+00  0.6250000E-01  0.1562500E-01
    1        3.562408   1.000000
    2        3.564701   1.000000
    3        7.284845   1.000000
    4       10.432317   1.000000
    5       13.820871   0.000000
    6       14.736530   0.000000
    7       20.001253   0.000000
    8       20.445022   0.000000
 
  0.4375000E+00  0.3125000E+00  0.6250000E-01  0.3125000E-01
    1        0.799491   1.000000
    2        2.620252   1.000000
    3       11.481539   1.000000
    4       12.157274   0.994014
    5       13.765114   0.000000
    6       15.448251   0.000000
    7       17.556565   0.000000
    8       19.221255   0.000000
 
 -0.4375000E+00  0.3125000E+00  0.6250000E-01  0.1562500E-01
    1       -1.071522   1.000000
    2        2.593047   1.000000
    3       11.780236   1.000000
    4       14.324927   0.000000
    5       15.004179   0.000000
    6       16.827032   0.000000
    7       18.065909   0.000000
    8       18.909524   0.000000
 
 -0.3125000E+00  0.3125000E+00  0.6250000E-01  0.1562500E-01
    1       -2.011005   1.000000
    2        3.483007   1.000000
    3       10.211608   1.000000
    4       14.575306   0.000000
    5       15.127433   0.000000
    6       19.200464   0.000000
    7       20.230558   0.000000
    8       22.113573   0.000000
 
 -0.1875000E+00  0.3125000E+00  0.6250000E-01  0.3125000E-01
    1       -2.002298   1.000000
    2        5.264870   1.000000
    3        8.695603   1.000000
    4       14.862887   0.000000
    5       15.493466   0.000000
    6       17.230551   0.000000
    7       19.090204   0.000000
    8       21.084023   0.000000
 
 -0.6250000E-01  0.3125000E+00  0.6250000E-01  0.1562500E-01
    1       -1.045443   1.000000
    2        7.708608   1.000000
    3        8.056686   1.000000
    4       11.627724   1.000000
    5       15.274069   0.000000
    6       17.225136   0.000000
    7       17.712316   0.000000
    8       19.591634   0.000000
 
  0.4375000E+00  0.4375000E+00  0.6250000E-01  0.7812500E-02
    1        0.543586   1.000000
    2        0.543586   1.000000
    3       13.121457   0.000008
    4       13.121457   0.000008
    5       15.784180   0.000000
    6       15.784187   0.000000
    7       18.020005   0.000000
    8       18.020017   0.000000
 
 -0.4375000E+00  0.4375000E+00  0.6250000E-01  0.1562500E-01
    1       -0.617402   1.000000
    2        1.220984   1.000000
    3       11.462991   1.000000
    4       13.112171   0.000011
    5       15.818351   0.000000
    6       17.392211   0.000000
    7       21.333274   0.000000
    8       21.595838   0.000000
 
 -0.3125000E+00  0.4375000E+00  0.6250000E-01  0.3125000E-01
    1       -0.840167   1.000000
    2        2.817828   1.000000
    3        9.756645   1.000000
    4       13.062945   0.000050
    5       15.093217   0.000000
    6       17.744347   0.000000
    7       19.379250   0.000000
    8       20.856053   0.000000
 
 -0.1875000E+00  0.4375000E+00  0.6250000E-01  0.3125000E-01
    1       -0.120527   1.000000
    2        5.293709   1.000000
    3        8.741703   1.000000
    4       10.840442   1.000000
    5       13.580489   0.000000
    6       16.801611   0.000000
    7       18.937726   0.000000
    8       20.880929   0.000000
 
 -0.6250000E-01  0.4375000E+00  0.6250000E-01  0.1562500E-01
    1        1.528070   1.000000
    2        7.033649   1.000000
    3        8.435510   1.000000
    4        8.709144   1.000000
    5       13.248518   0.000000
    6       14.684440   0.000000
    7       16.629620   0.000000
    8       21.010009   0.000000
 
 -0.4375000E+00 -0.4375000E+00  0.6250000E-01  0.1562500E-01
    1        0.771749   1.000000
    2        0.772646   1.000000
    3       11.185126   1.000000
    4       11.266637   1.000000
    5       14.998263   0.000000
    6       18.541434   0.000000
    7       19.249144   0.000000
    8       19.642601   0.000000
 
 -0.3125000E+00 -0.4375000E+00  0.6250000E-01  0.3125000E-01
    1        1.256227   1.000000
    2        3.070211   1.000000
    3        9.939753   1.000000
    4       10.465301   1.000000
    5       11.705249   1.000000
    6       16.312804   0.000000
    7       20.512368   0.000000
    8       22.394812   0.000000
 
 -0.1875000E+00 -0.4375000E+00  0.6250000E-01  0.3125000E-01
    1        2.662124   1.000000
    2        6.132979   1.000000
    3        6.497271   1.000000
    4        9.582776   1.000000
    5       12.383220   0.819980
    6       14.627135   0.000000
    7       17.284410   0.000000
    8       22.576029   0.000000
 
 -0.6250000E-01 -0.4375000E+00  0.6250000E-01  0.1562500E-01
    1        3.169554   1.000000
    2        4.993396   1.000000
    3        9.808998   1.000000
    4        9.937802   1.000000
    5       11.753767   1.000000
    6       13.007337   0.000234
    7       16.202519   0.000000
    8       20.715551   0.000000
 
 -0.3125000E+00 -0.3125000E+00  0.6250000E-01  0.1562500E-01
    1        4.224161   1.000000
    2        4.233927   1.000000
    3        6.206313   1.000000
    4       10.668590   1.000000
    5       11.221558   1.000000
    6       14.185523   0.000000
    7       19.319856   0.000000
    8       21.168876   0.000000
 
 -0.1875000E+00 -0.3125000E+00  0.6250000E-01  0.3125000E-01
    1        2.724286   1.000000
    2        6.305692   1.000000
    3        8.012788   1.000000
    4       10.513350   1.000000
    5       12.020161   0.999752
    6       13.826671   0.000000
    7       15.669255   0.000000
    8       19.469781   0.000000
 
 -0.6250000E-01 -0.3125000E+00  0.6250000E-01  0.1562500E-01
    1        0.153731   1.000000
    2        9.139142   1.000000
    3       10.322312   1.000000
    4       10.406410   1.000000
    5       12.586395   0.301053
    6       13.769308   0.000000
    7       16.777132   0.000000
    8       18.419460   0.000000
 
 -0.1875000E+00 -0.1875000E+00  0.6250000E-01  0.1562500E-01
    1       -0.076660   1.000000
    2       10.097793   1.000000
    3       10.472720   1.000000
    4       10.625849   1.000000
    5       12.697969   0.095043
    6       14.762551   0.000000
    7       15.280737   0.000000
    8       16.468637   0.000000
 
 -0.6250000E-01 -0.1875000E+00  0.6250000E-01  0.1562500E-01
    1       -1.975976   1.000000
    2       10.031680   1.000000
    3       10.211040   1.000000
    4       12.977450   0.000507
    5       15.169010   0.000000
    6       15.195494   0.000000
    7       16.663149   0.000000
    8       17.296323   0.000000
 
 -0.6250000E-01 -0.6250000E-01  0.6250000E-01  0.3906250E-02
    1       -3.172859   1.000000
    2        9.987277   1.000000
    3        9.987277   1.000000
    4       12.083224   0.998804
    5       13.420126   0.000000
    6       19.426332   0.000000
    7       19.494036   0.000000
    8       21.115245   0.000000
 
  0.1875000E+00  0.1875000E+00  0.1875000E+00  0.1562500E-01
    1        1.756806   1.000000
    2        5.339236   1.000000
    3        8.959018   1.000000
    4        8.971312   1.000000
    5       14.617903   0.000000
    6       17.411589   0.000000
    7       17.963902   0.000000
    8       18.962957   0.000000
 
  0.3125000E+00  0.1875000E+00  0.1875000E+00  0.1562500E-01
    1        4.812436   1.000000
    2        5.122198   1.000000
    3        6.604633   1.000000
    4        6.882771   1.000000
    5       15.896202   0.000000
    6       17.396500   0.000000
    7       18.523356   0.000000
    8       19.243103   0.000000
 
 -0.1875000E+00  0.1875000E+00  0.1875000E+00  0.7812500E-02
    1       -2.478483   1.000000
    2        6.384753   1.000000
    3        6.760742   1.000000
    4       15.007824   0.000000
    5       16.391055   0.000000
    6       17.931658   0.000000
    7       20.563052   0.000000
    8       21.943679   0.000000
 
  0.3125000E+00  0.3125000E+00  0.1875000E+00  0.7812500E-02
    1        3.340071   1.000000
    2        3.340071   1.000000
    3        8.758764   1.000000
    4        8.758764   1.000000
    5       16.078037   0.000000
    6       16.078040   0.000000
    7       18.879133   0.000000
    8       18.879145   0.000000
 
 -0.3125000E+00  0.3125000E+00  0.1875000E+00  0.1562500E-01
    1       -1.545749   1.000000
    2        3.925880   1.000000
    3        7.461912   1.000000
    4       12.583202   0.308960
    5       17.442741   0.000000
    6       19.677150   0.000000
    7       20.487795   0.000000
    8       22.315875   0.000000
 
 -0.1875000E+00  0.3125000E+00  0.1875000E+00  0.1562500E-01
    1       -1.304421   1.000000
    2        5.733919   1.000000
    3        6.145295   1.000000
    4       12.768774   0.035071
    5       14.875717   0.000000
    6       19.754557   0.000000
    7       20.379000   0.000000
    8       22.159696   0.000000
 
 -0.4375000E+00  0.4375000E+00  0.1875000E+00  0.1562500E-01
    1       -0.156814   1.000000
    2        1.674930   1.000000
    3        8.761111   1.000000
    4       10.477678   1.000000
    5       18.221061   0.000000
    6       18.931108   0.000000
    7       21.244406   0.000000
    8       22.235755   0.000000
 
 -0.3125000E+00  0.4375000E+00  0.1875000E+00  0.3125000E-01
    1       -0.148161   1.000000
    2        3.487098   1.000000
    3        7.054055   1.000000
    4       10.496891   1.000000
    5       14.354329   0.000000
    6       21.013959   0.000000
    7       21.416960   0.000000
    8       23.713597   0.000000
 
 -0.1875000E+00  0.4375000E+00  0.1875000E+00  0.1562500E-01
    1        0.798130   1.000000
    2        5.979956   1.000000
    3        6.394044   1.000000
    4       10.000016   1.000000
    5       11.351967   1.000000
    6       18.815359   0.000000
    7       19.079002   0.000000
    8       23.283403   0.000000
 
 -0.4375000E+00 -0.4375000E+00  0.1875000E+00  0.1562500E-01
    1        1.454517   1.000000
    2        1.456711   1.000000
    3        8.556595   1.000000
    4        8.588370   1.000000
    5       14.167804   0.000000
    6       21.321649   0.000000
    7       21.842762   0.000000
    8       23.219400   0.000000
 
 -0.3125000E+00 -0.4375000E+00  0.1875000E+00  0.3125000E-01
    1        2.165048   1.000000
    2        3.962533   1.000000
    3        7.508671   1.000000
    4        9.172667   1.000000
    5        9.675943   1.000000
    6       18.587042   0.000000
    7       21.527316   0.000000
    8       23.942228   0.000000
 
 -0.1875000E+00 -0.4375000E+00  0.1875000E+00  0.1562500E-01
    1        3.781617   1.000000
    2        5.725390   1.000000
    3        7.172173   1.000000
    4        7.502749   1.000000
    5       10.668435   1.000000
    6       16.590224   0.000000
    7       16.654784   0.000000
    8       22.853099   0.000000
 
 -0.3125000E+00 -0.3125000E+00  0.1875000E+00  0.1562500E-01
    1        5.198298   1.000000
    2        5.335862   1.000000
    3        5.680231   1.000000
    4        8.771197   1.000000
    5        8.899009   1.000000
    6       16.394642   0.000000
    7       18.647767   0.000000
    8       21.045146   0.000000
 
 -0.1875000E+00 -0.3125000E+00  0.1875000E+00  0.1562500E-01
    1        2.272854   1.000000
    2        7.598409   1.000000
    3        9.132506   1.000000
    4        9.384203   1.000000
    5       10.799986   1.000000
    6       14.995580   0.000000
    7       15.090452   0.000000
    8       18.786590   0.000000
 
 -0.1875000E+00 -0.1875000E+00  0.1875000E+00  0.3906250E-02
    1       -0.307516   1.000000
    2       11.250111   1.000000
    3       11.250112   1.000000
    4       11.467177   1.000000
    5       12.114278   0.997576
    6       14.491827   0.000000
    7       14.491832   0.000000
    8       16.103979   0.000000
 
 -0.3125000E+00  0.3125000E+00  0.3125000E+00  0.7812500E-02
    1       -0.619262   1.000000
    2        4.603657   1.000000
    3        5.064455   1.000000
    4       10.087581   1.000000
    5       18.469585   0.000000
    6       19.071154   0.000000
    7       22.950237   0.000000
    8       23.021791   0.000000
 
 -0.4375000E+00  0.4375000E+00  0.3125000E+00  0.1562500E-01
    1        0.759783   1.000000
    2        2.574832   1.000000
    3        6.183657   1.000000
    4        7.933280   1.000000
    5       18.484070   0.000000
    6       18.634449   0.000000
    7       24.100146   0.000000
    8       25.435720   0.000000
 
 -0.3125000E+00  0.4375000E+00  0.3125000E+00  0.1562500E-01
    1        0.997918   1.000000
    2        4.385163   1.000000
    3        4.860312   1.000000
    4        8.156626   1.000000
    5       13.787936   0.000000
    6       23.152061   0.000000
    7       23.538027   0.000000
    8       23.999538   0.000000
 
 -0.4375000E+00 -0.4375000E+00  0.3125000E+00  0.1562500E-01
    1        2.581478   1.000000
    2        2.586074   1.000000
    3        6.188115   1.000000
    4        6.201608   1.000000
    5       13.591078   0.000000
    6       23.187299   0.000000
    7       23.965511   0.000000
    8       25.804109   0.000000
 
 -0.3125000E+00 -0.4375000E+00  0.3125000E+00  0.1562500E-01
    1        3.513768   1.000000
    2        5.087560   1.000000
    3        5.539894   1.000000
    4        7.085080   1.000000
    5        9.190522   1.000000
    6       21.065036   0.000000
    7       21.328867   0.000000
    8       24.202104   0.000000
 
 -0.3125000E+00 -0.3125000E+00  0.3125000E+00  0.3906250E-02
    1        5.242685   1.000000
    2        6.661669   1.000000
    3        6.816251   1.000000
    4        7.087076   1.000000
    5        7.087076   1.000000
    6       18.425518   0.000000
    7       18.425530   0.000000
    8       20.428798   0.000000
 
 -0.4375000E+00  0.4375000E+00  0.4375000E+00  0.7812500E-02
    1        2.120128   1.000000
    2        3.690435   1.000000
    3        4.199960   1.000000
    4        5.748736   1.000000
    5       18.264078   0.000000
    6       18.299945   0.000000
    7       27.279433   0.000000
    8       28.242730   0.000000
 
 -0.4375000E+00 -0.4375000E+00  0.4375000E+00  0.3906250E-02
    1        3.921332   1.000000
    2        3.935487   1.000000
    3        4.427620   1.000000
    4        4.427620   1.000000
    5       13.392210   0.000000
    6       23.295758   0.000000
    7       26.046218   0.000000
    8       26.046397   0.000000
