<?xml version="1.0" encoding="ISO-8859-1"?>
<modeling>
 <generator>
  <i name="program" type="string">vasp </i>
  <i name="version" type="string">5.4.4.18Apr17-6-g9f103f2a35  </i>
  <i name="subversion" type="string">(build Dec 09 2018 21:25:21) complex            parallel </i>
  <i name="platform" type="string">IFC18.0.1.163_CrayMPICH7.7.0_MKL18.0.1.163 </i>
  <i name="date" type="string">2019 04 01 </i>
  <i name="time" type="string">15:49:12 </i>
 </generator>
 <incar>
  <i type="string" name="PREC">normal</i>
  <i type="int" name="IBRION">     2</i>
  <i name="EDIFF">      0.00040000</i>
  <i name="EDIFFG">     -0.01000000</i>
  <i type="int" name="NSW">    15</i>
  <i type="int" name="ISIF">     2</i>
  <i name="ENCUT">    350.00000000</i>
  <i type="int" name="NBANDS">     8</i>
  <i type="logical" name="LREAL"> F  </i>
  <i type="int" name="ISMEAR">     0</i>
  <i name="SIGMA">      0.20000000</i>
  <v type="int" name="KPOINT_BSE">    -1     0     0     0</v>
 </incar>
 <structure name="primitive_cell" >
  <crystal>
   <varray name="basis" >
    <v>      -2.19140200       2.19140200       1.25050200 </v>
    <v>       2.19140200      -2.19140200       1.25050200 </v>
    <v>       2.19140200       2.19140200      -1.25050200 </v>
   </varray>
   <i name="volume">     24.02085653 </i>
   <varray name="rec_basis" >
    <v>       0.00000000       0.22816444       0.39983942 </v>
    <v>       0.22816444       0.00000000       0.39983942 </v>
    <v>       0.22816444       0.22816444      -0.00000000 </v>
   </varray>
  </crystal>
  <varray name="positions" >
   <v>       0.00000000       0.00000000       0.00000000 </v>
   <v>       0.25000000      -0.25000000      -0.50000000 </v>
  </varray>
 </structure>
 <varray name="primitive_index" >
  <v type="int" >        1 </v>
  <v type="int" >        2 </v>
 </varray>
 <kpoints>
  <generation param="Monkhorst-Pack">
   <v type="int" name="divisions">       8        8        8 </v>
   <v name="usershift">      0.00000000       0.00000000       0.00000000 </v>
   <v name="genvec1">      0.12500000       0.00000000      -0.00000000 </v>
   <v name="genvec2">      0.00000000       0.12500000      -0.00000000 </v>
   <v name="genvec3">     -0.00000000      -0.00000000       0.12500000 </v>
   <v name="shift">      0.50000000       0.50000000       0.50000000 </v>
  </generation>
  <varray name="kpointlist" >
   <v>       0.06250000       0.06250000       0.06250000 </v>
   <v>       0.18750000       0.06250000       0.06250000 </v>
   <v>       0.31250000       0.06250000       0.06250000 </v>
   <v>       0.43750000       0.06250000       0.06250000 </v>
   <v>      -0.06250000       0.06250000       0.06250000 </v>
   <v>       0.18750000       0.18750000       0.06250000 </v>
   <v>       0.31250000       0.18750000       0.06250000 </v>
   <v>       0.43750000       0.18750000       0.06250000 </v>
   <v>      -0.43750000       0.18750000       0.06250000 </v>
   <v>      -0.31250000       0.18750000       0.06250000 </v>
   <v>      -0.18750000       0.18750000       0.06250000 </v>
   <v>      -0.06250000       0.18750000       0.06250000 </v>
   <v>       0.31250000       0.31250000       0.06250000 </v>
   <v>       0.43750000       0.31250000       0.06250000 </v>
   <v>      -0.43750000       0.31250000       0.06250000 </v>
   <v>      -0.31250000       0.31250000       0.06250000 </v>
   <v>      -0.18750000       0.31250000       0.06250000 </v>
   <v>      -0.06250000       0.31250000       0.06250000 </v>
   <v>       0.43750000       0.43750000       0.06250000 </v>
   <v>      -0.43750000       0.43750000       0.06250000 </v>
   <v>      -0.31250000       0.43750000       0.06250000 </v>
   <v>      -0.18750000       0.43750000       0.06250000 </v>
   <v>      -0.06250000       0.43750000       0.06250000 </v>
   <v>      -0.43750000      -0.43750000       0.06250000 </v>
   <v>      -0.31250000      -0.43750000       0.06250000 </v>
   <v>      -0.18750000      -0.43750000       0.06250000 </v>
   <v>      -0.06250000      -0.43750000       0.06250000 </v>
   <v>      -0.31250000      -0.31250000       0.06250000 </v>
   <v>      -0.18750000      -0.31250000       0.06250000 </v>
   <v>      -0.06250000      -0.31250000       0.06250000 </v>
   <v>      -0.18750000      -0.18750000       0.06250000 </v>
   <v>      -0.06250000      -0.18750000       0.06250000 </v>
   <v>      -0.06250000      -0.06250000       0.06250000 </v>
   <v>       0.18750000       0.18750000       0.18750000 </v>
   <v>       0.31250000       0.18750000       0.18750000 </v>
   <v>      -0.18750000       0.18750000       0.18750000 </v>
   <v>       0.31250000       0.31250000       0.18750000 </v>
   <v>      -0.31250000       0.31250000       0.18750000 </v>
   <v>      -0.18750000       0.31250000       0.18750000 </v>
   <v>      -0.43750000       0.43750000       0.18750000 </v>
   <v>      -0.31250000       0.43750000       0.18750000 </v>
   <v>      -0.18750000       0.43750000       0.18750000 </v>
   <v>      -0.43750000      -0.43750000       0.18750000 </v>
   <v>      -0.31250000      -0.43750000       0.18750000 </v>
   <v>      -0.18750000      -0.43750000       0.18750000 </v>
   <v>      -0.31250000      -0.31250000       0.18750000 </v>
   <v>      -0.18750000      -0.31250000       0.18750000 </v>
   <v>      -0.18750000      -0.18750000       0.18750000 </v>
   <v>      -0.31250000       0.31250000       0.31250000 </v>
   <v>      -0.43750000       0.43750000       0.31250000 </v>
   <v>      -0.31250000       0.43750000       0.31250000 </v>
   <v>      -0.43750000      -0.43750000       0.31250000 </v>
   <v>      -0.31250000      -0.43750000       0.31250000 </v>
   <v>      -0.31250000      -0.31250000       0.31250000 </v>
   <v>      -0.43750000       0.43750000       0.43750000 </v>
   <v>      -0.43750000      -0.43750000       0.43750000 </v>
  </varray>
  <varray name="weights" >
   <v>       0.01562500 </v>
   <v>       0.03125000 </v>
   <v>       0.03125000 </v>
   <v>       0.01562500 </v>
   <v>       0.00781250 </v>
   <v>       0.01562500 </v>
   <v>       0.03125000 </v>
   <v>       0.03125000 </v>
   <v>       0.03125000 </v>
   <v>       0.01562500 </v>
   <v>       0.01562500 </v>
   <v>       0.01562500 </v>
   <v>       0.01562500 </v>
   <v>       0.03125000 </v>
   <v>       0.01562500 </v>
   <v>       0.01562500 </v>
   <v>       0.03125000 </v>
   <v>       0.01562500 </v>
   <v>       0.00781250 </v>
   <v>       0.01562500 </v>
   <v>       0.03125000 </v>
   <v>       0.03125000 </v>
   <v>       0.01562500 </v>
   <v>       0.01562500 </v>
   <v>       0.03125000 </v>
   <v>       0.03125000 </v>
   <v>       0.01562500 </v>
   <v>       0.01562500 </v>
   <v>       0.03125000 </v>
   <v>       0.01562500 </v>
   <v>       0.01562500 </v>
   <v>       0.01562500 </v>
   <v>       0.00390625 </v>
   <v>       0.01562500 </v>
   <v>       0.01562500 </v>
   <v>       0.00781250 </v>
   <v>       0.00781250 </v>
   <v>       0.01562500 </v>
   <v>       0.01562500 </v>
   <v>       0.01562500 </v>
   <v>       0.03125000 </v>
   <v>       0.01562500 </v>
   <v>       0.01562500 </v>
   <v>       0.03125000 </v>
   <v>       0.01562500 </v>
   <v>       0.01562500 </v>
   <v>       0.01562500 </v>
   <v>       0.00390625 </v>
   <v>       0.00781250 </v>
   <v>       0.01562500 </v>
   <v>       0.01562500 </v>
   <v>       0.01562500 </v>
   <v>       0.01562500 </v>
   <v>       0.00390625 </v>
   <v>       0.00781250 </v>
   <v>       0.00390625 </v>
  </varray>
 </kpoints>
 <parameters>
  <separator name="general" >
   <i type="string" name="SYSTEM">unknown system</i>
   <i type="logical" name="LCOMPAT"> F  </i>
  </separator>
  <separator name="electronic" >
   <i type="string" name="PREC">normal</i>
   <i name="ENMAX">    350.00000000</i>
   <i name="ENAUG">    322.06900000</i>
   <i name="EDIFF">      0.00040000</i>
   <i type="int" name="IALGO">    38</i>
   <i type="int" name="IWAVPR">    11</i>
   <i type="int" name="NBANDS">     8</i>
   <i name="NELECT">      8.00000000</i>
   <i type="int" name="TURBO">     0</i>
   <i type="int" name="IRESTART">     0</i>
   <i type="int" name="NREBOOT">     0</i>
   <i type="int" name="NMIN">     0</i>
   <i name="EREF">      0.00000000</i>
   <separator name="electronic smearing" >
    <i type="int" name="ISMEAR">     0</i>
    <i name="SIGMA">      0.20000000</i>
    <i name="KSPACING">      0.50000000</i>
    <i type="logical" name="KGAMMA"> T  </i>
   </separator>
   <separator name="electronic projectors" >
    <i type="logical" name="LREAL"> F  </i>
    <v name="ROPT">      0.00000000</v>
    <i type="int" name="LMAXPAW">  -100</i>
    <i type="int" name="LMAXMIX">     2</i>
    <i type="logical" name="NLSPLINE"> F  </i>
   </separator>
   <separator name="electronic startup" >
    <i type="int" name="ISTART">     0</i>
    <i type="int" name="ICHARG">     2</i>
    <i type="int" name="INIWAV">     1</i>
   </separator>
   <separator name="electronic spin" >
    <i type="int" name="ISPIN">     1</i>
    <i type="logical" name="LNONCOLLINEAR"> F  </i>
    <v name="MAGMOM">      1.00000000      1.00000000</v>
    <i name="NUPDOWN">     -1.00000000</i>
    <i type="logical" name="LSORBIT"> F  </i>
    <v name="SAXIS">      0.00000000      0.00000000      1.00000000</v>
    <i type="logical" name="LSPIRAL"> F  </i>
    <v name="QSPIRAL">      0.00000000      0.00000000      0.00000000</v>
    <i type="logical" name="LZEROZ"> F  </i>
   </separator>
   <separator name="electronic exchange-correlation" >
    <i type="logical" name="LASPH"> F  </i>
    <i type="logical" name="LMETAGGA"> F  </i>
   </separator>
   <separator name="electronic convergence" >
    <i type="int" name="NELM">    60</i>
    <i type="int" name="NELMDL">    -5</i>
    <i type="int" name="NELMIN">     2</i>
    <i name="ENINI">    350.00000000</i>
    <separator name="electronic convergence detail" >
     <i type="logical" name="LDIAG"> T  </i>
     <i type="logical" name="LSUBROT"> F  </i>
     <i name="WEIMIN">      0.00100000</i>
     <i name="EBREAK">      0.00001250</i>
     <i name="DEPER">      0.30000000</i>
     <i type="int" name="NRMM">     4</i>
     <i name="TIME">      0.40000000</i>
    </separator>
   </separator>
   <separator name="electronic mixer" >
    <i name="AMIX">      0.40000000</i>
    <i name="BMIX">      1.00000000</i>
    <i name="AMIN">      0.10000000</i>
    <i name="AMIX_MAG">      1.60000000</i>
    <i name="BMIX_MAG">      1.00000000</i>
    <separator name="electronic mixer details" >
     <i type="int" name="IMIX">     4</i>
     <i type="logical" name="MIXFIRST"> F  </i>
     <i type="int" name="MAXMIX">   -45</i>
     <i name="WC">    100.00000000</i>
     <i type="int" name="INIMIX">     1</i>
     <i type="int" name="MIXPRE">     1</i>
     <i type="int" name="MREMOVE">     5</i>
    </separator>
   </separator>
   <separator name="electronic dipolcorrection" >
    <i type="logical" name="LDIPOL"> F  </i>
    <i type="logical" name="LMONO"> F  </i>
    <i type="int" name="IDIPOL">     0</i>
    <i name="EPSILON">      1.00000000</i>
    <v name="DIPOL">   -100.00000000   -100.00000000   -100.00000000</v>
    <i name="EFIELD">      0.00000000</i>
   </separator>
  </separator>
  <separator name="grids" >
   <i type="int" name="NGX">    16</i>
   <i type="int" name="NGY">    16</i>
   <i type="int" name="NGZ">    16</i>
   <i type="int" name="NGXF">    32</i>
   <i type="int" name="NGYF">    32</i>
   <i type="int" name="NGZF">    32</i>
   <i type="logical" name="ADDGRID"> F  </i>
  </separator>
  <separator name="ionic" >
   <i type="int" name="NSW">    15</i>
   <i type="int" name="IBRION">     2</i>
   <i type="int" name="MDALGO">     0</i>
   <i type="int" name="ISIF">     2</i>
   <i name="PSTRESS">      0.00000000</i>
   <i name="EDIFFG">     -0.01000000</i>
   <i type="int" name="NFREE">     1</i>
   <i name="POTIM">      0.50000000</i>
   <i name="SMASS">     -3.00000000</i>
   <i name="SCALEE">      1.00000000</i>
  </separator>
  <separator name="ionic md" >
   <i name="TEBEG">      0.00010000</i>
   <i name="TEEND">      0.00010000</i>
   <i type="int" name="NBLOCK">     1</i>
   <i type="int" name="KBLOCK">    15</i>
   <i type="int" name="NPACO">   256</i>
   <i name="APACO">     16.00000000</i>
  </separator>
  <separator name="symmetry" >
   <i type="int" name="ISYM">     2</i>
   <i name="SYMPREC">      0.00001000</i>
  </separator>
  <separator name="dos" >
   <i type="int" name="LORBIT">     0</i>
   <v name="RWIGS">     -1.00000000</v>
   <i type="int" name="NEDOS">   301</i>
   <i name="EMIN">     10.00000000</i>
   <i name="EMAX">    -10.00000000</i>
   <i name="EFERMI">      0.00000000</i>
  </separator>
  <separator name="writing" >
   <i type="int" name="NWRITE">     2</i>
   <i type="logical" name="LWAVE"> T  </i>
   <i type="logical" name="LDOWNSAMPLE"> F  </i>
   <i type="logical" name="LCHARG"> T  </i>
   <i type="logical" name="LPARD"> F  </i>
   <i type="logical" name="LVTOT"> F  </i>
   <i type="logical" name="LVHAR"> F  </i>
   <i type="logical" name="LELF"> F  </i>
   <i type="logical" name="LOPTICS"> F  </i>
   <v name="STM">      0.00000000      0.00000000      0.00000000      0.00000000      0.00000000      0.00000000      0.00000000</v>
  </separator>
  <separator name="performance" >
   <i type="int" name="NPAR">     8</i>
   <i type="int" name="NSIM">     4</i>
   <i type="int" name="NBLK">    -1</i>
   <i type="logical" name="LPLANE"> T  </i>
   <i type="logical" name="LSCALAPACK"> T  </i>
   <i type="logical" name="LSCAAWARE"> F  </i>
   <i type="logical" name="LSCALU"> F  </i>
   <i type="logical" name="LASYNC"> F  </i>
   <i type="logical" name="LORBITALREAL"> F  </i>
  </separator>
  <separator name="miscellaneous" >
   <i type="int" name="IDIOT">     3</i>
   <i type="int" name="ISPECIAL">     0</i>
   <i type="logical" name="LMUSIC"> F  </i>
   <v name="POMASS">     28.08500000</v>
   <v name="DARWINR">      0.00000000</v>
   <v name="DARWINV">      1.00000000</v>
   <i type="logical" name="LCORR"> T  </i>
  </separator>
  <i type="logical" name="GGA_COMPAT"> T  </i>
  <i type="logical" name="LBERRY"> F  </i>
  <i type="int" name="ICORELEVEL">     0</i>
  <i type="logical" name="LDAU"> F  </i>
  <i type="int" name="I_CONSTRAINED_M">     0</i>
  <separator name="electronic exchange-correlation" >
   <i type="string" name="GGA">--</i>
   <i type="int" name="VOSKOWN">     0</i>
   <i type="logical" name="LHFCALC"> F  </i>
   <i type="string" name="PRECFOCK"></i>
   <i type="logical" name="LSYMGRAD"> F  </i>
   <i type="logical" name="LHFONE"> F  </i>
   <i type="logical" name="LRHFCALC"> F  </i>
   <i type="logical" name="LTHOMAS"> F  </i>
   <i type="logical" name="LMODELHF"> F  </i>
   <i name="ENCUT4O">     -1.00000000</i>
   <i type="int" name="EXXOEP">     0</i>
   <i type="int" name="FOURORBIT">     0</i>
   <i name="AEXX">      0.00000000</i>
   <i name="HFALPHA">      0.00000000</i>
   <i name="MCALPHA">      0.00000000</i>
   <i name="ALDAX">      1.00000000</i>
   <i name="AGGAX">      1.00000000</i>
   <i name="ALDAC">      1.00000000</i>
   <i name="AGGAC">      1.00000000</i>
   <i type="int" name="NKREDX">     1</i>
   <i type="int" name="NKREDY">     1</i>
   <i type="int" name="NKREDZ">     1</i>
   <i type="logical" name="SHIFTRED"> F  </i>
   <i type="logical" name="ODDONLY"> F  </i>
   <i type="logical" name="EVENONLY"> F  </i>
   <i type="int" name="LMAXFOCK">     0</i>
   <i type="int" name="NMAXFOCKAE">     0</i>
   <i type="logical" name="LFOCKAEDFT"> F  </i>
   <i name="HFSCREEN">      0.00000000</i>
   <i name="HFSCREENC">      0.00000000</i>
   <i type="int" name="NBANDSGWLOW">     0</i>
  </separator>
  <separator name="vdW DFT" >
   <i type="logical" name="LUSE_VDW"> F  </i>
   <i name="Zab_VDW">     -0.84910000</i>
   <i name="PARAM1">      0.12340000</i>
   <i name="PARAM2">      1.00000000</i>
   <i name="PARAM3">      0.00000000</i>
  </separator>
  <separator name="model GW" >
   <i type="int" name="MODEL_GW">     0</i>
   <i name="MODEL_EPS0">      7.20625696</i>
   <i name="MODEL_ALPHA">      1.00000000</i>
  </separator>
  <separator name="linear response parameters" >
   <i type="logical" name="LEPSILON"> F  </i>
   <i type="logical" name="LRPA"> F  </i>
   <i type="logical" name="LNABLA"> F  </i>
   <i type="logical" name="LVEL"> F  </i>
   <i type="int" name="KINTER">     0</i>
   <i name="CSHIFT">      0.10000000</i>
   <i name="OMEGAMAX">     -1.00000000</i>
   <i name="DEG_THRESHOLD">      0.00200000</i>
   <i name="RTIME">     -0.10000000</i>
   <i name="WPLASMAI">      0.00000000</i>
   <v name="DFIELD">      0.00000000      0.00000000      0.00000000</v>
   <v name="WPLASMA">      0.00000000      0.00000000      0.00000000      0.00000000      0.00000000      0.00000000      0.00000000      0.00000000      0.00000000</v>
  </separator>
  <separator name="orbital magnetization" >
   <i type="logical" name="NUCIND"> F  </i>
   <v name="MAGPOS">      0.00000000      0.00000000      0.00000000</v>
   <i type="logical" name="LNICSALL"> T  </i>
   <i type="logical" name="ORBITALMAG"> F  </i>
   <i type="logical" name="LMAGBLOCH"> F  </i>
   <i type="logical" name="LCHIMAG"> F  </i>
   <i type="logical" name="LGAUGE"> T  </i>
   <i type="int" name="MAGATOM">     0</i>
   <v name="MAGDIPOL">      0.00000000      0.00000000      0.00000000</v>
   <v name="AVECCONST">      0.00000000      0.00000000      0.00000000</v>
  </separator>
  <separator name="response functions" >
   <i type="logical" name="LADDER"> F  </i>
   <i type="logical" name="LRPAFORCE"> F  </i>
   <i type="logical" name="LFXC"> F  </i>
   <i type="logical" name="LHARTREE"> T  </i>
   <i type="int" name="IBSE">     0</i>
   <v type="int" name="KPOINT">    -1     0     0     0</v>
   <i type="logical" name="LTCTE"> F  </i>
   <i type="logical" name="LTETE"> F  </i>
   <i type="logical" name="LTRIPLET"> F  </i>
   <i type="logical" name="LFXCEPS"> F  </i>
   <i type="logical" name="LFXHEG"> F  </i>
   <i type="int" name="NATURALO">     2</i>
   <i type="logical" name="L2ORDER"> F  </i>
   <i type="logical" name="LMP2LT"> F  </i>
   <i type="logical" name="LUSEW"> F  </i>
   <i name="ENCUTGW">     -2.00000000</i>
   <i name="ENCUTGWSOFT">     -2.00000000</i>
   <i name="ENCUTLF">     -1.00000000</i>
   <i type="int" name="LMAXMP2">    -1</i>
   <i name="SCISSOR">      0.00000000</i>
   <i type="int" name="NOMEGA">     0</i>
   <i type="int" name="NOMEGAR">     0</i>
   <i type="int" name="NBANDSGW">    -1</i>
   <i type="int" name="NBANDSO">    -1</i>
   <i type="int" name="NBANDSV">    -1</i>
   <i type="int" name="NELM">     1</i>
   <i type="int" name="NELMHF">     1</i>
   <i type="int" name="DIM">     3</i>
   <i type="int" name="ANTIRES">     0</i>
   <i name="OMEGAMAX">    -30.00000000</i>
   <i name="OMEGAMIN">    -30.00000000</i>
   <i name="OMEGATL">   -200.00000000</i>
   <i type="int" name="OMEGAGRID">   140</i>
   <i name="CSHIFT">     -0.10000000</i>
   <i type="logical" name="SELFENERGY"> F  </i>
   <i type="logical" name="LSPECTRAL"> F  </i>
   <i type="logical" name="LSPECTRALGW"> F  </i>
   <i type="logical" name="LSINGLES"> F  </i>
   <i type="logical" name="LFERMIGW"> F  </i>
   <i type="logical" name="ODDONLYGW"> F  </i>
   <i type="logical" name="EVENONLYGW"> F  </i>
   <i type="int" name="NKREDLFX">     1</i>
   <i type="int" name="NKREDLFY">     1</i>
   <i type="int" name="NKREDLFZ">     1</i>
   <i type="int" name="MAXMEM">  2800</i>
   <i type="int" name="TELESCOPE">     0</i>
   <i type="int" name="TAUPAR">     1</i>
   <i type="int" name="OMEGAPAR">    -1</i>
   <i name="LAMBDA">      1.00000000</i>
  </separator>
  <separator name="External order field" >
   <i name="OFIELD_KAPPA">      0.00000000</i>
   <v name="OFIELD_K">      0.00000000      0.00000000      0.00000000</v>
   <i name="OFIELD_Q6_NEAR">      0.00000000</i>
   <i name="OFIELD_Q6_FAR">      0.00000000</i>
   <i name="OFIELD_A">      0.00000000</i>
  </separator>
 </parameters>
 <atominfo>
  <atoms>       2 </atoms>
  <types>       1 </types>
  <array name="atoms" >
   <dimension dim="1">ion</dimension>
   <field type="string">element</field>
   <field type="int">atomtype</field>
   <set>
    <rc><c>Si</c><c>   1</c></rc>
    <rc><c>Si</c><c>   1</c></rc>
   </set>
  </array>
  <array name="atomtypes" >
   <dimension dim="1">type</dimension>
   <field type="int">atomspertype</field>
   <field type="string">element</field>
   <field>mass</field>
   <field>valence</field>
   <field type="string">pseudopotential</field>
   <set>
    <rc><c>   2</c><c>Si</c><c>     28.08500000</c><c>      4.00000000</c><c> PAW_PBE Si 05Jan2001                   </c></rc>
   </set>
  </array>
 </atominfo>
 <structure name="initialpos" >
  <crystal>
   <varray name="basis" >
    <v>      -2.19140200       2.19140200       1.25050200 </v>
    <v>       2.19140200      -2.19140200       1.25050200 </v>
    <v>       2.19140200       2.19140200      -1.25050200 </v>
   </varray>
   <i name="volume">     24.02085653 </i>
   <varray name="rec_basis" >
    <v>       0.00000000       0.22816444       0.39983942 </v>
    <v>       0.22816444       0.00000000       0.39983942 </v>
    <v>       0.22816444       0.22816444      -0.00000000 </v>
   </varray>
  </crystal>
  <varray name="positions" >
   <v>       0.00000000       0.00000000       0.00000000 </v>
   <v>       0.25000000       0.75000000       0.50000000 </v>
  </varray>
 </structure>
 <calculation>
  <scstep>
   <time name="dav">    0.46    0.47</time>
   <time name="total">    0.50    0.52</time>
   <energy>
    <i name="alphaZ">      5.60564164 </i>
    <i name="ewald">   -287.43526634 </i>
    <i name="hartreedc">     -1.07518850 </i>
    <i name="XCdc">    -16.52567821 </i>
    <i name="pawpsdc">     65.95520812 </i>
    <i name="pawaedc">    -30.76852678 </i>
    <i name="eentropy">     -0.00889960 </i>
    <i name="bandstr">     60.52633331 </i>
    <i name="atom">    206.13125414 </i>
    <i name="e_fr_energy">      2.40487777 </i>
    <i name="e_wo_entrp">      2.41377737 </i>
    <i name="e_0_energy">      2.40932757 </i>
   </energy>
  </scstep>
  <scstep>
   <time name="dav">    0.70    0.70</time>
   <time name="total">    0.70    0.70</time>
   <energy>
    <i name="e_fr_energy">     -9.40147515 </i>
    <i name="e_wo_entrp">     -9.38898166 </i>
    <i name="e_0_energy">     -9.39522840 </i>
   </energy>
  </scstep>
  <scstep>
   <time name="dav">    0.60    0.60</time>
   <time name="total">    0.60    0.61</time>
   <energy>
    <i name="e_fr_energy">     -9.53213925 </i>
    <i name="e_wo_entrp">     -9.51818428 </i>
    <i name="e_0_energy">     -9.52516176 </i>
   </energy>
  </scstep>
  <scstep>
   <time name="dav">    0.79    0.79</time>
   <time name="total">    0.79    0.80</time>
   <energy>
    <i name="e_fr_energy">     -9.53257654 </i>
    <i name="e_wo_entrp">     -9.51859952 </i>
    <i name="e_0_energy">     -9.52558803 </i>
   </energy>
  </scstep>
  <scstep>
   <time name="dav">    0.62    0.63</time>
   <time name="total">    0.65    0.65</time>
   <energy>
    <i name="e_fr_energy">     -9.53257663 </i>
    <i name="e_wo_entrp">     -9.51859961 </i>
    <i name="e_0_energy">     -9.52558812 </i>
   </energy>
  </scstep>
  <scstep>
   <time name="dav">    0.67    0.68</time>
   <time name="total">    0.72    0.73</time>
   <energy>
    <i name="e_fr_energy">     -9.50128751 </i>
    <i name="e_wo_entrp">     -9.48717505 </i>
    <i name="e_0_energy">     -9.49423128 </i>
   </energy>
  </scstep>
  <scstep>
   <time name="dav">    0.67    0.67</time>
   <time name="total">    0.72    0.73</time>
   <energy>
    <i name="e_fr_energy">     -9.48348224 </i>
    <i name="e_wo_entrp">     -9.46914113 </i>
    <i name="e_0_energy">     -9.47631169 </i>
   </energy>
  </scstep>
  <scstep>
   <time name="dav">    0.47    0.47</time>
   <time name="total">    0.50    0.50</time>
   <energy>
    <i name="alphaZ">      5.60564164 </i>
    <i name="ewald">   -287.43526634 </i>
    <i name="hartreedc">     -1.61022576 </i>
    <i name="XCdc">    -16.14552934 </i>
    <i name="pawpsdc">     78.20047010 </i>
    <i name="pawaedc">    -43.32675963 </i>
    <i name="eentropy">     -0.01429681 </i>
    <i name="bandstr">     49.11137856 </i>
    <i name="atom">    206.13125414 </i>
    <i name="e_fr_energy">     -9.48333344 </i>
    <i name="e_wo_entrp">     -9.46903664 </i>
    <i name="e_0_energy">     -9.47618504 </i>
   </energy>
  </scstep>
  <structure>
   <crystal>
    <varray name="basis" >
     <v>      -2.19140200       2.19140200       1.25050200 </v>
     <v>       2.19140200      -2.19140200       1.25050200 </v>
     <v>       2.19140200       2.19140200      -1.25050200 </v>
    </varray>
    <i name="volume">     24.02085653 </i>
    <varray name="rec_basis" >
     <v>       0.00000000       0.22816444       0.39983942 </v>
     <v>       0.22816444       0.00000000       0.39983942 </v>
     <v>       0.22816444       0.22816444      -0.00000000 </v>
    </varray>
   </crystal>
   <varray name="positions" >
    <v>       0.00000000       0.00000000       0.00000000 </v>
    <v>       0.25000000       0.75000000       0.50000000 </v>
   </varray>
  </structure>
  <varray name="forces" >
   <v>       0.00000000       0.00000000      -0.00000000 </v>
   <v>      -0.00000000      -0.00000000       0.00000000 </v>
  </varray>
  <varray name="stress" >
   <v>     504.06432903      -0.00000000      -0.00000000 </v>
   <v>      -0.00000000     504.06432903       0.00000000 </v>
   <v>       0.00000000       0.00000000     376.48036777 </v>
  </varray>
  <energy>
   <i name="e_fr_energy">     -9.48333344 </i>
   <i name="e_wo_entrp">     -9.47618504 </i>
   <i name="e_0_energy">     -0.01429681 </i>
  </energy>
  <time name="totalsc">    6.36    7.16</time>
  <eigenvalues>
   <array>
    <dimension dim="1">band</dimension>
    <dimension dim="2">kpoint</dimension>
    <dimension dim="3">spin</dimension>
    <field>eigene</field>
    <field>occ</field>
    <set>
     <set comment="spin 1">
      <set comment="kpoint 1">
       <r>   -2.9380    1.0000 </r>
       <r>    7.8178    1.0000 </r>
       <r>   10.1886    1.0000 </r>
       <r>   12.7980    0.0218 </r>
       <r>   15.2834    0.0000 </r>
       <r>   18.4980    0.0000 </r>
       <r>   18.6993    0.0000 </r>
       <r>   21.5346    0.0000 </r>
      </set>
      <set comment="kpoint 2">
       <r>   -1.5100    1.0000 </r>
       <r>    7.4453    1.0000 </r>
       <r>   10.5026    1.0000 </r>
       <r>   12.6299    0.2035 </r>
       <r>   14.7410    0.0000 </r>
       <r>   15.6385    0.0000 </r>
       <r>   18.1233    0.0000 </r>
       <r>   19.1197    0.0000 </r>
      </set>
      <set comment="kpoint 3">
       <r>    0.8428    1.0000 </r>
       <r>    7.8362    1.0000 </r>
       <r>    8.2168    1.0000 </r>
       <r>   10.5849    1.0000 </r>
       <r>   12.4445    0.6850 </r>
       <r>   15.1829    0.0000 </r>
       <r>   18.5399    0.0000 </r>
       <r>   18.8667    0.0000 </r>
      </set>
      <set comment="kpoint 4">
       <r>    3.9167    1.0000 </r>
       <r>    4.2528    1.0000 </r>
       <r>    9.0939    1.0000 </r>
       <r>    9.2832    1.0000 </r>
       <r>   12.5770    0.3247 </r>
       <r>   13.6246    0.0000 </r>
       <r>   18.3082    0.0000 </r>
       <r>   18.5793    0.0000 </r>
      </set>
      <set comment="kpoint 5">
       <r>   -3.4167    1.0000 </r>
       <r>    8.8448    1.0000 </r>
       <r>    9.0365    1.0000 </r>
       <r>   12.8284    0.0128 </r>
       <r>   13.9360    0.0000 </r>
       <r>   19.6655    0.0000 </r>
       <r>   22.6319    0.0000 </r>
       <r>   23.1892    0.0000 </r>
      </set>
      <set comment="kpoint 6">
       <r>    0.6137    1.0000 </r>
       <r>    7.6932    1.0000 </r>
       <r>    9.5544    1.0000 </r>
       <r>    9.5920    1.0000 </r>
       <r>   13.5135    0.0000 </r>
       <r>   16.1918    0.0000 </r>
       <r>   17.1023    0.0000 </r>
       <r>   17.5180    0.0000 </r>
      </set>
      <set comment="kpoint 7">
       <r>    3.6187    1.0000 </r>
       <r>    5.4320    1.0000 </r>
       <r>    7.1585    1.0000 </r>
       <r>    8.8224    1.0000 </r>
       <r>   13.9447    0.0000 </r>
       <r>   15.3672    0.0000 </r>
       <r>   17.0620    0.0000 </r>
       <r>   19.8425    0.0000 </r>
      </set>
      <set comment="kpoint 8">
       <r>    1.9838    1.0000 </r>
       <r>    5.5555    1.0000 </r>
       <r>    7.5042    1.0000 </r>
       <r>   10.5264    1.0000 </r>
       <r>   12.9223    0.0019 </r>
       <r>   15.9465    0.0000 </r>
       <r>   18.1443    0.0000 </r>
       <r>   20.3689    0.0000 </r>
      </set>
      <set comment="kpoint 9">
       <r>   -0.5820    1.0000 </r>
       <r>    4.8553    1.0000 </r>
       <r>   11.1605    1.0000 </r>
       <r>   12.0592    0.9993 </r>
       <r>   14.0744    0.0000 </r>
       <r>   16.2927    0.0000 </r>
       <r>   17.1415    0.0000 </r>
       <r>   20.3532    0.0000 </r>
      </set>
      <set comment="kpoint 10">
       <r>   -2.2356    1.0000 </r>
       <r>    5.0469    1.0000 </r>
       <r>   10.7900    1.0000 </r>
       <r>   13.4851    0.0000 </r>
       <r>   16.4475    0.0000 </r>
       <r>   17.7040    0.0000 </r>
       <r>   18.3714    0.0000 </r>
       <r>   20.5262    0.0000 </r>
      </set>
      <set comment="kpoint 11">
       <r>   -2.9468    1.0000 </r>
       <r>    6.1238    1.0000 </r>
       <r>    9.3724    1.0000 </r>
       <r>   13.6959    0.0000 </r>
       <r>   16.9021    0.0000 </r>
       <r>   17.4286    0.0000 </r>
       <r>   21.0606    0.0000 </r>
       <r>   22.5351    0.0000 </r>
      </set>
      <set comment="kpoint 12">
       <r>   -2.7036    1.0000 </r>
       <r>    7.8869    1.0000 </r>
       <r>    8.1946    1.0000 </r>
       <r>   14.5032    0.0000 </r>
       <r>   16.0438    0.0000 </r>
       <r>   17.4796    0.0000 </r>
       <r>   18.0625    0.0000 </r>
       <r>   21.4971    0.0000 </r>
      </set>
      <set comment="kpoint 13">
       <r>    3.5624    1.0000 </r>
       <r>    3.5647    1.0000 </r>
       <r>    7.2848    1.0000 </r>
       <r>   10.4323    1.0000 </r>
       <r>   13.8209    0.0000 </r>
       <r>   14.7365    0.0000 </r>
       <r>   20.0013    0.0000 </r>
       <r>   20.4450    0.0000 </r>
      </set>
      <set comment="kpoint 14">
       <r>    0.7995    1.0000 </r>
       <r>    2.6203    1.0000 </r>
       <r>   11.4815    1.0000 </r>
       <r>   12.1573    0.9940 </r>
       <r>   13.7651    0.0000 </r>
       <r>   15.4483    0.0000 </r>
       <r>   17.5566    0.0000 </r>
       <r>   19.2213    0.0000 </r>
      </set>
      <set comment="kpoint 15">
       <r>   -1.0715    1.0000 </r>
       <r>    2.5930    1.0000 </r>
       <r>   11.7802    1.0000 </r>
       <r>   14.3249    0.0000 </r>
       <r>   15.0042    0.0000 </r>
       <r>   16.8270    0.0000 </r>
       <r>   18.0659    0.0000 </r>
       <r>   18.9095    0.0000 </r>
      </set>
      <set comment="kpoint 16">
       <r>   -2.0110    1.0000 </r>
       <r>    3.4830    1.0000 </r>
       <r>   10.2116    1.0000 </r>
       <r>   14.5753    0.0000 </r>
       <r>   15.1274    0.0000 </r>
       <r>   19.2005    0.0000 </r>
       <r>   20.2306    0.0000 </r>
       <r>   22.1136    0.0000 </r>
      </set>
      <set comment="kpoint 17">
       <r>   -2.0023    1.0000 </r>
       <r>    5.2649    1.0000 </r>
       <r>    8.6956    1.0000 </r>
       <r>   14.8629    0.0000 </r>
       <r>   15.4935    0.0000 </r>
       <r>   17.2306    0.0000 </r>
       <r>   19.0902    0.0000 </r>
       <r>   21.0840    0.0000 </r>
      </set>
      <set comment="kpoint 18">
       <r>   -1.0454    1.0000 </r>
       <r>    7.7086    1.0000 </r>
       <r>    8.0567    1.0000 </r>
       <r>   11.6277    1.0000 </r>
       <r>   15.2741    0.0000 </r>
       <r>   17.2251    0.0000 </r>
       <r>   17.7123    0.0000 </r>
       <r>   19.5916    0.0000 </r>
      </set>
      <set comment="kpoint 19">
       <r>    0.5436    1.0000 </r>
       <r>    0.5436    1.0000 </r>
       <r>   13.1215    0.0000 </r>
       <r>   13.1215    0.0000 </r>
       <r>   15.7842    0.0000 </r>
       <r>   15.7842    0.0000 </r>
       <r>   18.0200    0.0000 </r>
       <r>   18.0200    0.0000 </r>
      </set>
      <set comment="kpoint 20">
       <r>   -0.6174    1.0000 </r>
       <r>    1.2210    1.0000 </r>
       <r>   11.4630    1.0000 </r>
       <r>   13.1122    0.0000 </r>
       <r>   15.8184    0.0000 </r>
       <r>   17.3922    0.0000 </r>
       <r>   21.3333    0.0000 </r>
       <r>   21.5958    0.0000 </r>
      </set>
      <set comment="kpoint 21">
       <r>   -0.8402    1.0000 </r>
       <r>    2.8178    1.0000 </r>
       <r>    9.7566    1.0000 </r>
       <r>   13.0629    0.0000 </r>
       <r>   15.0932    0.0000 </r>
       <r>   17.7443    0.0000 </r>
       <r>   19.3792    0.0000 </r>
       <r>   20.8561    0.0000 </r>
      </set>
      <set comment="kpoint 22">
       <r>   -0.1205    1.0000 </r>
       <r>    5.2937    1.0000 </r>
       <r>    8.7417    1.0000 </r>
       <r>   10.8404    1.0000 </r>
       <r>   13.5805    0.0000 </r>
       <r>   16.8016    0.0000 </r>
       <r>   18.9377    0.0000 </r>
       <r>   20.8809    0.0000 </r>
      </set>
      <set comment="kpoint 23">
       <r>    1.5281    1.0000 </r>
       <r>    7.0336    1.0000 </r>
       <r>    8.4355    1.0000 </r>
       <r>    8.7091    1.0000 </r>
       <r>   13.2485    0.0000 </r>
       <r>   14.6844    0.0000 </r>
       <r>   16.6296    0.0000 </r>
       <r>   21.0100    0.0000 </r>
      </set>
      <set comment="kpoint 24">
       <r>    0.7717    1.0000 </r>
       <r>    0.7726    1.0000 </r>
       <r>   11.1851    1.0000 </r>
       <r>   11.2666    1.0000 </r>
       <r>   14.9983    0.0000 </r>
       <r>   18.5414    0.0000 </r>
       <r>   19.2491    0.0000 </r>
       <r>   19.6426    0.0000 </r>
      </set>
      <set comment="kpoint 25">
       <r>    1.2562    1.0000 </r>
       <r>    3.0702    1.0000 </r>
       <r>    9.9398    1.0000 </r>
       <r>   10.4653    1.0000 </r>
       <r>   11.7052    1.0000 </r>
       <r>   16.3128    0.0000 </r>
       <r>   20.5124    0.0000 </r>
       <r>   22.3948    0.0000 </r>
      </set>
      <set comment="kpoint 26">
       <r>    2.6621    1.0000 </r>
       <r>    6.1330    1.0000 </r>
       <r>    6.4973    1.0000 </r>
       <r>    9.5828    1.0000 </r>
       <r>   12.3832    0.8200 </r>
       <r>   14.6271    0.0000 </r>
       <r>   17.2844    0.0000 </r>
       <r>   22.5760    0.0000 </r>
      </set>
      <set comment="kpoint 27">
       <r>    3.1696    1.0000 </r>
       <r>    4.9934    1.0000 </r>
       <r>    9.8090    1.0000 </r>
       <r>    9.9378    1.0000 </r>
       <r>   11.7538    1.0000 </r>
       <r>   13.0073    0.0002 </r>
       <r>   16.2025    0.0000 </r>
       <r>   20.7156    0.0000 </r>
      </set>
      <set comment="kpoint 28">
       <r>    4.2242    1.0000 </r>
       <r>    4.2339    1.0000 </r>
       <r>    6.2063    1.0000 </r>
       <r>   10.6686    1.0000 </r>
       <r>   11.2216    1.0000 </r>
       <r>   14.1855    0.0000 </r>
       <r>   19.3199    0.0000 </r>
       <r>   21.1689    0.0000 </r>
      </set>
      <set comment="kpoint 29">
       <r>    2.7243    1.0000 </r>
       <r>    6.3057    1.0000 </r>
       <r>    8.0128    1.0000 </r>
       <r>   10.5134    1.0000 </r>
       <r>   12.0202    0.9998 </r>
       <r>   13.8267    0.0000 </r>
       <r>   15.6693    0.0000 </r>
       <r>   19.4698    0.0000 </r>
      </set>
      <set comment="kpoint 30">
       <r>    0.1537    1.0000 </r>
       <r>    9.1391    1.0000 </r>
       <r>   10.3223    1.0000 </r>
       <r>   10.4064    1.0000 </r>
       <r>   12.5864    0.3011 </r>
       <r>   13.7693    0.0000 </r>
       <r>   16.7771    0.0000 </r>
       <r>   18.4195    0.0000 </r>
      </set>
      <set comment="kpoint 31">
       <r>   -0.0767    1.0000 </r>
       <r>   10.0978    1.0000 </r>
       <r>   10.4727    1.0000 </r>
       <r>   10.6258    1.0000 </r>
       <r>   12.6980    0.0950 </r>
       <r>   14.7626    0.0000 </r>
       <r>   15.2807    0.0000 </r>
       <r>   16.4686    0.0000 </r>
      </set>
      <set comment="kpoint 32">
       <r>   -1.9760    1.0000 </r>
       <r>   10.0317    1.0000 </r>
       <r>   10.2110    1.0000 </r>
       <r>   12.9775    0.0005 </r>
       <r>   15.1690    0.0000 </r>
       <r>   15.1955    0.0000 </r>
       <r>   16.6631    0.0000 </r>
       <r>   17.2963    0.0000 </r>
      </set>
      <set comment="kpoint 33">
       <r>   -3.1729    1.0000 </r>
       <r>    9.9873    1.0000 </r>
       <r>    9.9873    1.0000 </r>
       <r>   12.0832    0.9988 </r>
       <r>   13.4201    0.0000 </r>
       <r>   19.4263    0.0000 </r>
       <r>   19.4940    0.0000 </r>
       <r>   21.1152    0.0000 </r>
      </set>
      <set comment="kpoint 34">
       <r>    1.7568    1.0000 </r>
       <r>    5.3392    1.0000 </r>
       <r>    8.9590    1.0000 </r>
       <r>    8.9713    1.0000 </r>
       <r>   14.6179    0.0000 </r>
       <r>   17.4116    0.0000 </r>
       <r>   17.9639    0.0000 </r>
       <r>   18.9630    0.0000 </r>
      </set>
      <set comment="kpoint 35">
       <r>    4.8124    1.0000 </r>
       <r>    5.1222    1.0000 </r>
       <r>    6.6046    1.0000 </r>
       <r>    6.8828    1.0000 </r>
       <r>   15.8962    0.0000 </r>
       <r>   17.3965    0.0000 </r>
       <r>   18.5234    0.0000 </r>
       <r>   19.2431    0.0000 </r>
      </set>
      <set comment="kpoint 36">
       <r>   -2.4785    1.0000 </r>
       <r>    6.3848    1.0000 </r>
       <r>    6.7607    1.0000 </r>
       <r>   15.0078    0.0000 </r>
       <r>   16.3911    0.0000 </r>
       <r>   17.9317    0.0000 </r>
       <r>   20.5631    0.0000 </r>
       <r>   21.9437    0.0000 </r>
      </set>
      <set comment="kpoint 37">
       <r>    3.3401    1.0000 </r>
       <r>    3.3401    1.0000 </r>
       <r>    8.7588    1.0000 </r>
       <r>    8.7588    1.0000 </r>
       <r>   16.0780    0.0000 </r>
       <r>   16.0780    0.0000 </r>
       <r>   18.8791    0.0000 </r>
       <r>   18.8791    0.0000 </r>
      </set>
      <set comment="kpoint 38">
       <r>   -1.5457    1.0000 </r>
       <r>    3.9259    1.0000 </r>
       <r>    7.4619    1.0000 </r>
       <r>   12.5832    0.3090 </r>
       <r>   17.4427    0.0000 </r>
       <r>   19.6772    0.0000 </r>
       <r>   20.4878    0.0000 </r>
       <r>   22.3159    0.0000 </r>
      </set>
      <set comment="kpoint 39">
       <r>   -1.3044    1.0000 </r>
       <r>    5.7339    1.0000 </r>
       <r>    6.1453    1.0000 </r>
       <r>   12.7688    0.0351 </r>
       <r>   14.8757    0.0000 </r>
       <r>   19.7546    0.0000 </r>
       <r>   20.3790    0.0000 </r>
       <r>   22.1597    0.0000 </r>
      </set>
      <set comment="kpoint 40">
       <r>   -0.1568    1.0000 </r>
       <r>    1.6749    1.0000 </r>
       <r>    8.7611    1.0000 </r>
       <r>   10.4777    1.0000 </r>
       <r>   18.2211    0.0000 </r>
       <r>   18.9311    0.0000 </r>
       <r>   21.2444    0.0000 </r>
       <r>   22.2358    0.0000 </r>
      </set>
      <set comment="kpoint 41">
       <r>   -0.1482    1.0000 </r>
       <r>    3.4871    1.0000 </r>
       <r>    7.0541    1.0000 </r>
       <r>   10.4969    1.0000 </r>
       <r>   14.3543    0.0000 </r>
       <r>   21.0140    0.0000 </r>
       <r>   21.4170    0.0000 </r>
       <r>   23.7136    0.0000 </r>
      </set>
      <set comment="kpoint 42">
       <r>    0.7981    1.0000 </r>
       <r>    5.9800    1.0000 </r>
       <r>    6.3940    1.0000 </r>
       <r>   10.0000    1.0000 </r>
       <r>   11.3520    1.0000 </r>
       <r>   18.8154    0.0000 </r>
       <r>   19.0790    0.0000 </r>
       <r>   23.2834    0.0000 </r>
      </set>
      <set comment="kpoint 43">
       <r>    1.4545    1.0000 </r>
       <r>    1.4567    1.0000 </r>
       <r>    8.5566    1.0000 </r>
       <r>    8.5884    1.0000 </r>
       <r>   14.1678    0.0000 </r>
       <r>   21.3216    0.0000 </r>
       <r>   21.8428    0.0000 </r>
       <r>   23.2194    0.0000 </r>
      </set>
      <set comment="kpoint 44">
       <r>    2.1650    1.0000 </r>
       <r>    3.9625    1.0000 </r>
       <r>    7.5087    1.0000 </r>
       <r>    9.1727    1.0000 </r>
       <r>    9.6759    1.0000 </r>
       <r>   18.5870    0.0000 </r>
       <r>   21.5273    0.0000 </r>
       <r>   23.9422    0.0000 </r>
      </set>
      <set comment="kpoint 45">
       <r>    3.7816    1.0000 </r>
       <r>    5.7254    1.0000 </r>
       <r>    7.1722    1.0000 </r>
       <r>    7.5027    1.0000 </r>
       <r>   10.6684    1.0000 </r>
       <r>   16.5902    0.0000 </r>
       <r>   16.6548    0.0000 </r>
       <r>   22.8531    0.0000 </r>
      </set>
      <set comment="kpoint 46">
       <r>    5.1983    1.0000 </r>
       <r>    5.3359    1.0000 </r>
       <r>    5.6802    1.0000 </r>
       <r>    8.7712    1.0000 </r>
       <r>    8.8990    1.0000 </r>
       <r>   16.3946    0.0000 </r>
       <r>   18.6478    0.0000 </r>
       <r>   21.0451    0.0000 </r>
      </set>
      <set comment="kpoint 47">
       <r>    2.2729    1.0000 </r>
       <r>    7.5984    1.0000 </r>
       <r>    9.1325    1.0000 </r>
       <r>    9.3842    1.0000 </r>
       <r>   10.8000    1.0000 </r>
       <r>   14.9956    0.0000 </r>
       <r>   15.0905    0.0000 </r>
       <r>   18.7866    0.0000 </r>
      </set>
      <set comment="kpoint 48">
       <r>   -0.3075    1.0000 </r>
       <r>   11.2501    1.0000 </r>
       <r>   11.2501    1.0000 </r>
       <r>   11.4672    1.0000 </r>
       <r>   12.1143    0.9976 </r>
       <r>   14.4918    0.0000 </r>
       <r>   14.4918    0.0000 </r>
       <r>   16.1040    0.0000 </r>
      </set>
      <set comment="kpoint 49">
       <r>   -0.6193    1.0000 </r>
       <r>    4.6037    1.0000 </r>
       <r>    5.0645    1.0000 </r>
       <r>   10.0876    1.0000 </r>
       <r>   18.4696    0.0000 </r>
       <r>   19.0712    0.0000 </r>
       <r>   22.9502    0.0000 </r>
       <r>   23.0218    0.0000 </r>
      </set>
      <set comment="kpoint 50">
       <r>    0.7598    1.0000 </r>
       <r>    2.5748    1.0000 </r>
       <r>    6.1837    1.0000 </r>
       <r>    7.9333    1.0000 </r>
       <r>   18.4841    0.0000 </r>
       <r>   18.6344    0.0000 </r>
       <r>   24.1001    0.0000 </r>
       <r>   25.4357    0.0000 </r>
      </set>
      <set comment="kpoint 51">
       <r>    0.9979    1.0000 </r>
       <r>    4.3852    1.0000 </r>
       <r>    4.8603    1.0000 </r>
       <r>    8.1566    1.0000 </r>
       <r>   13.7879    0.0000 </r>
       <r>   23.1521    0.0000 </r>
       <r>   23.5380    0.0000 </r>
       <r>   23.9995    0.0000 </r>
      </set>
      <set comment="kpoint 52">
       <r>    2.5815    1.0000 </r>
       <r>    2.5861    1.0000 </r>
       <r>    6.1881    1.0000 </r>
       <r>    6.2016    1.0000 </r>
       <r>   13.5911    0.0000 </r>
       <r>   23.1873    0.0000 </r>
       <r>   23.9655    0.0000 </r>
       <r>   25.8041    0.0000 </r>
      </set>
      <set comment="kpoint 53">
       <r>    3.5138    1.0000 </r>
       <r>    5.0876    1.0000 </r>
       <r>    5.5399    1.0000 </r>
       <r>    7.0851    1.0000 </r>
       <r>    9.1905    1.0000 </r>
       <r>   21.0650    0.0000 </r>
       <r>   21.3289    0.0000 </r>
       <r>   24.2021    0.0000 </r>
      </set>
      <set comment="kpoint 54">
       <r>    5.2427    1.0000 </r>
       <r>    6.6617    1.0000 </r>
       <r>    6.8163    1.0000 </r>
       <r>    7.0871    1.0000 </r>
       <r>    7.0871    1.0000 </r>
       <r>   18.4255    0.0000 </r>
       <r>   18.4255    0.0000 </r>
       <r>   20.4288    0.0000 </r>
      </set>
      <set comment="kpoint 55">
       <r>    2.1201    1.0000 </r>
       <r>    3.6904    1.0000 </r>
       <r>    4.2000    1.0000 </r>
       <r>    5.7487    1.0000 </r>
       <r>   18.2641    0.0000 </r>
       <r>   18.2999    0.0000 </r>
       <r>   27.2794    0.0000 </r>
       <r>   28.2427    0.0000 </r>
      </set>
      <set comment="kpoint 56">
       <r>    3.9213    1.0000 </r>
       <r>    3.9355    1.0000 </r>
       <r>    4.4276    1.0000 </r>
       <r>    4.4276    1.0000 </r>
       <r>   13.3922    0.0000 </r>
       <r>   23.2958    0.0000 </r>
       <r>   26.0462    0.0000 </r>
       <r>   26.0464    0.0000 </r>
      </set>
     </set>
    </set>
   </array>
  </eigenvalues>
  <separator name="orbital magnetization" >
   <v name="MAGDIPOLOUT">      0.00000000      0.00000000      0.00000000</v>
  </separator>
  <dos>
   <i name="efermi">     12.51266124 </i>
   <total>
    <array>
     <dimension dim="1">gridpoints</dimension>
     <dimension dim="2">spin</dimension>
     <field>energy</field>
     <field>total</field>
     <field>integrated</field>
     <set>
      <set comment="spin 1">
       <r>    -5.4167     0.0000     0.0000 </r>
       <r>    -5.2979     0.0000     0.0000 </r>
       <r>    -5.1790     0.0000     0.0000 </r>
       <r>    -5.0601     0.0000     0.0000 </r>
       <r>    -4.9413     0.0000     0.0000 </r>
       <r>    -4.8224     0.0000     0.0000 </r>
       <r>    -4.7036     0.0000     0.0000 </r>
       <r>    -4.5847     0.0000     0.0000 </r>
       <r>    -4.4658     0.0000     0.0000 </r>
       <r>    -4.3470     0.0000     0.0000 </r>
       <r>    -4.2281     0.0000     0.0000 </r>
       <r>    -4.1092     0.0000     0.0000 </r>
       <r>    -3.9904     0.0000     0.0000 </r>
       <r>    -3.8715     0.0001     0.0000 </r>
       <r>    -3.7526     0.0011     0.0001 </r>
       <r>    -3.6338     0.0071     0.0010 </r>
       <r>    -3.5149     0.0243     0.0039 </r>
       <r>    -3.3960     0.0449     0.0092 </r>
       <r>    -3.2772     0.0526     0.0155 </r>
       <r>    -3.1583     0.0661     0.0233 </r>
       <r>    -3.0394     0.1211     0.0377 </r>
       <r>    -2.9206     0.1892     0.0602 </r>
       <r>    -2.8017     0.1978     0.0837 </r>
       <r>    -2.6828     0.1580     0.1025 </r>
       <r>    -2.5640     0.1177     0.1165 </r>
       <r>    -2.4451     0.0940     0.1277 </r>
       <r>    -2.3263     0.1033     0.1399 </r>
       <r>    -2.2074     0.1623     0.1592 </r>
       <r>    -2.0885     0.2763     0.1921 </r>
       <r>    -1.9697     0.3658     0.2356 </r>
       <r>    -1.8508     0.2997     0.2712 </r>
       <r>    -1.7319     0.1740     0.2919 </r>
       <r>    -1.6131     0.1827     0.3136 </r>
       <r>    -1.4942     0.2729     0.3460 </r>
       <r>    -1.3753     0.2777     0.3790 </r>
       <r>    -1.2565     0.2175     0.4049 </r>
       <r>    -1.1376     0.2045     0.4292 </r>
       <r>    -1.0187     0.2436     0.4581 </r>
       <r>    -0.8999     0.2775     0.4911 </r>
       <r>    -0.7810     0.3033     0.5272 </r>
       <r>    -0.6621     0.3434     0.5680 </r>
       <r>    -0.5433     0.3495     0.6095 </r>
       <r>    -0.4244     0.2676     0.6413 </r>
       <r>    -0.3055     0.2468     0.6707 </r>
       <r>    -0.1867     0.4076     0.7191 </r>
       <r>    -0.0678     0.5300     0.7821 </r>
       <r>     0.0510     0.4119     0.8311 </r>
       <r>     0.1699     0.2209     0.8573 </r>
       <r>     0.2888     0.1136     0.8708 </r>
       <r>     0.4076     0.0957     0.8822 </r>
       <r>     0.5265     0.1904     0.9048 </r>
       <r>     0.6454     0.4105     0.9536 </r>
       <r>     0.7642     0.6797     1.0344 </r>
       <r>     0.8831     0.7514     1.1238 </r>
       <r>     1.0020     0.5382     1.1877 </r>
       <r>     1.1208     0.3406     1.2282 </r>
       <r>     1.2397     0.3294     1.2674 </r>
       <r>     1.3586     0.3752     1.3120 </r>
       <r>     1.4774     0.3820     1.3574 </r>
       <r>     1.5963     0.3505     1.3990 </r>
       <r>     1.7152     0.2962     1.4342 </r>
       <r>     1.8340     0.2575     1.4648 </r>
       <r>     1.9529     0.2754     1.4976 </r>
       <r>     2.0717     0.3415     1.5382 </r>
       <r>     2.1906     0.3727     1.5825 </r>
       <r>     2.3095     0.3258     1.6212 </r>
       <r>     2.4283     0.3349     1.6610 </r>
       <r>     2.5472     0.5768     1.7296 </r>
       <r>     2.6661     0.8604     1.8318 </r>
       <r>     2.7849     0.8244     1.9298 </r>
       <r>     2.9038     0.5490     1.9951 </r>
       <r>     3.0227     0.3566     2.0375 </r>
       <r>     3.1415     0.3135     2.0747 </r>
       <r>     3.2604     0.3159     2.1123 </r>
       <r>     3.3793     0.4098     2.1610 </r>
       <r>     3.4981     0.6237     2.2351 </r>
       <r>     3.6170     0.7356     2.3226 </r>
       <r>     3.7359     0.6311     2.3976 </r>
       <r>     3.8547     0.5274     2.4603 </r>
       <r>     3.9736     0.5109     2.5210 </r>
       <r>     4.0925     0.4637     2.5761 </r>
       <r>     4.2113     0.4274     2.6269 </r>
       <r>     4.3302     0.4083     2.6755 </r>
       <r>     4.4490     0.3145     2.7128 </r>
       <r>     4.5679     0.2061     2.7373 </r>
       <r>     4.6868     0.2068     2.7619 </r>
       <r>     4.8056     0.3486     2.8034 </r>
       <r>     4.9245     0.5189     2.8650 </r>
       <r>     5.0434     0.6295     2.9399 </r>
       <r>     5.1622     0.7387     3.0277 </r>
       <r>     5.2811     0.8548     3.1293 </r>
       <r>     5.4000     0.8679     3.2324 </r>
       <r>     5.5188     0.7603     3.3228 </r>
       <r>     5.6377     0.6372     3.3986 </r>
       <r>     5.7566     0.5115     3.4594 </r>
       <r>     5.8754     0.3822     3.5048 </r>
       <r>     5.9943     0.4033     3.5527 </r>
       <r>     6.1132     0.6554     3.6306 </r>
       <r>     6.2320     0.8761     3.7348 </r>
       <r>     6.3509     0.8189     3.8321 </r>
       <r>     6.4698     0.6187     3.9057 </r>
       <r>     6.5886     0.4444     3.9585 </r>
       <r>     6.7075     0.3186     3.9964 </r>
       <r>     6.8263     0.2832     4.0300 </r>
       <r>     6.9452     0.3926     4.0767 </r>
       <r>     7.0641     0.5986     4.1478 </r>
       <r>     7.1829     0.7026     4.2314 </r>
       <r>     7.3018     0.6662     4.3105 </r>
       <r>     7.4207     0.7335     4.3977 </r>
       <r>     7.5395     0.8711     4.5013 </r>
       <r>     7.6584     0.8282     4.5997 </r>
       <r>     7.7773     0.7210     4.6854 </r>
       <r>     7.8961     0.7062     4.7694 </r>
       <r>     8.0150     0.6997     4.8525 </r>
       <r>     8.1339     0.6472     4.9295 </r>
       <r>     8.2527     0.5393     4.9936 </r>
       <r>     8.3716     0.3997     5.0411 </r>
       <r>     8.4905     0.3832     5.0866 </r>
       <r>     8.6093     0.6042     5.1584 </r>
       <r>     8.7282     0.9418     5.2704 </r>
       <r>     8.8470     1.0810     5.3989 </r>
       <r>     8.9659     0.9484     5.5116 </r>
       <r>     9.0848     0.8228     5.6094 </r>
       <r>     9.2036     0.7753     5.7016 </r>
       <r>     9.3225     0.6659     5.7807 </r>
       <r>     9.4414     0.5640     5.8478 </r>
       <r>     9.5602     0.6088     5.9201 </r>
       <r>     9.6791     0.7159     6.0052 </r>
       <r>     9.7980     0.7438     6.0936 </r>
       <r>     9.9168     0.7437     6.1820 </r>
       <r>    10.0357     0.7607     6.2724 </r>
       <r>    10.1546     0.7393     6.3603 </r>
       <r>    10.2734     0.7732     6.4522 </r>
       <r>    10.3923     1.0716     6.5796 </r>
       <r>    10.5112     1.4910     6.7568 </r>
       <r>    10.6300     1.4978     6.9349 </r>
       <r>    10.7489     1.0793     7.0632 </r>
       <r>    10.8678     0.6651     7.1422 </r>
       <r>    10.9866     0.4144     7.1915 </r>
       <r>    11.1055     0.3891     7.2377 </r>
       <r>    11.2243     0.5276     7.3005 </r>
       <r>    11.3432     0.5982     7.3716 </r>
       <r>    11.4621     0.5706     7.4394 </r>
       <r>    11.5809     0.5427     7.5039 </r>
       <r>    11.6998     0.5316     7.5671 </r>
       <r>    11.8187     0.4926     7.6256 </r>
       <r>    11.9375     0.4651     7.6809 </r>
       <r>    12.0564     0.5353     7.7445 </r>
       <r>    12.1753     0.5639     7.8116 </r>
       <r>    12.2941     0.5006     7.8711 </r>
       <r>    12.4130     0.5327     7.9344 </r>
       <r>    12.5319     0.6689     8.0139 </r>
       <r>    12.6507     0.7557     8.1037 </r>
       <r>    12.7696     0.7329     8.1908 </r>
       <r>    12.8885     0.7010     8.2742 </r>
       <r>    13.0073     0.7227     8.3601 </r>
       <r>    13.1262     0.6756     8.4404 </r>
       <r>    13.2450     0.5004     8.4998 </r>
       <r>    13.3639     0.3778     8.5447 </r>
       <r>    13.4828     0.4756     8.6013 </r>
       <r>    13.6016     0.7170     8.6865 </r>
       <r>    13.7205     0.9221     8.7961 </r>
       <r>    13.8394     0.9809     8.9127 </r>
       <r>    13.9582     0.8534     9.0142 </r>
       <r>    14.0771     0.6650     9.0932 </r>
       <r>    14.1960     0.5523     9.1589 </r>
       <r>    14.3148     0.5173     9.2203 </r>
       <r>    14.4337     0.5462     9.2853 </r>
       <r>    14.5526     0.6677     9.3646 </r>
       <r>    14.6714     0.8505     9.4657 </r>
       <r>    14.7903     0.9469     9.5783 </r>
       <r>    14.9092     0.9461     9.6908 </r>
       <r>    15.0280     1.0055     9.8103 </r>
       <r>    15.1469     1.1202     9.9434 </r>
       <r>    15.2658     1.1206    10.0766 </r>
       <r>    15.3846     0.9892    10.1942 </r>
       <r>    15.5035     0.8428    10.2944 </r>
       <r>    15.6223     0.7387    10.3822 </r>
       <r>    15.7412     0.6698    10.4618 </r>
       <r>    15.8601     0.6218    10.5357 </r>
       <r>    15.9789     0.6008    10.6071 </r>
       <r>    16.0978     0.6081    10.6794 </r>
       <r>    16.2167     0.6737    10.7595 </r>
       <r>    16.3355     0.7595    10.8498 </r>
       <r>    16.4544     0.7481    10.9387 </r>
       <r>    16.5733     0.6815    11.0197 </r>
       <r>    16.6921     0.6750    11.0999 </r>
       <r>    16.8110     0.6778    11.1805 </r>
       <r>    16.9299     0.6308    11.2555 </r>
       <r>    17.0487     0.6595    11.3339 </r>
       <r>    17.1676     0.8436    11.4341 </r>
       <r>    17.2865     1.0308    11.5566 </r>
       <r>    17.4053     1.0868    11.6858 </r>
       <r>    17.5242     0.9905    11.8036 </r>
       <r>    17.6431     0.7980    11.8984 </r>
       <r>    17.7619     0.6214    11.9723 </r>
       <r>    17.8808     0.5320    12.0355 </r>
       <r>    17.9996     0.6116    12.1082 </r>
       <r>    18.1185     0.7904    12.2022 </r>
       <r>    18.2374     0.8609    12.3045 </r>
       <r>    18.3562     0.8921    12.4105 </r>
       <r>    18.4751     1.0683    12.5375 </r>
       <r>    18.5940     1.2263    12.6833 </r>
       <r>    18.7128     1.1583    12.8210 </r>
       <r>    18.8317     1.0785    12.9492 </r>
       <r>    18.9506     1.1344    13.0840 </r>
       <r>    19.0694     1.1711    13.2232 </r>
       <r>    19.1883     1.1351    13.3581 </r>
       <r>    19.3072     1.0197    13.4793 </r>
       <r>    19.4260     0.8403    13.5792 </r>
       <r>    19.5449     0.6854    13.6607 </r>
       <r>    19.6638     0.5993    13.7319 </r>
       <r>    19.7826     0.5319    13.7951 </r>
       <r>    19.9015     0.4210    13.8452 </r>
       <r>    20.0203     0.2926    13.8800 </r>
       <r>    20.1392     0.2536    13.9101 </r>
       <r>    20.2581     0.4153    13.9595 </r>
       <r>    20.3769     0.7169    14.0447 </r>
       <r>    20.4958     0.8661    14.1476 </r>
       <r>    20.6147     0.7196    14.2332 </r>
       <r>    20.7335     0.5415    14.2975 </r>
       <r>    20.8524     0.6104    14.3701 </r>
       <r>    20.9713     0.8531    14.4715 </r>
       <r>    21.0901     1.0010    14.5905 </r>
       <r>    21.2090     0.9265    14.7006 </r>
       <r>    21.3279     0.8152    14.7975 </r>
       <r>    21.4467     0.7927    14.8917 </r>
       <r>    21.5656     0.7087    14.9759 </r>
       <r>    21.6845     0.4794    15.0329 </r>
       <r>    21.8033     0.2668    15.0646 </r>
       <r>    21.9222     0.1959    15.0879 </r>
       <r>    22.0411     0.2261    15.1148 </r>
       <r>    22.1599     0.3146    15.1522 </r>
       <r>    22.2788     0.4088    15.2008 </r>
       <r>    22.3976     0.4633    15.2558 </r>
       <r>    22.5165     0.4728    15.3120 </r>
       <r>    22.6354     0.4133    15.3612 </r>
       <r>    22.7542     0.2941    15.3961 </r>
       <r>    22.8731     0.2199    15.4223 </r>
       <r>    22.9920     0.2406    15.4509 </r>
       <r>    23.1108     0.3350    15.4907 </r>
       <r>    23.2297     0.4223    15.5409 </r>
       <r>    23.3486     0.3732    15.5852 </r>
       <r>    23.4674     0.2499    15.6149 </r>
       <r>    23.5863     0.2131    15.6403 </r>
       <r>    23.7052     0.2605    15.6712 </r>
       <r>    23.8240     0.3319    15.7107 </r>
       <r>    23.9429     0.4212    15.7608 </r>
       <r>    24.0618     0.4521    15.8145 </r>
       <r>    24.1806     0.3508    15.8562 </r>
       <r>    24.2995     0.1945    15.8793 </r>
       <r>    24.4184     0.0747    15.8882 </r>
       <r>    24.5372     0.0180    15.8903 </r>
       <r>    24.6561     0.0024    15.8906 </r>
       <r>    24.7749     0.0002    15.8906 </r>
       <r>    24.8938     0.0000    15.8906 </r>
       <r>    25.0127     0.0003    15.8907 </r>
       <r>    25.1315     0.0038    15.8911 </r>
       <r>    25.2504     0.0209    15.8936 </r>
       <r>    25.3693     0.0592    15.9006 </r>
       <r>    25.4881     0.0886    15.9112 </r>
       <r>    25.6070     0.0820    15.9209 </r>
       <r>    25.7259     0.0806    15.9305 </r>
       <r>    25.8447     0.0983    15.9422 </r>
       <r>    25.9636     0.0947    15.9534 </r>
       <r>    26.0825     0.0700    15.9617 </r>
       <r>    26.2013     0.0403    15.9665 </r>
       <r>    26.3202     0.0151    15.9683 </r>
       <r>    26.4391     0.0031    15.9687 </r>
       <r>    26.5579     0.0003    15.9687 </r>
       <r>    26.6768     0.0000    15.9688 </r>
       <r>    26.7956     0.0000    15.9688 </r>
       <r>    26.9145     0.0006    15.9688 </r>
       <r>    27.0334     0.0047    15.9694 </r>
       <r>    27.1522     0.0188    15.9716 </r>
       <r>    27.2711     0.0384    15.9762 </r>
       <r>    27.3900     0.0403    15.9810 </r>
       <r>    27.5088     0.0217    15.9836 </r>
       <r>    27.6277     0.0060    15.9843 </r>
       <r>    27.7466     0.0009    15.9844 </r>
       <r>    27.8654     0.0005    15.9844 </r>
       <r>    27.9843     0.0039    15.9849 </r>
       <r>    28.1032     0.0168    15.9869 </r>
       <r>    28.2220     0.0368    15.9913 </r>
       <r>    28.3409     0.0413    15.9962 </r>
       <r>    28.4598     0.0238    15.9990 </r>
       <r>    28.5786     0.0071    15.9999 </r>
       <r>    28.6975     0.0011    16.0000 </r>
       <r>    28.8164     0.0001    16.0000 </r>
       <r>    28.9352     0.0000    16.0000 </r>
       <r>    29.0541     0.0000    16.0000 </r>
       <r>    29.1729     0.0000    16.0000 </r>
       <r>    29.2918     0.0000    16.0000 </r>
       <r>    29.4107     0.0000    16.0000 </r>
       <r>    29.5295     0.0000    16.0000 </r>
       <r>    29.6484     0.0000    16.0000 </r>
       <r>    29.7673     0.0000    16.0000 </r>
       <r>    29.8861     0.0000    16.0000 </r>
       <r>    30.0050     0.0000    16.0000 </r>
       <r>    30.1239     0.0000    16.0000 </r>
       <r>    30.2427     0.0000    16.0000 </r>
      </set>
     </set>
    </array>
   </total>
  </dos>
 </calculation>
 <structure name="finalpos" >
  <crystal>
   <varray name="basis" >
    <v>      -2.19140200       2.19140200       1.25050200 </v>
    <v>       2.19140200      -2.19140200       1.25050200 </v>
    <v>       2.19140200       2.19140200      -1.25050200 </v>
   </varray>
   <i name="volume">     24.02085653 </i>
   <varray name="rec_basis" >
    <v>       0.00000000       0.22816444       0.39983942 </v>
    <v>       0.22816444       0.00000000       0.39983942 </v>
    <v>       0.22816444       0.22816444      -0.00000000 </v>
   </varray>
  </crystal>
  <varray name="positions" >
   <v>       0.00000000       0.00000000       0.00000000 </v>
   <v>       0.25000000       0.75000000       0.50000000 </v>
  </varray>
 </structure>
</modeling>
