unknown system                          
   1.00000000000000     
    -2.428155    2.428155    1.337352
     2.428155   -2.428155    1.337352
     2.428155    2.428155   -1.337352
   Si
     2
Direct
  0.750000  0.250000  0.500000
  0.500000  0.500000  0.000000
 
   36   36   36
  9.7251      9.6554      9.4528      9.1345      8.7257      8.2539      7.7450      7.2201      6.6956      6.1840    
  5.6966      5.2439      4.8367      4.4840      4.1923      3.9654      3.8042      3.7083      3.6764      3.7083    
  3.8042      3.9654      4.1923      4.4840      4.8367      5.2439      5.6966      6.1841      6.6956      7.2201    
  7.7450      8.2539      8.7257      9.1345      9.4528      9.6554      9.6554      9.8096      9.8224      9.6971    
  9.4480      9.0976      8.6708      8.1917      7.6800      7.1519      6.6211      6.1010      5.6056      5.1488    
  4.7429      4.3970      4.1164      3.9031      3.7568      3.6763      3.6606      3.7099      3.8248      4.0060    
  4.2529      4.5632      4.9324      5.3542      5.8215      6.3266      6.8608      7.4124      7.9646      8.4944    
  8.9731      9.3696      9.4528      9.8224      10.057      10.145      10.087      9.8941      9.5886      9.1940    
  8.7324      8.2228      7.6806      7.1204      6.5573      6.0087      5.4920      5.0231      4.6144      4.2734    
  4.0034      3.8047      3.6758      3.6155      3.6231      3.6987      3.8427      4.0548      4.3339      4.6772    
  5.0814      5.5425      6.0559      6.6147      7.2076      7.8167      8.4160      8.9731      9.1345      9.6971    
  10.145      10.451      10.601      10.594      10.443      10.169      9.7946      9.3416      8.8265      8.2636    
  7.6668      7.0529      6.4422      5.8566      5.3164      4.8378      4.4313      4.1020      3.8505      3.6754    
  3.5745      3.5462      3.5900      3.7057      3.8934      4.1526      4.4828      4.8834      5.3534      5.8907    
  6.4897      7.1385      7.8167      8.4944      8.7257      9.4480      10.087      10.601      10.961      11.153    
  11.179      11.054      10.799      10.438      9.9891      9.4661      8.8798      8.2427      7.5726      6.8932    
  6.2314      5.6133      5.0598      4.5849      4.1955      3.8929      3.6751      3.5388      3.4813      3.5011    
  3.5975      3.7707      4.0217      4.3519      4.7634      5.2580      5.8352      6.4897      7.2076      7.9646    
  8.2539      9.0976      9.8941      10.594      11.153      11.544      11.749      11.775      11.651      11.408    
  11.069      10.638      10.115      9.5072      8.8291      8.0996      7.3467      6.6037      5.9034      5.2724    
  4.7287      4.2810      3.9308      3.6751      3.5094      3.4297      3.4334      3.5194      3.6884      3.9428    
  4.2861      4.7232      5.2580      5.8907      6.6147      7.4124      7.7450      8.6708      9.5886      10.443    
  11.179      11.749      12.109      12.259      12.237      12.096      11.875      11.588      11.217      10.734    
  10.124      9.4062      8.6160      7.7870      6.9601      6.1761      5.4680      4.8578      4.3556      3.9629    
  3.6754      3.4871      3.3925      3.3879      3.4723      3.6471      3.9164      4.2861      4.7634      5.3534    
  6.0559      6.8608      7.2201      8.1916      9.1940      10.169      11.054      11.775      12.259      12.489    
  12.510      12.402      12.245      12.082      11.904      11.656      11.268      10.697      9.9550      9.1041    
  8.1982      7.2874      6.4212      5.6393      4.9673      4.4167      3.9881      3.6759      3.4721      3.3700    
  3.3651      3.4566      3.6471      3.9428      4.3519      4.8834      5.5425      6.3266      6.6956      7.6800    
  8.7324      9.7946      10.799      11.651      12.237      12.510      12.508      12.337      12.128      11.984    
  11.942      11.952      11.905      11.678      11.194      10.455      9.5471      8.5655      7.5734      6.6295    
  5.7798      5.0533      4.4621      4.0056      3.6763      3.4646      3.3624      3.3651      3.4723      3.6884    
  4.0217      4.4828      5.0814      5.8215      6.1841      7.1519      8.2228      9.3416      10.438      11.408    
  12.096      12.402      12.337      12.013      11.612      11.318      11.251      11.418      11.710      11.948    
  11.946      11.593      10.885      9.9301      8.8756      7.8073      6.7929      5.8842      5.1126      4.4900    
  4.0145      3.6765      3.4646      3.3700      3.3879      3.5194      3.7707      4.1526      4.6772      5.3542    
  5.6966      6.6211      7.6806      8.8265      9.9891      11.069      11.875      12.245      12.128      11.612    
  10.906      10.274      9.9483      10.048      10.530      11.205      11.804      12.081      11.890      11.231    
  10.241      9.1177      7.9807      6.9053      5.9484      5.1427      4.4994      4.0145      3.6763      3.4721    
  3.3925      3.4334      3.5975      3.8934      4.3339      4.9324      5.2439      6.1010      7.1204      8.2636    
  9.4661      10.638      11.588      12.082      11.984      11.318      10.274      9.1663      8.3448      8.0775    
  8.4571      9.3642      10.507      11.526      12.110      12.092      11.488      10.469      9.2837      8.0871    
  6.9626      5.9701      5.1427      4.4900      4.0056      3.6759      3.4871      3.4297      3.5011      3.7057    
  4.0548      4.5632      4.8367      5.6056      6.5573      7.6668      8.8798      10.115      11.217      11.904    
  11.942      11.251      9.9483      8.3448      6.8686      5.9435      5.8509      6.6290      8.0562      9.7268    
  11.187      12.074      12.217      11.656      10.607      9.3680      8.1231      6.9626      5.9484      5.1126    
  4.4621      3.9881      3.6754      3.5094      3.4813      3.5900      3.8427      4.2529      4.4840      5.1488    
  6.0087      7.0529      8.2427      9.5072      10.734      11.656      11.952      11.418      10.048      8.0775    
  5.9435      4.1836      3.2770      3.4874      4.7683      6.7767      8.9885      10.867      12.019      12.282    
  11.738      10.654      9.3680      8.0871      6.9053      5.8842      5.0533      4.4167      3.9629      3.6751    
  3.5388      3.5462      3.6987      4.0060      4.1923      4.7429      5.4920      6.4422      7.5726      8.8291    
  10.124      11.268      11.905      11.710      10.530      8.4572      5.8509      3.2770      1.3648     0.61890    
  1.2510      3.1037      5.7027      8.4146      10.642      11.981      12.302      11.738      10.607      9.2837    
  7.9807      6.7929      5.7798      4.9673      4.3556      3.9308      3.6751      3.5745      3.6231      3.8248    
  3.9654      4.3970      5.0232      5.8566      6.8932      8.0996      9.4062      10.697      11.678      11.948    
  11.205      9.3642      6.6290      3.4874     0.61890     -1.2839     -1.7284     -.58814      1.8512      4.9881    
  8.1012      10.561      11.981      12.282      11.656      10.469      9.1177      7.8073      6.6295      5.6393    
  4.8578      4.2810      3.8929      3.6754      3.6155      3.7099      3.8042      4.1164      4.6144      5.3164    
  6.2314      7.3467      8.6160      9.9550      11.194      11.946      11.804      10.507      8.0562      4.7683    
  1.2510     -1.7284     -3.4526     -3.4804     -1.7971      1.1790      4.7376      8.1012      10.642      12.019    
  12.217      11.488      10.241      8.8756      7.5734      6.4212      5.4680      4.7287      4.1955      3.8505    
  3.6758      3.6606      3.7083      3.9031      4.2734      4.8379      5.6133      6.6037      7.7870      9.1041    
  10.455      11.593      12.081      11.526      9.7268      6.7767      3.1036     -.58817     -3.4804     -4.8745    
 -4.4165     -2.2186      1.1790      4.9881      8.4146      10.867      12.074      12.092      11.231      9.9301    
  8.5655      7.2874      6.1761      5.2724      4.5849      4.1020      3.8047      3.6763      3.6764      3.7568    
  4.0034      4.4314      5.0598      5.9034      6.9601      8.1982      9.5471      10.885      11.890      12.110    
  11.187      8.9885      5.7027      1.8511     -1.7971     -4.4165     -5.3696     -4.4165     -1.7971      1.8512    
  5.7027      8.9885      11.187      12.110      11.890      10.885      9.5471      8.1982      6.9601      5.9034    
  5.0598      4.4313      4.0034      3.7568      3.7083      3.6763      3.8047      4.1020      4.5849      5.2724    
  6.1761      7.2874      8.5655      9.9301      11.231      12.092      12.074      10.867      8.4146      4.9881    
  1.1790     -2.2186     -4.4165     -4.8745     -3.4804     -.58814      3.1037      6.7767      9.7268      11.526    
  12.081      11.593      10.455      9.1041      7.7870      6.6037      5.6133      4.8378      4.2734      3.9031    
  3.8042      3.6606      3.6758      3.8505      4.1955      4.7288      5.4681      6.4212      7.5734      8.8756    
  10.241      11.488      12.217      12.019      10.642      8.1012      4.7376      1.1790     -1.7971     -3.4804    
 -3.4526     -1.7284      1.2510      4.7683      8.0562      10.507      11.804      11.946      11.194      9.9550    
  8.6160      7.3467      6.2314      5.3164      4.6144      4.1164      3.9654      3.7099      3.6155      3.6754    
  3.8929      4.2811      4.8578      5.6393      6.6294      7.8073      9.1177      10.469      11.656      12.282    
  11.981      10.560      8.1012      4.9881      1.8511     -.58817     -1.7284     -1.2839     0.61890      3.4874    
  6.6290      9.3642      11.205      11.948      11.678      10.697      9.4062      8.0996      6.8932      5.8566    
  5.0231      4.3970      4.1923      3.8248      3.6231      3.5745      3.6751      3.9308      4.3557      4.9673    
  5.7798      6.7928      7.9806      9.2836      10.607      11.738      12.302      11.981      10.642      8.4146    
  5.7027      3.1036      1.2510     0.61890      1.3648      3.2770      5.8509      8.4571      10.530      11.710    
  11.905      11.268      10.124      8.8291      7.5726      6.4422      5.4920      4.7429      4.4840      4.0060    
  3.6987      3.5462      3.5388      3.6751      3.9629      4.4167      5.0533      5.8841      6.9053      8.0871    
  9.3680      10.654      11.738      12.282      12.019      10.867      8.9885      6.7767      4.7683      3.4874    
  3.2770      4.1836      5.9435      8.0775      10.048      11.418      11.952      11.656      10.734      9.5072    
  8.2427      7.0529      6.0087      5.1488      4.8367      4.2529      3.8427      3.5900      3.4813      3.5094    
  3.6754      3.9881      4.4621      5.1125      5.9484      6.9625      8.1230      9.3680      10.607      11.656    
  12.217      12.074      11.187      9.7268      8.0562      6.6290      5.8509      5.9435      6.8686      8.3448    
  9.9483      11.251      11.942      11.904      11.217      10.115      8.8798      7.6668      6.5573      5.6056    
  5.2439      4.5632      4.0548      3.7057      3.5011      3.4298      3.4871      3.6759      4.0056      4.4900    
  5.1427      5.9701      6.9625      8.0871      9.2836      10.469      11.488      12.092      12.110      11.526    
  10.507      9.3642      8.4572      8.0775      8.3448      9.1663      10.274      11.318      11.984      12.082    
  11.588      10.638      9.4661      8.2636      7.1204      6.1010      5.6966      4.9324      4.3339      3.8933    
  3.5975      3.4334      3.3925      3.4722      3.6763      4.0145      4.4994      5.1427      5.9484      6.9053    
  7.9806      9.1177      10.241      11.231      11.890      12.081      11.804      11.205      10.530      10.048    
  9.9483      10.274      10.906      11.612      12.128      12.245      11.875      11.069      9.9891      8.8265    
  7.6806      6.6211      6.1840      5.3542      4.6772      4.1526      3.7707      3.5194      3.3879      3.3700    
  3.4647      3.6765      4.0145      4.4900      5.1125      5.8841      6.7928      7.8073      8.8756      9.9301    
  10.885      11.593      11.946      11.948      11.710      11.418      11.251      11.318      11.612      12.013    
  12.337      12.402      12.096      11.408      10.438      9.3416      8.2228      7.1519      6.6956      5.8215    
  5.0814      4.4828      4.0217      3.6884      3.4723      3.3651      3.3625      3.4647      3.6763      4.0056    
  4.4621      5.0533      5.7798      6.6294      7.5734      8.5655      9.5471      10.455      11.194      11.678    
  11.905      11.952      11.942      11.984      12.128      12.337      12.508      12.510      12.237      11.651    
  10.799      9.7946      8.7324      7.6800      7.2201      6.3266      5.5425      4.8834      4.3519      3.9427    
  3.6471      3.4566      3.3651      3.3700      3.4722      3.6759      3.9881      4.4167      4.9673      5.6393    
  6.4212      7.2874      8.1982      9.1041      9.9550      10.697      11.268      11.656      11.904      12.082    
  12.245      12.402      12.510      12.489      12.259      11.775      11.054      10.169      9.1940      8.1917    
  7.7450      6.8608      6.0559      5.3534      4.7634      4.2861      3.9163      3.6471      3.4723      3.3879    
  3.3925      3.4871      3.6754      3.9629      4.3557      4.8578      5.4681      6.1761      6.9601      7.7870    
  8.6160      9.4062      10.124      10.734      11.217      11.588      11.875      12.096      12.237      12.259    
  12.109      11.749      11.179      10.443      9.5886      8.6708      8.2539      7.4124      6.6147      5.8907    
  5.2580      4.7232      4.2861      3.9427      3.6884      3.5194      3.4334      3.4298      3.5094      3.6751    
  3.9308      4.2811      4.7288      5.2724      5.9034      6.6037      7.3467      8.0996      8.8291      9.5072    
  10.115      10.638      11.069      11.408      11.651      11.775      11.749      11.544      11.153      10.594    
  9.8941      9.0976      8.7257      7.9646      7.2076      6.4897      5.8352      5.2580      4.7634      4.3519    
  4.0217      3.7707      3.5975      3.5011      3.4813      3.5388      3.6751      3.8929      4.1955      4.5849    
  5.0598      5.6133      6.2314      6.8932      7.5726      8.2427      8.8798      9.4661      9.9891      10.438    
  10.799      11.054      11.179      11.153      10.961      10.601      10.087      9.4480      9.1345      8.4944    
  7.8167      7.1385      6.4897      5.8907      5.3534      4.8834      4.4828      4.1526      3.8933      3.7057    
  3.5900      3.5462      3.5745      3.6754      3.8505      4.1020      4.4314      4.8379      5.3164      5.8566    
  6.4422      7.0529      7.6668      8.2636      8.8265      9.3416      9.7946      10.169      10.443      10.594    
  10.601      10.451      10.145      9.6971      9.4528      8.9731      8.4160      7.8167      7.2076      6.6147    
  6.0559      5.5425      5.0814      4.6772      4.3339      4.0548      3.8427      3.6987      3.6231      3.6155    
  3.6758      3.8047      4.0034      4.2734      4.6144      5.0232      5.4920      6.0087      6.5573      7.1204    
  7.6806      8.2228      8.7324      9.1940      9.5886      9.8941      10.087      10.145      10.057      9.8224    
  9.6554      9.3696      8.9731      8.4944      7.9646      7.4124      6.8608      6.3266      5.8215      5.3542    
  4.9324      4.5632      4.2529      4.0060      3.8248      3.7099      3.6606      3.6763      3.7568      3.9031    
  4.1164      4.3970      4.7429      5.1488      5.6056      6.1010      6.6211      7.1519      7.6800      8.1916    
  8.6708      9.0976      9.4480      9.6971      9.8224      9.8096      9.6554      9.5456      9.3159      8.9839    
  8.5739      8.1126      7.6247      7.1299      6.6428      6.1741      5.7326      5.3266      4.9648      4.6547    
  4.4025      4.2117      4.0835      4.0180      4.0145      4.0728      4.1935      4.3773      4.6239      4.9313    
  5.2941      5.7039      6.1497      6.6194      7.1012      7.5838      8.0557      8.5028      8.9070      9.2461    
  9.4967      9.6378      9.5456      9.6554      9.6378      9.4967      9.2461      8.9070      8.5028      8.0557    
  7.5838      7.1012      6.6194      6.1497      5.7039      5.2941      4.9313      4.6239      4.3773      4.1935    
  4.0728      4.0145      4.0180      4.0835      4.2117      4.4025      4.6547      4.9647      5.3266      5.7326    
  6.1741      6.6428      7.1299      7.6247      8.1126      8.5739      8.9839      9.3159      9.2997      9.6212    
  9.8224      9.8924      9.8320      9.6523      9.3721      9.0122      8.5929      8.1308      7.6395      7.1317    
  6.6211      6.1228      5.6528      5.2259      4.8535      4.5430      4.2980      4.1190      4.0055      3.9566    
  3.9718      4.0515      4.1957      4.4035      4.6728      4.9998      5.3798      5.8076      6.2779      6.7840    
  7.3161      7.8584      8.3889      8.8795      8.9371      9.4479      9.8589      10.145      10.293      10.301    
  10.179      9.9443      9.6164      9.2135      8.7504      8.2402      7.6960      7.1334      6.5715      6.0305    
  5.5295      5.0837      4.7032      4.3932      4.1551      3.9881      3.8907      3.8620      3.9013      4.0086    
  4.1834      4.4245      4.7302      5.0988      5.5281      6.0157      6.5564      7.1402      7.7496      8.3594    
  8.4848      9.1517      9.7497      10.242      10.601      10.811      10.871      10.792      10.590      10.284    
  9.8893      9.4184      8.8823      8.2939      7.6709      7.0362      6.4152      5.8320      5.3065      4.8521    
  4.4759      4.1798      3.9629      3.8227      3.7572      3.7650      3.8455      3.9984      4.2238      4.5221    
  4.8942      5.3409      5.8618      6.4524      7.1015      7.7890      7.9729      8.7570      9.5089      10.184    
  10.741      11.153      11.406      11.498      11.445      11.265      10.977      10.589      10.107      9.5422    
  8.9050      8.2155      7.5010      6.7931      6.1223      5.5135      4.9841      4.5429      4.1924      3.9308    
  3.7546      3.6603      3.6456      3.7093      3.8515      4.0737      4.3783      4.7689      5.2486      5.8184    
  6.4733      7.1997      7.4293      8.2909      9.1591      9.9841      10.717      11.316      11.749      11.999    
  12.082      12.030      11.872      11.618      11.261      10.787      10.196      9.5075      8.7476      7.9489    
  7.1501      6.3890      5.6966      5.0939      4.5918      4.1924      3.8929      3.6883      3.5736      3.5453    
  3.6021      3.7446      3.9756      4.3001      4.7239      5.2519      5.8852      6.6171      6.8776      7.7795    
  8.7258      9.6653      10.542      11.303      11.887      12.259      12.435      12.465      12.405      12.288    
  12.108      11.830      11.407      10.816      10.080      9.2476      8.3627      7.4721      6.6215      5.8484    
  5.1775      4.6207      4.1798      3.8505      3.6257      3.4990      3.4661      3.5254      3.6787      3.9305    
  4.2880      4.7591      5.3496      6.0594      6.3353      7.2449      8.2339      9.2527      10.242      11.136    
  11.842      12.299      12.510      12.544      12.494      12.439      12.408      12.365      12.229      11.914    
  11.366      10.600      9.6967      8.7264      7.7461      6.8105      5.9629      5.2314      4.6286      4.1551    
  3.8047      3.5683      3.4381      3.4092      3.4803      3.6546      3.9386      4.3418      4.8735      5.5391    
  5.8157      6.7044      7.7045      8.7701      9.8403      10.843      11.657      12.177      12.380      12.337    
  12.178      12.047      12.039      12.164      12.338      12.422      12.275      11.813      11.047      10.078    
  9.0257      7.9614      6.9483      6.0356      5.2537      4.6151      4.1190      3.7568      3.5175      3.3922    
  3.3756      3.4675      3.6726      3.9999      4.4606      5.0647      5.3294      6.1726      7.1550      8.2376    
  9.3613      10.451      11.372      11.964      12.153      11.985      11.612      11.240      11.059      11.169    
  11.540      12.023      12.403      12.480      12.142      11.399      10.379      9.2498      8.1099      7.0299    
  6.0638      5.2436      4.5809      4.0728      3.7083      3.4748      3.3624      3.3663      3.4875      3.7330    
  4.1139      4.6429      4.8860      5.6623      6.6006      7.6717      8.8221      9.9776      11.010      11.709    
  11.927      11.652      11.018      10.274      9.7052      9.5399      9.8625      10.582      11.460      12.200    
  12.543      12.353      11.648      10.588      9.3909      8.1864      7.0524      6.0467      5.2016      4.5273    
  4.0180      3.6606      3.4413      3.3496      3.3818      3.5406      3.8353      4.2793      4.4940      5.1857    
  6.0559      7.0875      8.2368      9.4340      10.572      11.421      11.752      11.460      10.614      9.4574    
  8.3448      7.6374      7.5826      8.2251      9.3878      10.732      11.872      12.497      12.458      11.793    
  10.700      9.4452      8.1888      7.0157      5.9854      5.1297      4.4562      3.9566      3.6155      3.4182    
  3.3546      3.4222      3.6263      3.9785      4.1607      4.7546      5.5362      6.5008      7.6189      8.8309    
  10.047      11.072      11.608      11.441      10.533      9.0552      7.3720      5.9436      5.1919      5.3601    
  6.4253      8.1045      9.9496      11.493      12.384      12.476      11.839      10.714      9.4121      8.1182    
  6.9216      5.8826      5.0307      4.3705      3.8907      3.5745      3.4064      3.3776      3.4874      3.7437    
  3.8908      4.3787      5.0559      5.9292      6.9848      8.1788      9.4341      10.616      11.420      11.529    
  10.771      9.1900      7.0786      4.9222      3.2770      2.6018      3.1053      4.6721      6.9004      9.2355    
  11.142      12.249      12.428      11.792      10.632      9.2942      7.9779      6.7744      5.7425      4.9085    
  4.2732      3.8227      3.5388      3.4064      3.4182      3.5761      3.6867      4.0648      4.6279      5.3909    
  6.3546      7.4940      8.7497      10.025      11.095      11.585      11.191      9.7965      7.5501      4.8664    
  2.3463     0.61893     0.14865      1.0796      3.1844      5.9411      8.7021      10.887      12.127      12.330    
  11.661      10.458      9.0968      7.7738      6.5799      5.5706      4.7676      4.1677      3.7546      3.5094    
  3.4182      3.4757      3.5484      3.8164      4.2615      4.9022      5.7506      6.8000      8.0129      9.3143    
  10.572      11.458      11.573      10.644      8.6315      5.7923      2.6594     -.70904E-01 -1.7284     -1.8783    
 -.46748      2.1563      5.3614      8.4319      10.771      12.036      12.188      11.449      10.200      8.8277    
  7.5137      6.3455      5.3732      4.6130      4.0574      3.6883      3.4871      3.4413      3.4748      3.6344    
  3.9620      4.4757      5.1939      6.1243      7.2516      8.5253      9.8559      11.049      11.702      11.421    
  9.9814      7.4307      4.1326     0.72204     -2.0400     -3.4804     -3.2278     -1.3379      1.7250      5.2422    
  8.4625      10.804      11.975      12.001      11.159      9.8657      8.4963      7.2072      6.0799      5.1575    
  4.4498      3.9457      3.6257      3.4721      3.4646      3.5176      3.7311      4.1192      4.7012      5.4939    
  6.5001      7.6946      9.0149      10.355      11.444      11.846      11.192      9.3199      6.3658      2.7894    
 -.69954     -3.3137     -4.4165     -3.7277     -1.4184      1.9472      5.5965      8.7798      10.962      11.924    
  11.757      10.793      9.4664      8.1143      6.8653      5.7927      4.9309      4.2835      3.8359      3.5683    
  3.5175      3.4646      3.5683      3.8359      4.2835      4.9309      5.7927      6.8653      8.1143      9.4664    
  10.793      11.757      11.924      10.962      8.7798      5.5965      1.9472     -1.4184     -3.7277     -4.4165    
 -3.3137     -.69955      2.7894      6.3657      9.3199      11.192      11.846      11.444      10.355      9.0149    
  7.6946      6.5001      5.4939      4.7012      4.1192      3.7311      3.6343      3.4748      3.4721      3.6257    
  3.9457      4.4498      5.1575      6.0799      7.2071      8.4963      9.8657      11.159      12.001      11.975    
  10.804      8.4625      5.2422      1.7249     -1.3379     -3.2278     -3.4804     -2.0400     0.72202      4.1326    
  7.4306      9.9814      11.421      11.702      11.049      9.8559      8.5253      7.2516      6.1243      5.1939    
  4.4757      3.9620      3.8164      3.5484      3.4413      3.4871      3.6883      4.0574      4.6130      5.3732    
  6.3455      7.5137      8.8276      10.200      11.449      12.188      12.036      10.771      8.4319      5.3613    
  2.1563     -.46752     -1.8783     -1.7284     -.70955E-01  2.6593      5.7923      8.6315      10.644      11.573    
  11.458      10.572      9.3143      8.0129      6.8000      5.7506      4.9022      4.2615      4.0648      3.6867    
  3.4757      3.4182      3.5094      3.7546      4.1677      4.7676      5.5706      6.5798      7.7737      9.0968    
  10.458      11.661      12.330      12.127      10.887      8.7021      5.9410      3.1844      1.0795     0.14859    
 0.61886      2.3462      4.8663      7.5501      9.7965      11.191      11.585      11.095      10.025      8.7497    
  7.4940      6.3546      5.3909      4.6279      4.3787      3.8908      3.5761      3.4183      3.4065      3.5388    
  3.8227      4.2732      4.9085      5.7425      6.7743      7.9779      9.2941      10.632      11.792      12.428    
  12.249      11.142      9.2355      6.9004      4.6721      3.1053      2.6018      3.2770      4.9222      7.0785    
  9.1900      10.771      11.529      11.420      10.616      9.4341      8.1788      6.9848      5.9292      5.0559    
  4.7546      4.1607      3.7436      3.4874      3.3776      3.4065      3.5745      3.8908      4.3705      5.0307    
  5.8826      6.9216      8.1181      9.4120      10.714      11.839      12.476      12.384      11.493      9.9496    
  8.1045      6.4253      5.3601      5.1919      5.9435      7.3719      9.0552      10.533      11.441      11.608    
  11.072      10.047      8.8309      7.6189      6.5008      5.5362      5.1857      4.4940      3.9785      3.6263    
  3.4223      3.3547      3.4182      3.6156      3.9566      4.4562      5.1297      5.9854      7.0156      8.1888    
  9.4452      10.700      11.793      12.458      12.497      11.872      10.732      9.3878      8.2251      7.5826    
  7.6373      8.3447      9.4573      10.614      11.460      11.752      11.421      10.572      9.4340      8.2368    
  7.0875      6.0559      5.6623      4.8860      4.2793      3.8353      3.5406      3.3818      3.3497      3.4413    
  3.6607      4.0180      4.5273      5.2016      6.0467      7.0524      8.1864      9.3909      10.588      11.648    
  12.353      12.544      12.200      11.460      10.581      9.8625      9.5399      9.7052      10.274      11.018    
  11.652      11.927      11.709      11.010      9.9776      8.8221      7.6717      6.6005      6.1726      5.3294    
  4.6429      4.1138      3.7330      3.4875      3.3663      3.3624      3.4748      3.7083      4.0728      4.5809    
  5.2435      6.0638      7.0299      8.1099      9.2498      10.379      11.399      12.142      12.480      12.403    
  12.023      11.540      11.169      11.059      11.240      11.612      11.985      12.153      11.964      11.372    
  10.451      9.3613      8.2376      7.1550      6.7044      5.8157      5.0647      4.4606      3.9999      3.6726    
  3.4675      3.3756      3.3922      3.5176      3.7568      4.1191      4.6151      5.2537      6.0356      6.9483    
  7.9615      9.0258      10.078      11.047      11.813      12.275      12.422      12.338      12.164      12.039    
  12.047      12.178      12.337      12.380      12.177      11.657      10.843      9.8403      8.7701      7.7045    
  7.2449      6.3353      5.5391      4.8734      4.3418      3.9386      3.6546      3.4803      3.4092      3.4382    
  3.5683      3.8047      4.1551      4.6286      5.2314      5.9629      6.8105      7.7461      8.7264      9.6968    
  10.600      11.366      11.914      12.230      12.365      12.408      12.439      12.494      12.544      12.510    
  12.299      11.842      11.136      10.242      9.2527      8.2339      7.7795      6.8776      6.0594      5.3496    
  4.7591      4.2880      3.9305      3.6787      3.5254      3.4661      3.4991      3.6257      3.8505      4.1798    
  4.6207      5.1775      5.8484      6.6215      7.4721      8.3628      9.2477      10.080      10.816      11.407    
  11.830      12.108      12.288      12.405      12.465      12.435      12.259      11.887      11.303      10.542    
  9.6653      8.7258      8.2909      7.4293      6.6171      5.8852      5.2519      4.7239      4.3001      3.9756    
  3.7446      3.6021      3.5453      3.5736      3.6883      3.8929      4.1924      4.5918      5.0940      5.6966    
  6.3890      7.1501      7.9490      8.7476      9.5075      10.196      10.787      11.261      11.618      11.872    
  12.030      12.082      11.999      11.749      11.316      10.717      9.9841      9.1591      8.7570      7.9729    