unknown system                          
   1.00000000000000     
    -2.428155    2.428155    1.337352
     2.428155   -2.428155    1.337352
     2.428155    2.428155   -1.337352
   Si
     2
Direct
  0.750000  0.250000  0.500000
  0.500000  0.500000  0.000000
 
   36   36   36
 0.97250512956E+01 0.96554060008E+01 0.94527502067E+01 0.91345376298E+01 0.87257248262E+01
 0.82539367437E+01 0.77449916353E+01 0.72201372855E+01 0.66956070097E+01 0.61840478957E+01
 0.56965514194E+01 0.52439414715E+01 0.48367065265E+01 0.44839529629E+01 0.41922908953E+01
 0.39653660496E+01 0.38042197245E+01 0.37082514210E+01 0.36764203904E+01 0.37082507218E+01
 0.38042199129E+01 0.39653690820E+01 0.41922964562E+01 0.44839575637E+01 0.48367077333E+01
 0.52439422705E+01 0.56965564913E+01 0.61840565016E+01 0.66956136864E+01 0.72201388375E+01
 0.77449896526E+01 0.82539340460E+01 0.87257232025E+01 0.91345387682E+01 0.94527545726E+01
 0.96554103858E+01 0.96554103858E+01 0.98095776553E+01 0.98224257985E+01 0.96970718311E+01
 0.94480370416E+01 0.90975652305E+01 0.86708343357E+01 0.81916510167E+01 0.76799888882E+01
 0.71518842789E+01 0.66210770272E+01 0.61009773837E+01 0.56055771119E+01 0.51488056099E+01
 0.47429182638E+01 0.43970083224E+01 0.41164080403E+01 0.39030938881E+01 0.37567754673E+01
 0.36762565233E+01 0.36606377959E+01 0.37099224658E+01 0.38248324033E+01 0.40059925029E+01
 0.42529112660E+01 0.45632056251E+01 0.49323703894E+01 0.53541863562E+01 0.58214889122E+01
 0.63266170502E+01 0.68608087216E+01 0.74124052290E+01 0.79646478475E+01 0.84944187547E+01
 0.89730632926E+01 0.93695732647E+01 0.94527545726E+01 0.98224288855E+01 0.10057457524E+02
 0.10145211603E+02 0.10086500380E+02 0.98940651123E+01 0.95886469541E+01 0.91939741335E+01
 0.87324213944E+01 0.82227879478E+01 0.76806347777E+01 0.71203577604E+01 0.65573389468E+01
 0.60086629243E+01 0.54919562886E+01 0.50231429845E+01 0.46144309173E+01 0.42734153880E+01
 0.40034161401E+01 0.38046618070E+01 0.36758378603E+01 0.36155317102E+01 0.36230926863E+01
 0.36986807600E+01 0.38426694675E+01 0.40548491962E+01 0.43338774130E+01 0.46772007124E+01
 0.50813930709E+01 0.55425177852E+01 0.60558811535E+01 0.66146727170E+01 0.72076331278E+01
 0.78167004444E+01 0.84159824895E+01 0.89730632926E+01 0.91345387682E+01 0.96970740607E+01
 0.10145212842E+02 0.10451223709E+02 0.10600636289E+02 0.10593538087E+02 0.10442616782E+02
 0.10168581141E+02 0.97945610823E+01 0.93415526231E+01 0.88265307023E+01 0.82635639729E+01
 0.76667513981E+01 0.70529085746E+01 0.64422427382E+01 0.58566107302E+01 0.53164227651E+01
 0.48378357717E+01 0.44313461950E+01 0.41019563661E+01 0.38504787544E+01 0.36753622239E+01
 0.35744631634E+01 0.35462238849E+01 0.35899999252E+01 0.37057210638E+01 0.38933504631E+01
 0.41525665863E+01 0.44827938971E+01 0.48833756860E+01 0.53534109830E+01 0.58907210916E+01
 0.64897079263E+01 0.71385307904E+01 0.78167004444E+01 0.84944187547E+01 0.87257232025E+01
 0.94480367901E+01 0.10086500666E+02 0.10600635979E+02 0.10960975295E+02 0.11153264872E+02
 0.11179264114E+02 0.11053621224E+02 0.10798809269E+02 0.10437890831E+02 0.99890981547E+01
 0.94661078881E+01 0.88797985743E+01 0.82427039095E+01 0.75726115191E+01 0.68931912810E+01
 0.62314197950E+01 0.56132684962E+01 0.50597700233E+01 0.45848964957E+01 0.41955174711E+01
 0.38929198015E+01 0.36750554827E+01 0.35387560697E+01 0.34812993228E+01 0.35010635925E+01
 0.35974793791E+01 0.37707497386E+01 0.40217201022E+01 0.43519157043E+01 0.47634048242E+01
 0.52579737501E+01 0.58352321831E+01 0.64897079263E+01 0.72076331278E+01 0.79646478475E+01
 0.82539340460E+01 0.90975634409E+01 0.98940646530E+01 0.10593537452E+02 0.11153263695E+02
 0.11543970255E+02 0.11749092626E+02 0.11775412381E+02 0.11651172354E+02 0.11408467014E+02
 0.11068606084E+02 0.10637795217E+02 0.10115075553E+02 0.95072264498E+01 0.88290859154E+01
 0.80995907729E+01 0.73466874040E+01 0.66036971343E+01 0.59033532044E+01 0.52724231514E+01
 0.47287437914E+01 0.42810297212E+01 0.39307675491E+01 0.36750625286E+01 0.35094164912E+01
 0.34297457216E+01 0.34333979571E+01 0.35194052563E+01 0.36884334733E+01 0.39427514296E+01
 0.42861314161E+01 0.47232327272E+01 0.52579737501E+01 0.58907210916E+01 0.66146727170E+01
 0.74124052290E+01 0.77449896526E+01 0.86708319627E+01 0.95886464224E+01 0.10442617336E+02
 0.11179263508E+02 0.11749091212E+02 0.12109202217E+02 0.12259352616E+02 0.12237368149E+02
 0.12095735454E+02 0.11875371323E+02 0.11588290890E+02 0.11217439328E+02 0.10733981061E+02
 0.10123532595E+02 0.94062260902E+01 0.86160310911E+01 0.77869558364E+01 0.69600993148E+01
 0.61760851769E+01 0.54680396598E+01 0.48577794758E+01 0.43556225075E+01 0.39628615473E+01
 0.36753803959E+01 0.34870948789E+01 0.33924704280E+01 0.33879149881E+01 0.34723116332E+01
 0.36471272809E+01 0.39163599075E+01 0.42861314161E+01 0.47634048242E+01 0.53534109830E+01
 0.60558811535E+01 0.68608087216E+01 0.72201388375E+01 0.81916495564E+01 0.91939730512E+01
 0.10168582680E+02 0.11053623310E+02 0.11775412388E+02 0.12259351599E+02 0.12489479782E+02
 0.12510275508E+02 0.12402241067E+02 0.12244947992E+02 0.12082148062E+02 0.11904115846E+02
 0.11655867873E+02 0.11268188649E+02 0.10697342188E+02 0.99549828037E+01 0.91041400323E+01
 0.81981826320E+01 0.72874221359E+01 0.64212226082E+01 0.56393244457E+01 0.49673233990E+01
 0.44167045451E+01 0.39881111171E+01 0.36758620574E+01 0.34721273622E+01 0.33699659833E+01
 0.33650819933E+01 0.34565780551E+01 0.36471272809E+01 0.39427514296E+01 0.43519157043E+01
 0.48833756860E+01 0.55425177852E+01 0.63266170502E+01 0.66956136864E+01 0.76799911624E+01
 0.87324205769E+01 0.97945617058E+01 0.10798813002E+02 0.11651175978E+02 0.12237369314E+02
 0.12510275750E+02 0.12508145536E+02 0.12336822270E+02 0.12127523915E+02 0.11984415348E+02
 0.11942172026E+02 0.11952145027E+02 0.11904575250E+02 0.11677949844E+02 0.11194068296E+02
 0.10455283978E+02 0.95471416182E+01 0.85654570741E+01 0.75733904374E+01 0.66294505091E+01
 0.57798088574E+01 0.50533253632E+01 0.44620687585E+01 0.40055594570E+01 0.36762847371E+01
 0.34646334041E+01 0.33624463577E+01 0.33650819933E+01 0.34723116332E+01 0.36884334733E+01
 0.40217201022E+01 0.44827938971E+01 0.50813930709E+01 0.58214889122E+01 0.61840565016E+01
 0.71518909523E+01 0.82227902217E+01 0.93415525625E+01 0.10437893610E+02 0.11408472974E+02
 0.12095740660E+02 0.12402244286E+02 0.12336824882E+02 0.12013101941E+02 0.11611964329E+02
 0.11317973794E+02 0.11250648386E+02 0.11417521805E+02 0.11710291254E+02 0.11947543156E+02
 0.11946407838E+02 0.11593167560E+02 0.10885218557E+02 0.99301322957E+01 0.88755953591E+01
 0.78073306745E+01 0.67928612577E+01 0.58841561799E+01 0.51125524223E+01 0.44900112576E+01
 0.40144814899E+01 0.36764515518E+01 0.34646334041E+01 0.33699659833E+01 0.33879149881E+01
 0.35194052563E+01 0.37707497386E+01 0.41525665863E+01 0.46772007124E+01 0.53541863562E+01
 0.56965564913E+01 0.66210837641E+01 0.76806408183E+01 0.88265327891E+01 0.99890997283E+01
 0.11068611910E+02 0.11875379658E+02 0.12244955025E+02 0.12127530338E+02 0.11611970365E+02
 0.10905863613E+02 0.10273558602E+02 0.99482896277E+01 0.10048154167E+02 0.10530229175E+02
 0.11204629642E+02 0.11804251208E+02 0.12080965411E+02 0.11889730945E+02 0.11231015340E+02
 0.10240655965E+02 0.91177381064E+01 0.79806573499E+01 0.69052997896E+01 0.59483965748E+01
 0.51427467613E+01 0.44994495194E+01 0.40144814899E+01 0.36762847371E+01 0.34721273622E+01
 0.33924704280E+01 0.34333979571E+01 0.35974793791E+01 0.38933504631E+01 0.43338774130E+01
 0.49323703894E+01 0.52439422705E+01 0.61009793065E+01 0.71203638171E+01 0.82635695737E+01
 0.94661105404E+01 0.10637800014E+02 0.11588300738E+02 0.12082158704E+02 0.11984424381E+02
 0.11317984213E+02 0.10273568446E+02 0.91662928319E+01 0.83447663735E+01 0.80774655031E+01
 0.84571404398E+01 0.93641878702E+01 0.10507461203E+02 0.11526101341E+02 0.12109826024E+02
 0.12092089497E+02 0.11487550663E+02 0.10468633898E+02 0.92836865696E+01 0.80871495134E+01
 0.69625769474E+01 0.59700852489E+01 0.51427467613E+01 0.44900112576E+01 0.40055594570E+01
 0.36758620574E+01 0.34870948789E+01 0.34297457216E+01 0.35010635925E+01 0.37057210638E+01
 0.40548491962E+01 0.45632056251E+01 0.48367077333E+01 0.56055753490E+01 0.65573413056E+01
 0.76667584394E+01 0.88798041152E+01 0.10115079866E+02 0.11217448763E+02 0.11904129928E+02
 0.11942184295E+02 0.11250659126E+02 0.99483036902E+01 0.83447790533E+01 0.68685510250E+01
 0.59435317563E+01 0.58508890356E+01 0.66289805266E+01 0.80562226920E+01 0.97267805260E+01
 0.11186662375E+02 0.12074396888E+02 0.12216782916E+02 0.11655599771E+02 0.10607480651E+02
 0.93680075083E+01 0.81230626854E+01 0.69625769474E+01 0.59483965748E+01 0.51125524223E+01
 0.44620687585E+01 0.39881111171E+01 0.36753803959E+01 0.35094164912E+01 0.34812993228E+01
 0.35899999252E+01 0.38426694675E+01 0.42529112660E+01 0.44839575637E+01 0.51488063810E+01
 0.60086628001E+01 0.70529145013E+01 0.82427124687E+01 0.95072317923E+01 0.10733987729E+02
 0.11655882244E+02 0.11952162159E+02 0.11417534274E+02 0.10048165511E+02 0.80774811202E+01
 0.59435446001E+01 0.41836103727E+01 0.32770093234E+01 0.34873578640E+01 0.47683298358E+01
 0.67767232439E+01 0.89885143795E+01 0.10867416870E+02 0.12019142066E+02 0.12282163774E+02
 0.11738366378E+02 0.10654058699E+02 0.93680075083E+01 0.80871495134E+01 0.69052997896E+01
 0.58841561799E+01 0.50533253632E+01 0.44167045451E+01 0.39628615473E+01 0.36750625286E+01
 0.35387560697E+01 0.35462238849E+01 0.36986807600E+01 0.40059925029E+01 0.41922964562E+01
 0.47429252872E+01 0.54919586168E+01 0.64422470994E+01 0.75726218326E+01 0.88290947354E+01
 0.10123536855E+02 0.11268197456E+02 0.11904593106E+02 0.11710308840E+02 0.10530239853E+02
 0.84571503475E+01 0.58509022841E+01 0.32770183071E+01 0.13648042383E+01 0.61889519020E+00
 0.12509795139E+01 0.31036600857E+01 0.57026891648E+01 0.84146141824E+01 0.10641762754E+02
 0.11981057942E+02 0.12302224127E+02 0.11738366378E+02 0.10607480651E+02 0.92836865696E+01
 0.79806573499E+01 0.67928612577E+01 0.57798088574E+01 0.49673233990E+01 0.43556225075E+01
 0.39307675491E+01 0.36750554827E+01 0.35744631634E+01 0.36230926863E+01 0.38248324033E+01
 0.39653690820E+01 0.43970192375E+01 0.50231512490E+01 0.58566154673E+01 0.68932009734E+01
 0.80996038149E+01 0.94062326042E+01 0.10697344021E+02 0.11677959400E+02 0.11947561257E+02
 0.11204644179E+02 0.93641945079E+01 0.66289860955E+01 0.34873636239E+01 0.61889603108E+00
 -.12839074385E+01 -.17284097710E+01 -.58814433799E+00 0.18511555483E+01 0.49881270526E+01
 0.81012198903E+01 0.10560500621E+02 0.11981057942E+02 0.12282163774E+02 0.11655599771E+02
 0.10468633898E+02 0.91177381064E+01 0.78073306745E+01 0.66294505091E+01 0.56393244457E+01
 0.48577794758E+01 0.42810297212E+01 0.38929198015E+01 0.36753622239E+01 0.36155317102E+01
 0.37099224658E+01 0.38042199129E+01 0.41164175185E+01 0.46144442593E+01 0.53164309663E+01
 0.62314273633E+01 0.73467010622E+01 0.86160431658E+01 0.99549840237E+01 0.11194066513E+02
 0.11946415850E+02 0.11804265208E+02 0.10507468895E+02 0.80562229373E+01 0.47683276833E+01
 0.12509730576E+01 -.17284199614E+01 -.34525959582E+01 -.34803872799E+01 -.17971048469E+01
 0.11789805940E+01 0.47376063430E+01 0.81012198903E+01 0.10641762754E+02 0.12019142066E+02
 0.12216782916E+02 0.11487550663E+02 0.10240655965E+02 0.88755953591E+01 0.75733904374E+01
 0.64212226082E+01 0.54680396598E+01 0.47287437914E+01 0.41955174711E+01 0.38504787544E+01
 0.36758378603E+01 0.36606377959E+01 0.37082507218E+01 0.39030980394E+01 0.42734293421E+01
 0.48378500315E+01 0.56132769063E+01 0.66037070336E+01 0.77869696665E+01 0.91041462412E+01
 0.10455277835E+02 0.11593161822E+02 0.12080969399E+02 0.11526106712E+02 0.97267778652E+01
 0.67767148219E+01 0.31036474966E+01 -.58816507868E+00 -.34804082590E+01 -.48744885592E+01
 -.44164846813E+01 -.22185975495E+01 0.11789805940E+01 0.49881270526E+01 0.84146141824E+01
 0.10867416870E+02 0.12074396888E+02 0.12092089497E+02 0.11231015340E+02 0.99301322957E+01
 0.85654570741E+01 0.72874221359E+01 0.61760851769E+01 0.52724231514E+01 0.45848964957E+01
 0.41019563661E+01 0.38046618070E+01 0.36762565233E+01 0.36764203904E+01 0.37567742778E+01
 0.40034249932E+01 0.44313647416E+01 0.50597852522E+01 0.59033616755E+01 0.69601086711E+01
 0.81981908541E+01 0.95471378981E+01 0.10885205235E+02 0.11889722108E+02 0.12109823780E+02
 0.11186655413E+02 0.89884990068E+01 0.57026709017E+01 0.18511323397E+01 -.17971373357E+01
 -.44165123853E+01 -.53696132527E+01 -.44164846813E+01 -.17971048469E+01 0.18511555483E+01
 0.57026891648E+01 0.89885143795E+01 0.11186662375E+02 0.12109826024E+02 0.11889730945E+02
 0.10885218557E+02 0.95471416182E+01 0.81981826320E+01 0.69600993148E+01 0.59033532044E+01
 0.50597700233E+01 0.44313461950E+01 0.40034161401E+01 0.37567754673E+01 0.37082514210E+01
 0.36762542441E+01 0.38046640404E+01 0.41019732208E+01 0.45849198099E+01 0.52724379323E+01
 0.61760910793E+01 0.72874256747E+01 0.85654542008E+01 0.99301173776E+01 0.11230997391E+02
 0.12092078904E+02 0.12074386865E+02 0.10867396094E+02 0.84145865009E+01 0.49881005454E+01
 0.11789505284E+01 -.22186346173E+01 -.44165123853E+01 -.48744885592E+01 -.34803872799E+01
 -.58814433799E+00 0.31036600857E+01 0.67767232439E+01 0.97267805260E+01 0.11526101341E+02
 0.12080965411E+02 0.11593167560E+02 0.10455283978E+02 0.91041400323E+01 0.77869558364E+01
 0.66036971343E+01 0.56132684962E+01 0.48378357717E+01 0.42734153880E+01 0.39030938881E+01
 0.38042197245E+01 0.36606395430E+01 0.36758393160E+01 0.38504908906E+01 0.41955436275E+01
 0.47287687806E+01 0.54680501756E+01 0.64212217210E+01 0.75733833883E+01 0.88755787872E+01
 0.10240631675E+02 0.11487531264E+02 0.12216771430E+02 0.12019124284E+02 0.10641730670E+02
 0.81011844015E+01 0.47375765724E+01 0.11789505284E+01 -.17971373357E+01 -.34804082590E+01
 -.34525959582E+01 -.17284097710E+01 0.12509795139E+01 0.47683298358E+01 0.80562226920E+01
 0.10507461203E+02 0.11804251208E+02 0.11946407838E+02 0.11194068296E+02 0.99549828037E+01
 0.86160310911E+01 0.73466874040E+01 0.62314197950E+01 0.53164227651E+01 0.46144309173E+01
 0.41164080403E+01 0.39653660496E+01 0.37099287313E+01 0.36155399019E+01 0.36753738311E+01
 0.38929434797E+01 0.42810606386E+01 0.48577997661E+01 0.56393261922E+01 0.66294399793E+01
 0.78073113208E+01 0.91177089349E+01 0.10468603460E+02 0.11655580859E+02 0.12282151658E+02
 0.11981035135E+02 0.10560464111E+02 0.81011844015E+01 0.49881005454E+01 0.18511323397E+01
 -.58816507868E+00 -.17284199614E+01 -.12839074385E+01 0.61889519020E+00 0.34873578640E+01
 0.66289805266E+01 0.93641878702E+01 0.11204629642E+02 0.11947543156E+02 0.11677949844E+02
 0.10697342188E+02 0.94062260902E+01 0.80995907729E+01 0.68931912810E+01 0.58566107302E+01
 0.50231429845E+01 0.43970083224E+01 0.41922908953E+01 0.38248380726E+01 0.36231075517E+01
 0.35744803123E+01 0.36750777163E+01 0.39307981881E+01 0.43556503226E+01 0.49673331577E+01
 0.57797998876E+01 0.67928411273E+01 0.79806273230E+01 0.92836482665E+01 0.10607447039E+02
 0.11738348181E+02 0.12302211728E+02 0.11981035135E+02 0.10641730670E+02 0.84145865009E+01
 0.57026709017E+01 0.31036474966E+01 0.12509730576E+01 0.61889603108E+00 0.13648042383E+01
 0.32770093234E+01 0.58508890356E+01 0.84571404398E+01 0.10530229175E+02 0.11710291254E+02
 0.11904575250E+02 0.11268188649E+02 0.10123532595E+02 0.88290859154E+01 0.75726115191E+01
 0.64422427382E+01 0.54919562886E+01 0.47429182638E+01 0.44839529629E+01 0.40059933332E+01
 0.36986943390E+01 0.35462454102E+01 0.35387801327E+01 0.36750913730E+01 0.39628923815E+01
 0.44167234590E+01 0.50533230442E+01 0.58841380270E+01 0.69052725113E+01 0.80871124858E+01
 0.93679644960E+01 0.10654024140E+02 0.11738348181E+02 0.12282151658E+02 0.12019124284E+02
 0.10867396094E+02 0.89884990068E+01 0.67767148219E+01 0.47683276833E+01 0.34873636239E+01
 0.32770183071E+01 0.41836103727E+01 0.59435317563E+01 0.80774655031E+01 0.10048154167E+02
 0.11417521805E+02 0.11952145027E+02 0.11655867873E+02 0.10733981061E+02 0.95072264498E+01
 0.82427039095E+01 0.70529085746E+01 0.60086629243E+01 0.51488056099E+01 0.48367065265E+01
 0.42529081718E+01 0.38426746407E+01 0.35900172079E+01 0.34813231080E+01 0.35094437796E+01
 0.36754114185E+01 0.39881378603E+01 0.44620776678E+01 0.51125405965E+01 0.59483727453E+01
 0.69625460138E+01 0.81230232371E+01 0.93679644960E+01 0.10607447039E+02 0.11655580859E+02
 0.12216771430E+02 0.12074386865E+02 0.11186655413E+02 0.97267778652E+01 0.80562229373E+01
 0.66289860955E+01 0.58509022841E+01 0.59435446001E+01 0.68685510250E+01 0.83447663735E+01
 0.99482896277E+01 0.11250648386E+02 0.11942172026E+02 0.11904115846E+02 0.11217439328E+02
 0.10115075553E+02 0.88797985743E+01 0.76667513981E+01 0.65573389468E+01 0.56055771119E+01
 0.52439414715E+01 0.45632009305E+01 0.40548452421E+01 0.37057269206E+01 0.35010801536E+01
 0.34297687849E+01 0.34871232827E+01 0.36758930530E+01 0.40055814631E+01 0.44900129131E+01
 0.51427299554E+01 0.59700595671E+01 0.69625460138E+01 0.80871124858E+01 0.92836482665E+01
 0.10468603460E+02 0.11487531264E+02 0.12092078904E+02 0.12109823780E+02 0.11526106712E+02
 0.10507468895E+02 0.93641945079E+01 0.84571503475E+01 0.80774811202E+01 0.83447790533E+01
 0.91662928319E+01 0.10273558602E+02 0.11317973794E+02 0.11984415348E+02 0.12082148062E+02
 0.11588290890E+02 0.10637795217E+02 0.94661078881E+01 0.82635639729E+01 0.71203577604E+01
 0.61009773837E+01 0.56965514194E+01 0.49323635667E+01 0.43338673602E+01 0.38933442312E+01
 0.35974837042E+01 0.34334122384E+01 0.33924924068E+01 0.34721564306E+01 0.36763153077E+01
 0.40145006109E+01 0.44994485908E+01 0.51427299554E+01 0.59483727453E+01 0.69052725113E+01
 0.79806273230E+01 0.91177089349E+01 0.10240631675E+02 0.11230997391E+02 0.11889722108E+02
 0.12080969399E+02 0.11804265208E+02 0.11204644179E+02 0.10530239853E+02 0.10048165511E+02
 0.99483036902E+01 0.10273568446E+02 0.10905863613E+02 0.11611964329E+02 0.12127523915E+02
 0.12244947992E+02 0.11875371323E+02 0.11068606084E+02 0.99890981547E+01 0.88265307023E+01
 0.76806347777E+01 0.66210770272E+01 0.61840478957E+01 0.53541763278E+01 0.46771871106E+01
 0.41525518166E+01 0.37707416151E+01 0.35194081209E+01 0.33879277489E+01 0.33699876221E+01
 0.34646629953E+01 0.36764819503E+01 0.40145006109E+01 0.44900129131E+01 0.51125405965E+01
 0.58841380270E+01 0.67928411273E+01 0.78073113208E+01 0.88755787872E+01 0.99301173776E+01
 0.10885205235E+02 0.11593161822E+02 0.11946415850E+02 0.11947561257E+02 0.11710308840E+02
 0.11417534274E+02 0.11250659126E+02 0.11317984213E+02 0.11611970365E+02 0.12013101941E+02
 0.12336822270E+02 0.12402241067E+02 0.12095735454E+02 0.11408467014E+02 0.10437890831E+02
 0.93415526231E+01 0.82227879478E+01 0.71518842789E+01 0.66956070097E+01 0.58214787841E+01
 0.50813787946E+01 0.44827754211E+01 0.40217028223E+01 0.36884246954E+01 0.34723139832E+01
 0.33650942722E+01 0.33624680150E+01 0.34646629953E+01 0.36763153077E+01 0.40055814631E+01
 0.44620776678E+01 0.50533230442E+01 0.57797998876E+01 0.66294399793E+01 0.75733833883E+01
 0.85654542008E+01 0.95471378981E+01 0.10455277835E+02 0.11194066513E+02 0.11677959400E+02
 0.11904593106E+02 0.11952162159E+02 0.11942184295E+02 0.11984424381E+02 0.12127530338E+02
 0.12336824882E+02 0.12508145536E+02 0.12510275508E+02 0.12237368149E+02 0.11651172354E+02
 0.10798809269E+02 0.97945610823E+01 0.87324213944E+01 0.76799888882E+01 0.72201372855E+01
 0.63266113669E+01 0.55425073010E+01 0.48833590277E+01 0.43518948847E+01 0.39427334590E+01
 0.36471185768E+01 0.34565803684E+01 0.33650942722E+01 0.33699876221E+01 0.34721564306E+01
 0.36758930530E+01 0.39881378603E+01 0.44167234590E+01 0.49673331577E+01 0.56393261922E+01
 0.64212217210E+01 0.72874256747E+01 0.81981908541E+01 0.91041462412E+01 0.99549840237E+01
 0.10697344021E+02 0.11268197456E+02 0.11655882244E+02 0.11904129928E+02 0.12082158704E+02
 0.12244955025E+02 0.12402244286E+02 0.12510275750E+02 0.12489479782E+02 0.12259352616E+02
 0.11775412381E+02 0.11053621224E+02 0.10168581141E+02 0.91939741335E+01 0.81916510167E+01
 0.77449916353E+01 0.68608081670E+01 0.60558768753E+01 0.53534009104E+01 0.47633872963E+01
 0.42861098802E+01 0.39163418916E+01 0.36471185768E+01 0.34723139832E+01 0.33879277489E+01
 0.33924924068E+01 0.34871232827E+01 0.36754114185E+01 0.39628923815E+01 0.43556503226E+01
 0.48577997661E+01 0.54680501756E+01 0.61760910793E+01 0.69601086711E+01 0.77869696665E+01
 0.86160431658E+01 0.94062326042E+01 0.10123536855E+02 0.10733987729E+02 0.11217448763E+02
 0.11588300738E+02 0.11875379658E+02 0.12095740660E+02 0.12237369314E+02 0.12259351599E+02
 0.12109202217E+02 0.11749092626E+02 0.11179264114E+02 0.10442616782E+02 0.95886469541E+01
 0.86708343357E+01 0.82539367437E+01 0.74124070404E+01 0.66146726567E+01 0.58907177776E+01
 0.52579640679E+01 0.47232150308E+01 0.42861098802E+01 0.39427334590E+01 0.36884246954E+01
 0.35194081209E+01 0.34334122384E+01 0.34297687849E+01 0.35094437796E+01 0.36750913730E+01
 0.39307981881E+01 0.42810606386E+01 0.47287687806E+01 0.52724379323E+01 0.59033616755E+01
 0.66037070336E+01 0.73467010622E+01 0.80996038149E+01 0.88290947354E+01 0.95072317923E+01
 0.10115079866E+02 0.10637800014E+02 0.11068611910E+02 0.11408472974E+02 0.11651175978E+02
 0.11775412388E+02 0.11749091212E+02 0.11543970255E+02 0.11153264872E+02 0.10593538087E+02
 0.98940651123E+01 0.90975652305E+01 0.87257248262E+01 0.79646497343E+01 0.72076341466E+01
 0.64897078689E+01 0.58352291652E+01 0.52579640679E+01 0.47633872963E+01 0.43518948847E+01
 0.40217028223E+01 0.37707416151E+01 0.35974837042E+01 0.35010801536E+01 0.34813231080E+01
 0.35387801327E+01 0.36750777163E+01 0.38929434797E+01 0.41955436275E+01 0.45849198099E+01
 0.50597852522E+01 0.56132769063E+01 0.62314273633E+01 0.68932009734E+01 0.75726218326E+01
 0.82427124687E+01 0.88798041152E+01 0.94661105404E+01 0.99890997283E+01 0.10437893610E+02
 0.10798813002E+02 0.11053623310E+02 0.11179263508E+02 0.11153263695E+02 0.10960975295E+02
 0.10600636289E+02 0.10086500380E+02 0.94480370416E+01 0.91345376298E+01 0.84944192841E+01
 0.78167013074E+01 0.71385313413E+01 0.64897078689E+01 0.58907177776E+01 0.53534009104E+01
 0.48833590277E+01 0.44827754211E+01 0.41525518166E+01 0.38933442312E+01 0.37057269206E+01
 0.35900172079E+01 0.35462454102E+01 0.35744803123E+01 0.36753738311E+01 0.38504908906E+01
 0.41019732208E+01 0.44313647416E+01 0.48378500315E+01 0.53164309663E+01 0.58566154673E+01
 0.64422470994E+01 0.70529145013E+01 0.76667584394E+01 0.82635695737E+01 0.88265327891E+01
 0.93415525625E+01 0.97945617058E+01 0.10168582680E+02 0.10442617336E+02 0.10593537452E+02
 0.10600635979E+02 0.10451223709E+02 0.10145211603E+02 0.96970718311E+01 0.94527502067E+01
 0.89730608011E+01 0.84159824005E+01 0.78167013074E+01 0.72076341466E+01 0.66146726567E+01
 0.60558768753E+01 0.55425073010E+01 0.50813787946E+01 0.46771871106E+01 0.43338673602E+01
 0.40548452421E+01 0.38426746407E+01 0.36986943390E+01 0.36231075517E+01 0.36155399019E+01
 0.36758393160E+01 0.38046640404E+01 0.40034249932E+01 0.42734293421E+01 0.46144442593E+01
 0.50231512490E+01 0.54919586168E+01 0.60086628001E+01 0.65573413056E+01 0.71203638171E+01
 0.76806408183E+01 0.82227902217E+01 0.87324205769E+01 0.91939730512E+01 0.95886464224E+01
 0.98940646530E+01 0.10086500666E+02 0.10145212842E+02 0.10057457524E+02 0.98224257985E+01
 0.96554060008E+01 0.93695679503E+01 0.89730608011E+01 0.84944192841E+01 0.79646497343E+01
 0.74124070404E+01 0.68608081670E+01 0.63266113669E+01 0.58214787841E+01 0.53541763278E+01
 0.49323635667E+01 0.45632009305E+01 0.42529081718E+01 0.40059933332E+01 0.38248380726E+01
 0.37099287313E+01 0.36606395430E+01 0.36762542441E+01 0.37567742778E+01 0.39030980394E+01
 0.41164175185E+01 0.43970192375E+01 0.47429252872E+01 0.51488063810E+01 0.56055753490E+01
 0.61009793065E+01 0.66210837641E+01 0.71518909523E+01 0.76799911624E+01 0.81916495564E+01
 0.86708319627E+01 0.90975634409E+01 0.94480367901E+01 0.96970740607E+01 0.98224288855E+01
 0.98095776553E+01 0.96554107715E+01 0.95456180724E+01 0.93159172165E+01 0.89839075850E+01
 0.85739426522E+01 0.81126482973E+01 0.76246578956E+01 0.71298549680E+01 0.66428104280E+01
 0.61741289308E+01 0.57325690420E+01 0.53266118758E+01 0.49647547763E+01 0.46547409782E+01
 0.44025214276E+01 0.42116702574E+01 0.40835334136E+01 0.40179847519E+01 0.40144564388E+01
 0.40727901752E+01 0.41934957704E+01 0.43772699869E+01 0.46239469426E+01 0.49312958838E+01
 0.52940998859E+01 0.57039069905E+01 0.61497155127E+01 0.66194093194E+01 0.71011640194E+01
 0.75838167852E+01 0.80557456402E+01 0.85028459851E+01 0.89069633221E+01 0.92460729847E+01
 0.94966723815E+01 0.96378037092E+01 0.95456215181E+01 0.96554102849E+01 0.96377997560E+01
 0.94966687024E+01 0.92460720550E+01 0.89069643317E+01 0.85028469066E+01 0.80557457253E+01
 0.75838166547E+01 0.71011651722E+01 0.66194146122E+01 0.61497280144E+01 0.57039257443E+01
 0.52941173334E+01 0.49313025268E+01 0.46239413099E+01 0.43772614568E+01 0.41934944990E+01
 0.40727962318E+01 0.40144622380E+01 0.40179866788E+01 0.40835353198E+01 0.42116750107E+01
 0.44025240113E+01 0.46547345173E+01 0.49647405244E+01 0.53265980635E+01 0.57325613396E+01
 0.61741264745E+01 0.66428099816E+01 0.71298549471E+01 0.76246576916E+01 0.81126471550E+01
 0.85739413285E+01 0.89839085216E+01 0.93159210226E+01 0.92997387262E+01 0.96211965842E+01
 0.98224287069E+01 0.98924258937E+01 0.98319603401E+01 0.96523484999E+01 0.93720523741E+01
 0.90122494859E+01 0.85929154398E+01 0.81307607336E+01 0.76394969572E+01 0.71317431306E+01
 0.66210694367E+01 0.61227544749E+01 0.56527984796E+01 0.52258846881E+01 0.48534941477E+01
 0.45430115119E+01 0.42979614303E+01 0.41190480170E+01 0.40055455003E+01 0.39565770659E+01
 0.39718260367E+01 0.40514927635E+01 0.41956679408E+01 0.44035371148E+01 0.46728407194E+01
 0.49998399431E+01 0.53797968229E+01 0.58076051541E+01 0.62778965089E+01 0.67840363592E+01
 0.73160617334E+01 0.78584357728E+01 0.83889149624E+01 0.88795190703E+01 0.89371096248E+01
 0.94478596278E+01 0.98589286961E+01 0.10145213379E+02 0.10292932852E+02 0.10300902067E+02
 0.10178994130E+02 0.99443119265E+01 0.96164276718E+01 0.92134659359E+01 0.87504487790E+01
 0.82402225829E+01 0.76959601474E+01 0.71334340451E+01 0.65715138628E+01 0.60305433366E+01
 0.55295492199E+01 0.50837381509E+01 0.47032391378E+01 0.43932399483E+01 0.41551286478E+01
 0.39881028990E+01 0.38907303386E+01 0.38619542509E+01 0.39013252994E+01 0.40086374654E+01
 0.41833888773E+01 0.44244661371E+01 0.47302125330E+01 0.50987528330E+01 0.55281364883E+01
 0.60157135805E+01 0.65564036175E+01 0.71401619108E+01 0.77496468939E+01 0.83593567414E+01
 0.84848317369E+01 0.91517365576E+01 0.97496849203E+01 0.10241916190E+02 0.10600639249E+02
 0.10810862729E+02 0.10871305095E+02 0.10792129703E+02 0.10590263192E+02 0.10284039999E+02
 0.98892943167E+01 0.94183955113E+01 0.88822639514E+01 0.82938635643E+01 0.76709310900E+01
 0.70362372179E+01 0.64151859062E+01 0.58320375625E+01 0.53065403228E+01 0.48521288114E+01
 0.44758874029E+01 0.41798350760E+01 0.39628632259E+01 0.38226769134E+01 0.37571725252E+01
 0.37650016044E+01 0.38455053277E+01 0.39984381773E+01 0.42238430887E+01 0.45221447740E+01
 0.48942153207E+01 0.53409325361E+01 0.58617748419E+01 0.64523711440E+01 0.71015493283E+01
 0.77890027704E+01 0.79728506279E+01 0.87570020006E+01 0.95089410780E+01 0.10183644736E+02
 0.10741273041E+02 0.11153271245E+02 0.11405830082E+02 0.11498469675E+02 0.11444570160E+02
 0.11264966616E+02 0.10976640288E+02 0.10588677279E+02 0.10107465732E+02 0.95421821688E+01
 0.89049562621E+01 0.82154743289E+01 0.75010460039E+01 0.67931333119E+01 0.61222638955E+01
 0.55135233044E+01 0.49840617874E+01 0.45428818936E+01 0.41923832023E+01 0.39307823512E+01
 0.37545592689E+01 0.36602848055E+01 0.36455628117E+01 0.37092757408E+01 0.38515408789E+01
 0.40736997563E+01 0.43783228154E+01 0.47688882607E+01 0.52486499244E+01 0.58184036938E+01
 0.64733381761E+01 0.71997470479E+01 0.74293218456E+01 0.82909311069E+01 0.91590815582E+01
 0.99840824641E+01 0.10716727569E+02 0.11316094236E+02 0.11749101550E+02 0.11999318775E+02
 0.12082218383E+02 0.12030120280E+02 0.11871770641E+02 0.11618128389E+02 0.11261316598E+02
 0.10787289541E+02 0.10195600015E+02 0.95074749094E+01 0.87476193175E+01 0.79489242355E+01
 0.71501059079E+01 0.63889773953E+01 0.56965814755E+01 0.50939387609E+01 0.45917525809E+01
 0.41923873982E+01 0.38929438396E+01 0.36883327364E+01 0.35736142204E+01 0.35453386806E+01
 0.36020801272E+01 0.37445600052E+01 0.39756451916E+01 0.43001304067E+01 0.47238844468E+01
 0.52519101251E+01 0.58852276108E+01 0.66170553278E+01 0.68775696031E+01 0.77795350114E+01
 0.87258231847E+01 0.96653452458E+01 0.10542301850E+02 0.11303322296E+02 0.11887318545E+02
 0.12259361359E+02 0.12435328825E+02 0.12465362112E+02 0.12405141765E+02 0.12287680814E+02
 0.12108264566E+02 0.11829852232E+02 0.11406832637E+02 0.10816014138E+02 0.10079572381E+02
 0.92476423636E+01 0.83627353644E+01 0.74720510558E+01 0.66215024708E+01 0.58483952722E+01
 0.51774661168E+01 0.46206794794E+01 0.41798429872E+01 0.38505023498E+01 0.36257373963E+01
 0.34990498107E+01 0.34660863631E+01 0.35254024604E+01 0.36786599975E+01 0.39305159830E+01
 0.42880302297E+01 0.47591126289E+01 0.53496342735E+01 0.60593696001E+01 0.63352934250E+01
 0.72448531151E+01 0.82338844345E+01 0.92527276788E+01 0.10241600316E+02 0.11135502735E+02
 0.11842449401E+02 0.12298537388E+02 0.12510282010E+02 0.12544227367E+02 0.12494278469E+02
 0.12439232521E+02 0.12407511782E+02 0.12364579445E+02 0.12229474701E+02 0.11913742948E+02
 0.11365658863E+02 0.10600330351E+02 0.96967484032E+01 0.87263529273E+01 0.77461001906E+01
 0.68104519896E+01 0.59628858638E+01 0.52313901344E+01 0.46285750342E+01 0.41551320151E+01
 0.38046775809E+01 0.35683302367E+01 0.34381420588E+01 0.34091520061E+01 0.34802909513E+01
 0.36545519265E+01 0.39386355649E+01 0.43418109486E+01 0.48734616823E+01 0.55390948504E+01
 0.58156997997E+01 0.67044466085E+01 0.77044541437E+01 0.87701227519E+01 0.98403339396E+01
 0.10842549858E+02 0.11656996760E+02 0.12176610085E+02 0.12380115190E+02 0.12336827816E+02