<?xml version="1.0" encoding="ISO-8859-1"?>
<modeling>
 <generator>
  <i name="program" type="string">vasp </i>
  <i name="version" type="string">5.4.4.18Apr17-6-g9f103f2a35  </i>
  <i name="subversion" type="string">(build Dec 09 2018 21:25:21) complex            parallel </i>
  <i name="platform" type="string">IFC18.0.1.163_CrayMPICH7.7.0_MKL18.0.1.163 </i>
  <i name="date" type="string">2019 03 23 </i>
  <i name="time" type="string">21:09:59 </i>
 </generator>
 <incar>
  <i type="string" name="PREC">normal</i>
  <i type="int" name="IBRION">     2</i>
  <i name="EDIFF">      0.00040000</i>
  <i name="EDIFFG">     -0.01000000</i>
  <i type="int" name="NSW">    15</i>
  <i type="int" name="ISIF">     2</i>
  <i name="ENCUT">    350.00000000</i>
  <i type="int" name="NBANDS">     8</i>
  <i type="logical" name="LREAL"> F  </i>
  <i type="int" name="ISMEAR">     0</i>
  <i name="SIGMA">      0.20000000</i>
  <v type="int" name="KPOINT_BSE">    -1     0     0     0</v>
 </incar>
 <structure name="primitive_cell" >
  <crystal>
   <varray name="basis" >
    <v>      -2.42815500       2.42815500       1.33735200 </v>
    <v>       2.42815500      -2.42815500       1.33735200 </v>
    <v>       2.42815500       2.42815500      -1.33735200 </v>
   </varray>
   <i name="volume">     31.53977097 </i>
   <varray name="rec_basis" >
    <v>      -0.00000000       0.20591766       0.37387315 </v>
    <v>       0.20591766      -0.00000000       0.37387315 </v>
    <v>       0.20591766       0.20591766       0.00000000 </v>
   </varray>
  </crystal>
  <varray name="positions" >
   <v>      -0.25000000       0.25000000      -0.50000000 </v>
   <v>      -0.50000000      -0.50000000       0.00000000 </v>
  </varray>
 </structure>
 <varray name="primitive_index" >
  <v type="int" >        1 </v>
  <v type="int" >        2 </v>
 </varray>
 <kpoints>
  <generation param="Monkhorst-Pack">
   <v type="int" name="divisions">       8        8        8 </v>
   <v name="usershift">      0.00000000       0.00000000       0.00000000 </v>
   <v name="genvec1">      0.12500000      -0.00000000       0.00000000 </v>
   <v name="genvec2">     -0.00000000       0.12500000       0.00000000 </v>
   <v name="genvec3">     -0.00000000       0.00000000       0.12500000 </v>
   <v name="shift">      0.50000000       0.50000000       0.50000000 </v>
  </generation>
  <varray name="kpointlist" >
   <v>       0.06250000       0.06250000       0.06250000 </v>
   <v>       0.18750000       0.06250000       0.06250000 </v>
   <v>       0.31250000       0.06250000       0.06250000 </v>
   <v>       0.43750000       0.06250000       0.06250000 </v>
   <v>      -0.06250000       0.06250000       0.06250000 </v>
   <v>       0.18750000       0.18750000       0.06250000 </v>
   <v>       0.31250000       0.18750000       0.06250000 </v>
   <v>       0.43750000       0.18750000       0.06250000 </v>
   <v>      -0.43750000       0.18750000       0.06250000 </v>
   <v>      -0.31250000       0.18750000       0.06250000 </v>
   <v>      -0.18750000       0.18750000       0.06250000 </v>
   <v>      -0.06250000       0.18750000       0.06250000 </v>
   <v>       0.31250000       0.31250000       0.06250000 </v>
   <v>       0.43750000       0.31250000       0.06250000 </v>
   <v>      -0.43750000       0.31250000       0.06250000 </v>
   <v>      -0.31250000       0.31250000       0.06250000 </v>
   <v>      -0.18750000       0.31250000       0.06250000 </v>
   <v>      -0.06250000       0.31250000       0.06250000 </v>
   <v>       0.43750000       0.43750000       0.06250000 </v>
   <v>      -0.43750000       0.43750000       0.06250000 </v>
   <v>      -0.31250000       0.43750000       0.06250000 </v>
   <v>      -0.18750000       0.43750000       0.06250000 </v>
   <v>      -0.06250000       0.43750000       0.06250000 </v>
   <v>      -0.43750000      -0.43750000       0.06250000 </v>
   <v>      -0.31250000      -0.43750000       0.06250000 </v>
   <v>      -0.18750000      -0.43750000       0.06250000 </v>
   <v>      -0.06250000      -0.43750000       0.06250000 </v>
   <v>      -0.31250000      -0.31250000       0.06250000 </v>
   <v>      -0.18750000      -0.31250000       0.06250000 </v>
   <v>      -0.06250000      -0.31250000       0.06250000 </v>
   <v>      -0.18750000      -0.18750000       0.06250000 </v>
   <v>      -0.06250000      -0.18750000       0.06250000 </v>
   <v>      -0.06250000      -0.06250000       0.06250000 </v>
   <v>       0.18750000       0.18750000       0.18750000 </v>
   <v>       0.31250000       0.18750000       0.18750000 </v>
   <v>      -0.18750000       0.18750000       0.18750000 </v>
   <v>       0.31250000       0.31250000       0.18750000 </v>
   <v>      -0.31250000       0.31250000       0.18750000 </v>
   <v>      -0.18750000       0.31250000       0.18750000 </v>
   <v>      -0.43750000       0.43750000       0.18750000 </v>
   <v>      -0.31250000       0.43750000       0.18750000 </v>
   <v>      -0.18750000       0.43750000       0.18750000 </v>
   <v>      -0.43750000      -0.43750000       0.18750000 </v>
   <v>      -0.31250000      -0.43750000       0.18750000 </v>
   <v>      -0.18750000      -0.43750000       0.18750000 </v>
   <v>      -0.31250000      -0.31250000       0.18750000 </v>
   <v>      -0.18750000      -0.31250000       0.18750000 </v>
   <v>      -0.18750000      -0.18750000       0.18750000 </v>
   <v>      -0.31250000       0.31250000       0.31250000 </v>
   <v>      -0.43750000       0.43750000       0.31250000 </v>
   <v>      -0.31250000       0.43750000       0.31250000 </v>
   <v>      -0.43750000      -0.43750000       0.31250000 </v>
   <v>      -0.31250000      -0.43750000       0.31250000 </v>
   <v>      -0.31250000      -0.31250000       0.31250000 </v>
   <v>      -0.43750000       0.43750000       0.43750000 </v>
   <v>      -0.43750000      -0.43750000       0.43750000 </v>
  </varray>
  <varray name="weights" >
   <v>       0.01562500 </v>
   <v>       0.03125000 </v>
   <v>       0.03125000 </v>
   <v>       0.01562500 </v>
   <v>       0.00781250 </v>
   <v>       0.01562500 </v>
   <v>       0.03125000 </v>
   <v>       0.03125000 </v>
   <v>       0.03125000 </v>
   <v>       0.01562500 </v>
   <v>       0.01562500 </v>
   <v>       0.01562500 </v>
   <v>       0.01562500 </v>
   <v>       0.03125000 </v>
   <v>       0.01562500 </v>
   <v>       0.01562500 </v>
   <v>       0.03125000 </v>
   <v>       0.01562500 </v>
   <v>       0.00781250 </v>
   <v>       0.01562500 </v>
   <v>       0.03125000 </v>
   <v>       0.03125000 </v>
   <v>       0.01562500 </v>
   <v>       0.01562500 </v>
   <v>       0.03125000 </v>
   <v>       0.03125000 </v>
   <v>       0.01562500 </v>
   <v>       0.01562500 </v>
   <v>       0.03125000 </v>
   <v>       0.01562500 </v>
   <v>       0.01562500 </v>
   <v>       0.01562500 </v>
   <v>       0.00390625 </v>
   <v>       0.01562500 </v>
   <v>       0.01562500 </v>
   <v>       0.00781250 </v>
   <v>       0.00781250 </v>
   <v>       0.01562500 </v>
   <v>       0.01562500 </v>
   <v>       0.01562500 </v>
   <v>       0.03125000 </v>
   <v>       0.01562500 </v>
   <v>       0.01562500 </v>
   <v>       0.03125000 </v>
   <v>       0.01562500 </v>
   <v>       0.01562500 </v>
   <v>       0.01562500 </v>
   <v>       0.00390625 </v>
   <v>       0.00781250 </v>
   <v>       0.01562500 </v>
   <v>       0.01562500 </v>
   <v>       0.01562500 </v>
   <v>       0.01562500 </v>
   <v>       0.00390625 </v>
   <v>       0.00781250 </v>
   <v>       0.00390625 </v>
  </varray>
 </kpoints>
 <parameters>
  <separator name="general" >
   <i type="string" name="SYSTEM">unknown system</i>
   <i type="logical" name="LCOMPAT"> F  </i>
  </separator>
  <separator name="electronic" >
   <i type="string" name="PREC">normal</i>
   <i name="ENMAX">    350.00000000</i>
   <i name="ENAUG">    322.06900000</i>
   <i name="EDIFF">      0.00040000</i>
   <i type="int" name="IALGO">    38</i>
   <i type="int" name="IWAVPR">    11</i>
   <i type="int" name="NBANDS">     8</i>
   <i name="NELECT">      8.00000000</i>
   <i type="int" name="TURBO">     0</i>
   <i type="int" name="IRESTART">     0</i>
   <i type="int" name="NREBOOT">     0</i>
   <i type="int" name="NMIN">     0</i>
   <i name="EREF">      0.00000000</i>
   <separator name="electronic smearing" >
    <i type="int" name="ISMEAR">     0</i>
    <i name="SIGMA">      0.20000000</i>
    <i name="KSPACING">      0.50000000</i>
    <i type="logical" name="KGAMMA"> T  </i>
   </separator>
   <separator name="electronic projectors" >
    <i type="logical" name="LREAL"> F  </i>
    <v name="ROPT">      0.00000000</v>
    <i type="int" name="LMAXPAW">  -100</i>
    <i type="int" name="LMAXMIX">     2</i>
    <i type="logical" name="NLSPLINE"> F  </i>
   </separator>
   <separator name="electronic startup" >
    <i type="int" name="ISTART">     0</i>
    <i type="int" name="ICHARG">     2</i>
    <i type="int" name="INIWAV">     1</i>
   </separator>
   <separator name="electronic spin" >
    <i type="int" name="ISPIN">     1</i>
    <i type="logical" name="LNONCOLLINEAR"> F  </i>
    <v name="MAGMOM">      1.00000000      1.00000000</v>
    <i name="NUPDOWN">     -1.00000000</i>
    <i type="logical" name="LSORBIT"> F  </i>
    <v name="SAXIS">      0.00000000      0.00000000      1.00000000</v>
    <i type="logical" name="LSPIRAL"> F  </i>
    <v name="QSPIRAL">      0.00000000      0.00000000      0.00000000</v>
    <i type="logical" name="LZEROZ"> F  </i>
   </separator>
   <separator name="electronic exchange-correlation" >
    <i type="logical" name="LASPH"> F  </i>
    <i type="logical" name="LMETAGGA"> F  </i>
   </separator>
   <separator name="electronic convergence" >
    <i type="int" name="NELM">    60</i>
    <i type="int" name="NELMDL">    -5</i>
    <i type="int" name="NELMIN">     2</i>
    <i name="ENINI">    350.00000000</i>
    <separator name="electronic convergence detail" >
     <i type="logical" name="LDIAG"> T  </i>
     <i type="logical" name="LSUBROT"> F  </i>
     <i name="WEIMIN">      0.00100000</i>
     <i name="EBREAK">      0.00001250</i>
     <i name="DEPER">      0.30000000</i>
     <i type="int" name="NRMM">     4</i>
     <i name="TIME">      0.40000000</i>
    </separator>
   </separator>
   <separator name="electronic mixer" >
    <i name="AMIX">      0.40000000</i>
    <i name="BMIX">      1.00000000</i>
    <i name="AMIN">      0.10000000</i>
    <i name="AMIX_MAG">      1.60000000</i>
    <i name="BMIX_MAG">      1.00000000</i>
    <separator name="electronic mixer details" >
     <i type="int" name="IMIX">     4</i>
     <i type="logical" name="MIXFIRST"> F  </i>
     <i type="int" name="MAXMIX">   -45</i>
     <i name="WC">    100.00000000</i>
     <i type="int" name="INIMIX">     1</i>
     <i type="int" name="MIXPRE">     1</i>
     <i type="int" name="MREMOVE">     5</i>
    </separator>
   </separator>
   <separator name="electronic dipolcorrection" >
    <i type="logical" name="LDIPOL"> F  </i>
    <i type="logical" name="LMONO"> F  </i>
    <i type="int" name="IDIPOL">     0</i>
    <i name="EPSILON">      1.00000000</i>
    <v name="DIPOL">   -100.00000000   -100.00000000   -100.00000000</v>
    <i name="EFIELD">      0.00000000</i>
   </separator>
  </separator>
  <separator name="grids" >
   <i type="int" name="NGX">    18</i>
   <i type="int" name="NGY">    18</i>
   <i type="int" name="NGZ">    18</i>
   <i type="int" name="NGXF">    36</i>
   <i type="int" name="NGYF">    36</i>
   <i type="int" name="NGZF">    36</i>
   <i type="logical" name="ADDGRID"> F  </i>
  </separator>
  <separator name="ionic" >
   <i type="int" name="NSW">    15</i>
   <i type="int" name="IBRION">     2</i>
   <i type="int" name="MDALGO">     0</i>
   <i type="int" name="ISIF">     2</i>
   <i name="PSTRESS">      0.00000000</i>
   <i name="EDIFFG">     -0.01000000</i>
   <i type="int" name="NFREE">     1</i>
   <i name="POTIM">      0.50000000</i>
   <i name="SMASS">     -3.00000000</i>
   <i name="SCALEE">      1.00000000</i>
  </separator>
  <separator name="ionic md" >
   <i name="TEBEG">      0.00010000</i>
   <i name="TEEND">      0.00010000</i>
   <i type="int" name="NBLOCK">     1</i>
   <i type="int" name="KBLOCK">    15</i>
   <i type="int" name="NPACO">   256</i>
   <i name="APACO">     16.00000000</i>
  </separator>
  <separator name="symmetry" >
   <i type="int" name="ISYM">     2</i>
   <i name="SYMPREC">      0.00001000</i>
  </separator>
  <separator name="dos" >
   <i type="int" name="LORBIT">     0</i>
   <v name="RWIGS">     -1.00000000</v>
   <i type="int" name="NEDOS">   301</i>
   <i name="EMIN">     10.00000000</i>
   <i name="EMAX">    -10.00000000</i>
   <i name="EFERMI">      0.00000000</i>
  </separator>
  <separator name="writing" >
   <i type="int" name="NWRITE">     2</i>
   <i type="logical" name="LWAVE"> T  </i>
   <i type="logical" name="LDOWNSAMPLE"> F  </i>
   <i type="logical" name="LCHARG"> T  </i>
   <i type="logical" name="LPARD"> F  </i>
   <i type="logical" name="LVTOT"> F  </i>
   <i type="logical" name="LVHAR"> F  </i>
   <i type="logical" name="LELF"> F  </i>
   <i type="logical" name="LOPTICS"> F  </i>
   <v name="STM">      0.00000000      0.00000000      0.00000000      0.00000000      0.00000000      0.00000000      0.00000000</v>
  </separator>
  <separator name="performance" >
   <i type="int" name="NPAR">     8</i>
   <i type="int" name="NSIM">     4</i>
   <i type="int" name="NBLK">    -1</i>
   <i type="logical" name="LPLANE"> T  </i>
   <i type="logical" name="LSCALAPACK"> T  </i>
   <i type="logical" name="LSCAAWARE"> F  </i>
   <i type="logical" name="LSCALU"> F  </i>
   <i type="logical" name="LASYNC"> F  </i>
   <i type="logical" name="LORBITALREAL"> F  </i>
  </separator>
  <separator name="miscellaneous" >
   <i type="int" name="IDIOT">     3</i>
   <i type="int" name="ISPECIAL">     0</i>
   <i type="logical" name="LMUSIC"> F  </i>
   <v name="POMASS">     28.08500000</v>
   <v name="DARWINR">      0.00000000</v>
   <v name="DARWINV">      1.00000000</v>
   <i type="logical" name="LCORR"> T  </i>
  </separator>
  <i type="logical" name="GGA_COMPAT"> T  </i>
  <i type="logical" name="LBERRY"> F  </i>
  <i type="int" name="ICORELEVEL">     0</i>
  <i type="logical" name="LDAU"> F  </i>
  <i type="int" name="I_CONSTRAINED_M">     0</i>
  <separator name="electronic exchange-correlation" >
   <i type="string" name="GGA">--</i>
   <i type="int" name="VOSKOWN">     0</i>
   <i type="logical" name="LHFCALC"> F  </i>
   <i type="string" name="PRECFOCK"></i>
   <i type="logical" name="LSYMGRAD"> F  </i>
   <i type="logical" name="LHFONE"> F  </i>
   <i type="logical" name="LRHFCALC"> F  </i>
   <i type="logical" name="LTHOMAS"> F  </i>
   <i type="logical" name="LMODELHF"> F  </i>
   <i name="ENCUT4O">     -1.00000000</i>
   <i type="int" name="EXXOEP">     0</i>
   <i type="int" name="FOURORBIT">     0</i>
   <i name="AEXX">      0.00000000</i>
   <i name="HFALPHA">      0.00000000</i>
   <i name="MCALPHA">      0.00000000</i>
   <i name="ALDAX">      1.00000000</i>
   <i name="AGGAX">      1.00000000</i>
   <i name="ALDAC">      1.00000000</i>
   <i name="AGGAC">      1.00000000</i>
   <i type="int" name="NKREDX">     1</i>
   <i type="int" name="NKREDY">     1</i>
   <i type="int" name="NKREDZ">     1</i>
   <i type="logical" name="SHIFTRED"> F  </i>
   <i type="logical" name="ODDONLY"> F  </i>
   <i type="logical" name="EVENONLY"> F  </i>
   <i type="int" name="LMAXFOCK">     0</i>
   <i type="int" name="NMAXFOCKAE">     0</i>
   <i type="logical" name="LFOCKAEDFT"> F  </i>
   <i name="HFSCREEN">      0.00000000</i>
   <i name="HFSCREENC">      0.00000000</i>
   <i type="int" name="NBANDSGWLOW">     0</i>
  </separator>
  <separator name="vdW DFT" >
   <i type="logical" name="LUSE_VDW"> F  </i>
   <i name="Zab_VDW">     -0.84910000</i>
   <i name="PARAM1">      0.12340000</i>
   <i name="PARAM2">      1.00000000</i>
   <i name="PARAM3">      0.00000000</i>
  </separator>
  <separator name="model GW" >
   <i type="int" name="MODEL_GW">     0</i>
   <i name="MODEL_EPS0">      9.46193129</i>
   <i name="MODEL_ALPHA">      1.00000000</i>
  </separator>
  <separator name="linear response parameters" >
   <i type="logical" name="LEPSILON"> F  </i>
   <i type="logical" name="LRPA"> F  </i>
   <i type="logical" name="LNABLA"> F  </i>
   <i type="logical" name="LVEL"> F  </i>
   <i type="int" name="KINTER">     0</i>
   <i name="CSHIFT">      0.10000000</i>
   <i name="OMEGAMAX">     -1.00000000</i>
   <i name="DEG_THRESHOLD">      0.00200000</i>
   <i name="RTIME">     -0.10000000</i>
   <i name="WPLASMAI">      0.00000000</i>
   <v name="DFIELD">      0.00000000      0.00000000      0.00000000</v>
   <v name="WPLASMA">      0.00000000      0.00000000      0.00000000      0.00000000      0.00000000      0.00000000      0.00000000      0.00000000      0.00000000</v>
  </separator>
  <separator name="orbital magnetization" >
   <i type="logical" name="NUCIND"> F  </i>
   <v name="MAGPOS">      0.00000000      0.00000000      0.00000000</v>
   <i type="logical" name="LNICSALL"> T  </i>
   <i type="logical" name="ORBITALMAG"> F  </i>
   <i type="logical" name="LMAGBLOCH"> F  </i>
   <i type="logical" name="LCHIMAG"> F  </i>
   <i type="logical" name="LGAUGE"> T  </i>
   <i type="int" name="MAGATOM">     0</i>
   <v name="MAGDIPOL">      0.00000000      0.00000000      0.00000000</v>
   <v name="AVECCONST">      0.00000000      0.00000000      0.00000000</v>
  </separator>
  <separator name="response functions" >
   <i type="logical" name="LADDER"> F  </i>
   <i type="logical" name="LRPAFORCE"> F  </i>
   <i type="logical" name="LFXC"> F  </i>
   <i type="logical" name="LHARTREE"> T  </i>
   <i type="int" name="IBSE">     0</i>
   <v type="int" name="KPOINT">    -1     0     0     0</v>
   <i type="logical" name="LTCTE"> F  </i>
   <i type="logical" name="LTETE"> F  </i>
   <i type="logical" name="LTRIPLET"> F  </i>
   <i type="logical" name="LFXCEPS"> F  </i>
   <i type="logical" name="LFXHEG"> F  </i>
   <i type="int" name="NATURALO">     2</i>
   <i type="logical" name="L2ORDER"> F  </i>
   <i type="logical" name="LMP2LT"> F  </i>
   <i type="logical" name="LUSEW"> F  </i>
   <i name="ENCUTGW">     -2.00000000</i>
   <i name="ENCUTGWSOFT">     -2.00000000</i>
   <i name="ENCUTLF">     -1.00000000</i>
   <i type="int" name="LMAXMP2">    -1</i>
   <i name="SCISSOR">      0.00000000</i>
   <i type="int" name="NOMEGA">     0</i>
   <i type="int" name="NOMEGAR">     0</i>
   <i type="int" name="NBANDSGW">    -1</i>
   <i type="int" name="NBANDSO">    -1</i>
   <i type="int" name="NBANDSV">    -1</i>
   <i type="int" name="NELM">     1</i>
   <i type="int" name="NELMHF">     1</i>
   <i type="int" name="DIM">     3</i>
   <i type="int" name="ANTIRES">     0</i>
   <i name="OMEGAMAX">    -30.00000000</i>
   <i name="OMEGAMIN">    -30.00000000</i>
   <i name="OMEGATL">   -200.00000000</i>
   <i type="int" name="OMEGAGRID">   140</i>
   <i name="CSHIFT">     -0.10000000</i>
   <i type="logical" name="SELFENERGY"> F  </i>
   <i type="logical" name="LSPECTRAL"> F  </i>
   <i type="logical" name="LSPECTRALGW"> F  </i>
   <i type="logical" name="LSINGLES"> F  </i>
   <i type="logical" name="LFERMIGW"> F  </i>
   <i type="logical" name="ODDONLYGW"> F  </i>
   <i type="logical" name="EVENONLYGW"> F  </i>
   <i type="int" name="NKREDLFX">     1</i>
   <i type="int" name="NKREDLFY">     1</i>
   <i type="int" name="NKREDLFZ">     1</i>
   <i type="int" name="MAXMEM">  2800</i>
   <i type="int" name="TELESCOPE">     0</i>
   <i type="int" name="TAUPAR">     1</i>
   <i type="int" name="OMEGAPAR">    -1</i>
   <i name="LAMBDA">      1.00000000</i>
  </separator>
  <separator name="External order field" >
   <i name="OFIELD_KAPPA">      0.00000000</i>
   <v name="OFIELD_K">      0.00000000      0.00000000      0.00000000</v>
   <i name="OFIELD_Q6_NEAR">      0.00000000</i>
   <i name="OFIELD_Q6_FAR">      0.00000000</i>
   <i name="OFIELD_A">      0.00000000</i>
  </separator>
 </parameters>
 <atominfo>
  <atoms>       2 </atoms>
  <types>       1 </types>
  <array name="atoms" >
   <dimension dim="1">ion</dimension>
   <field type="string">element</field>
   <field type="int">atomtype</field>
   <set>
    <rc><c>Si</c><c>   1</c></rc>
    <rc><c>Si</c><c>   1</c></rc>
   </set>
  </array>
  <array name="atomtypes" >
   <dimension dim="1">type</dimension>
   <field type="int">atomspertype</field>
   <field type="string">element</field>
   <field>mass</field>
   <field>valence</field>
   <field type="string">pseudopotential</field>
   <set>
    <rc><c>   2</c><c>Si</c><c>     28.08500000</c><c>      4.00000000</c><c> PAW_PBE Si 05Jan2001                   </c></rc>
   </set>
  </array>
 </atominfo>
 <structure name="initialpos" >
  <crystal>
   <varray name="basis" >
    <v>      -2.42815500       2.42815500       1.33735200 </v>
    <v>       2.42815500      -2.42815500       1.33735200 </v>
    <v>       2.42815500       2.42815500      -1.33735200 </v>
   </varray>
   <i name="volume">     31.53977097 </i>
   <varray name="rec_basis" >
    <v>      -0.00000000       0.20591766       0.37387315 </v>
    <v>       0.20591766      -0.00000000       0.37387315 </v>
    <v>       0.20591766       0.20591766       0.00000000 </v>
   </varray>
  </crystal>
  <varray name="positions" >
   <v>       0.75000000       0.25000000       0.50000000 </v>
   <v>       0.50000000       0.50000000       0.00000000 </v>
  </varray>
 </structure>
 <calculation>
  <scstep>
   <time name="dav">    0.67    0.67</time>
   <time name="total">    0.72    0.73</time>
   <energy>
    <i name="alphaZ">      4.26928635 </i>
    <i name="ewald">   -262.59725968 </i>
    <i name="hartreedc">     -2.42692130 </i>
    <i name="XCdc">    -17.97272657 </i>
    <i name="pawpsdc">     65.95520812 </i>
    <i name="pawaedc">    -30.76852678 </i>
    <i name="eentropy">     -0.00535625 </i>
    <i name="bandstr">     39.14450943 </i>
    <i name="atom">    206.13125414 </i>
    <i name="e_fr_energy">      1.72946746 </i>
    <i name="e_wo_entrp">      1.73482371 </i>
    <i name="e_0_energy">      1.73214559 </i>
   </energy>
  </scstep>
  <scstep>
   <time name="dav">    0.93    0.94</time>
   <time name="total">    0.94    0.94</time>
   <energy>
    <i name="e_fr_energy">    -10.11057354 </i>
    <i name="e_wo_entrp">    -10.09139499 </i>
    <i name="e_0_energy">    -10.10098426 </i>
   </energy>
  </scstep>
  <scstep>
   <time name="dav">    0.92    0.93</time>
   <time name="total">    0.92    0.93</time>
   <energy>
    <i name="e_fr_energy">    -10.26904461 </i>
    <i name="e_wo_entrp">    -10.24872301 </i>
    <i name="e_0_energy">    -10.25888381 </i>
   </energy>
  </scstep>
  <scstep>
   <time name="dav">    1.01    1.01</time>
   <time name="total">    1.01    1.02</time>
   <energy>
    <i name="e_fr_energy">    -10.26943716 </i>
    <i name="e_wo_entrp">    -10.24911997 </i>
    <i name="e_0_energy">    -10.25927856 </i>
   </energy>
  </scstep>
  <scstep>
   <time name="dav">    0.92    0.93</time>
   <time name="total">    0.98    0.99</time>
   <energy>
    <i name="e_fr_energy">    -10.26943811 </i>
    <i name="e_wo_entrp">    -10.24912103 </i>
    <i name="e_0_energy">    -10.25927957 </i>
   </energy>
  </scstep>
  <scstep>
   <time name="dav">    0.85    0.85</time>
   <time name="total">    0.94    0.95</time>
   <energy>
    <i name="e_fr_energy">    -10.26306835 </i>
    <i name="e_wo_entrp">    -10.24270160 </i>
    <i name="e_0_energy">    -10.25288498 </i>
   </energy>
  </scstep>
  <scstep>
   <time name="dav">    0.85    0.85</time>
   <time name="total">    0.94    0.95</time>
   <energy>
    <i name="e_fr_energy">    -10.25858595 </i>
    <i name="e_wo_entrp">    -10.23817135 </i>
    <i name="e_0_energy">    -10.24837865 </i>
   </energy>
  </scstep>
  <scstep>
   <time name="dav">    0.51    0.51</time>
   <time name="total">    0.55    0.55</time>
   <energy>
    <i name="alphaZ">      4.26928635 </i>
    <i name="ewald">   -262.59725968 </i>
    <i name="hartreedc">     -2.59206485 </i>
    <i name="XCdc">    -17.75494556 </i>
    <i name="pawpsdc">     69.56972614 </i>
    <i name="pawaedc">    -34.46495411 </i>
    <i name="eentropy">     -0.02040420 </i>
    <i name="bandstr">     27.20082748 </i>
    <i name="atom">    206.13125414 </i>
    <i name="e_fr_energy">    -10.25853429 </i>
    <i name="e_wo_entrp">    -10.23813009 </i>
    <i name="e_0_energy">    -10.24833219 </i>
   </energy>
  </scstep>
  <structure>
   <crystal>
    <varray name="basis" >
     <v>      -2.42815500       2.42815500       1.33735200 </v>
     <v>       2.42815500      -2.42815500       1.33735200 </v>
     <v>       2.42815500       2.42815500      -1.33735200 </v>
    </varray>
    <i name="volume">     31.53977097 </i>
    <varray name="rec_basis" >
     <v>      -0.00000000       0.20591766       0.37387315 </v>
     <v>       0.20591766      -0.00000000       0.37387315 </v>
     <v>       0.20591766       0.20591766       0.00000000 </v>
    </varray>
   </crystal>
   <varray name="positions" >
    <v>       0.75000000       0.25000000       0.50000000 </v>
    <v>       0.50000000       0.50000000       0.00000000 </v>
   </varray>
  </structure>
  <varray name="forces" >
   <v>       0.00000000      -0.00000000      -0.00000000 </v>
   <v>      -0.00000000       0.00000000       0.00000000 </v>
  </varray>
  <varray name="stress" >
   <v>     -43.31008241       0.00000000       0.00000000 </v>
   <v>       0.00000000     -43.31008241       0.00000000 </v>
   <v>       0.00000000       0.00000000       4.06633888 </v>
  </varray>
  <energy>
   <i name="e_fr_energy">    -10.25853429 </i>
   <i name="e_wo_entrp">    -10.24833219 </i>
   <i name="e_0_energy">     -0.02040420 </i>
  </energy>
  <time name="totalsc">    8.52    9.79</time>
  <eigenvalues>
   <array>
    <dimension dim="1">band</dimension>
    <dimension dim="2">kpoint</dimension>
    <dimension dim="3">spin</dimension>
    <field>eigene</field>
    <field>occ</field>
    <set>
     <set comment="spin 1">
      <set comment="kpoint 1">
       <r>   -4.2161    1.0000 </r>
       <r>    4.4543    1.0000 </r>
       <r>    6.7186    1.0000 </r>
       <r>    8.2505    0.9994 </r>
       <r>   11.8737    0.0000 </r>
       <r>   13.7489    0.0000 </r>
       <r>   14.3149    0.0000 </r>
       <r>   16.1720    0.0000 </r>
      </set>
      <set comment="kpoint 2">
       <r>   -2.9972    1.0000 </r>
       <r>    4.2085    1.0000 </r>
       <r>    7.0185    1.0000 </r>
       <r>    9.1848    0.0004 </r>
       <r>   10.8475    0.0000 </r>
       <r>   10.9575    0.0000 </r>
       <r>   13.7114    0.0000 </r>
       <r>   14.4740    0.0000 </r>
      </set>
      <set comment="kpoint 3">
       <r>   -0.9958    1.0000 </r>
       <r>    4.5073    1.0000 </r>
       <r>    5.5779    1.0000 </r>
       <r>    7.2884    1.0000 </r>
       <r>    8.6441    0.6703 </r>
       <r>   11.7676    0.0000 </r>
       <r>   13.2360    0.0000 </r>
       <r>   13.6194    0.0000 </r>
      </set>
      <set comment="kpoint 4">
       <r>    1.3460    1.0000 </r>
       <r>    2.2562    1.0000 </r>
       <r>    5.8076    1.0000 </r>
       <r>    6.1945    1.0000 </r>
       <r>    8.5277    0.8969 </r>
       <r>   10.5997    0.0000 </r>
       <r>   13.1403    0.0000 </r>
       <r>   14.0799    0.0000 </r>
      </set>
      <set comment="kpoint 5">
       <r>   -4.6247    1.0000 </r>
       <r>    5.0630    1.0000 </r>
       <r>    5.9104    1.0000 </r>
       <r>    7.9193    1.0000 </r>
       <r>   11.0032    0.0000 </r>
       <r>   14.8979    0.0000 </r>
       <r>   17.3812    0.0000 </r>
       <r>   17.4821    0.0000 </r>
      </set>
      <set comment="kpoint 6">
       <r>   -1.1792    1.0000 </r>
       <r>    4.4963    1.0000 </r>
       <r>    6.4649    1.0000 </r>
       <r>    6.6570    1.0000 </r>
       <r>    9.6124    0.0000 </r>
       <r>   11.6173    0.0000 </r>
       <r>   12.9059    0.0000 </r>
       <r>   13.0980    0.0000 </r>
      </set>
      <set comment="kpoint 7">
       <r>    1.2910    1.0000 </r>
       <r>    2.9887    1.0000 </r>
       <r>    4.3382    1.0000 </r>
       <r>    5.8138    1.0000 </r>
       <r>    9.8703    0.0000 </r>
       <r>   11.6057    0.0000 </r>
       <r>   12.6308    0.0000 </r>
       <r>   14.6747    0.0000 </r>
      </set>
      <set comment="kpoint 8">
       <r>   -0.0796    1.0000 </r>
       <r>    2.7607    1.0000 </r>
       <r>    4.9378    1.0000 </r>
       <r>    7.2923    1.0000 </r>
       <r>    9.1133    0.0020 </r>
       <r>   11.7758    0.0000 </r>
       <r>   13.6970    0.0000 </r>
       <r>   14.5898    0.0000 </r>
      </set>
      <set comment="kpoint 9">
       <r>   -2.2476    1.0000 </r>
       <r>    2.1389    1.0000 </r>
       <r>    7.5645    1.0000 </r>
       <r>    8.8434    0.1664 </r>
       <r>   10.3758    0.0000 </r>
       <r>   11.5044    0.0000 </r>
       <r>   12.7125    0.0000 </r>
       <r>   15.0595    0.0000 </r>
      </set>
      <set comment="kpoint 10">
       <r>   -3.6489    1.0000 </r>
       <r>    2.2283    1.0000 </r>
       <r>    7.2263    1.0000 </r>
       <r>    9.1730    0.0005 </r>
       <r>   12.1674    0.0000 </r>
       <r>   13.6807    0.0000 </r>
       <r>   14.2276    0.0000 </r>
       <r>   14.8656    0.0000 </r>
      </set>
      <set comment="kpoint 11">
       <r>   -4.2456    1.0000 </r>
       <r>    3.0433    1.0000 </r>
       <r>    6.0282    1.0000 </r>
       <r>    9.1545    0.0008 </r>
       <r>   12.8219    0.0000 </r>
       <r>   12.9748    0.0000 </r>
       <r>   15.9104    0.0000 </r>
       <r>   17.2682    0.0000 </r>
      </set>
      <set comment="kpoint 12">
       <r>   -4.0270    1.0000 </r>
       <r>    4.1740    1.0000 </r>
       <r>    5.3917    1.0000 </r>
       <r>    9.7373    0.0000 </r>
       <r>   12.5992    0.0000 </r>
       <r>   12.7350    0.0000 </r>
       <r>   13.7750    0.0000 </r>
       <r>   15.7648    0.0000 </r>
      </set>
      <set comment="kpoint 13">
       <r>    1.1518    1.0000 </r>
       <r>    1.2178    1.0000 </r>
       <r>    4.7455    1.0000 </r>
       <r>    7.2350    1.0000 </r>
       <r>    9.8530    0.0000 </r>
       <r>   10.6818    0.0000 </r>
       <r>   14.7299    0.0000 </r>
       <r>   15.5834    0.0000 </r>
      </set>
      <set comment="kpoint 14">
       <r>   -1.1316    1.0000 </r>
       <r>    0.3386    1.0000 </r>
       <r>    8.0927    1.0000 </r>
       <r>    8.7009    0.5158 </r>
       <r>   10.0230    0.0000 </r>
       <r>   11.4194    0.0000 </r>
       <r>   12.5234    0.0000 </r>
       <r>   13.9171    0.0000 </r>
      </set>
      <set comment="kpoint 15">
       <r>   -2.7086    1.0000 </r>
       <r>    0.2518    1.0000 </r>
       <r>    8.0640    1.0000 </r>
       <r>   10.1374    0.0000 </r>
       <r>   10.6557    0.0000 </r>
       <r>   12.7421    0.0000 </r>
       <r>   13.7924    0.0000 </r>
       <r>   13.8765    0.0000 </r>
      </set>
      <set comment="kpoint 16">
       <r>   -3.4902    1.0000 </r>
       <r>    0.9399    1.0000 </r>
       <r>    6.7139    1.0000 </r>
       <r>   10.0928    0.0000 </r>
       <r>   10.8451    0.0000 </r>
       <r>   14.1868    0.0000 </r>
       <r>   15.8830    0.0000 </r>
       <r>   16.9598    0.0000 </r>
      </set>
      <set comment="kpoint 17">
       <r>   -3.4611    1.0000 </r>
       <r>    2.3536    1.0000 </r>
       <r>    5.5141    1.0000 </r>
       <r>   10.6884    0.0000 </r>
       <r>   11.0840    0.0000 </r>
       <r>   12.9933    0.0000 </r>
       <r>   14.7639    0.0000 </r>
       <r>   15.6784    0.0000 </r>
      </set>
      <set comment="kpoint 18">
       <r>   -2.6227    1.0000 </r>
       <r>    4.0363    1.0000 </r>
       <r>    5.3982    1.0000 </r>
       <r>    8.4863    0.9403 </r>
       <r>   11.1222    0.0000 </r>
       <r>   12.6750    0.0000 </r>
       <r>   13.3426    0.0000 </r>
       <r>   13.6933    0.0000 </r>
      </set>
      <set comment="kpoint 19">
       <r>   -1.4034    1.0000 </r>
       <r>   -1.4034    1.0000 </r>
       <r>    9.2106    0.0002 </r>
       <r>    9.2106    0.0002 </r>
       <r>   11.3899    0.0000 </r>
       <r>   11.3899    0.0000 </r>
       <r>   13.5932    0.0000 </r>
       <r>   13.5932    0.0000 </r>
      </set>
      <set comment="kpoint 20">
       <r>   -2.3649    1.0000 </r>
       <r>   -0.8810    1.0000 </r>
       <r>    7.7588    1.0000 </r>
       <r>    9.1430    0.0010 </r>
       <r>   11.2058    0.0000 </r>
       <r>   12.5802    0.0000 </r>
       <r>   16.6615    0.0000 </r>
       <r>   16.7600    0.0000 </r>
      </set>
      <set comment="kpoint 21">
       <r>   -2.5235    1.0000 </r>
       <r>    0.4197    1.0000 </r>
       <r>    6.3496    1.0000 </r>
       <r>    9.0852    0.0037 </r>
       <r>   11.4374    0.0000 </r>
       <r>   12.9190    0.0000 </r>
       <r>   14.8635    0.0000 </r>
       <r>   15.3830    0.0000 </r>
      </set>
      <set comment="kpoint 22">
       <r>   -1.8774    1.0000 </r>
       <r>    2.4246    1.0000 </r>
       <r>    5.6071    1.0000 </r>
       <r>    7.8466    1.0000 </r>
       <r>    9.7076    0.0000 </r>
       <r>   12.5325    0.0000 </r>
       <r>   14.0299    0.0000 </r>
       <r>   15.3696    0.0000 </r>
      </set>
      <set comment="kpoint 23">
       <r>   -0.4488    1.0000 </r>
       <r>    4.0831    1.0000 </r>
       <r>    5.2276    1.0000 </r>
       <r>    6.0166    1.0000 </r>
       <r>    9.1769    0.0004 </r>
       <r>   11.5844    0.0000 </r>
       <r>   11.9098    0.0000 </r>
       <r>   15.2103    0.0000 </r>
      </set>
      <set comment="kpoint 24">
       <r>   -1.2268    1.0000 </r>
       <r>   -1.2203    1.0000 </r>
       <r>    7.5509    1.0000 </r>
       <r>    7.5637    1.0000 </r>
       <r>   11.5278    0.0000 </r>
       <r>   13.4277    0.0000 </r>
       <r>   14.2699    0.0000 </r>
       <r>   14.8682    0.0000 </r>
      </set>
      <set comment="kpoint 25">
       <r>   -0.7698    1.0000 </r>
       <r>    0.6825    1.0000 </r>
       <r>    6.5088    1.0000 </r>
       <r>    7.4256    1.0000 </r>
       <r>    8.2848    0.9986 </r>
       <r>   12.1837    0.0000 </r>
       <r>   15.1243    0.0000 </r>
       <r>   16.4339    0.0000 </r>
      </set>
      <set comment="kpoint 26">
       <r>    0.4505    1.0000 </r>
       <r>    3.0767    1.0000 </r>
       <r>    4.2353    1.0000 </r>
       <r>    6.4516    1.0000 </r>
       <r>    8.6844    0.5620 </r>
       <r>   10.6250    0.0000 </r>
       <r>   13.1264    0.0000 </r>
       <r>   16.5208    0.0000 </r>
      </set>
      <set comment="kpoint 27">
       <r>    0.9386    1.0000 </r>
       <r>    2.6645    1.0000 </r>
       <r>    6.2601    1.0000 </r>
       <r>    6.9886    1.0000 </r>
       <r>    7.6139    1.0000 </r>
       <r>   10.2145    0.0000 </r>
       <r>   11.6692    0.0000 </r>
       <r>   15.4201    0.0000 </r>
      </set>
      <set comment="kpoint 28">
       <r>    1.5886    1.0000 </r>
       <r>    1.7618    1.0000 </r>
       <r>    3.9367    1.0000 </r>
       <r>    7.3252    1.0000 </r>
       <r>    7.7331    1.0000 </r>
       <r>   10.2474    0.0000 </r>
       <r>   14.9800    0.0000 </r>
       <r>   15.6539    0.0000 </r>
      </set>
      <set comment="kpoint 29">
       <r>    0.6243    1.0000 </r>
       <r>    3.6654    1.0000 </r>
       <r>    5.0091    1.0000 </r>
       <r>    7.1853    1.0000 </r>
       <r>    8.2980    0.9981 </r>
       <r>   10.1100    0.0000 </r>
       <r>   11.6973    0.0000 </r>
       <r>   14.1089    0.0000 </r>
      </set>
      <set comment="kpoint 30">
       <r>   -1.5500    1.0000 </r>
       <r>    5.8556    1.0000 </r>
       <r>    6.8589    1.0000 </r>
       <r>    7.2305    1.0000 </r>
       <r>    8.4757    0.9486 </r>
       <r>   10.9455    0.0000 </r>
       <r>   11.6942    0.0000 </r>
       <r>   13.3540    0.0000 </r>
      </set>
      <set comment="kpoint 31">
       <r>   -1.7354    1.0000 </r>
       <r>    6.4860    1.0000 </r>
       <r>    7.1503    1.0000 </r>
       <r>    7.4442    1.0000 </r>
       <r>    8.8091    0.2340 </r>
       <r>   10.4810    0.0000 </r>
       <r>   11.6448    0.0000 </r>
       <r>   11.8694    0.0000 </r>
      </set>
      <set comment="kpoint 32">
       <r>   -3.3735    1.0000 </r>
       <r>    6.1733    1.0000 </r>
       <r>    6.9133    1.0000 </r>
       <r>    8.7731    0.3186 </r>
       <r>   10.9066    0.0000 </r>
       <r>   11.3397    0.0000 </r>
       <r>   12.1156    0.0000 </r>
       <r>   13.8638    0.0000 </r>
      </set>
      <set comment="kpoint 33">
       <r>   -4.4056    1.0000 </r>
       <r>    6.5487    1.0000 </r>
       <r>    6.5487    1.0000 </r>
       <r>    6.8358    1.0000 </r>
       <r>   10.7572    0.0000 </r>
       <r>   14.5472    0.0000 </r>
       <r>   14.6610    0.0000 </r>
       <r>   16.5422    0.0000 </r>
      </set>
      <set comment="kpoint 34">
       <r>   -0.2585    1.0000 </r>
       <r>    2.6180    1.0000 </r>
       <r>    6.0327    1.0000 </r>
       <r>    6.1215    1.0000 </r>
       <r>   10.6056    0.0000 </r>
       <r>   12.4565    0.0000 </r>
       <r>   13.6799    0.0000 </r>
       <r>   14.1225    0.0000 </r>
      </set>
      <set comment="kpoint 35">
       <r>    2.0541    1.0000 </r>
       <r>    2.7980    1.0000 </r>
       <r>    3.8268    1.0000 </r>
       <r>    4.4733    1.0000 </r>
       <r>   11.5342    0.0000 </r>
       <r>   13.4508    0.0000 </r>
       <r>   13.7624    0.0000 </r>
       <r>   13.9539    0.0000 </r>
      </set>
      <set comment="kpoint 36">
       <r>   -3.8682    1.0000 </r>
       <r>    2.8680    1.0000 </r>
       <r>    4.2840    1.0000 </r>
       <r>   10.6971    0.0000 </r>
       <r>   11.2816    0.0000 </r>
       <r>   14.0497    0.0000 </r>
       <r>   16.3042    0.0000 </r>
       <r>   16.8279    0.0000 </r>
      </set>
      <set comment="kpoint 37">
       <r>    1.0151    1.0000 </r>
       <r>    1.0151    1.0000 </r>
       <r>    5.9117    1.0000 </r>
       <r>    5.9117    1.0000 </r>
       <r>   11.8575    0.0000 </r>
       <r>   11.8575    0.0000 </r>
       <r>   13.6709    0.0000 </r>
       <r>   13.6709    0.0000 </r>
      </set>
      <set comment="kpoint 38">
       <r>   -3.1168    1.0000 </r>
       <r>    1.2306    1.0000 </r>
       <r>    4.5065    1.0000 </r>
       <r>    8.6648    0.6160 </r>
       <r>   12.6199    0.0000 </r>
       <r>   15.5331    0.0000 </r>
       <r>   16.1324    0.0000 </r>
       <r>   16.9161    0.0000 </r>
      </set>
      <set comment="kpoint 39">
       <r>   -2.8998    1.0000 </r>
       <r>    2.3316    1.0000 </r>
       <r>    3.8375    1.0000 </r>
       <r>    8.8209    0.2091 </r>
       <r>   11.4215    0.0000 </r>
       <r>   14.0652    0.0000 </r>
       <r>   16.0710    0.0000 </r>
       <r>   16.3988    0.0000 </r>
      </set>
      <set comment="kpoint 40">
       <r>   -1.9995    1.0000 </r>
       <r>   -0.5331    1.0000 </r>
       <r>    5.5177    1.0000 </r>
       <r>    6.9213    1.0000 </r>
       <r>   13.6666    0.0000 </r>
       <r>   14.6679    0.0000 </r>
       <r>   16.2321    0.0000 </r>
       <r>   16.6168    0.0000 </r>
      </set>
      <set comment="kpoint 41">
       <r>   -1.9715    1.0000 </r>
       <r>    0.8867    1.0000 </r>
       <r>    4.2018    1.0000 </r>
       <r>    6.9457    1.0000 </r>
       <r>   11.0598    0.0000 </r>
       <r>   15.3804    0.0000 </r>
       <r>   16.4464    0.0000 </r>
       <r>   17.8979    0.0000 </r>
      </set>
      <set comment="kpoint 42">
       <r>   -1.1424    1.0000 </r>
       <r>    2.5652    1.0000 </r>
       <r>    4.1129    1.0000 </r>
       <r>    7.0405    1.0000 </r>
       <r>    7.9468    1.0000 </r>
       <r>   13.7801    0.0000 </r>
       <r>   15.1850    0.0000 </r>
       <r>   16.5347    0.0000 </r>
      </set>
      <set comment="kpoint 43">
       <r>   -0.6990    1.0000 </r>
       <r>   -0.6852    1.0000 </r>
       <r>    5.3689    1.0000 </r>
       <r>    5.3907    1.0000 </r>
       <r>   10.9148    0.0000 </r>
       <r>   16.0519    0.0000 </r>
       <r>   16.7125    0.0000 </r>
       <r>   17.0321    0.0000 </r>
      </set>
      <set comment="kpoint 44">
       <r>   -0.0579    1.0000 </r>
       <r>    1.3247    1.0000 </r>
       <r>    4.6156    1.0000 </r>
       <r>    5.8836    1.0000 </r>
       <r>    7.0712    1.0000 </r>
       <r>   13.9626    0.0000 </r>
       <r>   16.7214    0.0000 </r>
       <r>   17.7703    0.0000 </r>
      </set>
      <set comment="kpoint 45">
       <r>    1.2987    1.0000 </r>
       <r>    3.0309    1.0000 </r>
       <r>    4.1897    1.0000 </r>
       <r>    5.1008    1.0000 </r>
       <r>    7.2961    1.0000 </r>
       <r>   11.7442    0.0000 </r>
       <r>   13.0632    0.0000 </r>
       <r>   16.6909    0.0000 </r>
      </set>
      <set comment="kpoint 46">
       <r>    2.1416    1.0000 </r>
       <r>    2.6070    1.0000 </r>
       <r>    3.6683    1.0000 </r>
       <r>    5.7946    1.0000 </r>
       <r>    5.9102    1.0000 </r>
       <r>   11.9900    0.0000 </r>
       <r>   14.4442    0.0000 </r>
       <r>   15.2610    0.0000 </r>
      </set>
      <set comment="kpoint 47">
       <r>    0.2762    1.0000 </r>
       <r>    4.6626    1.0000 </r>
       <r>    5.5941    1.0000 </r>
       <r>    6.6607    1.0000 </r>
       <r>    7.4629    1.0000 </r>
       <r>   10.4971    0.0000 </r>
       <r>   11.5474    0.0000 </r>
       <r>   13.0467    0.0000 </r>
      </set>
      <set comment="kpoint 48">
       <r>   -1.9215    1.0000 </r>
       <r>    7.8342    1.0000 </r>
       <r>    7.8342    1.0000 </r>
       <r>    7.9300    1.0000 </r>
       <r>    8.1514    1.0000 </r>
       <r>    9.4585    0.0000 </r>
       <r>   11.3641    0.0000 </r>
       <r>   11.3641    0.0000 </r>
      </set>
      <set comment="kpoint 49">
       <r>   -2.3753    1.0000 </r>
       <r>    1.3751    1.0000 </r>
       <r>    2.9570    1.0000 </r>
       <r>    6.5972    1.0000 </r>
       <r>   14.2799    0.0000 </r>
       <r>   15.1623    0.0000 </r>
       <r>   16.7365    0.0000 </r>
       <r>   18.1463    0.0000 </r>
      </set>
      <set comment="kpoint 50">
       <r>   -1.2800    1.0000 </r>
       <r>    0.1172    1.0000 </r>
       <r>    3.4813    1.0000 </r>
       <r>    4.8423    1.0000 </r>
       <r>   14.6107    0.0000 </r>
       <r>   14.7988    0.0000 </r>
       <r>   17.7169    0.0000 </r>
       <r>   18.7877    0.0000 </r>
      </set>
      <set comment="kpoint 51">
       <r>   -1.0659    1.0000 </r>
       <r>    1.2082    1.0000 </r>
       <r>    2.8199    1.0000 </r>
       <r>    5.0404    1.0000 </r>
       <r>   10.6052    0.0000 </r>
       <r>   17.5499    0.0000 </r>
       <r>   17.9022    0.0000 </r>
       <r>   18.9165    0.0000 </r>
      </set>
      <set comment="kpoint 52">
       <r>    0.1303    1.0000 </r>
       <r>    0.1542    1.0000 </r>
       <r>    3.5037    1.0000 </r>
       <r>    3.5184    1.0000 </r>
       <r>   10.4443    0.0000 </r>
       <r>   17.7908    0.0000 </r>
       <r>   19.0672    0.0000 </r>
       <r>   19.6473    0.0000 </r>
      </set>
      <set comment="kpoint 53">
       <r>    0.9515    1.0000 </r>
       <r>    1.8219    1.0000 </r>
       <r>    3.4361    1.0000 </r>
       <r>    4.2766    1.0000 </r>
       <r>    6.6404    1.0000 </r>
       <r>   15.6380    0.0000 </r>
       <r>   16.8595    0.0000 </r>
       <r>   18.0450    0.0000 </r>
      </set>
      <set comment="kpoint 54">
       <r>    2.3586    1.0000 </r>
       <r>    3.3247    1.0000 </r>
       <r>    4.0660    1.0000 </r>
       <r>    4.7779    1.0000 </r>
       <r>    4.7779    1.0000 </r>
       <r>   13.7230    0.0000 </r>
       <r>   14.2625    0.0000 </r>
       <r>   14.2625    0.0000 </r>
      </set>
      <set comment="kpoint 55">
       <r>   -0.2571    1.0000 </r>
       <r>    0.6203    1.0000 </r>
       <r>    2.2659    1.0000 </r>
       <r>    3.1315    1.0000 </r>
       <r>   14.5117    0.0000 </r>
       <r>   14.5496    0.0000 </r>
       <r>   19.9651    0.0000 </r>
       <r>   20.7352    0.0000 </r>
      </set>
      <set comment="kpoint 56">
       <r>    0.8114    1.0000 </r>
       <r>    0.8503    1.0000 </r>
       <r>    2.4733    1.0000 </r>
       <r>    2.4733    1.0000 </r>
       <r>   10.2806    0.0000 </r>
       <r>   18.3052    0.0000 </r>
       <r>   20.2437    0.0000 </r>
       <r>   20.2729    0.0000 </r>
      </set>
     </set>
    </set>
   </array>
  </eigenvalues>
  <separator name="orbital magnetization" >
   <v name="MAGDIPOLOUT">      0.00000000      0.00000000      0.00000000</v>
  </separator>
  <dos>
   <i name="efermi">      8.70645184 </i>
   <total>
    <array>
     <dimension dim="1">gridpoints</dimension>
     <dimension dim="2">spin</dimension>
     <field>energy</field>
     <field>total</field>
     <field>integrated</field>
     <set>
      <set comment="spin 1">
       <r>    -6.6247     0.0000     0.0000 </r>
       <r>    -6.5269     0.0000     0.0000 </r>
       <r>    -6.4290     0.0000     0.0000 </r>
       <r>    -6.3311     0.0000     0.0000 </r>
       <r>    -6.2333     0.0000     0.0000 </r>
       <r>    -6.1354     0.0000     0.0000 </r>
       <r>    -6.0375     0.0000     0.0000 </r>
       <r>    -5.9397     0.0000     0.0000 </r>
       <r>    -5.8418     0.0000     0.0000 </r>
       <r>    -5.7439     0.0000     0.0000 </r>
       <r>    -5.6461     0.0000     0.0000 </r>
       <r>    -5.5482     0.0000     0.0000 </r>
       <r>    -5.4503     0.0000     0.0000 </r>
       <r>    -5.3525     0.0000     0.0000 </r>
       <r>    -5.2546     0.0000     0.0000 </r>
       <r>    -5.1567     0.0000     0.0000 </r>
       <r>    -5.0589     0.0002     0.0000 </r>
       <r>    -4.9610     0.0012     0.0001 </r>
       <r>    -4.8631     0.0060     0.0007 </r>
       <r>    -4.7653     0.0187     0.0026 </r>
       <r>    -4.6674     0.0381     0.0063 </r>
       <r>    -4.5695     0.0553     0.0117 </r>
       <r>    -4.4717     0.0726     0.0188 </r>
       <r>    -4.3738     0.1113     0.0297 </r>
       <r>    -4.2759     0.1733     0.0466 </r>
       <r>    -4.1781     0.2179     0.0680 </r>
       <r>    -4.0802     0.2141     0.0889 </r>
       <r>    -3.9823     0.1794     0.1065 </r>
       <r>    -3.8845     0.1441     0.1206 </r>
       <r>    -3.7866     0.1309     0.1334 </r>
       <r>    -3.6887     0.1632     0.1494 </r>
       <r>    -3.5909     0.2476     0.1736 </r>
       <r>    -3.4930     0.3431     0.2072 </r>
       <r>    -3.3951     0.3707     0.2435 </r>
       <r>    -3.2973     0.3073     0.2735 </r>
       <r>    -3.1994     0.2404     0.2971 </r>
       <r>    -3.1015     0.2512     0.3216 </r>
       <r>    -3.0037     0.3057     0.3516 </r>
       <r>    -2.9058     0.3219     0.3831 </r>
       <r>    -2.8079     0.2941     0.4118 </r>
       <r>    -2.7101     0.2877     0.4400 </r>
       <r>    -2.6122     0.3283     0.4721 </r>
       <r>    -2.5143     0.3733     0.5087 </r>
       <r>    -2.4165     0.3888     0.5467 </r>
       <r>    -2.3186     0.3798     0.5839 </r>
       <r>    -2.2207     0.3563     0.6187 </r>
       <r>    -2.1229     0.3469     0.6527 </r>
       <r>    -2.0250     0.3977     0.6916 </r>
       <r>    -1.9271     0.4704     0.7377 </r>
       <r>    -1.8293     0.4612     0.7828 </r>
       <r>    -1.7314     0.3609     0.8181 </r>
       <r>    -1.6335     0.2599     0.8435 </r>
       <r>    -1.5357     0.2235     0.8654 </r>
       <r>    -1.4378     0.2643     0.8913 </r>
       <r>    -1.3399     0.3892     0.9294 </r>
       <r>    -1.2421     0.5803     0.9862 </r>
       <r>    -1.1442     0.7377     1.0584 </r>
       <r>    -1.0463     0.7530     1.1321 </r>
       <r>    -0.9485     0.6496     1.1956 </r>
       <r>    -0.8506     0.5478     1.2492 </r>
       <r>    -0.7527     0.5017     1.2983 </r>
       <r>    -0.6549     0.4602     1.3434 </r>
       <r>    -0.5570     0.3859     1.3811 </r>
       <r>    -0.4591     0.3106     1.4115 </r>
       <r>    -0.3613     0.2732     1.4383 </r>
       <r>    -0.2634     0.2953     1.4672 </r>
       <r>    -0.1655     0.3782     1.5042 </r>
       <r>    -0.0677     0.4789     1.5510 </r>
       <r>     0.0302     0.5430     1.6042 </r>
       <r>     0.1281     0.5807     1.6610 </r>
       <r>     0.2259     0.6383     1.7235 </r>
       <r>     0.3238     0.7117     1.7931 </r>
       <r>     0.4217     0.7468     1.8662 </r>
       <r>     0.5195     0.7153     1.9362 </r>
       <r>     0.6174     0.6562     2.0005 </r>
       <r>     0.7153     0.6147     2.0606 </r>
       <r>     0.8131     0.6132     2.1206 </r>
       <r>     0.9110     0.6502     2.1843 </r>
       <r>     1.0089     0.6762     2.2504 </r>
       <r>     1.1067     0.7025     2.3192 </r>
       <r>     1.2046     0.8001     2.3975 </r>
       <r>     1.3025     0.8833     2.4839 </r>
       <r>     1.4003     0.7771     2.5600 </r>
       <r>     1.4982     0.5188     2.6107 </r>
       <r>     1.5961     0.3095     2.6410 </r>
       <r>     1.6939     0.2346     2.6640 </r>
       <r>     1.7918     0.2323     2.6867 </r>
       <r>     1.8897     0.2439     2.7106 </r>
       <r>     1.9875     0.2967     2.7396 </r>
       <r>     2.0854     0.4378     2.7825 </r>
       <r>     2.1833     0.6256     2.8437 </r>
       <r>     2.2811     0.7656     2.9186 </r>
       <r>     2.3790     0.8061     2.9975 </r>
       <r>     2.4769     0.7626     3.0722 </r>
       <r>     2.5747     0.7057     3.1412 </r>
       <r>     2.6726     0.6906     3.2088 </r>
       <r>     2.7705     0.7028     3.2776 </r>
       <r>     2.8683     0.7176     3.3478 </r>
       <r>     2.9662     0.7352     3.4198 </r>
       <r>     3.0641     0.7072     3.4890 </r>
       <r>     3.1619     0.5649     3.5443 </r>
       <r>     3.2598     0.3806     3.5815 </r>
       <r>     3.3577     0.3143     3.6123 </r>
       <r>     3.4555     0.3942     3.6509 </r>
       <r>     3.5534     0.5022     3.7000 </r>
       <r>     3.6513     0.5417     3.7530 </r>
       <r>     3.7491     0.5183     3.8038 </r>
       <r>     3.8470     0.4890     3.8516 </r>
       <r>     3.9449     0.5249     3.9030 </r>
       <r>     4.0427     0.6920     3.9707 </r>
       <r>     4.1406     0.9688     4.0655 </r>
       <r>     4.2385     1.1840     4.1814 </r>
       <r>     4.3363     1.1947     4.2983 </r>
       <r>     4.4342     1.0798     4.4040 </r>
       <r>     4.5321     0.9646     4.4984 </r>
       <r>     4.6299     0.8382     4.5804 </r>
       <r>     4.7278     0.6940     4.6483 </r>
       <r>     4.8257     0.6085     4.7079 </r>
       <r>     4.9235     0.6190     4.7685 </r>
       <r>     5.0214     0.6492     4.8320 </r>
       <r>     5.1193     0.6055     4.8913 </r>
       <r>     5.2171     0.5296     4.9431 </r>
       <r>     5.3150     0.5543     4.9974 </r>
       <r>     5.4129     0.7112     5.0670 </r>
       <r>     5.5107     0.8864     5.1537 </r>
       <r>     5.6086     0.9595     5.2476 </r>
       <r>     5.7065     0.9531     5.3409 </r>
       <r>     5.8043     0.9872     5.4375 </r>
       <r>     5.9022     1.0443     5.5397 </r>
       <r>     6.0001     0.9958     5.6372 </r>
       <r>     6.0979     0.8498     5.7203 </r>
       <r>     6.1958     0.7258     5.7914 </r>
       <r>     6.2937     0.7017     5.8600 </r>
       <r>     6.3915     0.7836     5.9367 </r>
       <r>     6.4894     0.8988     6.0247 </r>
       <r>     6.5873     0.9409     6.1168 </r>
       <r>     6.6851     0.8886     6.2037 </r>
       <r>     6.7830     0.8348     6.2854 </r>
       <r>     6.8809     0.8913     6.3727 </r>
       <r>     6.9787     1.0534     6.4758 </r>
       <r>     7.0766     1.2122     6.5944 </r>
       <r>     7.1745     1.3192     6.7235 </r>
       <r>     7.2723     1.3677     6.8573 </r>
       <r>     7.3702     1.3096     6.9855 </r>
       <r>     7.4681     1.1572     7.0988 </r>
       <r>     7.5659     0.9826     7.1949 </r>
       <r>     7.6638     0.8207     7.2753 </r>
       <r>     7.7617     0.7014     7.3439 </r>
       <r>     7.8595     0.6424     7.4068 </r>
       <r>     7.9574     0.6124     7.4667 </r>
       <r>     8.0553     0.5965     7.5251 </r>
       <r>     8.1531     0.6121     7.5850 </r>
       <r>     8.2510     0.6475     7.6483 </r>
       <r>     8.3489     0.6577     7.7127 </r>
       <r>     8.4467     0.6549     7.7768 </r>
       <r>     8.5446     0.7290     7.8481 </r>
       <r>     8.6425     0.8943     7.9357 </r>
       <r>     8.7403     1.0088     8.0344 </r>
       <r>     8.8382     0.9448     8.1269 </r>
       <r>     8.9361     0.7982     8.2050 </r>
       <r>     9.0339     0.7934     8.2826 </r>
       <r>     9.1318     0.9275     8.3734 </r>
       <r>     9.2297     0.9183     8.4633 </r>
       <r>     9.3275     0.6478     8.5267 </r>
       <r>     9.4254     0.3447     8.5604 </r>
       <r>     9.5233     0.2312     8.5830 </r>
       <r>     9.6211     0.3065     8.6130 </r>
       <r>     9.7190     0.4504     8.6571 </r>
       <r>     9.8169     0.5583     8.7118 </r>
       <r>     9.9147     0.6150     8.7719 </r>
       <r>    10.0126     0.6690     8.8374 </r>
       <r>    10.1105     0.7231     8.9082 </r>
       <r>    10.2083     0.7237     8.9790 </r>
       <r>    10.3062     0.6873     9.0463 </r>
       <r>    10.4041     0.7122     9.1160 </r>
       <r>    10.5019     0.8497     9.1991 </r>
       <r>    10.5998     1.0352     9.3005 </r>
       <r>    10.6977     1.1392     9.4119 </r>
       <r>    10.7955     1.1291     9.5224 </r>
       <r>    10.8934     1.1038     9.6305 </r>
       <r>    10.9913     1.0878     9.7369 </r>
       <r>    11.0891     1.0028     9.8351 </r>
       <r>    11.1870     0.8674     9.9200 </r>
       <r>    11.2849     0.8445    10.0026 </r>
       <r>    11.3827     1.0429    10.1047 </r>
       <r>    11.4806     1.3543    10.2372 </r>
       <r>    11.5784     1.5836    10.3922 </r>
       <r>    11.6763     1.6378    10.5525 </r>
       <r>    11.7742     1.5077    10.7000 </r>
       <r>    11.8720     1.2231    10.8197 </r>
       <r>    11.9699     0.8881    10.9067 </r>
       <r>    12.0678     0.6397    10.9693 </r>
       <r>    12.1656     0.5117    11.0193 </r>
       <r>    12.2635     0.4378    11.0622 </r>
       <r>    12.3614     0.4408    11.1053 </r>
       <r>    12.4592     0.6278    11.1668 </r>
       <r>    12.5571     0.9466    11.2594 </r>
       <r>    12.6550     1.1669    11.3736 </r>
       <r>    12.7528     1.1646    11.4876 </r>
       <r>    12.8507     1.0631    11.5916 </r>
       <r>    12.9486     1.0301    11.6924 </r>
       <r>    13.0464     1.0508    11.7953 </r>
       <r>    13.1443     1.0037    11.8935 </r>
       <r>    13.2422     0.8633    11.9780 </r>
       <r>    13.3400     0.7231    12.0488 </r>
       <r>    13.4379     0.6948    12.1168 </r>
       <r>    13.5358     0.8743    12.2023 </r>
       <r>    13.6336     1.2590    12.3255 </r>
       <r>    13.7315     1.6133    12.4834 </r>
       <r>    13.8294     1.6904    12.6488 </r>
       <r>    13.9272     1.5600    12.8015 </r>
       <r>    14.0251     1.4122    12.9397 </r>
       <r>    14.1230     1.2638    13.0634 </r>
       <r>    14.2208     1.0668    13.1678 </r>
       <r>    14.3187     0.8722    13.2532 </r>
       <r>    14.4166     0.7862    13.3301 </r>
       <r>    14.5144     0.8529    13.4136 </r>
       <r>    14.6123     1.0028    13.5117 </r>
       <r>    14.7102     1.1179    13.6211 </r>
       <r>    14.8080     1.1256    13.7313 </r>
       <r>    14.9059     1.0288    13.8320 </r>
       <r>    15.0038     0.9051    13.9205 </r>
       <r>    15.1016     0.8460    14.0033 </r>
       <r>    15.1995     0.8651    14.0880 </r>
       <r>    15.2974     0.9200    14.1780 </r>
       <r>    15.3952     0.9508    14.2711 </r>
       <r>    15.4931     0.9027    14.3594 </r>
       <r>    15.5910     0.8075    14.4385 </r>
       <r>    15.6888     0.7145    14.5084 </r>
       <r>    15.7867     0.6080    14.5679 </r>
       <r>    15.8846     0.5048    14.6173 </r>
       <r>    15.9824     0.4621    14.6625 </r>
       <r>    16.0803     0.4825    14.7097 </r>
       <r>    16.1782     0.5203    14.7607 </r>
       <r>    16.2760     0.5729    14.8167 </r>
       <r>    16.3739     0.6941    14.8847 </r>
       <r>    16.4718     0.8658    14.9694 </r>
       <r>    16.5696     0.9864    15.0659 </r>
       <r>    16.6675     1.0120    15.1650 </r>
       <r>    16.7654     0.9475    15.2577 </r>
       <r>    16.8632     0.7939    15.3354 </r>
       <r>    16.9611     0.5925    15.3934 </r>
       <r>    17.0590     0.4010    15.4326 </r>
       <r>    17.1568     0.2597    15.4580 </r>
       <r>    17.2547     0.1934    15.4770 </r>
       <r>    17.3526     0.1874    15.4953 </r>
       <r>    17.4504     0.2089    15.5157 </r>
       <r>    17.5483     0.2538    15.5406 </r>
       <r>    17.6462     0.3441    15.5743 </r>
       <r>    17.7440     0.4775    15.6210 </r>
       <r>    17.8419     0.5769    15.6775 </r>
       <r>    17.9398     0.5548    15.7317 </r>
       <r>    18.0376     0.4241    15.7733 </r>
       <r>    18.1355     0.2706    15.7997 </r>
       <r>    18.2334     0.1532    15.8147 </r>
       <r>    18.3312     0.0798    15.8225 </r>
       <r>    18.4291     0.0390    15.8264 </r>
       <r>    18.5270     0.0241    15.8287 </r>
       <r>    18.6248     0.0393    15.8326 </r>
       <r>    18.7227     0.0872    15.8411 </r>
       <r>    18.8206     0.1488    15.8557 </r>
       <r>    18.9184     0.1894    15.8742 </r>
       <r>    19.0163     0.1890    15.8927 </r>
       <r>    19.1142     0.1508    15.9075 </r>
       <r>    19.2120     0.0926    15.9165 </r>
       <r>    19.3099     0.0428    15.9207 </r>
       <r>    19.4078     0.0237    15.9230 </r>
       <r>    19.5056     0.0385    15.9268 </r>
       <r>    19.6035     0.0713    15.9338 </r>
       <r>    19.7014     0.0905    15.9426 </r>
       <r>    19.7992     0.0813    15.9506 </r>
       <r>    19.8971     0.0647    15.9569 </r>
       <r>    19.9950     0.0572    15.9625 </r>
       <r>    20.0928     0.0536    15.9678 </r>
       <r>    20.1907     0.0518    15.9728 </r>
       <r>    20.2886     0.0498    15.9777 </r>
       <r>    20.3864     0.0395    15.9816 </r>
       <r>    20.4843     0.0256    15.9841 </r>
       <r>    20.5822     0.0233    15.9864 </r>
       <r>    20.6800     0.0349    15.9898 </r>
       <r>    20.7779     0.0434    15.9940 </r>
       <r>    20.8758     0.0353    15.9975 </r>
       <r>    20.9736     0.0182    15.9993 </r>
       <r>    21.0715     0.0059    15.9999 </r>
       <r>    21.1694     0.0012    16.0000 </r>
       <r>    21.2672     0.0002    16.0000 </r>
       <r>    21.3651     0.0000    16.0000 </r>
       <r>    21.4630     0.0000    16.0000 </r>
       <r>    21.5608     0.0000    16.0000 </r>
       <r>    21.6587     0.0000    16.0000 </r>
       <r>    21.7566     0.0000    16.0000 </r>
       <r>    21.8544     0.0000    16.0000 </r>
       <r>    21.9523     0.0000    16.0000 </r>
       <r>    22.0502     0.0000    16.0000 </r>
       <r>    22.1480     0.0000    16.0000 </r>
       <r>    22.2459     0.0000    16.0000 </r>
       <r>    22.3438     0.0000    16.0000 </r>
       <r>    22.4416     0.0000    16.0000 </r>
       <r>    22.5395     0.0000    16.0000 </r>
       <r>    22.6374     0.0000    16.0000 </r>
       <r>    22.7352     0.0000    16.0000 </r>
      </set>
     </set>
    </array>
   </total>
  </dos>
 </calculation>
 <structure name="finalpos" >
  <crystal>
   <varray name="basis" >
    <v>      -2.42815500       2.42815500       1.33735200 </v>
    <v>       2.42815500      -2.42815500       1.33735200 </v>
    <v>       2.42815500       2.42815500      -1.33735200 </v>
   </varray>
   <i name="volume">     31.53977097 </i>
   <varray name="rec_basis" >
    <v>      -0.00000000       0.20591766       0.37387315 </v>
    <v>       0.20591766      -0.00000000       0.37387315 </v>
    <v>       0.20591766       0.20591766       0.00000000 </v>
   </varray>
  </crystal>
  <varray name="positions" >
   <v>       0.75000000       0.25000000       0.50000000 </v>
   <v>       0.50000000       0.50000000       0.00000000 </v>
  </varray>
 </structure>
</modeling>
