unknown system                          
   1.00000000000000     
     0.000000    2.744809    2.744809
     2.744809   -0.000000    2.744809
     2.744809    2.744809    0.000000
   Si
     2
Direct
  0.500000  0.500000  0.500000
  0.750000  0.750000  0.750000
 
   32   32   32
 0.87587     0.89748     0.96350      1.0776      1.2458      1.4764      1.7790      2.1628      2.6340      3.1912    
  3.8216      4.4969      5.1733      5.7939      6.2967      6.6252      6.7395      6.6252      6.2966      5.7938    
  5.1731      4.4968      3.8215      3.1912      2.6341      2.1630      1.7791      1.4765      1.2458      1.0775    
 0.96344     0.89744     0.89748     0.93479      1.0114      1.1312      1.2996      1.5233      1.8092      2.1628    
  2.5858      3.0727      3.6071      4.1601      4.6910      5.1511      5.4917      5.6732      5.6731      5.4916    
  5.1510      4.6909      4.1601      3.6071      3.0728      2.5860      2.1629      1.8093      1.5233      1.2996    
  1.1311      1.0113     0.93474     0.89746     0.96350      1.0114      1.0939      1.2146      1.3783      1.5899    
  1.8540      2.1730      2.5450      2.9613      3.4038      3.8445      4.2474      4.5729      4.7851      4.8589    
  4.7851      4.5728      4.2473      3.8446      3.4039      2.9615      2.5452      2.1731      1.8541      1.5899    
  1.3783      1.2146      1.0938      1.0114     0.96348     0.94780      1.0776      1.1312      1.2146      1.3313    
  1.4850      1.6794      1.9171      2.1981      2.5178      2.8654      3.2223      3.5628      3.8565      4.0733    
  4.1886      4.1886      4.0733      3.8565      3.5628      3.2224      2.8655      2.5179      2.1982      1.9171    
  1.6794      1.4849      1.3312      1.2146      1.1311      1.0776      1.0514      1.0514      1.2458      1.2996    
  1.3783      1.4850      1.6229      1.7948      2.0016      2.2416      2.5083      2.7898      3.0682      3.3211    
  3.5245      3.6567      3.7026      3.6567      3.5245      3.3211      3.0682      2.7898      2.5084      2.2416    
  2.0016      1.7947      1.6228      1.4849      1.3782      1.2996      1.2458      1.2146      1.2043      1.2146    
  1.4764      1.5233      1.5899      1.6794      1.7948      1.9380      2.1091      2.3049      2.5178      2.7360    
  2.9432      3.1211      3.2518      3.3211      3.3211      3.2518      3.1211      2.9432      2.7360      2.5179    
  2.3049      2.1091      1.9379      1.7947      1.6793      1.5898      1.5233      1.4765      1.4467      1.4323    
  1.4322      1.4467      1.7790      1.8092      1.8540      1.9171      2.0016      2.1091      2.2388      2.3867    
  2.5450      2.7027      2.8461      2.9612      3.0358      3.0617      3.0358      2.9612      2.8460      2.7027    
  2.5451      2.3867      2.2388      2.1091      2.0016      1.9171      1.8540      1.8092      1.7791      1.7601    
  1.7498      1.7465      1.7497      1.7600      2.1628      2.1628      2.1730      2.1981      2.2416      2.3049    
  2.3867      2.4828      2.5858      2.6863      2.7738      2.8384      2.8727      2.8727      2.8384      2.7738    
  2.6864      2.5859      2.4828      2.3867      2.3049      2.2416      2.1981      2.1730      2.1629      2.1629    
  2.1682      2.1743      2.1781      2.1781      2.1742      2.1681      2.6340      2.5858      2.5450      2.5178    
  2.5083      2.5178      2.5450      2.5858      2.6340      2.6820      2.7226      2.7496      2.7590      2.7496    
  2.7226      2.6821      2.6340      2.5859      2.5451      2.5179      2.5083      2.5179      2.5451      2.5859    
  2.6340      2.6821      2.7226      2.7496      2.7590      2.7496      2.7226      2.6820      3.1912      3.0727    
  2.9613      2.8654      2.7898      2.7360      2.7027      2.6863      2.6820      2.6844      2.6888      2.6919    
  2.6919      2.6889      2.6845      2.6821      2.6864      2.7028      2.7360      2.7898      2.8655      2.9614    
  3.0727      3.1912      3.3062      3.4058      3.4792      3.5180      3.5180      3.4792      3.4058      3.3062    
  3.8216      3.6071      3.4038      3.2223      3.0682      2.9432      2.8461      2.7738      2.7226      2.6888    
  2.6697      2.6635      2.6698      2.6890      2.7228      2.7739      2.8462      2.9433      3.0683      3.2224    
  3.4039      3.6071      3.8215      4.0324      4.2222      4.3731      4.4702      4.5037      4.4702      4.3731    
  4.2223      4.0325      4.4969      4.1601      3.8445      3.5628      3.3211      3.1211      2.9612      2.8384    
  2.7496      2.6919      2.6635      2.6636      2.6920      2.7498      2.8386      2.9613      3.1212      3.3212    
  3.5628      3.8445      4.1600      4.4968      4.8355      5.1516      5.4184      5.6117      5.7132      5.7133    
  5.6118      5.4186      5.1517      4.8357      5.1733      4.6910      4.2474      3.8565      3.5245      3.2518    
  3.0358      2.8727      2.7590      2.6919      2.6698      2.6920      2.7592      2.8730      3.0360      3.2520    
  3.5246      3.8565      4.2473      4.6909      5.1731      5.6706      6.1512      6.5778      6.9136      7.1283    
  7.2022      7.1284      6.9137      6.5779      6.1514      5.6708      5.7939      5.1511      4.5729      4.0733    
  3.6567      3.3211      3.0617      2.8727      2.7496      2.6889      2.6890      2.7498      2.8730      3.0619    
  3.3213      3.6568      4.0733      4.5728      5.1509      5.7937      6.4749      7.1553      7.7866      8.3174    
  8.7008      8.9018      8.9018      8.7008      8.3174      7.7867      7.1554      6.4750      6.2967      5.4917    
  4.7851      4.1886      3.7026      3.3211      3.0358      2.8384      2.7226      2.6845      2.7228      2.8386    
  3.0360      3.3213      3.7027      4.1886      4.7850      5.4915      6.2966      7.1736      8.0793      8.9552    
  9.7343      10.349      10.744      10.880      10.744      10.349      9.7342      8.9552      8.0793      7.1737    
  6.6252      5.6732      4.8589      4.1886      3.6567      3.2518      2.9612      2.7738      2.6821      2.6821    
  2.7739      2.9613      3.2520      3.6568      4.1886      4.8588      5.6730      6.6251      7.6920      8.8302    
  9.9756      11.048      11.958      12.621      12.971      12.971      12.621      11.958      11.048      9.9756    
  8.8302      7.6920      6.7395      5.6731      4.7851      4.0733      3.5245      3.1211      2.8460      2.6864    
  2.6340      2.6864      2.8462      3.1212      3.5246      4.0733      4.7850      5.6730      6.7394      7.9685    
  9.3221      10.737      12.124      13.378      14.385      15.039      15.265      15.039      14.385      13.378    
  12.124      10.736      9.3221      7.9686      6.6252      5.4916      4.5728      3.8565      3.3211      2.9432    
  2.7027      2.5859      2.5859      2.7028      2.9433      3.3212      3.8565      4.5728      5.4915      6.6251    
  7.9685      9.4935      11.144      12.834      14.450      15.848      16.877      17.420      17.420      16.877    
  15.848      14.450      12.834      11.144      9.4935      7.9686      6.2966      5.1510      4.2473      3.5628    
  3.0682      2.7360      2.5451      2.4828      2.5451      2.7360      3.0683      3.5628      4.2473      5.1509    
  6.2966      7.6920      9.3221      11.144      13.083      15.028      16.818      18.257      19.185      19.506    
  19.185      18.257      16.818      15.028      13.083      11.144      9.3220      7.6920      5.7938      4.6909    
  3.8446      3.2224      2.7898      2.5179      2.3867      2.3867      2.5179      2.7898      3.2224      3.8445    
  4.6909      5.7937      7.1736      8.8302      10.737      12.834      15.028      17.158      18.997      20.345    
  21.057      21.057      20.345      18.997      17.158      15.028      12.834      10.736      8.8301      7.1736    
  5.1731      4.1601      3.4039      2.8655      2.5084      2.3049      2.2388      2.3049      2.5083      2.8655    
  3.4039      4.1600      5.1731      6.4749      8.0793      9.9756      12.124      14.450      16.818      18.997    
  20.749      21.885      22.279      21.885      20.750      18.997      16.818      14.450      12.124      9.9755    
  8.0792      6.4748      4.4968      3.6071      2.9615      2.5179      2.2416      2.1091      2.1091      2.2416    
  2.5179      2.9614      3.6071      4.4968      5.6706      7.1553      8.9552      11.048      13.378      15.848    
  18.257      20.345      21.885      22.703      22.704      21.885      20.345      18.257      15.848      13.378    
  11.048      8.9551      7.1552      5.6706      3.8215      3.0728      2.5452      2.1982      2.0016      1.9379    
  2.0016      2.1981      2.5451      3.0727      3.8215      4.8355      6.1512      7.7866      9.7343      11.958    
  14.385      16.877      19.185      21.057      22.279      22.704      22.279      21.057      19.185      16.877    
  14.385      11.958      9.7342      7.7865      6.1511      4.8355      3.1912      2.5860      2.1731      1.9171    
  1.7947      1.7947      1.9171      2.1730      2.5859      3.1912      4.0324      5.1516      6.5778      8.3174    
  10.349      12.621      15.039      17.420      19.506      21.057      21.885      21.885      21.057      19.506    
  17.420      15.039      12.621      10.349      8.3173      6.5776      5.1515      4.0324      2.6341      2.1629    
  1.8541      1.6794      1.6228      1.6793      1.8540      2.1629      2.6340      3.3062      4.2222      5.4184    
  6.9136      8.7008      10.744      12.971      15.265      17.420      19.185      20.345      20.750      20.345    
  19.185      17.420      15.265      12.971      10.744      8.7007      6.9135      5.4183      4.2221      3.3062    
  2.1630      1.8093      1.5899      1.4849      1.4849      1.5898      1.8092      2.1629      2.6821      3.4058    
  4.3731      5.6117      7.1283      8.9018      10.880      12.971      15.039      16.877      18.257      18.997    
  18.997      18.257      16.877      15.039      12.971      10.879      8.9017      7.1282      5.6116      4.3730    
  3.4058      2.6821      1.7791      1.5233      1.3783      1.3312      1.3782      1.5233      1.7791      2.1682    
  2.7226      3.4792      4.4702      5.7132      7.2022      8.9018      10.744      12.621      14.385      15.848    
  16.818      17.158      16.818      15.848      14.385      12.621      10.744      8.9017      7.2021      5.7131    
  4.4701      3.4792      2.7227      2.1682      1.4765      1.2996      1.2146      1.2146      1.2996      1.4765    
  1.7601      2.1743      2.7496      3.5180      4.5037      5.7133      7.1284      8.7008      10.349      11.958    
  13.378      14.450      15.028      15.028      14.450      13.378      11.958      10.349      8.7007      7.1282    
  5.7131      4.5036      3.5181      2.7497      2.1744      1.7602      1.2458      1.1311      1.0938      1.1311    
  1.2458      1.4467      1.7498      2.1781      2.7590      3.5180      4.4702      5.6118      6.9137      8.3174    
  9.7342      11.048      12.124      12.834      13.083      12.834      12.124      11.048      9.7342      8.3173    
  6.9135      5.6116      4.4701      3.5181      2.7591      2.1782      1.7499      1.4468      1.0775      1.0113    
  1.0114      1.0776      1.2146      1.4323      1.7465      2.1781      2.7496      3.4792      4.3731      5.4186    
  6.5779      7.7867      8.9552      9.9756      10.736      11.144      11.144      10.736      9.9755      8.9551    
  7.7865      6.5776      5.4183      4.3730      3.4792      2.7497      2.1782      1.7466      1.4323      1.2146    
 0.96344     0.93474     0.96348      1.0514      1.2043      1.4322      1.7497      2.1742      2.7226      3.4058    
  4.2223      5.1517      6.1514      7.1554      8.0793      8.8302      9.3221      9.4935      9.3220      8.8301    
  8.0792      7.1552      6.1511      5.1515      4.2221      3.4058      2.7227      2.1744      1.7499      1.4323    
  1.2043      1.0514     0.89744     0.89746     0.94780      1.0514      1.2146      1.4467      1.7600      2.1681    
  2.6820      3.3062      4.0325      4.8357      5.6708      6.4750      7.1737      7.6920      7.9686      7.9686    
  7.6920      7.1736      6.4748      5.6706      4.8355      4.0324      3.3062      2.6821      2.1682      1.7602    
  1.4468      1.2146      1.0514     0.94775     0.89748     0.93479      1.0114      1.1312      1.2996      1.5233    
  1.8092      2.1628      2.5858      3.0727      3.6071      4.1601      4.6910      5.1511      5.4917      5.6732    
  5.6731      5.4916      5.1510      4.6909      4.1601      3.6071      3.0728      2.5860      2.1629      1.8093    
  1.5233      1.2996      1.1311      1.0113     0.93474     0.89746     0.93479     0.98151      1.0621      1.1802    
  1.3405      1.5478      1.8065      2.1188      2.4828      2.8898      3.3221      3.7527      4.1462      4.4643    
  4.6718      4.7439      4.6718      4.4643      4.1462      3.7527      3.3222      2.8899      2.4829      2.1189    
  1.8066      1.5478      1.3405      1.1802      1.0620     0.98148     0.93476     0.91948      1.0114      1.0621    
  1.1414      1.2526      1.3995      1.5855      1.8130      2.0815      2.3867      2.7182      3.0584      3.3830    
  3.6633      3.8702      3.9803      3.9803      3.8702      3.6632      3.3830      3.0585      2.7183      2.3868    
  2.0816      1.8130      1.5855      1.3994      1.2525      1.1413      1.0621      1.0114     0.98672     0.98672    
  1.1312      1.1802      1.2526      1.3514      1.4797      1.6400      1.8330      2.0566      2.3049      2.5668    
  2.8258      3.0615      3.2512      3.3746      3.4175      3.3746      3.2511      3.0615      2.8259      2.5668    
  2.3050      2.0567      1.8330      1.6400      1.4797      1.3513      1.2525      1.1802      1.1312      1.1029    
  1.0936      1.1029      1.2996      1.3405      1.3995      1.4797      1.5840      1.7141      1.8698      2.0479    
  2.2416      2.4401      2.6289      2.7914      2.9109      2.9744      2.9744      2.9109      2.7914      2.6290    
  2.4402      2.2417      2.0479      1.8698      1.7141      1.5839      1.4796      1.3994      1.3405      1.2996    
  1.2741      1.2618      1.2618      1.2740      1.5233      1.5478      1.5855      1.6400      1.7141      1.8093    
  1.9247      2.0566      2.1981      2.3393      2.4680      2.5715      2.6389      2.6622      2.6388      2.5715    
  2.4680      2.3393      2.1981      2.0566      1.9247      1.8093      1.7141      1.6399      1.5855      1.5478    
  1.5233      1.5086      1.5009      1.4985      1.5008      1.5085      1.8092      1.8065      1.8130      1.8330    
  1.8698      1.9247      1.9966      2.0815      2.1730      2.2625      2.3407      2.3986      2.4294      2.4294    
  2.3986      2.3407      2.2625      2.1730      2.0815      1.9966      1.9247      1.8697      1.8329      1.8129    
  1.8065      1.8092      1.8163      1.8236      1.8280      1.8280      1.8235      1.8162      2.1628      2.1188    
  2.0815      2.0566      2.0479      2.0566      2.0815      2.1188      2.1628      2.2067      2.2438      2.2686    
  2.2772      2.2686      2.2439      2.2068      2.1629      2.1188      2.0815      2.0566      2.0478      2.0566    
  2.0815      2.1188      2.1628      2.2068      2.2439      2.2686      2.2772      2.2686      2.2438      2.2067    
  2.5858      2.4828      2.3867      2.3049      2.2416      2.1981      2.1730      2.1628      2.1628      2.1681    
  2.1742      2.1781      2.1781      2.1743      2.1682      2.1629      2.1629      2.1730      2.1981      2.2416    
  2.3049      2.3867      2.4828      2.5859      2.6863      2.7738      2.8384      2.8727      2.8727      2.8384    
  2.7738      2.6863      3.0727      2.8898      2.7182      2.5668      2.4401      2.3393      2.2625      2.2067    
  2.1681      2.1431      2.1292      2.1247      2.1292      2.1432      2.1682      2.2068      2.2626      2.3392    
  2.4401      2.5667      2.7182      2.8898      3.0727      3.2540      3.4185      3.5501      3.6352      3.6646    
  3.6352      3.5501      3.4185      3.2541      3.6071      3.3221      3.0584      2.8258      2.6289      2.4680    
  2.3407      2.2438      2.1742      2.1292      2.1070      2.1071      2.1293      2.1744      2.2440      2.3407    
  2.4679      2.6289      2.8258      3.0584      3.3221      3.6070      3.8969      4.1703      4.4034      4.5737    
  4.6636      4.6636      4.5737      4.4035      4.1704      3.8969      4.1601      3.7527      3.3830      3.0615    
  2.7914      2.5715      2.3986      2.2686      2.1781      2.1247      2.1071      2.1248      2.1783      2.2687    
  2.3987      2.5715      2.7913      3.0614      3.3829      3.7526      4.1600      4.5862      5.0036      5.3788    
  5.6777      5.8703      5.9369      5.8704      5.6777      5.3789      5.0037      4.5863      4.6910      4.1462    
  3.6633      3.2512      2.9109      2.6389      2.4294      2.2772      2.1781      2.1292      2.1293      2.1783    
  2.2774      2.4295      2.6389      2.9108      3.2510      3.6631      4.1461      4.6908      5.2770      5.8718    
  6.4322      6.9097      7.2584      7.4425      7.4425      7.2585      6.9098      6.4323      5.8719      5.2771    
  5.1511      4.4643      3.8702      3.3746      2.9744      2.6622      2.4294      2.2686      2.1743      2.1432    
  2.1744      2.2687      2.4295      2.6622      2.9743      3.3745      3.8701      4.4642      5.1509      5.9111    
  6.7093      7.4940      8.2020      8.7677      9.1335      9.2601      9.1335      8.7677      8.2020      7.4940    
  6.7094      5.9113      5.4917      4.6718      3.9803      3.4175      2.9744      2.6388      2.3986      2.2439    
  2.1682      2.1682      2.2440      2.3987      2.6389      2.9743      3.4173      3.9802      4.6716      5.4915    
  6.4251      7.4379      8.4738      9.4573      10.302      10.923      11.252      11.252      10.923      10.302    
  9.4572      8.4737      7.4380      6.4252      5.6732      4.7439      3.9803      3.3746      2.9109      2.5715    
  2.3407      2.2068      2.1629      2.2068      2.3407      2.5715      2.9108      3.3745      3.9802      4.7438    
  5.6730      6.7609      7.9787      9.2716      10.557      11.732      12.681      13.301      13.516      13.301    
  12.681      11.732      10.557      9.2716      7.9788      6.7610      5.6731      4.6718      3.8702      3.2511    
  2.7914      2.4680      2.2625      2.1629      2.1629      2.2626      2.4679      2.7913      3.2510      3.8701    
  4.6716      5.6730      6.8777      8.2674      9.7948      11.379      12.908      14.241      15.235      15.767    
  15.767      15.235      14.241      12.908      11.379      9.7948      8.2675      6.8778      5.4916      4.4643    
  3.6632      3.0615      2.6290      2.3393      2.1730      2.1188      2.1730      2.3392      2.6289      3.0614    
  3.6631      4.4642      5.4915      6.7609      8.2674      9.9772      11.820      13.685      15.420      16.846    
  17.790      18.121      17.790      16.847      15.420      13.685      11.820      9.9773      8.2675      6.7610    
  5.1510      4.1462      3.3830      2.8259      2.4402      2.1981      2.0815      2.0815      2.1981      2.4401    
  2.8258      3.3829      4.1461      5.1509      6.4251      7.9787      9.7948      11.820      13.957      16.057    
  17.923      19.334      20.094      20.094      19.334      17.923      16.057      13.957      11.820      9.7948    
  7.9788      6.4252      4.6909      3.7527      3.0585      2.5668      2.2417      2.0566      1.9966      2.0566    
  2.2416      2.5667      3.0584      3.7526      4.6908      5.9111      7.4379      9.2716      11.379      13.685    
  16.057      18.302      20.171      21.411      21.846      21.411      20.171      18.302      16.057      13.685    
  11.379      9.2716      7.4379      5.9112      4.1601      3.3222      2.7183      2.3050      2.0479      1.9247    
  1.9247      2.0478      2.3049      2.7182      3.3221      4.1600      5.2770      6.7093      8.4738      10.557    
  12.908      15.420      17.923      20.171      21.874      22.795      22.795      21.875      20.171      17.923    
  15.420      12.908      10.557      8.4737      6.7093      5.2770      3.6071      2.8899      2.3868      2.0567    
  1.8698      1.8093      1.8697      2.0566      2.3867      2.8898      3.6070      4.5862      5.8718      7.4940    
  9.4573      11.732      14.241      16.846      19.334      21.411      22.795      23.280      22.795      21.411    
  19.334      16.846      14.241      11.732      9.4572      7.4939      5.8718      4.5862      3.0728      2.4829    
  2.0816      1.8330      1.7141      1.7141      1.8329      2.0815      2.4828      3.0727      3.8969      5.0036    
  6.4322      8.2020      10.302      12.681      15.235      17.790      20.094      21.846      22.795      22.795    
  21.846      20.094      17.790      15.235      12.681      10.302      8.2019      6.4321      5.0035      3.8969    
  2.5860      2.1189      1.8130      1.6400      1.5839      1.6399      1.8129      2.1188      2.5859      3.2540    
  4.1703      5.3788      6.9097      8.7677      10.923      13.301      15.767      18.121      20.094      21.411    
  21.875      21.411      20.094      18.121      15.767      13.301      10.923      8.7676      6.9096      5.3788    
  4.1703      3.2542      2.1629      1.8066      1.5855      1.4797      1.4796      1.5855      1.8065      2.1628    
  2.6863      3.4185      4.4034      5.6777      7.2584      9.1335      11.252      13.516      15.767      17.790    
  19.334      20.171      20.171      19.334      17.790      15.767      13.516      11.252      9.1334      7.2583    
  5.6776      4.4035      3.4186      2.6865      1.8093      1.5478      1.3994      1.3513      1.3994      1.5478    
  1.8092      2.2068      2.7738      3.5501      4.5737      5.8703      7.4425      9.2601      11.252      13.301    
  15.235      16.847      17.923      18.302      17.923      16.846      15.235      13.301      11.252      9.2600    
  7.4424      5.8703      4.5737      3.5502      2.7740      2.2069      1.5233      1.3405      1.2525      1.2525    
  1.3405      1.5233      1.8163      2.2439      2.8384      3.6352      4.6636      5.9369      7.4425      9.1335    
  10.923      12.681      14.241      15.420      16.057      16.057      15.420      14.241      12.681      10.923    
  9.1334      7.4424      5.9369      4.6636      3.6353      2.8386      2.2440      1.8164      1.2996      1.1802    
  1.1413      1.1802      1.2996      1.5086      1.8236      2.2686      2.8727      3.6646      4.6636      5.8704    
  7.2585      8.7677      10.302      11.732      12.908      13.685      13.957      13.685      12.908      11.732    
  10.302      8.7676      7.2583      5.8703      4.6636      3.6648      2.8730      2.2688      1.8237      1.5086    
  1.1311      1.0620      1.0621      1.1312      1.2741      1.5009      1.8280      2.2772      2.8727      3.6352    
  4.5737      5.6777      6.9098      8.2020      9.4572      10.557      11.379      11.820      11.820      11.379    
  10.557      9.4572      8.2019      6.9096      5.6776      4.5737      3.6353      2.8730      2.2774      1.8281    
  1.5009      1.2740      1.0113     0.98148      1.0114      1.1029      1.2618      1.4985      1.8280      2.2686    
  2.8384      3.5501      4.4035      5.3789      6.4323      7.4940      8.4737      9.2716      9.7948      9.9773    
  9.7948      9.2716      8.4737      7.4939      6.4321      5.3788      4.4035      3.5502      2.8386      2.2688    
  1.8281      1.4985      1.2617      1.1028     0.93474     0.93476     0.98672      1.0936      1.2618      1.5008    
  1.8235      2.2438      2.7738      3.4185      4.1704      5.0037      5.8719      6.7094      7.4380      7.9788    
  8.2675      8.2675      7.9788      7.4379      6.7093      5.8718      5.0035      4.1703      3.4186      2.7740    
  2.2440      1.8237      1.5009      1.2617      1.0936     0.98666     0.89746     0.91948     0.98672      1.1029    
  1.2740      1.5085      1.8162      2.2067      2.6863      3.2541      3.8969      4.5863      5.2771      5.9113    
  6.4252      6.7610      6.8778      6.7610      6.4252      5.9112      5.2770      4.5862      3.8969      3.2542    
  2.6865      2.2069      1.8164      1.5086      1.2740      1.1028     0.98666     0.91944     0.96350      1.0114    
  1.0939      1.2146      1.3783      1.5899      1.8540      2.1730      2.5450      2.9613      3.4038      3.8445    
  4.2474      4.5729      4.7851      4.8589      4.7851      4.5728      4.2473      3.8445      3.4039      2.9614    
  2.5452      2.1731      1.8541      1.5899      1.3783      1.2146      1.0938      1.0114     0.96348     0.94781    
  1.0114      1.0621      1.1414      1.2526      1.3995      1.5855      1.8130      2.0815      2.3867      2.7182    
  3.0584      3.3830      3.6633      3.8702      3.9803      3.9803      3.8702      3.6632      3.3830      3.0585    
  2.7183      2.3868      2.0816      1.8130      1.5855      1.3994      1.2525      1.1413      1.0621      1.0114    
 0.98672     0.98672      1.0939      1.1414      1.2117      1.3079      1.4332      1.5898      1.7782      1.9966    
  2.2388      2.4943      2.7471      2.9770      3.1622      3.2828      3.3246      3.2828      3.1622      2.9770    
  2.7471      2.4944      2.2389      1.9966      1.7783      1.5897      1.4331      1.3079      1.2116      1.1413    
  1.0939      1.0665      1.0576      1.0665      1.2146      1.2526      1.3079      1.3838      1.4829      1.6068    
  1.7551      1.9247      2.1091      2.2982      2.4781      2.6330      2.7471      2.8078      2.8078      2.7471    
  2.6330      2.4781      2.2982      2.1092      1.9247      1.7551      1.6068      1.4828      1.3837      1.3079    
  1.2526      1.2146      1.1911      1.1800      1.1799      1.1911      1.3783      1.3995      1.4332      1.4829    
  1.5513      1.6396      1.7470      1.8698      2.0016      2.1333      2.2536      2.3506      2.4137      2.4357    
  2.4137      2.3506      2.2536      2.1333      2.0017      1.8698      1.7470      1.6396      1.5512      1.4828    
  1.4332      1.3995      1.3783      1.3661      1.3600      1.3582      1.3600      1.3661      1.5899      1.5855    
  1.5898      1.6068      1.6396      1.6894      1.7551      1.8330      1.9171      1.9997      2.0720      2.1258    
  2.1544      2.1544      2.1258      2.0720      1.9997      1.9171      1.8330      1.7551      1.6894      1.6396    
  1.6067      1.5897      1.5855      1.5899      1.5983      1.6065      1.6115      1.6114      1.6065      1.5983    
  1.8540      1.8130      1.7782      1.7551      1.7470      1.7551      1.7782      1.8130      1.8540      1.8951    
  1.9299      1.9532      1.9613      1.9532      1.9299      1.8951      1.8540      1.8130      1.7782      1.7551    
  1.7469      1.7551      1.7782      1.8130      1.8540      1.8951      1.9299      1.9532      1.9613      1.9532    
  1.9299      1.8951      2.1730      2.0815      1.9966      1.9247      1.8698      1.8330      1.8130      1.8065    
  1.8092      1.8162      1.8235      1.8280      1.8280      1.8236      1.8163      1.8092      1.8065      1.8129    
  1.8329      1.8697      1.9247      1.9966      2.0815      2.1730      2.2625      2.3407      2.3986      2.4294    
  2.4294      2.3986      2.3407      2.2625      2.5450      2.3867      2.2388      2.1091      2.0016      1.9171    
  1.8540      1.8092      1.7790      1.7600      1.7497      1.7465      1.7498      1.7601      1.7791      1.8092    
  1.8540      1.9171      2.0016      2.1091      2.2388      2.3867      2.5451      2.7027      2.8460      2.9612    
  3.0358      3.0617      3.0358      2.9612      2.8461      2.7027      2.9613      2.7182      2.4943      2.2982    
  2.1333      1.9997      1.8951      1.8162      1.7600      1.7239      1.7063      1.7063      1.7240      1.7601    
  1.8163      1.8951      1.9996      2.1332      2.2981      2.4942      2.7182      2.9613      3.2099      3.4456    
  3.6474      3.7954      3.8737      3.8737      3.7954      3.6475      3.4456      3.2100      3.4038      3.0584    
  2.7471      2.4781      2.2536      2.0720      1.9299      1.8235      1.7497      1.7063      1.6919      1.7063    
  1.7498      1.8236      1.9299      2.0719      2.2535      2.4779      2.7469      3.0583      3.4038      3.7675    
  4.1260      4.4503      4.7099      4.8780      4.9362      4.8780      4.7100      4.4504      4.1261      3.7675    
  3.8445      3.3830      2.9770      2.6330      2.3506      2.1258      1.9532      1.8280      1.7465      1.7063    
  1.7063      1.7466      1.8281      1.9532      2.1257      2.3505      2.6328      2.9768      3.3829      3.8444    
  4.3451      4.8572      5.3433      5.7602      6.0661      6.2282      6.2282      6.0662      5.7602      5.3433    
  4.8573      4.3452      4.2474      3.6633      3.1622      2.7471      2.4137      2.1544      1.9613      1.8280    
  1.7498      1.7240      1.7498      1.8281      1.9614      2.1544      2.4136      2.7470      3.1620      3.6631    