 running on    8 total cores
 distrk:  each k-point on    8 cores,    1 groups
 distr:  one band on    1 cores,    8 groups
 using from now: INCAR     
 vasp.5.4.4.18Apr17-6-g9f103f2a35 (build Dec 09 2018 21:25:21) complex          
  
 POSCAR found type information on POSCAR  Si
 POSCAR found :  1 types and       2 ions
 scaLAPACK will be used

 ----------------------------------------------------------------------------- 
|                                                                             |
|           W    W    AA    RRRRR   N    N  II  N    N   GGGG   !!!           |
|           W    W   A  A   R    R  NN   N  II  NN   N  G    G  !!!           |
|           W    W  A    A  R    R  N N  N  II  N N  N  G       !!!           |
|           W WW W  AAAAAA  RRRRR   N  N N  II  N  N N  G  GGG   !            |
|           WW  WW  A    A  R   R   N   NN  II  N   NN  G    G                |
|           W    W  A    A  R    R  N    N  II  N    N   GGGG   !!!           |
|                                                                             |
|      For optimal performance we recommend to set                            |
|        NCORE= 4 - approx SQRT( number of cores)                             |
|      NCORE specifies how many cores store one orbital (NPAR=cpu/NCORE).     |
|      This setting can  greatly improve the performance of VASP for DFT.     |
|      The default,   NCORE=1            might be grossly inefficient         |
|      on modern multi-core architectures or massively parallel machines.     |
|      Do your own testing !!!!                                               |
|      Unfortunately you need to use the default for GW and RPA calculations. |
|      (for HF NCORE is supported but not extensively tested yet)             |
|                                                                             |
 ----------------------------------------------------------------------------- 

 LDA part: xc-table for Pade appr. of Perdew
 POSCAR, INCAR and KPOINTS ok, starting setup
 FFT: planning ...
 WAVECAR not read
 entering main loop
       N       E                     dE             d eps       ncg     rms          rms(c)
DAV:   1    -0.382354495331E+00   -0.38235E+00   -0.23689E+03   608   0.451E+02
DAV:   2    -0.109048726501E+02   -0.10523E+02   -0.10174E+02   920   0.606E+01
DAV:   3    -0.110013170989E+02   -0.96444E-01   -0.96444E-01   672   0.732E+00
DAV:   4    -0.110016503617E+02   -0.33326E-03   -0.33326E-03   944   0.434E-01
DAV:   5    -0.110016504579E+02   -0.96174E-07   -0.95736E-07   664   0.705E-03    0.300E+00
DAV:   6    -0.108772539310E+02    0.12440E+00   -0.81735E-02   672   0.149E+00    0.178E+00
DAV:   7    -0.108207332342E+02    0.56521E-01   -0.15000E-01   704   0.214E+00    0.153E-01
DAV:   8    -0.108220331171E+02   -0.12999E-02   -0.39238E-03   600   0.463E-01    0.247E-02
DAV:   9    -0.108221246014E+02   -0.91484E-04   -0.92730E-05   472   0.764E-02
   1 F= -.10822125E+02 E0= -.10822043E+02  d E =-.108221E+02
 curvature:   0.00 expect dE= 0.000E+00 dE for cont linesearch  0.000E+00
 trial: gam= 0.00000 g(F)=  0.847E-44 g(S)=  0.150E-01 ort = 0.000E+00 (trialstep = 0.100E+01)
 search vector abs. value=  0.150E-01
 bond charge predicted
       N       E                     dE             d eps       ncg     rms          rms(c)
DAV:   1    -0.108302598381E+02   -0.82267E-02   -0.22770E-01   672   0.265E+00    0.303E-01
DAV:   2    -0.108263763875E+02    0.38835E-02   -0.31939E-03   704   0.364E-01    0.174E-01
DAV:   3    -0.108243750332E+02    0.20014E-02   -0.40898E-03   648   0.322E-01    0.217E-02
DAV:   4    -0.108243648461E+02    0.10187E-04   -0.42238E-05   280   0.577E-02
   2 F= -.10824365E+02 E0= -.10824315E+02  d E =-.224024E-02
 trial-energy change:   -0.002240  1 .order   -0.002563   -0.014992    0.009866
 step:   0.6031(harm=  0.6031)  dis= 0.00000  next Energy=   -10.826646 (dE=-0.452E-02)
 bond charge predicted
       N       E                     dE             d eps       ncg     rms          rms(c)
DAV:   1    -0.108273475077E+02   -0.29725E-02   -0.36723E-02   680   0.107E+00    0.122E-01
DAV:   2    -0.108267354894E+02    0.61202E-03   -0.50153E-04   648   0.143E-01    0.701E-02
DAV:   3    -0.108264142966E+02    0.32119E-03   -0.63913E-04   376   0.129E-01
   3 F= -.10826414E+02 E0= -.10826354E+02  d E =-.428970E-02
 curvature:  -0.30 expect dE=-0.385E-05 dE for cont linesearch -0.385E-05
 trial: gam= 0.00000 g(F)=  0.396E-44 g(S)=  0.128E-04 ort =-0.438E-03 (trialstep = 0.921E+00)
 search vector abs. value=  0.128E-04
 reached required accuracy - stopping structural energy minimisation
 writing wavefunctions
