       N       E                     dE             d eps       ncg     rms          rms(c)
DAV:   1    -0.251026795155E+01   -0.25103E+01   -0.20753E+03   328   0.380E+02
DAV:   2    -0.109043710990E+02   -0.83941E+01   -0.81825E+01   544   0.533E+01
DAV:   3    -0.109687435301E+02   -0.64372E-01   -0.64372E-01   400   0.588E+00
DAV:   4    -0.109688796839E+02   -0.13615E-03   -0.13615E-03   512   0.261E-01
DAV:   5    -0.109688797203E+02   -0.36340E-07   -0.37048E-07   352   0.450E-03    0.300E+00
DAV:   6    -0.108436751957E+02    0.12520E+00   -0.80932E-02   392   0.147E+00    0.178E+00
DAV:   7    -0.107865245440E+02    0.57151E-01   -0.14911E-01   392   0.213E+00    0.152E-01
DAV:   8    -0.107878483304E+02   -0.13238E-02   -0.37289E-03   368   0.443E-01    0.246E-02
DAV:   9    -0.107879412384E+02   -0.92908E-04   -0.87877E-05   240   0.740E-02
   1 F= -.10787941E+02 E0= -.10787769E+02  d E =-.107879E+02
