unknown system                          
   1.00000000000000     
    -2.450000    2.450000    1.274000
     2.450000   -2.450000    1.274000
     2.450000    2.450000   -1.274000
   Si
     2
Direct
  0.250000  0.750000  0.500000
  0.000000  0.000000  0.000000
 
   28   28   28
 -5.4705     -3.9362     0.52695E-01  4.9718      9.1353      11.434      11.687      10.500      8.8100      7.1981    
  5.8396      4.8011      4.0857      3.6705      3.5346      3.6704      4.0857      4.8013      5.8396      7.1980    
  8.8100      10.500      11.686      11.434      9.1353      4.9718     0.52538E-01 -3.9364     -3.9364     -4.7274    
 -2.5768      1.6503      6.3559      9.9809      11.657      11.430      10.025      8.3344      6.7855      5.5144    
  4.5673      3.9369      3.5987      3.5345      3.7406      4.2281      5.0195      6.1340      7.5577      9.2059    
  10.859      11.821      11.195      8.5230      4.1971     -.51743     0.52538E-01 -2.5770     -2.6369     -.11278    
  3.9673      8.0620      10.849      11.751      11.024      9.4562      7.8040      6.3426      5.1758      4.3299    
  3.7889      3.5287      3.5343      3.8058      4.3569      5.2107      6.3817      7.8454      9.5024      11.093    
  11.877      11.043      8.2998      4.1971      4.9718      1.6503     -.11285     0.41911      3.0085      6.5752    
  9.7535      11.532      11.629      10.470      8.8319      7.2479      5.8936      4.8418      4.1006      3.6488    
  3.4638      3.5342      3.8629      4.4656      5.3645      6.5692      8.0458      9.6857      11.208      11.891    
  11.043      8.5230      9.1353      6.3559      3.9673      3.0085      3.9073      6.2544      9.0292      11.129    
  11.879      11.265      9.8126      8.1875      6.6970      5.4628      4.5292      3.8908      3.5236      3.4075    
  3.5344      3.9090      4.5481      5.4723      6.6860      8.1486      9.7476      11.208      11.877      11.195    
  11.434      9.9809      8.0620      6.5752      6.2545      7.2683      9.1299      10.969      11.989      11.835    
  10.696      9.1222      7.5596      6.1813      5.0721      4.2535      3.7106      3.4194      3.3627      3.5347    
  3.9415      4.5998      5.5279      6.7257      8.1486      9.6857      11.093      11.821      11.686      11.657    
  10.849      9.7535      9.0292      9.1300      10.039      11.281      12.191      12.276      11.447      10.019    
  8.4537      6.9831      5.7272      4.7402      4.0270      3.5682      3.3413      3.3317      3.5351      3.9583    
  4.6174      5.5279      6.6860      8.0458      9.5024      10.859      10.500      11.430      11.751      11.532    
  11.129      10.969      11.281      11.943      12.555      12.673      12.069      10.845      9.3479      7.8480    
  6.4885      5.3555      4.4807      3.8590      3.4699      3.2931      3.3159      3.5352      3.9583      4.5998    
  5.4723      6.5692      7.8454      9.2059      8.8100      10.025      11.024      11.630      11.879      11.989    
  12.191      12.555      12.921      13.000      12.553      11.550      10.199      8.7440      7.3405      6.0994    
  5.0811      4.3032      3.7559      3.4197      3.2768      3.3159      3.5351      3.9415      4.5481      5.3645    
  6.3817      7.5577      7.1980      8.3344      9.4563      10.470      11.265      11.835      12.276      12.673    
  13.000      13.109      12.825      12.072      10.944      9.6211      8.2510      6.9591      5.8319      4.9133    
  4.2132      3.7212      3.4197      3.2931      3.3317      3.5347      3.9090      4.4656      5.2107      6.1340    
  5.8396      6.7854      7.8039      8.8319      9.8127      10.696      11.447      12.069      12.553      12.825    
  12.776      12.327      11.504      10.409      9.1669      7.9031      6.7229      5.6960      4.8569      4.2132    
  3.7559      3.4699      3.3413      3.3627      3.5344      3.8629      4.3569      5.0195      4.8013      5.5145    
  6.3425      7.2478      8.1875      9.1222      10.019      10.845      11.550      12.072      12.327      12.242    
  11.796      11.025      10.015      8.8772      7.7234      6.6430      5.6960      4.9133      4.3032      3.8590    
  3.5682      3.4194      3.4075      3.5342      3.8058      4.2281      4.0857      4.5674      5.1759      5.8936    
  6.6969      7.5595      8.4538      9.3479      10.199      10.944      11.504      11.796      11.762      11.387    
  10.709      9.8055      8.7778      7.7234      6.7229      5.8319      5.0811      4.4807      4.0270      3.7106    
  3.5236      3.4638      3.5343      3.7406      3.6704      3.9369      4.3299      4.8418      5.4628      6.1813    
  6.9831      7.8480      8.7440      9.6212      10.409      11.025      11.387      11.439      11.165      10.598    
  9.8055      8.8772      7.9031      6.9591      6.0994      5.3555      4.7402      4.2535      3.8908      3.6488    
  3.5287      3.5345      3.5346      3.5986      3.7888      4.1005      4.5293      5.0722      5.7271      6.4885    
  7.3405      8.2510      9.1670      10.015      10.709      11.165      11.325      11.165      10.709      10.015    
  9.1669      8.2510      7.3405      6.4885      5.7272      5.0721      4.5292      4.1006      3.7889      3.5987    
  3.6705      3.5345      3.5285      3.6486      3.8907      4.2535      4.7402      5.3555      6.0993      6.9591    
  7.9031      8.8773      9.8055      10.598      11.165      11.439      11.387      11.025      10.409      9.6211    
  8.7440      7.8480      6.9831      6.1813      5.4628      4.8418      4.3299      3.9369      4.0857      3.7406    
  3.5343      3.4636      3.5234      3.7104      4.0269      4.4807      5.0812      5.8319      6.7229      7.7234    
  8.7778      9.8055      10.709      11.387      11.762      11.796      11.504      10.944      10.199      9.3479    
  8.4537      7.5596      6.6970      5.8936      5.1758      4.5673      4.8011      4.2279      3.8057      3.5342    
  3.4074      3.4193      3.5681      3.8590      4.3032      4.9134      5.6960      6.6430      7.7234      8.8773    
  10.015      11.025      11.796      12.242      12.327      12.072      11.550      10.845      10.019      9.1222    
  8.1875      7.2479      6.3426      5.5144      5.8396      5.0193      4.3567      3.8628      3.5343      3.3627    
  3.3413      3.4699      3.7559      4.2132      4.8570      5.6960      6.7229      7.9031      9.1670      10.409    
  11.504      12.327      12.776      12.825      12.553      12.069      11.447      10.696      9.8126      8.8319    
  7.8040      6.7855      7.1981      6.1340      5.2105      4.4654      3.9089      3.5347      3.3318      3.2932    
  3.4198      3.7211      4.2132      4.9134      5.8319      6.9591      8.2510      9.6212      10.944      12.072    
  12.825      13.109      13.000      12.673      12.276      11.835      11.265      10.470      9.4562      8.3344    
  8.8100      7.5578      6.3817      5.3645      4.5481      3.9414      3.5351      3.3160      3.2769      3.4198    
  3.7559      4.3032      5.0812      6.0993      7.3405      8.7440      10.199      11.550      12.553      13.000    
  12.921      12.555      12.191      11.989      11.879      11.629      11.024      10.025      10.500      9.2058    
  7.8454      6.5692      5.4724      4.5998      3.9582      3.5353      3.3160      3.2932      3.4699      3.8590    
  4.4807      5.3555      6.4885      7.8480      9.3479      10.845      12.069      12.673      12.555      11.943    
  11.281      10.969      11.129      11.532      11.751      11.430      11.687      10.859      9.5023      8.0457    
  6.6861      5.5280      4.6174      3.9582      3.5351      3.3318      3.3413      3.5681      4.0269      4.7402    
  5.7271      6.9831      8.4538      10.019      11.447      12.276      12.191      11.281      10.039      9.1299    
  9.0292      9.7535      10.849      11.657      11.434      11.821      11.093      9.6855      8.1485      6.7258    
  5.5280      4.5998      3.9414      3.5347      3.3627      3.4193      3.7104      4.2535      5.0722      6.1813    
  7.5595      9.1222      10.696      11.835      11.989      10.969      9.1300      7.2683      6.2544      6.5752    
  8.0620      9.9809      9.1353      11.195      11.878      11.208      9.7475      8.1485      6.6861      5.4724    
  4.5481      3.9089      3.5343      3.4074      3.5234      3.8907      4.5293      5.4628      6.6969      8.1875    
  9.8127      11.265      11.879      11.129      9.0292      6.2545      3.9073      3.0085      3.9673      6.3559    
  4.9718      8.5229      11.044      11.892      11.208      9.6855      8.0457      6.5692      5.3645      4.4654    
  3.8628      3.5342      3.4636      3.6486      4.1005      4.8418      5.8936      7.2478      8.8319      10.470    
  11.630      11.532      9.7535      6.5752      3.0085     0.41911     -.11278      1.6503     0.52695E-01  4.1971    
  8.2997      11.044      11.878      11.093      9.5023      7.8454      6.3817      5.2105      4.3567      3.8057    
  3.5343      3.5285      3.7888      4.3299      5.1759      6.3425      7.8039      9.4563      11.024      11.751    
  10.849      8.0620      3.9673     -.11285     -2.6369     -2.5768     -3.9362     -.51724      4.1971      8.5229    
  11.195      11.821      10.859      9.2058      7.5578      6.1340      5.0193      4.2279      3.7406      3.5345    
  3.5986      3.9369      4.5674      5.5145      6.7854      8.3344      10.025      11.430      11.657      9.9809    
  6.3559      1.6503     -2.5770     -4.7274     -3.9359     -2.8251     0.64913      5.1371      9.0500      11.273    
  11.550      10.405      8.7257      7.1057      5.7291      4.6680      3.9281      3.4854      3.3157      3.4082    
  3.7693      4.4203      5.3874      6.6757      8.2323      9.9103      11.246      11.361      9.6046      6.0311    
  1.5724     -2.2398     -2.8254     -3.9359     -2.2397      1.5725      6.0311      9.6047      11.361      11.246    
  9.9103      8.2324      6.6758      5.3874      4.4202      3.7693      3.4083      3.3157      3.4853      3.9281    
  4.6681      5.7290      7.1055      8.7256      10.405      11.550      11.273      9.0500      5.1371     0.64902    
 0.76995     -2.1072     -2.5766     -.46531      3.3502      7.3955      10.309      11.405      10.838      9.3396    
  7.6979      6.2278      5.0449      4.1821      3.6253      3.3476      3.3316      3.5757      4.0947      4.9138    
  6.0528      7.4953      9.1535      10.806      11.778      11.239      8.8107      4.9186      5.4351      1.9172    
 -.21995     -.11263      2.1619      5.6318      8.9335      10.962      11.312      10.314      8.7255      7.1481    
  5.7840      4.7179      3.9642      3.5019      3.3058      3.3627      3.6755      4.2612      5.1450      6.3415    
  7.8245      9.4945      11.103      11.958      11.325      8.9714      9.5106      6.5853      3.8696      2.4857    
  3.0085      5.1666      7.9940      10.334      11.390      11.024      9.6959      8.0994      6.6102      5.3658    
  4.4215      3.7758      3.4042      3.2844      3.4076      3.7796      4.4189      5.3490      6.5791      8.0748    
  9.7301      11.289      12.099      11.543      11.845      10.306      8.1327      6.2585      5.5287      6.2544    
  8.0480      10.042      11.350      11.488      10.544      9.0385      7.4916      6.1105      4.9929      4.1685    
  3.6247      3.3362      3.2845      3.4641      3.8827      4.5589      5.5139      6.7514      8.2312      9.8455    
  11.355      12.188      12.184      12.136      11.168      9.7676      8.6579      8.4112      9.1298      10.393    
  11.500      11.853      11.249      9.9347      8.3979      6.9331      5.6728      4.6816      3.9693      3.5169    
  3.3008      3.3058      3.5290      3.9788      4.6731      5.6297      6.8476      8.2830      9.8310      11.287    
  11.071      12.043      12.304      11.892      11.184      10.684      10.729      11.281      11.957      12.256    
  11.851      10.756      9.2992      7.8112      6.4519      5.3169      4.4445      3.8316      3.4570      3.2998    
  3.3477      3.5991      4.0627      4.7546      5.6891      6.8610      8.2252      9.6833      9.4067      10.704    
  11.727      12.255      12.313      12.151      12.079      12.249      12.554      12.695      12.370      11.472    
  10.158      8.7139      7.3125      6.0713      5.0572      4.2902      3.7606      3.4478      3.3337      3.4083    
  3.6708      4.1295      4.7985      5.6882      6.7897      8.0589      7.7921      9.0143      10.202      11.230    
  11.946      12.346      12.564      12.750      12.936      13.000      12.742      12.033      10.918      9.5945    
  8.2225      6.9304      5.8087      4.9034      4.2241      3.7592      3.4903      3.4018      3.4853      3.7407    
  4.1760      4.8025      5.6267      6.6373      6.4119      7.4394      8.5280      9.5999      10.582      11.395    
  12.005      12.453      12.774      12.933      12.825      12.350      11.500      10.385      9.1299      7.8617    
  6.6867      5.6753      4.8609      4.2488      3.8284      3.5839      3.5019      3.5755      3.8057      4.1997    
  4.7664      5.5082      5.3393      6.1263      7.0214      7.9767      8.9370      9.8518      10.683      11.394    
  11.960      12.348      12.495      12.327      11.815      11.000      9.9611      8.8106      7.6590      6.5952    
  5.6769      4.9316      4.3644      3.9669      3.7259      3.6303      3.6751      3.8626      4.1997      4.6922    
  4.5841      5.1292      5.7971      6.5631      7.3943      8.2549      9.1104      9.9285      10.674      11.297    
  11.735      11.919      11.796      11.354      10.629      9.7013      8.6697      7.6311      6.6627      5.8151    
  5.1148      4.5685      4.1708      3.9112      3.7813      3.7792      3.9086      4.1758      4.1293      4.4476    
  4.8898      5.4433      6.0917      6.8159      7.5952      8.4058      9.2178      9.9889      10.661      11.161    
  11.420      11.387      11.051      10.445      9.6401      8.7244      7.7840      6.8888      6.0872      5.4063    
  4.8556      4.4329      4.1317      3.9477      3.8822      3.9410      3.9578      4.0623      4.2902      4.6342    
  5.0852      5.6345      6.2744      6.9952      7.7799      8.5994      9.4077      10.141      10.724      11.083    
  11.165      10.955      10.476      9.7901      8.9757      8.1122      7.2663      6.4853      5.7976      5.2158    
  4.7425      4.3770      4.1205      3.9785      4.0625      3.9578      3.9784      4.1204      4.3768      4.7424    
  5.2157      5.7975      6.4852      7.2662      8.1122      8.9757      9.7901      10.476      10.955      11.165    
  11.083      10.724      10.141      9.4077      8.5995      7.7800      6.9953      6.2745      5.6345      5.0852    
  4.6343      4.2903      4.4477      4.1294      3.9410      3.8821      3.9475      4.1316      4.4328      4.8555    
  5.4062      6.0872      6.8887      7.7840      8.7245      9.6401      10.445      11.051      11.387      11.420    
  11.161      10.661      9.9889      9.2178      8.4059      7.5953      6.8161      6.0918      5.4433      4.8898    
  5.1291      4.5841      4.1759      3.9086      3.7791      3.7813      3.9111      4.1707      4.5684      5.1148    
  5.8151      6.6626      7.6311      8.6697      9.7013      10.629      11.354      11.796      11.919      11.735    
  11.297      10.674      9.9286      9.1104      8.2550      7.3945      6.5631      5.7970      6.1262      5.3391    
  4.6922      4.1997      3.8627      3.6751      3.6303      3.7259      3.9669      4.3644      4.9316      5.6769    
  6.5952      7.6590      8.8106      9.9611      10.999      11.815      12.327      12.495      12.348      11.960    
  11.394      10.683      9.8517      8.9370      7.9768      7.0215      7.4395      6.4118      5.5081      4.7663    
  4.1997      3.8057      3.5756      3.5020      3.5839      3.8284      4.2488      4.8609      5.6753      6.6867    
  7.8617      9.1299      10.385      11.500      12.350      12.825      12.933      12.774      12.453      12.005    
  11.395      10.581      9.5999      8.5281      9.0143      7.7921      6.6372      5.6267      4.8024      4.1759    
  3.7407      3.4853      3.4018      3.4903      3.7592      4.2242      4.9035      5.8087      6.9304      8.2226    
  9.5946      10.918      12.033      12.742      13.000      12.936      12.750      12.564      12.346      11.946    
  11.229      10.202      10.704      9.4066      8.0588      6.7897      5.6881      4.7985      4.1294      3.6707    
  3.4083      3.3337      3.4477      3.7606      4.2903      5.0573      6.0713      7.3125      8.7140      10.158    
  11.472      12.370      12.695      12.554      12.249      12.079      12.151      12.313      12.255      11.727    
  12.043      11.071      9.6831      8.2251      6.8609      5.6891      4.7545      4.0625      3.5990      3.3477    
  3.2997      3.4570      3.8316      4.4446      5.3170      6.4519      7.8112      9.2993      10.756      11.850    
  12.256      11.957      11.281      10.729      10.684      11.184      11.892      12.304      12.136      12.184    
  11.286      9.8309      8.2829      6.8476      5.6298      4.6731      3.9787      3.5289      3.3058      3.3007    
  3.5169      3.9694      4.6818      5.6729      6.9331      8.3979      9.9348      11.249      11.853      11.500    
  10.393      9.1297      8.4110      8.6578      9.7676      11.168      10.306      11.845      12.188      11.355    
  9.8453      8.2311      6.7515      5.5140      4.5589      3.8825      3.4640      3.2845      3.3361      3.6247    
  4.1687      4.9931      6.1105      7.4916      9.0386      10.545      11.488      11.350      10.042      8.0481    
  6.2543      5.5287      6.2585      8.1327      6.5852      9.5105      11.543      12.100      11.289      9.7300    
  8.0748      6.5792      5.3490      4.4188      3.7796      3.4077      3.2844      3.4042      3.7759      4.4217    
  5.3659      6.6101      8.0994      9.6960      11.024      11.390      10.334      7.9941      5.1667      3.0086    
  2.4858      3.8697      1.9173      5.4351      8.9713      11.325      11.958      11.103      9.4944      7.8246    
  6.3417      5.1450      4.2611      3.6755      3.3628      3.3058      3.5019      3.9643      4.7181      5.7840    
  7.1480      8.7256      10.314      11.312      10.962      8.9334      5.6319      2.1620     -.11251     -.21973    
 -2.1069     0.77011      4.9185      8.8106      11.239      11.778      10.806      9.1535      7.4955      6.0529    
  4.9138      4.0946      3.5758      3.3317      3.3476      3.6253      4.1822      5.0449      6.2277      7.6978    
  9.3396      10.838      11.405      10.308      7.3954      3.3502     -.46530     -2.5765     0.53599E-01 0.77068    
  3.4432      6.9877      10.067      11.715      11.694      10.456      8.7822      7.1755      5.8024      4.7330    
  3.9739      3.5023      3.2932      3.3339      3.6275      4.1928      5.0563      6.2306      7.6802      9.2900    
  10.767      11.394      10.522      8.0568      4.6623      1.5730     0.64968     -.51626     0.64975      3.6560    
  7.2844      10.200      11.554      11.266      9.9013      8.2454      6.7059      5.4232      4.4510      3.7860    
  3.4021      3.2768      3.4020      3.7859      4.4511      5.4232      6.7058      8.2453      9.9014      11.266    
  11.554      10.200      7.2845      3.6561      3.4431     0.77059     0.53613E-01  1.5730      4.6622      8.0567    
  10.522      11.395      10.767      9.2899      7.6802      6.2307      5.0563      4.1927      3.6275      3.3339    
  3.2931      3.5022      3.9739      4.7330      5.8024      7.1754      8.7822      10.456      11.694      11.715    
  10.067      6.9878      7.2634      4.0829      1.9177      1.6511      3.3506      6.2376      9.0992      10.888    
  11.167      10.193      8.6530      7.1131      5.7721      4.7180      3.9685      3.5043      3.2998      3.3413    
  3.6305      4.1836      5.0258      6.1753      7.6156      9.2637      10.931      12.062      11.933      10.215    
  10.650      8.0732      5.4548      3.8699      3.9677      5.6320      8.0516      10.155      11.143      10.815    
  9.5572      8.0180      6.5689      5.3502      4.4220      3.7863      3.4200      3.3007      3.4194      3.7815    
  4.4052      5.3144      6.5218      8.0020      9.6627      11.303      12.369      12.223      12.551      11.291    
  9.2533      7.2900      6.2585      6.5752      7.9939      9.7519      10.988      11.174      10.324      8.8993    
  7.4110      6.0711      4.9822      4.1791      3.6522      3.3773      3.3360      3.5235      3.9478      4.6270    
  5.5826      6.8216      8.3109      9.9538      11.552      12.596      12.707      12.840      11.989      10.558    
  9.2388      8.6577      9.0288      10.042      11.051      11.439      10.938      9.7279      8.2657      6.8581    
  5.6404      4.6822      3.9978      3.5704      3.3772      3.4040      3.6488      4.1205      4.8363      5.8143    
  7.0556      8.5217      10.115      11.654      11.588      12.657      12.995      12.574      11.723      10.956    
  10.684      10.969      11.499      11.789      11.465      10.479      9.1068      7.6873      6.3837      5.2941    
  4.4609      3.8840      3.5437      3.4198      3.5016      3.7889      4.2902      5.0209      5.9949      7.2081    
  8.6184      10.131      9.9951      11.345      12.410      12.934      12.895      12.530      12.181      12.078    
  12.191      12.256      11.959      11.141      9.9068      8.5314      7.1935      6.0088      5.0455      4.3259    
  3.8417      3.5733      3.5039      3.6250      3.9369      4.4475      5.1697      6.1128      7.2683      8.5922    
  8.4421      9.7123      10.931      11.957      12.610      12.864      12.858      12.788      12.750      12.673    
  12.370      11.686      10.622      9.3517      8.0411      6.8110      5.7500      4.9037      4.2818      3.8729    
  3.6594      3.6271      3.7690      4.0857      4.5840      5.2739      6.1606      7.2312      7.0984      8.1761    
  9.2985      10.377      11.322      12.036      12.477      12.705      12.799      12.773      12.552      12.033    
  11.181      10.090      8.8807      7.6709      6.5612      5.6188      4.8742      4.3311      3.9782      3.8003    
  3.7855      3.9277      4.2279      4.6922      5.3276      6.1350      6.0374      6.8775      7.8104      8.7800    
  9.7201      10.569      11.279      11.816      12.176      12.363      12.348      12.072      11.500      10.667    
  9.6461      8.5388      7.4489      6.4593      5.6219      4.9594      4.4738      4.1558      3.9924      3.9734    
  4.0943      4.3567      4.7664      5.3278      5.2743      5.8736      6.5820      7.3684      8.1914      9.0057    
  9.7693      10.449      11.019      11.450      11.704      11.735      11.504      11.000      10.256      9.3453    
  8.3615      7.3946      6.5138      5.7620      5.1589      4.7076      4.4014      4.2294      4.1833      4.2608    
  4.4654      4.8027      4.7988      5.1702      5.6532      6.2303      6.8785      7.5712      8.2804      8.9789    
  9.6400      10.233      10.719      11.046      11.161      11.025      10.629      10.007      9.2272      8.3713    
  7.5179      6.7271      6.0376      5.4691      5.0270      4.7072      4.5016      4.4051      4.4186      4.5480    
  4.5998      4.7548      5.0215      5.3893      5.8442      6.3715      6.9577      7.5882      8.2454      8.9056    
  9.5349      10.087      10.502      10.724      10.708      10.445      9.9604      9.3135      8.5766      7.8191    
  7.0954      6.4429      5.8824      5.4220      5.0611      4.7963      4.6271      4.5589      4.6733      4.6174    
  4.6733      4.8367      5.0979      5.4469      5.8772      6.3854      6.9662      7.6079      8.2883      8.9713    
  9.6060      10.129      10.476      10.598      10.476      10.129      9.6059      8.9713      8.2883      7.6079    
  6.9662      6.3854      5.8772      5.4469      5.0979      4.8367      5.0215      4.7549      4.5998      4.5589    
  4.6271      4.7963      5.0611      5.4220      5.8824      6.4429      7.0955      7.8190      8.5766      9.3135    
  9.9604      10.445      10.708      10.724      10.502      10.086      9.5349      8.9057      8.2454      7.5881    
  6.9577      6.3715      5.8442      5.3893      5.6532      5.1703      4.7989      4.5481      4.4186      4.4051    
  4.5016      4.7071      5.0270      5.4691      6.0376      6.7271      7.5179      8.3713      9.2272      10.007    
  10.629      11.025      11.161      11.046      10.719      10.233      9.6401      8.9789      8.2803      7.5712    
  6.8785      6.2303      6.5820      5.8736      5.2744      4.8028      4.4654      4.2608      4.1833      4.2294    
  4.4013      4.7076      5.1589      5.7620      6.5138      7.3946      8.3615      9.3452      10.256      10.999    
  11.503      11.735      11.704      11.450      11.019      10.449      9.7693      9.0057      8.1915      7.3684    
  7.8104      6.8775      6.0375      5.3279      4.7665      4.3567      4.0943      3.9735      3.9924      4.1557    
  4.4737      4.9594      5.6219      6.4593      7.4489      8.5388      9.6461      10.667      11.500      12.072    
  12.348      12.363      12.176      11.816      11.279      10.569      9.7202      8.7801      9.2986      8.1761    
  7.0984      6.1351      5.3277      4.6922      4.2278      3.9277      3.7855      3.8003      3.9781      4.3311    
  4.8743      5.6187      6.5612      7.6709      8.8807      10.090      11.181      12.033      12.552      12.773    
  12.799      12.705      12.477      12.036      11.322      10.377      10.931      9.7124      8.4421      7.2312    
  6.1607      5.2740      4.5839      4.0855      3.7689      3.6270      3.6593      3.8729      4.2819      4.9037    
  5.7499      6.8110      8.0411      9.3518      10.621      11.686      12.370      12.673      12.750      12.788    
  12.858      12.864      12.610      11.957      12.410      11.345      9.9952      8.5921      7.2683      6.1129    
  5.1697      4.4474      3.9368      3.6250      3.5039      3.5733      3.8417      4.3260      5.0455      6.0087    
  7.1935      8.5314      9.9068      11.141      11.959      12.256      12.190      12.078      12.181      12.530    
  12.895      12.934      12.995      12.657      11.588      10.131      8.6183      7.2081      5.9949      5.0209    
  4.2901      3.7889      3.5017      3.4198      3.5437      3.8841      4.4610      5.2941      6.3836      7.6873    
  9.1069      10.479      11.465      11.789      11.499      10.968      10.684      10.956      11.723      12.574    
  11.989      12.840      12.707      11.654      10.115      8.5216      7.0556      5.8143      4.8363      4.1204    
  3.6489      3.4041      3.3772      3.5705      3.9979      4.6823      5.6403      6.8581      8.2657      9.7279    
  10.938      11.438      11.051      10.042      9.0287      8.6576      9.2388      10.558      9.2533      11.291    
  12.551      12.596      11.552      9.9537      8.3108      6.8216      5.5826      4.6269      3.9478      3.5237    
  3.3362      3.3773      3.6523      4.1793      4.9823      6.0710      7.4110      8.8994      10.324      11.173    
  10.988      9.7520      7.9939      6.5751      6.2585      7.2900      5.4549      8.0732      10.650      12.223    
  12.369      11.303      9.6627      8.0020      6.5219      5.3143      4.4052      3.7817      3.4196      3.3009    
  3.4201      3.7864      4.4221      5.3502      6.5688      8.0180      9.5573      10.815      11.143      10.155    
  8.0518      5.6320      3.9676      3.8699      1.9178      4.0829      7.2634      10.215      11.933      12.062    
  10.931      9.2636      7.6157      6.1754      5.0257      4.1836      3.6307      3.3415      3.2999      3.5043    
  3.9686      4.7181      5.7721      7.1130      8.6531      10.193      11.167      10.888      9.0993      6.2377    
  3.3506      1.6510      4.9725      5.4354      7.2632      9.6665      11.642      12.465      11.990      10.614    
  8.9708      7.4082      6.0644      5.0023      4.2294      3.7261      3.4698      3.4477      3.6596      4.1189    
  4.8490      5.8670      7.1550      8.6315      10.129      11.199      11.258      10.087      8.0569      6.0315    
  5.1376      4.1980      4.9190      6.9875      9.4927      11.403      12.060      11.426      9.9874      8.3753    
  6.8814      5.6287      4.6665      3.9926      3.5841      3.4197      3.4903      3.8006      4.3683      5.2177    
  6.3595      7.7602      9.3156      10.801      11.647      11.299      9.6664      7.2845      6.9876      4.9190    
  4.1980      5.1376      7.2844      9.6662      11.299      11.647      10.801      9.3154      7.7602      6.3596    
  5.2177      4.3682      3.8006      3.4904      3.4196      3.5840      3.9927      4.6666      5.6288      6.8813    
  8.3754      9.9877      11.426      12.060      11.403      9.4928      9.6666      7.2632      5.4355      4.9726    
  6.0316      8.0567      10.087      11.258      11.199      10.129      8.6314      7.1551      5.8671      4.8490    