unknown system                          
   1.00000000000000     
    -2.424465    2.424465    1.301735
     2.424465   -2.424465    1.301735
     2.424465    2.424465   -1.301735
   Si
     2
Direct
  0.250000  0.750000  0.500000
  0.000000  0.000000  0.000000
 
   28   28   28
 -5.4743     -3.9398     0.49705E-01  4.9696      9.1340      11.434      11.686      10.501      8.8104      7.1988    
  5.8408      4.8028      4.0876      3.6726      3.5368      3.6725      4.0877      4.8030      5.8409      7.1988    
  8.8104      10.501      11.686      11.434      9.1341      4.9697     0.49584E-01 -3.9400     -3.9400     -4.7306    
 -2.5792      1.6489      6.3552      9.9808      11.657      11.430      10.025      8.3348      6.7863      5.5158    
  4.5691      3.9390      3.6009      3.5367      3.7426      4.2299      5.0210      6.1351      7.5584      9.2063    
  10.859      11.821      11.193      8.5209      4.1942     -.52094     0.49584E-01 -2.5793     -2.6382     -.11303    
  3.9679      8.0629      10.850      11.751      11.024      9.4562      7.8044      6.3435      5.1773      4.3317    
  3.7910      3.5308      3.5365      3.8078      4.3587      5.2120      6.3826      7.8460      9.5027      11.093    
  11.877      11.042      8.2975      4.1942      4.9697      1.6488     -.11309     0.42024      3.0106      6.5778    
  9.7558      11.533      11.630      10.470      8.8317      7.2481      5.8945      4.8432      4.1025      3.6509    
  3.4660      3.5364      3.8649      4.4672      5.3657      6.5699      8.0463      9.6860      11.208      11.891    
  11.042      8.5209      9.1341      6.3553      3.9679      3.0107      3.9109      6.2587      9.0332      11.132    
  11.880      11.265      9.8120      8.1869      6.6970      5.4635      4.5307      3.8927      3.5257      3.4097    
  3.5365      3.9110      4.5497      5.4734      6.6867      8.1491      9.7479      11.208      11.877      11.193    
  11.434      9.9807      8.0629      6.5778      6.2588      7.2737      9.1354      10.974      11.991      11.836    
  10.696      9.1209      7.5585      6.1810      5.0728      4.2549      3.7124      3.4216      3.3650      3.5369    
  3.9434      4.6013      5.5289      6.7264      8.1491      9.6860      11.093      11.821      11.686      11.657    
  10.850      9.7557      9.0333      9.1355      10.046      11.287      12.195      12.277      11.446      10.018    
  8.4516      6.9815      5.7266      4.7406      4.0283      3.5700      3.3436      3.3341      3.5374      3.9602    
  4.6189      5.5289      6.6867      8.0463      9.5027      10.859      10.501      11.430      11.751      11.533    
  11.131      10.974      11.287      11.949      12.559      12.676      12.069      10.843      9.3450      7.8451    
  6.4864      5.3546      4.4810      3.8602      3.4717      3.2953      3.3183      3.5375      3.9602      4.6013    
  5.4734      6.5699      7.8460      9.2063      8.8104      10.025      11.024      11.630      11.880      11.991    
  12.195      12.559      12.925      13.003      12.553      11.549      10.195      8.7399      7.3368      6.0968    
  5.0800      4.3033      3.7570      3.4215      3.2790      3.3183      3.5374      3.9434      4.5497      5.3657    
  6.3826      7.5584      7.1988      8.3348      9.4563      10.470      11.265      11.836      12.277      12.676    
  13.003      13.111      12.826      12.070      10.940      9.6163      8.2460      6.9548      5.8290      4.9119    
  4.2132      3.7222      3.4215      3.2953      3.3341      3.5369      3.9110      4.4672      5.2120      6.1351    
  5.8409      6.7863      7.8043      8.8317      9.8121      10.696      11.446      12.069      12.553      12.826    
  12.776      12.325      11.500      10.404      9.1610      7.8974      6.7182      5.6928      4.8554      4.2132    
  3.7570      3.4717      3.3436      3.3650      3.5365      3.8649      4.3587      5.0210      4.8030      5.5159    
  6.3434      7.2480      8.1869      9.1210      10.018      10.843      11.549      12.070      12.325      12.239    
  11.792      11.020      10.009      8.8706      7.7173      6.6382      5.6928      4.9119      4.3033      3.8602    
  3.5700      3.4216      3.4097      3.5364      3.8078      4.2299      4.0877      4.5692      5.1774      5.8944    
  6.6969      7.5585      8.4516      9.3450      10.195      10.940      11.500      11.792      11.758      11.382    
  10.702      9.7987      8.7709      7.7173      6.7182      5.8290      5.0800      4.4810      4.0283      3.7124    
  3.5257      3.4660      3.5365      3.7426      3.6725      3.9389      4.3318      4.8433      5.4635      6.1809    
  6.9815      7.8450      8.7399      9.6163      10.404      11.020      11.382      11.434      11.160      10.592    
  9.7987      8.8706      7.8974      6.9548      6.0968      5.3546      4.7406      4.2549      3.8927      3.6509    
  3.5308      3.5367      3.5368      3.6007      3.7909      4.1024      4.5307      5.0728      5.7265      6.4864    
  7.3368      8.2460      9.1610      10.009      10.702      11.160      11.319      11.160      10.702      10.009    
  9.1610      8.2460      7.3368      6.4864      5.7266      5.0728      4.5307      4.1025      3.7910      3.6009    
  3.6726      3.5366      3.5306      3.6507      3.8926      4.2548      4.7406      5.3546      6.0967      6.9548    
  7.8974      8.8706      9.7987      10.592      11.160      11.434      11.382      11.020      10.404      9.6163    
  8.7399      7.8451      6.9815      6.1810      5.4635      4.8432      4.3317      3.9390      4.0876      3.7426    
  3.5364      3.4658      3.5255      3.7123      4.0282      4.4810      5.0799      5.8290      6.7182      7.7173    
  8.7709      9.7987      10.702      11.382      11.758      11.792      11.500      10.940      10.195      9.3450    
  8.4516      7.5585      6.6970      5.8945      5.1773      4.5691      4.8028      4.2298      3.8077      3.5363    
  3.4096      3.4214      3.5699      3.8601      4.3033      4.9119      5.6928      6.6381      7.7173      8.8706    
  10.009      11.020      11.792      12.239      12.325      12.070      11.549      10.843      10.018      9.1209    
  8.1869      7.2481      6.3435      5.5158      5.8408      5.0208      4.3585      3.8648      3.5365      3.3650    
  3.3435      3.4716      3.7569      4.2131      4.8554      5.6928      6.7182      7.8974      9.1610      10.404    
  11.500      12.325      12.776      12.826      12.553      12.069      11.446      10.696      9.8120      8.8317    
  7.8044      6.7863      7.1988      6.1351      5.2119      4.4671      3.9108      3.5369      3.3341      3.2953    
  3.4215      3.7221      4.2131      4.9119      5.8290      6.9548      8.2460      9.6163      10.940      12.070    
  12.826      13.111      13.003      12.676      12.277      11.836      11.265      10.470      9.4562      8.3348    
  8.8104      7.5584      6.3826      5.3656      4.5496      3.9433      3.5373      3.3184      3.2791      3.4215    
  3.7569      4.3033      5.0799      6.0967      7.3368      8.7399      10.195      11.549      12.553      13.003    
  12.925      12.559      12.195      11.991      11.880      11.630      11.024      10.025      10.501      9.2062    
  7.8459      6.5699      5.4734      4.6012      3.9601      3.5375      3.3184      3.2953      3.4716      3.8601    
  4.4810      5.3546      6.4864      7.8450      9.3450      10.843      12.069      12.676      12.559      11.949    
  11.287      10.974      11.132      11.533      11.751      11.430      11.686      10.859      9.5026      8.0462    
  6.6867      5.5290      4.6188      3.9601      3.5373      3.3341      3.3435      3.5699      4.0282      4.7406    
  5.7265      6.9815      8.4516      10.018      11.446      12.277      12.195      11.287      10.046      9.1354    
  9.0332      9.7558      10.850      11.657      11.434      11.821      11.093      9.6858      8.1489      6.7264    
  5.5290      4.6012      3.9433      3.5369      3.3650      3.4214      3.7123      4.2548      5.0728      6.1809    
  7.5585      9.1210      10.696      11.836      11.991      10.974      9.1355      7.2737      6.2587      6.5778    
  8.0629      9.9808      9.1340      11.194      11.877      11.208      9.7478      8.1489      6.6867      5.4734    
  4.5496      3.9108      3.5365      3.4096      3.5255      3.8926      4.5307      5.4635      6.6969      8.1869    
  9.8121      11.265      11.880      11.131      9.0333      6.2588      3.9109      3.0106      3.9679      6.3552    
  4.9696      8.5209      11.042      11.891      11.208      9.6858      8.0462      6.5699      5.3656      4.4671    
  3.8648      3.5363      3.4658      3.6507      4.1024      4.8433      5.8944      7.2480      8.8317      10.470    
  11.630      11.533      9.7557      6.5778      3.0107     0.42024     -.11303      1.6489     0.49705E-01  4.1941    
  8.2973      11.042      11.877      11.093      9.5026      7.8459      6.3826      5.2119      4.3585      3.8077    
  3.5364      3.5306      3.7909      4.3318      5.1774      6.3434      7.8043      9.4563      11.024      11.751    
  10.850      8.0629      3.9679     -.11309     -2.6382     -2.5792     -3.9398     -.52079      4.1941      8.5209    
  11.194      11.821      10.859      9.2062      7.5584      6.1351      5.0208      4.2298      3.7426      3.5366    
  3.6007      3.9389      4.5692      5.5159      6.7863      8.3348      10.025      11.430      11.657      9.9807    
  6.3553      1.6488     -2.5793     -4.7306     -3.9395     -2.8288     0.64595      5.1348      9.0487      11.273    
  11.550      10.406      8.7261      7.1065      5.7304      4.6697      3.9301      3.4876      3.3180      3.4105    
  3.7714      4.4222      5.3888      6.6766      8.2328      9.9105      11.246      11.361      9.6042      6.0300    
  1.5704     -2.2428     -2.8290     -3.9395     -2.2426      1.5705      6.0301      9.6044      11.361      11.247    
  9.9105      8.2329      6.6767      5.3888      4.4221      3.7714      3.4106      3.3179      3.4876      3.9302    
  4.6699      5.7304      7.1063      8.7261      10.406      11.550      11.273      9.0486      5.1348     0.64584    
 0.76662     -2.1103     -2.5789     -.46652      3.3500      7.3960      10.309      11.406      10.838      9.3397    
  7.6983      6.2288      5.0464      4.1841      3.6275      3.3499      3.3339      3.5779      4.0967      4.9154    
  6.0539      7.4960      9.1539      10.806      11.778      11.238      8.8087      4.9157      5.4325      1.9148    
 -.22147     -.11283      2.1630      5.6337      8.9354      10.964      11.313      10.314      8.7255      7.1484    
  5.7849      4.7195      3.9663      3.5042      3.3081      3.3650      3.6776      4.2630      5.1464      6.3425    
  7.8251      9.4949      11.103      11.957      11.324      8.9693      9.5090      6.5837      3.8689      2.4864    
  3.0108      5.1699      7.9975      10.337      11.392      11.025      9.6955      8.0989      6.6102      5.3667    
  4.4231      3.7779      3.4065      3.2868      3.4099      3.7817      4.4206      5.3502      6.5799      8.0754    
  9.7305      11.289      12.099      11.542      11.844      10.305      8.1326      6.2597      5.5316      6.2587    
  8.0529      10.047      11.353      11.490      10.544      9.0375      7.4908      6.1103      4.9937      4.1701    
  3.6267      3.3384      3.2868      3.4663      3.8847      4.5605      5.5150      6.7522      8.2317      9.8459    
  11.355      12.187      12.184      12.136      11.168      9.7689      8.6608      8.4157      9.1353      10.398    
  11.504      11.855      11.249      9.9335      8.3961      6.9317      5.6724      4.6822      3.9707      3.5189    
  3.3030      3.3082      3.5313      3.9808      4.6746      5.6308      6.8483      8.2836      9.8315      11.287    
  11.071      12.043      12.304      11.893      11.186      10.688      10.734      11.287      11.962      12.259    
  11.851      10.755      9.2968      7.8086      6.4500      5.3162      4.4449      3.8329      3.4589      3.3020    
  3.3500      3.6013      4.0646      4.7560      5.6901      6.8617      8.2258      9.6838      9.4072      10.705    
  11.728      12.256      12.314      12.154      12.083      12.254      12.559      12.698      12.372      11.471    
  10.156      8.7103      7.3091      6.0690      5.0562      4.2904      3.7617      3.4496      3.3359      3.4106    
  3.6730      4.1314      4.7999      5.6892      6.7906      8.0596      7.7929      9.0149      10.203      11.230    
  11.946      12.347      12.566      12.753      12.940      13.002      12.743      12.032      10.916      9.5902    
  8.2179      6.9264      5.8060      4.9022      4.2242      3.7603      3.4921      3.4039      3.4875      3.7429    
  4.1778      4.8039      5.6279      6.6382      6.4130      7.4403      8.5285      9.6000      10.581      11.395    
  12.006      12.454      12.775      12.934      12.826      12.349      11.497      10.380      9.1244      7.8563    
  6.6822      5.6723      4.8595      4.2488      3.8295      3.5857      3.5040      3.5777      3.8077      4.2015    
  4.7678      5.5095      5.3407      6.1275      7.0223      7.9771      8.9368      9.8511      10.682      11.393    
  11.959      12.347      12.494      12.325      11.812      10.995      9.9553      8.8043      7.6531      6.5905    
  5.6739      4.9302      4.3645      3.9680      3.7277      3.6323      3.6771      3.8645      4.2014      4.6938    
  4.5857      5.1308      5.7984      6.5639      7.3945      8.2543      9.1089      9.9264      10.671      11.294    
  11.732      11.916      11.792      11.349      10.623      9.6947      8.6629      7.6251      6.6580      5.8122    
  5.1136      4.5687      4.1719      3.9129      3.7833      3.7811      3.9105      4.1776      4.1311      4.4494    
  4.8914      5.4447      6.0925      6.8159      7.5940      8.4035      9.2145      9.9848      10.656      11.157    
  11.416      11.382      11.045      10.438      9.6332      8.7177      7.7782      6.8844      6.0845      5.4053    
  4.8559      4.4341      4.1334      3.9495      3.8841      3.9428      3.9596      4.0642      4.2920      4.6360    
  5.0866      5.6352      6.2741      6.9935      7.7768      8.5950      9.4024      10.135      10.718      11.077    
  11.160      10.948      10.470      9.7836      8.9695      8.1070      7.2624      6.4831      5.7969      5.2163    
  4.7438      4.3787      4.1224      3.9803      4.0643      3.9596      3.9803      4.1223      4.3786      4.7438    
  5.2163      5.7969      6.4830      7.2624      8.1069      8.9695      9.7836      10.470      10.948      11.160    
  11.077      10.718      10.135      9.4024      8.5951      7.7769      6.9936      6.2742      5.6352      5.0866    
  4.6360      4.2921      4.4495      4.1312      3.9429      3.8841      3.9495      4.1333      4.4341      4.8558    
  5.4053      6.0845      6.8844      7.7781      8.7177      9.6332      10.438      11.045      11.382      11.416    
  11.157      10.656      9.9849      9.2145      8.4036      7.5941      6.8160      6.0926      5.4447      4.8914    
  5.1307      4.5858      4.1777      3.9106      3.7812      3.7833      3.9129      4.1719      4.5686      5.1135    
  5.8122      6.6580      7.6251      8.6629      9.6947      10.623      11.349      11.792      11.916      11.732    
  11.294      10.671      9.9265      9.1089      8.2543      7.3946      6.5640      5.7984      6.1275      5.3406    
  4.6938      4.2015      3.8647      3.6772      3.6324      3.7277      3.9679      4.3644      4.9302      5.6739    
  6.5905      7.6531      8.8043      9.9553      10.995      11.812      12.325      12.494      12.347      11.959    
  11.393      10.682      9.8510      8.9368      7.9772      7.0224      7.4403      6.4129      5.5095      4.7678    
  4.2015      3.8078      3.5778      3.5041      3.5856      3.8294      4.2488      4.8595      5.6723      6.6822    
  7.8563      9.1245      10.380      11.497      12.349      12.826      12.934      12.775      12.454      12.006    
  11.395      10.581      9.6000      8.5286      9.0149      7.7929      6.6382      5.6279      4.8039      4.1777    
  3.7429      3.4876      3.4040      3.4920      3.7602      4.2242      4.9022      5.8060      6.9264      8.2180    
  9.5904      10.916      12.032      12.743      13.002      12.940      12.753      12.566      12.347      11.946    
  11.230      10.202      10.705      9.4071      8.0595      6.7905      5.6892      4.7999      4.1313      3.6729    
  3.4106      3.3359      3.4495      3.7617      4.2905      5.0563      6.0690      7.3091      8.7104      10.156    
  11.471      12.372      12.698      12.559      12.253      12.083      12.154      12.314      12.256      11.727    
  12.043      11.071      9.6836      8.2257      6.8617      5.6902      4.7560      4.0644      3.6012      3.3500    
  3.3019      3.4588      3.8328      4.4450      5.3162      6.4500      7.8087      9.2969      10.755      11.851    
  12.259      11.962      11.287      10.734      10.688      11.186      11.893      12.304      12.136      12.184    
  11.287      9.8313      8.2834      6.8483      5.6308      4.6745      3.9806      3.5312      3.3081      3.3029    
  3.5187      3.9708      4.6823      5.6724      6.9317      8.3962      9.9336      11.249      11.855      11.504    
  10.398      9.1352      8.4155      8.6606      9.7688      11.168      10.305      11.844      12.187      11.355    
  9.8457      8.2316      6.7522      5.5151      4.5604      3.8845      3.4662      3.2867      3.3383      3.6266    
  4.1701      4.9938      6.1103      7.4908      9.0376      10.544      11.489      11.353      10.047      8.0529    
  6.2586      5.5315      6.2596      8.1324      6.5835      9.5088      11.542      12.099      11.289      9.7304    
  8.0753      6.5800      5.3502      4.4204      3.7815      3.4099      3.2867      3.4063      3.7778      4.4232    
  5.3668      6.6102      8.0989      9.6956      11.025      11.392      10.337      7.9975      5.1699      3.0107    
  2.4864      3.8689      1.9148      5.4324      8.9692      11.324      11.958      11.103      9.4949      7.8252    
  6.3426      5.1463      4.2629      3.6775      3.3650      3.3080      3.5040      3.9663      4.7196      5.7849    
  7.1483      8.7255      10.314      11.313      10.963      8.9353      5.6337      2.1630     -.11278     -.22133    
 -2.1101     0.76675      4.9156      8.8086      11.238      11.778      10.806      9.1540      7.4961      6.0540    
  4.9153      4.0965      3.5779      3.3339      3.3498      3.6274      4.1842      5.0465      6.2287      7.6982    
  9.3397      10.838      11.406      10.309      7.3959      3.3500     -.46656     -2.5788     0.50673E-01 0.76738    
  3.4402      6.9855      10.066      11.715      11.695      10.457      8.7829      7.1764      5.8037      4.7346    
  3.9759      3.5044      3.2953      3.3360      3.6296      4.1947      5.0578      6.2316      7.6807      9.2904    
  10.768      11.395      10.523      8.0568      4.6614      1.5710     0.64653     -.51971     0.64664      3.6538    
  7.2833      10.200      11.554      11.266      9.9018      8.2460      6.7068      5.4246      4.4528      3.7880    
  3.4042      3.2790      3.4041      3.7880      4.4529      5.4246      6.7067      8.2460      9.9019      11.266    
  11.554      10.200      7.2833      3.6537      3.4401     0.76731     0.50739E-01  1.5711      4.6614      8.0568    
  10.523      11.395      10.768      9.2904      7.6808      6.2317      5.0578      4.1947      3.6296      3.3361    
  3.2953      3.5043      3.9759      4.7347      5.8037      7.1763      8.7829      10.457      11.695      11.715    
  10.066      6.9856      7.2610      4.0801      1.9153      1.6497      3.3505      6.2385      9.1006      10.889    
  11.168      10.193      8.6532      7.1135      5.7731      4.7196      3.9705      3.5064      3.3021      3.3435    
  3.6327      4.1855      5.0273      6.1765      7.6164      9.2644      10.931      12.062      11.933      10.214    
  10.649      8.0712      5.4531      3.8692      3.9683      5.6339      8.0542      10.158      11.145      10.816    
  9.5572      8.0178      6.5692      5.3512      4.4235      3.7883      3.4222      3.3030      3.4216      3.7836    
  4.4070      5.3157      6.5229      8.0027      9.6635      11.304      12.369      12.223      12.550      11.290    
  9.2524      7.2898      6.2598      6.5778      7.9974      9.7554      10.990      11.175      10.324      8.8987    
  7.4104      6.0711      4.9831      4.1807      3.6542      3.3795      3.3383      3.5257      3.9498      4.6286    
  5.5838      6.8225      8.3117      9.9545      11.553      12.596      12.707      12.840      11.989      10.558    
  9.2403      8.6606      9.0329      10.046      11.055      11.441      10.938      9.7271      8.2644      6.8571    
  5.6401      4.6829      3.9993      3.5724      3.3794      3.4062      3.6510      4.1224      4.8379      5.8154    
  7.0564      8.5224      10.116      11.655      11.589      12.657      12.996      12.575      11.724      10.959    
  10.688      10.973      11.504      11.792      11.466      10.478      9.1050      7.6852      6.3821      5.2936    
  4.4614      3.8854      3.5455      3.4219      3.5039      3.7910      4.2920      5.0223      5.9959      7.2089    
  8.6193      10.132      9.9960      11.345      12.411      12.934      12.896      12.532      12.185      12.082    
  12.194      12.259      11.960      11.140      9.9047      8.5284      7.1907      6.0068      5.0447      4.3262    
  3.8429      3.5751      3.5060      3.6272      3.9390      4.4493      5.1711      6.1139      7.2692      8.5931    
  8.4431      9.7132      10.932      11.957      12.611      12.865      12.860      12.791      12.753      12.675    
  12.371      11.685      10.619      9.3481      8.0371      6.8075      5.7476      4.9027      4.2820      3.8740    
  3.6611      3.6291      3.7711      4.0876      4.5856      5.2752      6.1617      7.2322      7.0995      8.1771    
  9.2993      10.377      11.322      12.036      12.478      12.706      12.801      12.775      12.553      12.032    
  11.179      10.086      8.8758      7.6660      6.5572      5.6161      4.8730      4.3312      3.9792      3.8020    
  3.7874      3.9297      4.2298      4.6937      5.3289      6.1362      6.0387      6.8786      7.8114      8.7808    
  9.7205      10.569      11.279      11.816      12.176      12.363      12.347      12.070      11.497      10.663    
  9.6407      8.5329      7.4434      6.4550      5.6191      4.9582      4.4739      4.1568      3.9941      3.9753    
  4.0961      4.3584      4.7679      5.3291      5.2757      5.8749      6.5832      7.3694      8.1920      9.0057    
  9.7686      10.448      11.017      11.448      11.702      11.732      11.500      10.995      10.250      9.3389    
  8.3551      7.3889      6.5094      5.7592      5.1577      4.7078      4.4024      4.2310      4.1850      4.2625    
  4.4669      4.8041      4.8002      5.1716      5.6546      6.2316      6.8795      7.5715      8.2798      8.9774    
  9.6376      10.230      10.715      11.042      11.157      11.020      10.623      10.001      9.2203      8.3647    
  7.5123      6.7229      6.0351      5.4682      5.0274      4.7083      4.5031      4.4067      4.4201      4.5495    
  4.6012      4.7563      5.0229      5.3908      5.8455      6.3724      6.9577      7.5871      8.2431      8.9021    
  9.5304      10.081      10.497      10.718      10.702      10.438      9.9536      9.3067      8.5704      7.8138    
  7.0917      6.4408      5.8818      5.4225      5.0623      4.7978      4.6286      4.5603      4.6747      4.6188    
  4.6748      4.8383      5.0995      5.4482      5.8780      6.3852      6.9646      7.6048      8.2838      8.9658    
  9.5998      10.123      10.470      10.591      10.470      10.123      9.5997      8.9658      8.2838      7.6048    
  6.9646      6.3851      5.8779      5.4481      5.0994      4.8382      5.0229      4.7563      4.6013      4.5605    
  4.6288      4.7979      5.0624      5.4226      5.8818      6.4409      7.0917      7.8138      8.5704      9.3067    
  9.9536      10.438      10.702      10.718      10.497      10.081      9.5305      8.9021      8.2431      7.5870    
  6.9577      6.3724      5.8455      5.3908      5.6546      5.1717      4.8003      4.5497      4.4203      4.4069    
  4.5033      4.7083      5.0274      5.4682      6.0351      6.7230      7.5123      8.3647      9.2204      10.001    
  10.623      11.020      11.157      11.042      10.715      10.230      9.6377      8.9774      8.2798      7.5715    
  6.8795      6.2316      6.5833      5.8750      5.2759      4.8043      4.4671      4.2626      4.1852      4.2311    
  4.4024      4.7078      5.1578      5.7593      6.5094      7.3889      8.3551      9.3389      10.250      10.995    
  11.500      11.732      11.702      11.448      11.017      10.448      9.7686      9.0057      8.1920      7.3694    
  7.8115      6.8787      6.0388      5.3293      4.7681      4.3585      4.0962      3.9754      3.9941      4.1568    
  4.4739      4.9582      5.6191      6.4549      7.4434      8.5330      9.6407      10.662      11.497      12.070    
  12.347      12.363      12.176      11.816      11.279      10.569      9.7205      8.7809      9.2994      8.1772    
  7.0995      6.1363      5.3291      4.6938      4.2298      3.9298      3.7875      3.8020      3.9792      4.3312    
  4.8731      5.6161      6.5572      7.6660      8.8758      10.086      11.179      12.032      12.553      12.775    
  12.801      12.706      12.478      12.036      11.322      10.377      10.932      9.7133      8.4431      7.2323    
  6.1618      5.2754      4.5856      4.0876      3.7711      3.6291      3.6611      3.8740      4.2821      4.9027    
  5.7475      6.8074      8.0371      9.3482      10.619      11.685      12.371      12.675      12.753      12.791    
  12.860      12.865      12.611      11.957      12.411      11.345      9.9961      8.5931      7.2692      6.1140    
  5.1711      4.4492      3.9389      3.6272      3.5060      3.5750      3.8429      4.3263      5.0447      6.0067    
  7.1906      8.5285      9.9047      11.140      11.960      12.259      12.194      12.082      12.185      12.532    
  12.896      12.934      12.995      12.657      11.589      10.132      8.6192      7.2089      5.9960      5.0223    
  4.2919      3.7910      3.5039      3.4219      3.5454      3.8854      4.4615      5.2935      6.3821      7.6852    
  9.1050      10.478      11.466      11.792      11.504      10.973      10.688      10.959      11.724      12.575    
  11.989      12.839      12.707      11.655      10.116      8.5224      7.0564      5.8154      4.8378      4.1223    
  3.6510      3.4063      3.3793      3.5723      3.9993      4.6830      5.6401      6.8570      8.2644      9.7271    
  10.938      11.441      11.055      10.046      9.0327      8.6604      9.2402      10.558      9.2523      11.289    
  12.550      12.596      11.553      9.9545      8.3116      6.8225      5.5838      4.6285      3.9497      3.5258    
  3.3383      3.3794      3.6542      4.1807      4.9831      6.0711      7.4104      8.8988      10.324      11.175    
  10.990      9.7554      7.9973      6.5776      6.2596      7.2898      5.4531      8.0711      10.648      12.223    
  12.369      11.304      9.6634      8.0027      6.5229      5.3157      4.4069      3.7836      3.4217      3.3030    
  3.4221      3.7883      4.4236      5.3512      6.5691      8.0178      9.5572      10.816      11.145      10.158    
  8.0542      5.6338      3.9682      3.8691      1.9153      4.0801      7.2609      10.214      11.933      12.062    
  10.931      9.2644      7.6165      6.1765      5.0272      4.1854      3.6327      3.3436      3.3020      3.5063    
  3.9705      4.7196      5.7731      7.1134      8.6532      10.193      11.168      10.889      9.1006      6.2385    
  3.3504      1.6496      4.9704      5.4329      7.2608      9.6649      11.641      12.465      11.991      10.616    
  8.9719      7.4093      6.0657      5.0038      4.2311      3.7278      3.4716      3.4494      3.6613      4.1206    
  4.8504      5.8680      7.1556      8.6320      10.129      11.200      11.259      10.088      8.0569      6.0305    
  5.1354      4.1952      4.9162      6.9854      9.4916      11.403      12.061      11.427      9.9884      8.3762    
  6.8824      5.6301      4.6680      3.9944      3.5858      3.4214      3.4921      3.8023      4.3700      5.2191    
  6.3605      7.7609      9.3164      10.802      11.648      11.299      9.6662      7.2833      6.9855      4.9163    
  4.1952      5.1354      7.2832      9.6661      11.300      11.648      10.802      9.3161      7.7609      6.3606    
  5.2191      4.3698      3.8023      3.4922      3.4214      3.5857      3.9944      4.6682      5.6301      6.8823    
  8.3763      9.9886      11.427      12.061      11.403      9.4917      9.6650      7.2608      5.4330      4.9706    
  6.0306      8.0568      10.088      11.259      11.200      10.129      8.6319      7.1556      5.8681      4.8504    