   2   2   0   0
  0.1529437E+02  0.3691622E-09  0.3691622E-09  0.3691622E-09  0.5000000E-15
  1.000000000000000E-004
  CAR 
 unknown system                          
     23.04119154     -6.61481409  301      9.11486976      1.00000000
     -6.615  0.0000E+00  0.0000E+00
     -6.516  0.0000E+00  0.0000E+00
     -6.417  0.0000E+00  0.0000E+00
     -6.318  0.0000E+00  0.0000E+00
     -6.219  0.0000E+00  0.0000E+00
     -6.121  0.0000E+00  0.0000E+00
     -6.022  0.0000E+00  0.0000E+00
     -5.923  0.0000E+00  0.0000E+00
     -5.824  0.0000E+00  0.0000E+00
     -5.725  0.2081E-17  0.2058E-18
     -5.626  0.4393E-15  0.4364E-16
     -5.527  0.5687E-13  0.5665E-14
     -5.429  0.4586E-11  0.4590E-12
     -5.330  0.2317E-09  0.2336E-10
     -5.231  0.7389E-08  0.7538E-09
     -5.132  0.1503E-06  0.1562E-07
     -5.033  0.1981E-05  0.2114E-06
     -4.934  0.1723E-04  0.1915E-05
     -4.835  0.1016E-03  0.1196E-04
     -4.737  0.4186E-03  0.5334E-04
     -4.638  0.1243E-02  0.1762E-03
     -4.539  0.2744E-02  0.4474E-03
     -4.440  0.4704E-02  0.9124E-03
     -4.341  0.6750E-02  0.1580E-02
     -4.242  0.8687E-02  0.2438E-02
     -4.143  0.9908E-02  0.3418E-02
     -4.045  0.9873E-02  0.4394E-02
     -3.946  0.9964E-02  0.5379E-02
     -3.847  0.1204E-01  0.6569E-02
     -3.748  0.1521E-01  0.8072E-02
     -3.649  0.1687E-01  0.9740E-02
     -3.550  0.1626E-01  0.1135E-01
     -3.452  0.1494E-01  0.1282E-01
     -3.353  0.1446E-01  0.1425E-01
     -3.254  0.1509E-01  0.1575E-01
     -3.155  0.1675E-01  0.1740E-01
     -3.056  0.1927E-01  0.1931E-01
     -2.957  0.2129E-01  0.2141E-01
     -2.858  0.2120E-01  0.2351E-01
     -2.760  0.2025E-01  0.2551E-01
     -2.661  0.2045E-01  0.2753E-01
     -2.562  0.2076E-01  0.2958E-01
     -2.463  0.2048E-01  0.3161E-01
     -2.364  0.2195E-01  0.3378E-01
     -2.265  0.2570E-01  0.3632E-01
     -2.166  0.2817E-01  0.3910E-01
     -2.068  0.2647E-01  0.4172E-01
     -1.969  0.2265E-01  0.4396E-01
     -1.870  0.2047E-01  0.4598E-01
     -1.771  0.2028E-01  0.4799E-01
     -1.672  0.2113E-01  0.5007E-01
     -1.573  0.2414E-01  0.5246E-01
     -1.474  0.2949E-01  0.5538E-01
     -1.376  0.3422E-01  0.5876E-01
     -1.277  0.3549E-01  0.6227E-01
     -1.178  0.3311E-01  0.6554E-01
     -1.079  0.2951E-01  0.6846E-01
     -0.980  0.2769E-01  0.7119E-01
     -0.881  0.2821E-01  0.7398E-01
     -0.782  0.2926E-01  0.7687E-01
     -0.684  0.2881E-01  0.7972E-01
     -0.585  0.2728E-01  0.8242E-01
     -0.486  0.2758E-01  0.8515E-01
     -0.387  0.3007E-01  0.8812E-01
     -0.288  0.3128E-01  0.9121E-01
     -0.189  0.3110E-01  0.9428E-01
     -0.090  0.3384E-01  0.9763E-01
      0.008  0.3981E-01  0.1016E+00
      0.107  0.4481E-01  0.1060E+00
      0.206  0.4518E-01  0.1105E+00
      0.305  0.3968E-01  0.1144E+00
      0.404  0.3226E-01  0.1176E+00
      0.503  0.2906E-01  0.1204E+00
      0.601  0.3126E-01  0.1235E+00
      0.700  0.3585E-01  0.1271E+00
      0.799  0.3968E-01  0.1310E+00
      0.898  0.4173E-01  0.1351E+00
      0.997  0.4350E-01  0.1394E+00
      1.096  0.4518E-01  0.1439E+00
      1.195  0.4385E-01  0.1482E+00
      1.293  0.3885E-01  0.1521E+00
      1.392  0.3422E-01  0.1555E+00
      1.491  0.3334E-01  0.1587E+00
      1.590  0.3506E-01  0.1622E+00
      1.689  0.3533E-01  0.1657E+00
      1.788  0.3253E-01  0.1689E+00
      1.887  0.2979E-01  0.1719E+00
      1.985  0.3075E-01  0.1749E+00
      2.084  0.3499E-01  0.1784E+00
      2.183  0.3917E-01  0.1822E+00
      2.282  0.4192E-01  0.1864E+00
      2.381  0.4381E-01  0.1907E+00
      2.480  0.4389E-01  0.1950E+00
      2.579  0.4052E-01  0.1991E+00
      2.677  0.3587E-01  0.2026E+00
      2.776  0.3494E-01  0.2061E+00
      2.875  0.3891E-01  0.2099E+00
      2.974  0.4411E-01  0.2143E+00
      3.073  0.4557E-01  0.2188E+00
      3.172  0.4083E-01  0.2228E+00
      3.271  0.3405E-01  0.2262E+00
      3.369  0.3119E-01  0.2293E+00
      3.468  0.3325E-01  0.2325E+00
      3.567  0.3774E-01  0.2363E+00
      3.666  0.4280E-01  0.2405E+00
      3.765  0.4705E-01  0.2452E+00
      3.864  0.4821E-01  0.2499E+00
      3.962  0.4598E-01  0.2545E+00
      4.061  0.4355E-01  0.2588E+00
      4.160  0.4369E-01  0.2631E+00
      4.259  0.4664E-01  0.2677E+00
      4.358  0.5144E-01  0.2728E+00
      4.457  0.5537E-01  0.2783E+00
      4.556  0.5358E-01  0.2836E+00
      4.654  0.4537E-01  0.2880E+00
      4.753  0.3771E-01  0.2918E+00
      4.852  0.3664E-01  0.2954E+00
      4.951  0.4151E-01  0.2995E+00
      5.050  0.4815E-01  0.3042E+00
      5.149  0.5227E-01  0.3094E+00
      5.248  0.5391E-01  0.3147E+00
      5.346  0.5732E-01  0.3204E+00
      5.445  0.6322E-01  0.3267E+00
      5.544  0.6815E-01  0.3334E+00
      5.643  0.6799E-01  0.3401E+00
      5.742  0.5955E-01  0.3460E+00
      5.841  0.4657E-01  0.3506E+00
      5.940  0.3751E-01  0.3543E+00
      6.038  0.3536E-01  0.3578E+00
      6.137  0.3819E-01  0.3616E+00
      6.236  0.4482E-01  0.3660E+00
      6.335  0.5402E-01  0.3714E+00
      6.434  0.6416E-01  0.3777E+00
      6.533  0.7240E-01  0.3849E+00
      6.632  0.7275E-01  0.3920E+00
      6.730  0.6410E-01  0.3984E+00
      6.829  0.5676E-01  0.4040E+00
      6.928  0.5918E-01  0.4098E+00
      7.027  0.6564E-01  0.4163E+00
      7.126  0.6674E-01  0.4229E+00
      7.225  0.6304E-01  0.4292E+00
      7.324  0.6136E-01  0.4352E+00
      7.422  0.6305E-01  0.4415E+00
      7.521  0.6221E-01  0.4476E+00
      7.620  0.5808E-01  0.4534E+00
      7.719  0.5877E-01  0.4592E+00
      7.818  0.6707E-01  0.4658E+00
      7.917  0.7480E-01  0.4732E+00
      8.015  0.7321E-01  0.4804E+00
      8.114  0.6285E-01  0.4866E+00
      8.213  0.5234E-01  0.4918E+00
      8.312  0.4737E-01  0.4965E+00
      8.411  0.4605E-01  0.5010E+00
      8.510  0.4545E-01  0.5055E+00
      8.609  0.4476E-01  0.5100E+00
      8.707  0.4416E-01  0.5143E+00
      8.806  0.4453E-01  0.5187E+00
      8.905  0.4538E-01  0.5232E+00
      9.004  0.4654E-01  0.5278E+00
      9.103  0.4951E-01  0.5327E+00
      9.202  0.5340E-01  0.5380E+00
      9.301  0.5525E-01  0.5435E+00
      9.399  0.5388E-01  0.5488E+00
      9.498  0.5095E-01  0.5538E+00
      9.597  0.4880E-01  0.5586E+00
      9.696  0.4763E-01  0.5633E+00
      9.795  0.4637E-01  0.5679E+00
      9.894  0.4364E-01  0.5722E+00
      9.993  0.3827E-01  0.5760E+00
     10.091  0.3172E-01  0.5792E+00
     10.190  0.2810E-01  0.5819E+00
     10.289  0.3132E-01  0.5850E+00
     10.388  0.4111E-01  0.5891E+00
     10.487  0.5212E-01  0.5943E+00
     10.586  0.6019E-01  0.6002E+00
     10.685  0.6493E-01  0.6066E+00
     10.783  0.6611E-01  0.6132E+00
     10.882  0.6412E-01  0.6195E+00
     10.981  0.6142E-01  0.6256E+00
     11.080  0.5949E-01  0.6314E+00
     11.179  0.5845E-01  0.6372E+00
     11.278  0.6015E-01  0.6432E+00
     11.376  0.6626E-01  0.6497E+00
     11.475  0.7317E-01  0.6570E+00
     11.574  0.7358E-01  0.6642E+00
     11.673  0.6504E-01  0.6707E+00
     11.772  0.5356E-01  0.6760E+00
     11.871  0.4553E-01  0.6805E+00
     11.970  0.4214E-01  0.6846E+00
     12.068  0.4270E-01  0.6888E+00
     12.167  0.4601E-01  0.6934E+00
     12.266  0.5293E-01  0.6986E+00
     12.365  0.6563E-01  0.7051E+00
     12.464  0.7952E-01  0.7130E+00
     12.563  0.8448E-01  0.7213E+00
     12.662  0.7821E-01  0.7291E+00
     12.760  0.6964E-01  0.7359E+00
     12.859  0.6600E-01  0.7425E+00
     12.958  0.6679E-01  0.7491E+00
     13.057  0.6955E-01  0.7559E+00
     13.156  0.7209E-01  0.7631E+00
     13.255  0.7364E-01  0.7703E+00
     13.354  0.7421E-01  0.7777E+00
     13.452  0.7174E-01  0.7848E+00
     13.551  0.6600E-01  0.7913E+00
     13.650  0.6177E-01  0.7974E+00
     13.749  0.6401E-01  0.8037E+00
     13.848  0.7288E-01  0.8109E+00
     13.947  0.8382E-01  0.8192E+00
     14.046  0.8987E-01  0.8281E+00
     14.144  0.8642E-01  0.8366E+00
     14.243  0.7601E-01  0.8442E+00
     14.342  0.6577E-01  0.8507E+00
     14.441  0.5962E-01  0.8566E+00
     14.540  0.5609E-01  0.8621E+00
     14.639  0.5381E-01  0.8674E+00
     14.738  0.5415E-01  0.8728E+00
     14.836  0.5830E-01  0.8785E+00
     14.935  0.6377E-01  0.8848E+00
     15.034  0.6557E-01  0.8913E+00
     15.133  0.6347E-01  0.8976E+00
     15.232  0.6209E-01  0.9037E+00
     15.331  0.6165E-01  0.9098E+00
     15.429  0.5902E-01  0.9157E+00
     15.528  0.5602E-01  0.9212E+00
     15.627  0.5747E-01  0.9269E+00
     15.726  0.6315E-01  0.9331E+00
     15.825  0.6739E-01  0.9398E+00
     15.924  0.6392E-01  0.9461E+00
     16.023  0.5174E-01  0.9512E+00
     16.121  0.3939E-01  0.9551E+00
     16.220  0.3669E-01  0.9587E+00
     16.319  0.4336E-01  0.9630E+00
     16.418  0.5196E-01  0.9682E+00
     16.517  0.5623E-01  0.9737E+00
     16.616  0.5450E-01  0.9791E+00
     16.715  0.4906E-01  0.9840E+00
     16.813  0.4293E-01  0.9882E+00
     16.912  0.3855E-01  0.9920E+00
     17.011  0.3723E-01  0.9957E+00
     17.110  0.3674E-01  0.9993E+00
     17.209  0.3425E-01  0.1003E+01
     17.308  0.3069E-01  0.1006E+01
     17.407  0.2839E-01  0.1009E+01
     17.505  0.2747E-01  0.1011E+01
     17.604  0.2634E-01  0.1014E+01
     17.703  0.2501E-01  0.1016E+01
     17.802  0.2684E-01  0.1019E+01
     17.901  0.3252E-01  0.1022E+01
     18.000  0.3576E-01  0.1026E+01
     18.099  0.3198E-01  0.1029E+01
     18.197  0.2513E-01  0.1031E+01
     18.296  0.2159E-01  0.1034E+01
     18.395  0.2432E-01  0.1036E+01
     18.494  0.3063E-01  0.1039E+01
     18.593  0.3356E-01  0.1042E+01
     18.692  0.2998E-01  0.1045E+01
     18.790  0.2402E-01  0.1048E+01
     18.889  0.1981E-01  0.1050E+01
     18.988  0.1674E-01  0.1051E+01
     19.087  0.1317E-01  0.1053E+01
     19.186  0.1030E-01  0.1054E+01
     19.285  0.1011E-01  0.1055E+01
     19.384  0.1202E-01  0.1056E+01
     19.482  0.1371E-01  0.1057E+01
     19.581  0.1357E-01  0.1058E+01
     19.680  0.1201E-01  0.1060E+01
     19.779  0.1060E-01  0.1061E+01
     19.878  0.9667E-02  0.1062E+01
     19.977  0.8238E-02  0.1062E+01
     20.076  0.6653E-02  0.1063E+01
     20.174  0.6468E-02  0.1064E+01
     20.273  0.7272E-02  0.1064E+01
     20.372  0.6843E-02  0.1065E+01
     20.471  0.4590E-02  0.1066E+01
     20.570  0.2134E-02  0.1066E+01
     20.669  0.8671E-03  0.1066E+01
     20.768  0.8548E-03  0.1066E+01
     20.866  0.1493E-02  0.1066E+01
     20.965  0.1992E-02  0.1066E+01
     21.064  0.1819E-02  0.1066E+01
     21.163  0.1139E-02  0.1067E+01
     21.262  0.4885E-03  0.1067E+01
     21.361  0.1417E-03  0.1067E+01
     21.460  0.2728E-04  0.1067E+01
     21.558  0.3421E-05  0.1067E+01
     21.657  0.2751E-06  0.1067E+01
     21.756  0.1403E-07  0.1067E+01
     21.855  0.4501E-09  0.1067E+01
     21.954  0.9032E-11  0.1067E+01
     22.053  0.1129E-12  0.1067E+01
     22.152  0.8764E-15  0.1067E+01
     22.250  0.4050E-17  0.1067E+01
     22.349  0.0000E+00  0.1067E+01
     22.448  0.0000E+00  0.1067E+01
     22.547  0.0000E+00  0.1067E+01
     22.646  0.0000E+00  0.1067E+01
     22.745  0.0000E+00  0.1067E+01
     22.843  0.0000E+00  0.1067E+01
     22.942  0.0000E+00  0.1067E+01
     23.041  0.0000E+00  0.1067E+01
