    2    2   15    1
  0.1529437E+02  0.3691622E-09  0.3691622E-09  0.3691622E-09  0.5000000E-15
  1.000000000000000E-004
  CAR 
 unknown system                          
      8    126      8
 
  0.0000000E+00  0.0000000E+00  0.0000000E+00  0.7513148E-03
    1       -4.614814   1.000000
    2        6.188245   1.000000
    3        6.299333   1.000000
    4        6.299357   1.000000
    5       10.540476   0.000000
    6       16.871316   0.000000
    7       17.370049   0.000000
    8       17.370074   0.000000
 
  0.9090909E-01 -0.1249769E-17  0.1249769E-17  0.6010518E-02
    1       -4.381534   1.000000
    2        5.431260   1.000000
    3        6.254850   1.000000
    4        7.465897   1.000000
    5       11.022321   0.000000
    6       15.561794   0.000000
    7       16.636043   0.000000
    8       17.380443   0.000000
 
  0.1818182E+00 -0.2499539E-17  0.2499539E-17  0.6010518E-02
    1       -3.683192   1.000000
    2        5.050512   1.000000
    3        6.254136   1.000000
    4        8.999332   0.793029
    5       12.307616   0.000000
    6       13.429224   0.000000
    7       13.831936   0.000000
    8       15.835296   0.000000
 
  0.2727273E+00 -0.2456599E-16  0.2456599E-16  0.6010518E-02
    1       -2.525724   1.000000
    2        5.100819   1.000000
    3        6.479804   1.000000
    4        9.310959   0.082787
    5       11.388429   0.000000
    6       12.093466   0.000000
    7       13.615177   0.000000
    8       14.537708   0.000000
 
  0.3636364E+00 -0.4999077E-17  0.4999077E-17  0.6010518E-02
    1       -0.920340   1.000000
    2        5.521273   1.000000
    3        6.521831   1.000000
    4        6.990484   1.000000
    5        9.655009   0.000067
    6       12.062580   0.000000
    7       13.688693   0.000000
    8       13.830935   0.000000
 
  0.4545455E+00 -0.5101859E-16 -0.4492561E-17  0.6010518E-02
    1        1.102754   1.000000
    2        3.610940   1.000000
    3        6.479106   1.000000
    4        7.627467   1.000000
    5        8.042943   1.000000
    6       10.638594   0.000000
    7       13.528119   0.000000
    8       14.524921   0.000000
 
  0.9090909E-01  0.9090909E-01  0.6302053E-17  0.6010518E-02
    1       -3.781187   1.000000
    2        5.362491   1.000000
    3        7.013054   1.000000
    4        8.071998   1.000000
    5       11.853265   0.000000
    6       13.869011   0.000000
    7       13.999372   0.000000
    8       16.361453   0.000000
 
  0.1818182E+00  0.9090909E-01 -0.1326486E-16  0.1202104E-01
    1       -2.720268   1.000000
    2        5.390333   1.000000
    3        7.490828   1.000000
    4        9.222403   0.223516
    5       11.028058   0.000000
    6       11.554595   0.000000
    7       13.437089   0.000000
    8       14.654926   0.000000
 
  0.2727273E+00  0.9090909E-01  0.1260411E-16  0.1202104E-01
    1       -1.208927   1.000000
    2        5.776865   1.000000
    3        7.117781   1.000000
    4        7.849701   1.000000
    5        9.296716   0.099249
    6       12.056285   0.000000
    7       12.508995   0.000000
    8       13.960159   0.000000
 
  0.3636364E+00  0.9090909E-01  0.3112467E-17  0.1202104E-01
    1        0.730976   1.000000
    2        4.243655   1.000000
    3        6.591700   1.000000
    4        6.988309   1.000000
    5        8.789706   0.989255
    6       10.889163   0.000000
    7       12.824544   0.000000
    8       14.957910   0.000000
 
  0.4545455E+00  0.9090909E-01 -0.2652972E-16  0.1202104E-01
    1        1.648550   1.000000
    2        3.163342   1.000000
    3        5.611381   1.000000
    4        7.434639   1.000000
    5        8.562423   0.999953
    6       11.220541   0.000000
    7       12.571668   0.000000
    8       15.567755   0.000000
 
 -0.4545455E+00  0.9090909E-01 -0.1715602E-16  0.1202104E-01
    1       -0.441414   1.000000
    2        4.511133   1.000000
    3        5.950220   1.000000
    4        7.012642   1.000000
    5        9.649946   0.000077
    6       12.350966   0.000000
    7       13.032434   0.000000
    8       14.810179   0.000000
 
 -0.3636364E+00  0.9090909E-01  0.3189586E-17  0.1202104E-01
    1       -2.137280   1.000000
    2        3.942511   1.000000
    3        6.435578   1.000000
    4        8.926124   0.909002
    5       11.275717   0.000000
    6       12.519436   0.000000
    7       13.375746   0.000000
    8       14.781647   0.000000
 
 -0.2727273E+00  0.9090909E-01  0.1302975E-17  0.1202104E-01
    1       -3.389637   1.000000
    2        3.774705   1.000000
    3        6.205453   1.000000
    4        9.883980   0.000000
    5       12.583422   0.000000
    6       13.082445   0.000000
    7       13.704451   0.000000
    8       15.300570   0.000000
 
 -0.1818182E+00  0.9090909E-01  0.7590381E-17  0.1202104E-01
    1       -4.184961   1.000000
    2        4.032267   1.000000
    3        6.274960   1.000000
    4        8.433887   0.999999
    5       12.117035   0.000000
    6       14.063200   0.000000
    7       15.992765   0.000000
    8       17.050656   0.000000
 
 -0.9090909E-01  0.9090909E-01  0.1699965E-18  0.3005259E-02
    1       -4.516602   1.000000
    2        4.683728   1.000000
    3        6.390582   1.000000
    4        7.448219   1.000000
    5       11.154103   0.000000
    6       15.273031   0.000000
    7       16.605871   0.000000
    8       18.922756   0.000000
 
  0.1818182E+00  0.1818182E+00  0.1260411E-16  0.6010518E-02
    1       -1.305232   1.000000
    2        5.771885   1.000000
    3        7.745695   1.000000
    4        7.859027   1.000000
    5        9.500769   0.003179
    6       11.341888   0.000000
    7       12.941508   0.000000
    8       13.093983   0.000000
 
  0.2727273E+00  0.1818182E+00  0.3086804E-16  0.1202104E-01
    1        0.543517   1.000000
    2        5.042985   1.000000
    3        5.983979   1.000000
    4        6.525656   1.000000
    5        9.782256   0.000001
    6       11.537974   0.000000
    7       12.224722   0.000000
    8       13.610954   0.000000
 
  0.3636364E+00  0.1818182E+00 -0.2652972E-16  0.1202104E-01
    1        2.304626   1.000000
    2        2.958609   1.000000
    3        4.479904   1.000000
    4        7.424870   1.000000
    5        9.097163   0.549820
    6       11.161491   0.000000
    7       12.830505   0.000000
    8       15.946312   0.000000
 
  0.4545455E+00  0.1818182E+00 -0.6607546E-18  0.1202104E-01
    1        0.224799   1.000000
    2        3.262621   1.000000
    3        5.575147   1.000000
    4        7.477883   1.000000
    5        9.376770   0.032019
    6       11.388977   0.000000
    7       14.128769   0.000000
    8       15.685087   0.000000
 
 -0.4545455E+00  0.1818182E+00 -0.2664766E-16  0.1202104E-01
    1       -1.557234   1.000000
    2        2.568106   1.000000
    3        6.881236   1.000000
    4        8.564999   0.999949
    5       10.480084   0.000000
    6       12.464888   0.000000
    7       13.289813   0.000000
    8       15.927712   0.000000
 
 -0.3636364E+00  0.1818182E+00  0.1518076E-16  0.1202104E-01
    1       -2.901832   1.000000
    2        2.298635   1.000000
    3        6.605704   1.000000
    4       10.457151   0.000000
    5       11.426793   0.000000
    6       12.625351   0.000000
    7       14.449381   0.000000
    8       15.969671   0.000000
 
 -0.2727273E+00  0.1818182E+00 -0.1322630E-16  0.1202104E-01
    1       -3.792591   1.000000
    2        2.467126   1.000000
    3        6.623335   1.000000
    4        9.138117   0.434714
    5       12.532238   0.000000
    6       13.960818   0.000000
    7       14.936037   0.000000
    8       16.550307   0.000000
 
 -0.1818182E+00  0.1818182E+00  0.3399929E-18  0.3005259E-02
    1       -4.221627   1.000000
    2        3.061662   1.000000
    3        6.664290   1.000000
    4        8.227354   1.000000
    5       12.769558   0.000000
    6       13.607216   0.000000
    7       15.292916   0.000000
    8       19.325970   0.000000
 
  0.2727273E+00  0.2727273E+00 -0.6379172E-17  0.6010518E-02
    1        2.582041   1.000000
    2        3.362554   1.000000
    3        3.556353   1.000000
    4        7.416850   1.000000
    5        9.513028   0.002436
    6       10.592425   0.000000
    7       14.020344   0.000000
    8       14.846178   0.000000
 
  0.3636364E+00  0.2727273E+00 -0.3602136E-16  0.1202104E-01
    1        1.072816   1.000000
    2        2.093257   1.000000
    3        5.391118   1.000000
    4        8.014651   1.000000
    5        9.028061   0.730336
    6       10.724472   0.000000
    7       15.402460   0.000000
    8       16.223123   0.000000
 
  0.4545455E+00  0.2727273E+00  0.2520821E-16  0.1202104E-01
    1       -0.788758   1.000000
    2        1.288475   1.000000
    3        7.524014   1.000000
    4        8.336299   1.000000
    5        9.508063   0.002715
    6       12.080568   0.000000
    7       13.986873   0.000000
    8       15.869056   0.000000
 
 -0.4545455E+00  0.2727273E+00  0.1937185E-16  0.1202104E-01
    1       -2.221810   1.000000
    2        0.921343   1.000000
    3        7.224031   1.000000
    4       10.093281   0.000000
    5       10.985910   0.000000
    6       12.525128   0.000000
    7       14.206107   0.000000
    8       14.955516   0.000000
 
 -0.3636364E+00  0.2727273E+00 -0.1702881E-16  0.1202104E-01
    1       -3.206037   1.000000
    2        1.000310   1.000000
    3        7.167678   1.000000
    4        9.820749   0.000000
    5       11.135672   0.000000
    6       13.722317   0.000000
    7       15.728364   0.000000
    8       16.351173   0.000000
 
 -0.2727273E+00  0.2727273E+00 -0.1434744E-16  0.3005259E-02
    1       -3.731213   1.000000
    2        1.521990   1.000000
    3        7.120162   1.000000
    4        8.888508   0.945270
    5       12.095188   0.000000
    6       13.942012   0.000000
    7       14.906643   0.000000
    8       19.069460   0.000000
 
  0.3636364E+00  0.3636364E+00  0.2520821E-16  0.6010518E-02
    1        0.158535   1.000000
    2        0.167452   1.000000
    3        8.026685   1.000000
    4        8.317312   1.000000
    5        8.820077   0.981443
    6       11.957953   0.000000
    7       14.537569   0.000000
    8       15.328703   0.000000
 
  0.4545455E+00  0.3636364E+00 -0.3979458E-16  0.1202104E-01
    1       -1.353584   1.000000
    2       -0.302577   1.000000
    3        8.026178   1.000000
    4        8.997394   0.796923
    5       11.149318   0.000000
    6       12.805068   0.000000
    7       14.041967   0.000000
    8       14.083342   0.000000
 
 -0.4545455E+00  0.3636364E+00 -0.1340671E-16  0.1202104E-01
    1       -2.428106   1.000000
    2       -0.316247   1.000000
    3        7.895911   1.000000
    4        9.883280   0.000000
    5       10.608902   0.000000
    6       12.575537   0.000000
    7       15.764473   0.000000
    8       16.510365   0.000000
 
 -0.3636364E+00  0.3636364E+00  0.6799859E-18  0.3005259E-02
    1       -3.047547   1.000000
    2        0.120997   1.000000
    3        7.757834   1.000000
    4        9.622805   0.000164
    5       10.749593   0.000000
    6       12.664412   0.000000
    7       17.225941   0.000000
    8       18.876315   0.000000
 
  0.4545455E+00  0.4545455E+00 -0.4928622E-16  0.6010518E-02
    1       -1.462740   1.000000
    2       -1.462119   1.000000
    3        8.792009   0.988784
    4        8.814712   0.983099
    5       11.465378   0.000000
    6       11.586286   0.000000
    7       15.695179   0.000000
    8       16.475765   0.000000
 
 -0.4545455E+00  0.4545455E+00 -0.2152036E-17  0.3005259E-02
    1       -2.174100   1.000000
    2       -1.114824   1.000000
    3        8.576571   0.999929
    4        9.574795   0.000573
    5       10.491743   0.000000
    6       11.507208   0.000000
    7       18.789084   0.000000
    8       18.825805   0.000000
 
  0.9090909E-01  0.9090909E-01  0.9090909E-01  0.6010518E-02
    1       -3.487256   1.000000
    2        3.757740   1.000000
    3        7.278926   1.000000
    4        8.835622   0.975842
    5       12.832667   0.000000
    6       13.442564   0.000000
    7       13.738915   0.000000
    8       15.481796   0.000000
 
  0.1818182E+00  0.9090909E-01  0.9090909E-01  0.1202104E-01
    1       -2.330791   1.000000
    2        3.859989   1.000000
    3        7.789660   1.000000
    4        9.357174   0.043324
    5       10.848982   0.000000
    6       11.304744   0.000000
    7       14.285696   0.000000
    8       15.157482   0.000000
 
  0.2727273E+00  0.9090909E-01  0.9090909E-01  0.1202104E-01
    1       -0.727416   1.000000
    2        4.368895   1.000000
    3        6.613851   1.000000
    4        7.906721   1.000000
    5        9.362048   0.040248
    6       12.767946   0.000000
    7       13.371769   0.000000
    8       14.153542   0.000000
 
  0.3636364E+00  0.9090909E-01  0.9090909E-01  0.1202104E-01
    1        1.292825   1.000000
    2        3.782281   1.000000
    3        5.360204   1.000000
    4        6.645482   1.000000
    5        9.603352   0.000276
    6       11.773322   0.000000
    7       13.738946   0.000000
    8       14.461550   0.000000
 
 -0.9090909E-01  0.9090909E-01  0.9090909E-01  0.3005259E-02
    1       -4.418209   1.000000
    2        4.366121   1.000000
    3        5.604016   1.000000
    4        8.443815   0.999999
    5       11.614033   0.000000
    6       14.065104   0.000000
    7       17.531840   0.000000
    8       18.147035   0.000000
 
  0.1818182E+00  0.1818182E+00  0.9090909E-01  0.6010518E-02
    1       -0.823120   1.000000
    2        4.304984   1.000000
    3        7.355462   1.000000
    4        7.440322   1.000000
    5        9.987726   0.000000
    6       11.876276   0.000000
    7       14.007390   0.000000
    8       14.251394   0.000000
 
  0.2727273E+00  0.1818182E+00  0.9090909E-01  0.1202104E-01
    1        1.110474   1.000000
    2        4.559294   1.000000
    3        5.195076   1.000000
    4        5.641656   1.000000
    5       10.751317   0.000000
    6       12.709818   0.000000
    7       13.236625   0.000000
    8       14.159435   0.000000
 
  0.3636364E+00  0.1818182E+00  0.9090909E-01  0.1202104E-01
    1        2.027581   1.000000
    2        3.466145   1.000000
    3        4.193326   1.000000
    4        6.438370   1.000000
    5       10.383722   0.000000
    6       12.415483   0.000000
    7       13.530593   0.000000
    8       15.264547   0.000000
 
  0.4545455E+00  0.1818182E+00  0.9090909E-01  0.1202104E-01
    1       -0.057094   1.000000
    2        3.030229   1.000000
    3        6.269781   1.000000
    4        7.869019   1.000000
    5        9.728161   0.000007
    6       12.580158   0.000000
    7       13.547685   0.000000
    8       14.985475   0.000000
 
 -0.4545455E+00  0.1818182E+00  0.9090909E-01  0.1202104E-01
    1       -1.748870   1.000000
    2        2.415692   1.000000
    3        8.216874   1.000000
    4        9.218995   0.230781
    5       10.594417   0.000000
    6       11.571488   0.000000
    7       13.131197   0.000000
    8       15.021300   0.000000
 
 -0.3636364E+00  0.1818182E+00  0.9090909E-01  0.6010518E-02
    1       -2.998784   1.000000
    2        2.229239   1.000000
    3        7.719598   1.000000
    4        9.467993   0.006263
    5       12.100255   0.000000
    6       12.972396   0.000000
    7       14.147153   0.000000
    8       14.834672   0.000000
 
 -0.1818182E+00  0.1818182E+00  0.9090909E-01  0.6010518E-02
    1       -4.123589   1.000000
    2        3.077679   1.000000
    3        5.550173   1.000000
    4        9.422772   0.014733
    5       12.457984   0.000000
    6       13.020939   0.000000
    7       16.477246   0.000000
    8       18.827239   0.000000
 
 -0.9090909E-01  0.1818182E+00  0.9090909E-01  0.6010518E-02
    1       -3.988890   1.000000
    2        3.732030   1.000000
    3        5.179959   1.000000
    4        9.781419   0.000001
    5       12.560944   0.000000
    6       12.846367   0.000000
    7       15.810982   0.000000
    8       18.025651   0.000000
 
  0.2727273E+00  0.2727273E+00  0.9090909E-01  0.6010518E-02
    1        2.801539   1.000000
    2        2.995788   1.000000
    3        3.634907   1.000000
    4        6.364907   1.000000
    5       10.944493   0.000000
    6       11.883906   0.000000
    7       14.706758   0.000000
    8       14.887523   0.000000
 
  0.3636364E+00  0.2727273E+00  0.9090909E-01  0.1202104E-01
    1        0.798104   1.000000
    2        1.831523   1.000000
    3        6.095955   1.000000
    4        7.808135   1.000000
    5       10.337061   0.000000
    6       11.586249   0.000000
    7       14.232834   0.000000
    8       15.411826   0.000000
 
  0.4545455E+00  0.2727273E+00  0.9090909E-01  0.1202104E-01
    1       -0.977331   1.000000
    2        1.114381   1.000000
    3        8.637844   0.999628
    4        9.107154   0.521754
    5       10.420955   0.000000
    6       11.827738   0.000000
    7       12.460908   0.000000
    8       14.150122   0.000000
 
 -0.4545455E+00  0.2727273E+00  0.9090909E-01  0.6010518E-02
    1       -2.317617   1.000000
    2        0.836565   1.000000
    3        8.330106   1.000000
    4       10.123620   0.000000
    5       11.111117   0.000000
    6       12.460851   0.000000
    7       13.616880   0.000000
    8       13.936876   0.000000
 
 -0.2727273E+00  0.2727273E+00  0.9090909E-01  0.6010518E-02
    1       -3.633918   1.000000
    2        1.590938   1.000000
    3        5.956119   1.000000
    4       10.163176   0.000000
    5       10.954331   0.000000
    6       15.066418   0.000000
    7       15.152732   0.000000
    8       18.865618   0.000000
 
 -0.1818182E+00  0.2727273E+00  0.9090909E-01  0.1202104E-01
    1       -3.597531   1.000000
    2        2.549367   1.000000
    3        5.130745   1.000000
    4       10.767177   0.000000
    5       11.033437   0.000000
    6       14.362121   0.000000
    7       15.334200   0.000000
    8       17.235847   0.000000
 
 -0.9090909E-01  0.2727273E+00  0.9090909E-01  0.6010518E-02
    1       -3.097270   1.000000
    2        3.540084   1.000000
    3        5.096072   1.000000
    4       10.790145   0.000000
    5       11.465845   0.000000
    6       12.901475   0.000000
    7       14.502771   0.000000
    8       15.597596   0.000000
 
  0.3636364E+00  0.3636364E+00  0.9090909E-01  0.6010518E-02
    1       -0.022064   1.000000
    2       -0.019146   1.000000
    3        8.780961   0.990889
    4        9.136526   0.439146
    5       10.398635   0.000000
    6       11.498640   0.000000
    7       12.899276   0.000000
    8       13.462124   0.000000
 
  0.4545455E+00  0.3636364E+00  0.9090909E-01  0.6010518E-02
    1       -1.447528   1.000000
    2       -0.393392   1.000000
    3        9.098848   0.545099
    4        9.986218   0.000000
    5       11.005921   0.000000
    6       11.781596   0.000000
    7       13.359950   0.000000
    8       13.432088   0.000000
 
 -0.3636364E+00  0.3636364E+00  0.9090909E-01  0.6010518E-02
    1       -2.951499   1.000000
    2        0.205685   1.000000
    3        6.586911   1.000000
    4        9.602874   0.000280
    5       10.915453   0.000000
    6       13.906146   0.000000
    7       17.306154   0.000000
    8       18.591460   0.000000
 
 -0.2727273E+00  0.3636364E+00  0.9090909E-01  0.1202104E-01
    1       -3.012885   1.000000
    2        1.153814   1.000000
    3        5.603644   1.000000
    4        9.592129   0.000369
    5       11.552651   0.000000
    6       14.623950   0.000000
    7       16.222885   0.000000
    8       16.662423   0.000000
 
 -0.1818182E+00  0.3636364E+00  0.9090909E-01  0.1202104E-01
    1       -2.611727   1.000000
    2        2.462550   1.000000
    3        5.093320   1.000000
    4        9.885027   0.000000
    5       11.067618   0.000000
    6       13.331504   0.000000
    7       15.350820   0.000000
    8       16.419940   0.000000
 
 -0.9090909E-01  0.3636364E+00  0.9090909E-01  0.6010518E-02
    1       -1.751285   1.000000
    2        3.787996   1.000000
    3        5.394930   1.000000
    4        8.397174   1.000000
    5       10.503768   0.000000
    6       13.182170   0.000000
    7       14.354356   0.000000
    8       14.632786   0.000000
 
 -0.4545455E+00  0.4545455E+00  0.9090909E-01  0.6010518E-02
    1       -2.079665   1.000000
    2       -1.023791   1.000000
    3        7.411430   1.000000
    4        8.419219   1.000000
    5       11.778526   0.000000
    6       12.776046   0.000000
    7       18.347446   0.000000
    8       18.437953   0.000000
 
 -0.3636364E+00  0.4545455E+00  0.9090909E-01  0.1202104E-01
    1       -2.237901   1.000000
    2       -0.140776   1.000000
    3        6.318553   1.000000
    4        8.326018   1.000000
    5       12.299591   0.000000
    6       14.006536   0.000000
    7       15.634839   0.000000
    8       17.460538   0.000000
 
 -0.2727273E+00  0.4545455E+00  0.9090909E-01  0.1202104E-01
    1       -1.935406   1.000000
    2        1.164468   1.000000
    3        5.640386   1.000000
    4        8.588516   0.999901
    5       10.884171   0.000000
    6       13.982875   0.000000
    7       15.234543   0.000000
    8       16.787372   0.000000
 
 -0.1818182E+00  0.4545455E+00  0.9090909E-01  0.1202104E-01
    1       -1.175280   1.000000
    2        2.817911   1.000000
    3        5.456356   1.000000
    4        7.973132   1.000000
    5        9.272869   0.131949
    6       13.247119   0.000000
    7       15.034328   0.000000
    8       15.865020   0.000000
 
 -0.9090909E-01  0.4545455E+00  0.9090909E-01  0.6010518E-02
    1        0.032745   1.000000
    2        4.405851   1.000000
    3        5.481357   1.000000
    4        6.076721   1.000000
    5        9.674277   0.000038
    6       11.897308   0.000000
    7       12.827703   0.000000
    8       16.219695   0.000000
 
 -0.4545455E+00 -0.4545455E+00  0.9090909E-01  0.6010518E-02
    1       -1.278205   1.000000
    2       -1.276356   1.000000
    3        7.226090   1.000000
    4        7.236239   1.000000
    5       12.880041   0.000000
    6       13.451143   0.000000
    7       15.419944   0.000000
    8       17.463438   0.000000
 
 -0.3636364E+00 -0.4545455E+00  0.9090909E-01  0.1202104E-01
    1       -1.073360   1.000000
    2       -0.033815   1.000000
    3        6.436200   1.000000
    4        7.426856   1.000000
    5       10.766261   0.000000
    6       14.709505   0.000000
    7       15.124138   0.000000
    8       15.908632   0.000000
 
 -0.2727273E+00 -0.4545455E+00  0.9090909E-01  0.1202104E-01
    1       -0.413903   1.000000
    2        1.622916   1.000000
    3        6.069809   1.000000
    4        7.634862   1.000000
    5        8.164385   1.000000
    6       13.100754   0.000000
    7       15.856237   0.000000
    8       17.035444   0.000000
 
 -0.1818182E+00 -0.4545455E+00  0.9090909E-01  0.1202104E-01
    1        0.690588   1.000000
    2        3.578292   1.000000
    3        5.064677   1.000000
    4        6.238715   1.000000
    5        8.838610   0.974617
    6       11.578719   0.000000
    7       13.814125   0.000000
    8       17.099309   0.000000
 
 -0.9090909E-01 -0.4545455E+00  0.9090909E-01  0.6010518E-02
    1        2.114649   1.000000
    2        2.790132   1.000000
    3        5.655278   1.000000
    4        7.069537   1.000000
    5        8.720964   0.997326
    6       11.343715   0.000000
    7       11.408786   0.000000
    8       16.516303   0.000000
 
 -0.3636364E+00 -0.3636364E+00  0.9090909E-01  0.6010518E-02
    1        0.517502   1.000000
    2        0.532750   1.000000
    3        6.885264   1.000000
    4        6.926317   1.000000
    5        7.786482   1.000000
    6       13.036331   0.000000
    7       16.362368   0.000000
    8       17.335085   0.000000
 
 -0.2727273E+00 -0.3636364E+00  0.9090909E-01  0.1202104E-01
    1        1.522936   1.000000
    2        2.510625   1.000000
    3        4.859801   1.000000
    4        6.919641   1.000000
    5        7.843531   1.000000
    6       11.398324   0.000000
    7       15.232151   0.000000
    8       16.734020   0.000000
 
 -0.1818182E+00 -0.3636364E+00  0.9090909E-01  0.1202104E-01
    1        2.252584   1.000000
    2        3.099290   1.000000
    3        4.905063   1.000000
    4        7.264758   1.000000
    5        8.585327   0.999910
    6       10.617664   0.000000
    7       12.373451   0.000000
    8       15.643721   0.000000
 
 -0.9090909E-01 -0.3636364E+00  0.9090909E-01  0.6010518E-02
    1        0.353063   1.000000
    2        4.870516   1.000000
    3        7.009278   1.000000
    4        7.961423   1.000000
    5        7.967470   1.000000
    6       10.739529   0.000000
    7       11.659683   0.000000
    8       14.316516   0.000000
 
 -0.2727273E+00 -0.2727273E+00  0.9090909E-01  0.6010518E-02
    1        2.200911   1.000000
    2        3.883853   1.000000
    3        3.983266   1.000000
    4        7.697012   1.000000
    5        8.190646   1.000000
    6       10.358954   0.000000
    7       13.511840   0.000000
    8       14.451155   0.000000
 
 -0.1818182E+00 -0.2727273E+00  0.9090909E-01  0.1202104E-01
    1        0.163324   1.000000
    2        5.645576   1.000000
    3        6.501842   1.000000
    4        7.662902   1.000000
    5        8.835128   0.976040
    6       10.682312   0.000000
    7       11.576362   0.000000
    8       13.016974   0.000000
 
 -0.9090909E-01 -0.2727273E+00  0.9090909E-01  0.6010518E-02
    1       -1.498831   1.000000
    2        6.940756   1.000000
    3        7.748845   1.000000
    4        7.936648   1.000000
    5        9.221107   0.226262
    6       11.385527   0.000000
    7       11.800678   0.000000
    8       13.103657   0.000000
 
 -0.1818182E+00 -0.1818182E+00  0.9090909E-01  0.6010518E-02
    1       -1.595556   1.000000
    2        7.239988   1.000000
    3        8.160043   1.000000
    4        8.264940   1.000000
    5        9.164266   0.363439
    6       10.652805   0.000000
    7       12.152025   0.000000
    8       12.316082   0.000000
 
 -0.9090909E-01 -0.1818182E+00  0.9090909E-01  0.6010518E-02
    1       -2.915327   1.000000
    2        6.737807   1.000000
    3        7.471500   1.000000
    4        8.561813   0.999954
    5       11.313434   0.000000
    6       11.801381   0.000000
    7       12.432032   0.000000
    8       14.169984   0.000000
 
 -0.9090909E-01 -0.9090909E-01  0.9090909E-01  0.1502630E-02
    1       -3.879237   1.000000
    2        6.863365   1.000000
    3        6.924205   1.000000
    4        6.924227   1.000000
    5       11.279128   0.000000
    6       14.067023   0.000000
    7       14.378519   0.000000
    8       16.431301   0.000000
 
  0.1818182E+00  0.1818182E+00  0.1818182E+00  0.6010518E-02
    1       -0.151457   1.000000
    2        2.948541   1.000000
    3        7.072146   1.000000
    4        7.122711   1.000000
    5       10.643268   0.000000
    6       12.439362   0.000000
    7       13.859736   0.000000
    8       14.477654   0.000000
 
  0.2727273E+00  0.1818182E+00  0.1818182E+00  0.1202104E-01
    1        1.858636   1.000000
    2        3.818997   1.000000
    3        4.457519   1.000000
    4        5.365991   1.000000
    5       11.687754   0.000000
    6       13.806371   0.000000
    7       13.922745   0.000000
    8       14.515437   0.000000
 
 -0.1818182E+00  0.1818182E+00  0.1818182E+00  0.3005259E-02
    1       -3.830099   1.000000
    2        2.838798   1.000000
    3        4.422553   1.000000
    4       10.852102   0.000000
    5       10.920870   0.000000
    6       13.926850   0.000000
    7       17.754817   0.000000
    8       18.017790   0.000000
 
  0.2727273E+00  0.2727273E+00  0.1818182E+00  0.6010518E-02
    1        2.757690   1.000000
    2        2.796903   1.000000
    3        4.328292   1.000000
    4        5.277555   1.000000
    5       12.377802   0.000000
    6       13.184255   0.000000
    7       14.387403   0.000000
    8       15.246371   0.000000
 
  0.3636364E+00  0.2727273E+00  0.1818182E+00  0.6010518E-02
    1        0.705805   1.000000
    2        1.742760   1.000000
    3        6.933661   1.000000
    4        6.950321   1.000000
    5       11.466792   0.000000
    6       12.385221   0.000000
    7       13.441786   0.000000
    8       14.083924   0.000000
 
 -0.2727273E+00  0.2727273E+00  0.1818182E+00  0.6010518E-02
    1       -3.342682   1.000000
    2        1.754273   1.000000
    3        4.417118   1.000000
    4        9.336324   0.058684
    5       11.998273   0.000000
    6       15.625520   0.000000
    7       16.785242   0.000000
    8       18.477612   0.000000
 
 -0.1818182E+00  0.2727273E+00  0.1818182E+00  0.6010518E-02
    1       -3.208575   1.000000
    2        2.388845   1.000000
    3        4.049374   1.000000
    4        9.450911   0.008747
    5       12.213917   0.000000
    6       15.003219   0.000000
    7       15.458347   0.000000
    8       18.573142   0.000000
 
 -0.3636364E+00  0.3636364E+00  0.1818182E+00  0.6010518E-02
    1       -2.664025   1.000000
    2        0.449428   1.000000
    3        4.968929   1.000000
    4        7.973665   1.000000
    5       12.859064   0.000000
    6       15.718505   0.000000
    7       17.553915   0.000000
    8       18.181892   0.000000
 
 -0.2727273E+00  0.3636364E+00  0.1818182E+00  0.1202104E-01
    1       -2.628051   1.000000
    2        1.404886   1.000000
    3        4.110173   1.000000
    4        8.012396   1.000000
    5       13.023316   0.000000
    6       14.896273   0.000000
    7       17.258726   0.000000
    8       17.961932   0.000000
 