<?xml version="1.0" encoding="ISO-8859-1"?>
<modeling>
 <generator>
  <i name="program" type="string">vasp </i>
  <i name="version" type="string">5.4.4.18Apr17-6-g9f103f2a35  </i>
  <i name="subversion" type="string">(build Dec 09 2018 21:25:21) complex            parallel </i>
  <i name="platform" type="string">IFC18.0.1.163_CrayMPICH7.7.0_MKL18.0.1.163 </i>
  <i name="date" type="string">2019 03 19 </i>
  <i name="time" type="string">13:10:57 </i>
 </generator>
 <incar>
  <i type="string" name="PREC">normal</i>
  <i type="int" name="IBRION">     2</i>
  <i name="EDIFF">      0.00040000</i>
  <i name="EDIFFG">     -0.01000000</i>
  <i type="int" name="NSW">    15</i>
  <i type="int" name="ISIF">     2</i>
  <i name="ENCUT">    250.00000000</i>
  <i type="int" name="NBANDS">     8</i>
  <i type="logical" name="LREAL"> F  </i>
  <i type="int" name="ISMEAR">     0</i>
  <i name="SIGMA">      0.20000000</i>
  <v type="int" name="KPOINT_BSE">    -1     0     0     0</v>
 </incar>
 <structure name="primitive_cell" >
  <crystal>
   <varray name="basis" >
    <v>      -2.45000000       2.45000000       1.27400000 </v>
    <v>       2.45000000      -2.45000000       1.27400000 </v>
    <v>       2.45000000       2.45000000      -1.27400000 </v>
   </varray>
   <i name="volume">     30.58874000 </i>
   <varray name="rec_basis" >
    <v>       0.00000000       0.20408163       0.39246468 </v>
    <v>       0.20408163       0.00000000       0.39246468 </v>
    <v>       0.20408163       0.20408163      -0.00000000 </v>
   </varray>
  </crystal>
  <varray name="positions" >
   <v>       0.25000000      -0.25000000      -0.50000000 </v>
   <v>       0.00000000       0.00000000       0.00000000 </v>
  </varray>
 </structure>
 <varray name="primitive_index" >
  <v type="int" >        1 </v>
  <v type="int" >        2 </v>
 </varray>
 <kpoints>
  <generation param="Monkhorst-Pack">
   <v type="int" name="divisions">      11       11       11 </v>
   <v name="usershift">      0.00000000       0.00000000       0.00000000 </v>
   <v name="genvec1">      0.09090909       0.00000000      -0.00000000 </v>
   <v name="genvec2">      0.00000000       0.09090909      -0.00000000 </v>
   <v name="genvec3">     -0.00000000       0.00000000       0.09090909 </v>
   <v name="shift">      0.00000000       0.00000000       0.00000000 </v>
  </generation>
  <varray name="kpointlist" >
   <v>       0.00000000       0.00000000       0.00000000 </v>
   <v>       0.09090909      -0.00000000       0.00000000 </v>
   <v>       0.18181818      -0.00000000       0.00000000 </v>
   <v>       0.27272727      -0.00000000       0.00000000 </v>
   <v>       0.36363636      -0.00000000       0.00000000 </v>
   <v>       0.45454545      -0.00000000      -0.00000000 </v>
   <v>       0.09090909       0.09090909       0.00000000 </v>
   <v>       0.18181818       0.09090909      -0.00000000 </v>
   <v>       0.27272727       0.09090909       0.00000000 </v>
   <v>       0.36363636       0.09090909       0.00000000 </v>
   <v>       0.45454545       0.09090909      -0.00000000 </v>
   <v>      -0.45454545       0.09090909      -0.00000000 </v>
   <v>      -0.36363636       0.09090909       0.00000000 </v>
   <v>      -0.27272727       0.09090909       0.00000000 </v>
   <v>      -0.18181818       0.09090909       0.00000000 </v>
   <v>      -0.09090909       0.09090909       0.00000000 </v>
   <v>       0.18181818       0.18181818       0.00000000 </v>
   <v>       0.27272727       0.18181818       0.00000000 </v>
   <v>       0.36363636       0.18181818      -0.00000000 </v>
   <v>       0.45454545       0.18181818      -0.00000000 </v>
   <v>      -0.45454545       0.18181818      -0.00000000 </v>
   <v>      -0.36363636       0.18181818       0.00000000 </v>
   <v>      -0.27272727       0.18181818      -0.00000000 </v>
   <v>      -0.18181818       0.18181818       0.00000000 </v>
   <v>       0.27272727       0.27272727      -0.00000000 </v>
   <v>       0.36363636       0.27272727      -0.00000000 </v>
   <v>       0.45454545       0.27272727       0.00000000 </v>
   <v>      -0.45454545       0.27272727       0.00000000 </v>
   <v>      -0.36363636       0.27272727      -0.00000000 </v>
   <v>      -0.27272727       0.27272727      -0.00000000 </v>
   <v>       0.36363636       0.36363636       0.00000000 </v>
   <v>       0.45454545       0.36363636      -0.00000000 </v>
   <v>      -0.45454545       0.36363636      -0.00000000 </v>
   <v>      -0.36363636       0.36363636       0.00000000 </v>
   <v>       0.45454545       0.45454545      -0.00000000 </v>
   <v>      -0.45454545       0.45454545      -0.00000000 </v>
   <v>       0.09090909       0.09090909       0.09090909 </v>
   <v>       0.18181818       0.09090909       0.09090909 </v>
   <v>       0.27272727       0.09090909       0.09090909 </v>
   <v>       0.36363636       0.09090909       0.09090909 </v>
   <v>      -0.09090909       0.09090909       0.09090909 </v>
   <v>       0.18181818       0.18181818       0.09090909 </v>
   <v>       0.27272727       0.18181818       0.09090909 </v>
   <v>       0.36363636       0.18181818       0.09090909 </v>
   <v>       0.45454545       0.18181818       0.09090909 </v>
   <v>      -0.45454545       0.18181818       0.09090909 </v>
   <v>      -0.36363636       0.18181818       0.09090909 </v>
   <v>      -0.18181818       0.18181818       0.09090909 </v>
   <v>      -0.09090909       0.18181818       0.09090909 </v>
   <v>       0.27272727       0.27272727       0.09090909 </v>
   <v>       0.36363636       0.27272727       0.09090909 </v>
   <v>       0.45454545       0.27272727       0.09090909 </v>
   <v>      -0.45454545       0.27272727       0.09090909 </v>
   <v>      -0.27272727       0.27272727       0.09090909 </v>
   <v>      -0.18181818       0.27272727       0.09090909 </v>
   <v>      -0.09090909       0.27272727       0.09090909 </v>
   <v>       0.36363636       0.36363636       0.09090909 </v>
   <v>       0.45454545       0.36363636       0.09090909 </v>
   <v>      -0.36363636       0.36363636       0.09090909 </v>
   <v>      -0.27272727       0.36363636       0.09090909 </v>
   <v>      -0.18181818       0.36363636       0.09090909 </v>
   <v>      -0.09090909       0.36363636       0.09090909 </v>
   <v>      -0.45454545       0.45454545       0.09090909 </v>
   <v>      -0.36363636       0.45454545       0.09090909 </v>
   <v>      -0.27272727       0.45454545       0.09090909 </v>
   <v>      -0.18181818       0.45454545       0.09090909 </v>
   <v>      -0.09090909       0.45454545       0.09090909 </v>
   <v>      -0.45454545      -0.45454545       0.09090909 </v>
   <v>      -0.36363636      -0.45454545       0.09090909 </v>
   <v>      -0.27272727      -0.45454545       0.09090909 </v>
   <v>      -0.18181818      -0.45454545       0.09090909 </v>
   <v>      -0.09090909      -0.45454545       0.09090909 </v>
   <v>      -0.36363636      -0.36363636       0.09090909 </v>
   <v>      -0.27272727      -0.36363636       0.09090909 </v>
   <v>      -0.18181818      -0.36363636       0.09090909 </v>
   <v>      -0.09090909      -0.36363636       0.09090909 </v>
   <v>      -0.27272727      -0.27272727       0.09090909 </v>
   <v>      -0.18181818      -0.27272727       0.09090909 </v>
   <v>      -0.09090909      -0.27272727       0.09090909 </v>
   <v>      -0.18181818      -0.18181818       0.09090909 </v>
   <v>      -0.09090909      -0.18181818       0.09090909 </v>
   <v>      -0.09090909      -0.09090909       0.09090909 </v>
   <v>       0.18181818       0.18181818       0.18181818 </v>
   <v>       0.27272727       0.18181818       0.18181818 </v>
   <v>      -0.18181818       0.18181818       0.18181818 </v>
   <v>       0.27272727       0.27272727       0.18181818 </v>
   <v>       0.36363636       0.27272727       0.18181818 </v>
   <v>      -0.27272727       0.27272727       0.18181818 </v>
   <v>      -0.18181818       0.27272727       0.18181818 </v>
   <v>      -0.36363636       0.36363636       0.18181818 </v>
   <v>      -0.27272727       0.36363636       0.18181818 </v>
   <v>      -0.18181818       0.36363636       0.18181818 </v>
   <v>      -0.45454545       0.45454545       0.18181818 </v>
   <v>      -0.36363636       0.45454545       0.18181818 </v>
   <v>      -0.27272727       0.45454545       0.18181818 </v>
   <v>      -0.18181818       0.45454545       0.18181818 </v>
   <v>      -0.45454545      -0.45454545       0.18181818 </v>
   <v>      -0.36363636      -0.45454545       0.18181818 </v>
   <v>      -0.27272727      -0.45454545       0.18181818 </v>
   <v>      -0.18181818      -0.45454545       0.18181818 </v>
   <v>      -0.36363636      -0.36363636       0.18181818 </v>
   <v>      -0.27272727      -0.36363636       0.18181818 </v>
   <v>      -0.18181818      -0.36363636       0.18181818 </v>
   <v>      -0.27272727      -0.27272727       0.18181818 </v>
   <v>      -0.18181818      -0.27272727       0.18181818 </v>
   <v>      -0.18181818      -0.18181818       0.18181818 </v>
   <v>      -0.27272727       0.27272727       0.27272727 </v>
   <v>      -0.36363636       0.36363636       0.27272727 </v>
   <v>      -0.27272727       0.36363636       0.27272727 </v>
   <v>      -0.45454545       0.45454545       0.27272727 </v>
   <v>      -0.36363636       0.45454545       0.27272727 </v>
   <v>      -0.27272727       0.45454545       0.27272727 </v>
   <v>      -0.45454545      -0.45454545       0.27272727 </v>
   <v>      -0.36363636      -0.45454545       0.27272727 </v>
   <v>      -0.27272727      -0.45454545       0.27272727 </v>
   <v>      -0.36363636      -0.36363636       0.27272727 </v>
   <v>      -0.27272727      -0.36363636       0.27272727 </v>
   <v>      -0.27272727      -0.27272727       0.27272727 </v>
   <v>      -0.36363636       0.36363636       0.36363636 </v>
   <v>      -0.45454545       0.45454545       0.36363636 </v>
   <v>      -0.36363636       0.45454545       0.36363636 </v>
   <v>      -0.45454545      -0.45454545       0.36363636 </v>
   <v>      -0.36363636      -0.45454545       0.36363636 </v>
   <v>      -0.36363636      -0.36363636       0.36363636 </v>
   <v>      -0.45454545       0.45454545       0.45454545 </v>
   <v>      -0.45454545      -0.45454545       0.45454545 </v>
  </varray>
  <varray name="weights" >
   <v>       0.00075131 </v>
   <v>       0.00601052 </v>
   <v>       0.00601052 </v>
   <v>       0.00601052 </v>
   <v>       0.00601052 </v>
   <v>       0.00601052 </v>
   <v>       0.00601052 </v>
   <v>       0.01202104 </v>
   <v>       0.01202104 </v>
   <v>       0.01202104 </v>
   <v>       0.01202104 </v>
   <v>       0.01202104 </v>
   <v>       0.01202104 </v>
   <v>       0.01202104 </v>
   <v>       0.01202104 </v>
   <v>       0.00300526 </v>
   <v>       0.00601052 </v>
   <v>       0.01202104 </v>
   <v>       0.01202104 </v>
   <v>       0.01202104 </v>
   <v>       0.01202104 </v>
   <v>       0.01202104 </v>
   <v>       0.01202104 </v>
   <v>       0.00300526 </v>
   <v>       0.00601052 </v>
   <v>       0.01202104 </v>
   <v>       0.01202104 </v>
   <v>       0.01202104 </v>
   <v>       0.01202104 </v>
   <v>       0.00300526 </v>
   <v>       0.00601052 </v>
   <v>       0.01202104 </v>
   <v>       0.01202104 </v>
   <v>       0.00300526 </v>
   <v>       0.00601052 </v>
   <v>       0.00300526 </v>
   <v>       0.00601052 </v>
   <v>       0.01202104 </v>
   <v>       0.01202104 </v>
   <v>       0.01202104 </v>
   <v>       0.00300526 </v>
   <v>       0.00601052 </v>
   <v>       0.01202104 </v>
   <v>       0.01202104 </v>
   <v>       0.01202104 </v>
   <v>       0.01202104 </v>
   <v>       0.00601052 </v>
   <v>       0.00601052 </v>
   <v>       0.00601052 </v>
   <v>       0.00601052 </v>
   <v>       0.01202104 </v>
   <v>       0.01202104 </v>
   <v>       0.00601052 </v>
   <v>       0.00601052 </v>
   <v>       0.01202104 </v>
   <v>       0.00601052 </v>
   <v>       0.00601052 </v>
   <v>       0.00601052 </v>
   <v>       0.00601052 </v>
   <v>       0.01202104 </v>
   <v>       0.01202104 </v>
   <v>       0.00601052 </v>
   <v>       0.00601052 </v>
   <v>       0.01202104 </v>
   <v>       0.01202104 </v>
   <v>       0.01202104 </v>
   <v>       0.00601052 </v>
   <v>       0.00601052 </v>
   <v>       0.01202104 </v>
   <v>       0.01202104 </v>
   <v>       0.01202104 </v>
   <v>       0.00601052 </v>
   <v>       0.00601052 </v>
   <v>       0.01202104 </v>
   <v>       0.01202104 </v>
   <v>       0.00601052 </v>
   <v>       0.00601052 </v>
   <v>       0.01202104 </v>
   <v>       0.00601052 </v>
   <v>       0.00601052 </v>
   <v>       0.00601052 </v>
   <v>       0.00150263 </v>
   <v>       0.00601052 </v>
   <v>       0.01202104 </v>
   <v>       0.00300526 </v>
   <v>       0.00601052 </v>
   <v>       0.00601052 </v>
   <v>       0.00601052 </v>
   <v>       0.00601052 </v>
   <v>       0.00601052 </v>
   <v>       0.01202104 </v>
   <v>       0.00601052 </v>
   <v>       0.00601052 </v>
   <v>       0.01202104 </v>
   <v>       0.01202104 </v>
   <v>       0.00601052 </v>
   <v>       0.00601052 </v>
   <v>       0.01202104 </v>
   <v>       0.01202104 </v>
   <v>       0.00601052 </v>
   <v>       0.00601052 </v>
   <v>       0.01202104 </v>
   <v>       0.00601052 </v>
   <v>       0.00601052 </v>
   <v>       0.00601052 </v>
   <v>       0.00150263 </v>
   <v>       0.00300526 </v>
   <v>       0.00601052 </v>
   <v>       0.00601052 </v>
   <v>       0.00601052 </v>
   <v>       0.01202104 </v>
   <v>       0.00601052 </v>
   <v>       0.00601052 </v>
   <v>       0.01202104 </v>
   <v>       0.00601052 </v>
   <v>       0.00601052 </v>
   <v>       0.00601052 </v>
   <v>       0.00150263 </v>
   <v>       0.00300526 </v>
   <v>       0.00601052 </v>
   <v>       0.00601052 </v>
   <v>       0.00601052 </v>
   <v>       0.00601052 </v>
   <v>       0.00150263 </v>
   <v>       0.00300526 </v>
   <v>       0.00150263 </v>
  </varray>
 </kpoints>
 <parameters>
  <separator name="general" >
   <i type="string" name="SYSTEM">unknown system</i>
   <i type="logical" name="LCOMPAT"> F  </i>
  </separator>
  <separator name="electronic" >
   <i type="string" name="PREC">normal</i>
   <i name="ENMAX">    250.00000000</i>
   <i name="ENAUG">    322.06900000</i>
   <i name="EDIFF">      0.00040000</i>
   <i type="int" name="IALGO">    38</i>
   <i type="int" name="IWAVPR">    11</i>
   <i type="int" name="NBANDS">     8</i>
   <i name="NELECT">      8.00000000</i>
   <i type="int" name="TURBO">     0</i>
   <i type="int" name="IRESTART">     0</i>
   <i type="int" name="NREBOOT">     0</i>
   <i type="int" name="NMIN">     0</i>
   <i name="EREF">      0.00000000</i>
   <separator name="electronic smearing" >
    <i type="int" name="ISMEAR">     0</i>
    <i name="SIGMA">      0.20000000</i>
    <i name="KSPACING">      0.50000000</i>
    <i type="logical" name="KGAMMA"> T  </i>
   </separator>
   <separator name="electronic projectors" >
    <i type="logical" name="LREAL"> F  </i>
    <v name="ROPT">      0.00000000</v>
    <i type="int" name="LMAXPAW">  -100</i>
    <i type="int" name="LMAXMIX">     2</i>
    <i type="logical" name="NLSPLINE"> F  </i>
   </separator>
   <separator name="electronic startup" >
    <i type="int" name="ISTART">     1</i>
    <i type="int" name="ICHARG">     0</i>
    <i type="int" name="INIWAV">     1</i>
   </separator>
   <separator name="electronic spin" >
    <i type="int" name="ISPIN">     1</i>
    <i type="logical" name="LNONCOLLINEAR"> F  </i>
    <v name="MAGMOM">      1.00000000      1.00000000</v>
    <i name="NUPDOWN">     -1.00000000</i>
    <i type="logical" name="LSORBIT"> F  </i>
    <v name="SAXIS">      0.00000000      0.00000000      1.00000000</v>
    <i type="logical" name="LSPIRAL"> F  </i>
    <v name="QSPIRAL">      0.00000000      0.00000000      0.00000000</v>
    <i type="logical" name="LZEROZ"> F  </i>
   </separator>
   <separator name="electronic exchange-correlation" >
    <i type="logical" name="LASPH"> F  </i>
    <i type="logical" name="LMETAGGA"> F  </i>
   </separator>
   <separator name="electronic convergence" >
    <i type="int" name="NELM">    60</i>
    <i type="int" name="NELMDL">     0</i>
    <i type="int" name="NELMIN">     2</i>
    <i name="ENINI">    250.00000000</i>
    <separator name="electronic convergence detail" >
     <i type="logical" name="LDIAG"> T  </i>
     <i type="logical" name="LSUBROT"> F  </i>
     <i name="WEIMIN">      0.00100000</i>
     <i name="EBREAK">      0.00001250</i>
     <i name="DEPER">      0.30000000</i>
     <i type="int" name="NRMM">     4</i>
     <i name="TIME">      0.40000000</i>
    </separator>
   </separator>
   <separator name="electronic mixer" >
    <i name="AMIX">      0.40000000</i>
    <i name="BMIX">      1.00000000</i>
    <i name="AMIN">      0.10000000</i>
    <i name="AMIX_MAG">      1.60000000</i>
    <i name="BMIX_MAG">      1.00000000</i>
    <separator name="electronic mixer details" >
     <i type="int" name="IMIX">     4</i>
     <i type="logical" name="MIXFIRST"> F  </i>
     <i type="int" name="MAXMIX">   -45</i>
     <i name="WC">    100.00000000</i>
     <i type="int" name="INIMIX">     1</i>
     <i type="int" name="MIXPRE">     1</i>
     <i type="int" name="MREMOVE">     5</i>
    </separator>
   </separator>
   <separator name="electronic dipolcorrection" >
    <i type="logical" name="LDIPOL"> F  </i>
    <i type="logical" name="LMONO"> F  </i>
    <i type="int" name="IDIPOL">     0</i>
    <i name="EPSILON">      1.00000000</i>
    <v name="DIPOL">   -100.00000000   -100.00000000   -100.00000000</v>
    <i name="EFIELD">      0.00000000</i>
   </separator>
  </separator>
  <separator name="grids" >
   <i type="int" name="NGX">    14</i>
   <i type="int" name="NGY">    14</i>
   <i type="int" name="NGZ">    14</i>
   <i type="int" name="NGXF">    28</i>
   <i type="int" name="NGYF">    28</i>
   <i type="int" name="NGZF">    28</i>
   <i type="logical" name="ADDGRID"> F  </i>
  </separator>
  <separator name="ionic" >
   <i type="int" name="NSW">    15</i>
   <i type="int" name="IBRION">     2</i>
   <i type="int" name="MDALGO">     0</i>
   <i type="int" name="ISIF">     2</i>
   <i name="PSTRESS">      0.00000000</i>
   <i name="EDIFFG">     -0.01000000</i>
   <i type="int" name="NFREE">     1</i>
   <i name="POTIM">      0.50000000</i>
   <i name="SMASS">     -3.00000000</i>
   <i name="SCALEE">      1.00000000</i>
  </separator>
  <separator name="ionic md" >
   <i name="TEBEG">      0.00010000</i>
   <i name="TEEND">      0.00010000</i>
   <i type="int" name="NBLOCK">     1</i>
   <i type="int" name="KBLOCK">    15</i>
   <i type="int" name="NPACO">   256</i>
   <i name="APACO">     16.00000000</i>
  </separator>
  <separator name="symmetry" >
   <i type="int" name="ISYM">     2</i>
   <i name="SYMPREC">      0.00001000</i>
  </separator>
  <separator name="dos" >
   <i type="int" name="LORBIT">     0</i>
   <v name="RWIGS">     -1.00000000</v>
   <i type="int" name="NEDOS">   301</i>
   <i name="EMIN">     10.00000000</i>
   <i name="EMAX">    -10.00000000</i>
   <i name="EFERMI">      0.00000000</i>
  </separator>
  <separator name="writing" >
   <i type="int" name="NWRITE">     2</i>
   <i type="logical" name="LWAVE"> T  </i>
   <i type="logical" name="LDOWNSAMPLE"> F  </i>
   <i type="logical" name="LCHARG"> T  </i>
   <i type="logical" name="LPARD"> F  </i>
   <i type="logical" name="LVTOT"> F  </i>
   <i type="logical" name="LVHAR"> F  </i>
   <i type="logical" name="LELF"> F  </i>
   <i type="logical" name="LOPTICS"> F  </i>
   <v name="STM">      0.00000000      0.00000000      0.00000000      0.00000000      0.00000000      0.00000000      0.00000000</v>
  </separator>
  <separator name="performance" >
   <i type="int" name="NPAR">     8</i>
   <i type="int" name="NSIM">     4</i>
   <i type="int" name="NBLK">    -1</i>
   <i type="logical" name="LPLANE"> T  </i>
   <i type="logical" name="LSCALAPACK"> T  </i>
   <i type="logical" name="LSCAAWARE"> F  </i>
   <i type="logical" name="LSCALU"> F  </i>
   <i type="logical" name="LASYNC"> F  </i>
   <i type="logical" name="LORBITALREAL"> F  </i>
  </separator>
  <separator name="miscellaneous" >
   <i type="int" name="IDIOT">     3</i>
   <i type="int" name="ISPECIAL">     0</i>
   <i type="logical" name="LMUSIC"> F  </i>
   <v name="POMASS">     28.08500000</v>
   <v name="DARWINR">      0.00000000</v>
   <v name="DARWINV">      1.00000000</v>
   <i type="logical" name="LCORR"> T  </i>
  </separator>
  <i type="logical" name="GGA_COMPAT"> T  </i>
  <i type="logical" name="LBERRY"> F  </i>
  <i type="int" name="ICORELEVEL">     0</i>
  <i type="logical" name="LDAU"> F  </i>
  <i type="int" name="I_CONSTRAINED_M">     0</i>
  <separator name="electronic exchange-correlation" >
   <i type="string" name="GGA">--</i>
   <i type="int" name="VOSKOWN">     0</i>
   <i type="logical" name="LHFCALC"> F  </i>
   <i type="string" name="PRECFOCK"></i>
   <i type="logical" name="LSYMGRAD"> F  </i>
   <i type="logical" name="LHFONE"> F  </i>
   <i type="logical" name="LRHFCALC"> F  </i>
   <i type="logical" name="LTHOMAS"> F  </i>
   <i type="logical" name="LMODELHF"> F  </i>
   <i name="ENCUT4O">     -1.00000000</i>
   <i type="int" name="EXXOEP">     0</i>
   <i type="int" name="FOURORBIT">     0</i>
   <i name="AEXX">      0.00000000</i>
   <i name="HFALPHA">      0.00000000</i>
   <i name="MCALPHA">      0.00000000</i>
   <i name="ALDAX">      1.00000000</i>
   <i name="AGGAX">      1.00000000</i>
   <i name="ALDAC">      1.00000000</i>
   <i name="AGGAC">      1.00000000</i>
   <i type="int" name="NKREDX">     1</i>
   <i type="int" name="NKREDY">     1</i>
   <i type="int" name="NKREDZ">     1</i>
   <i type="logical" name="SHIFTRED"> F  </i>
   <i type="logical" name="ODDONLY"> F  </i>
   <i type="logical" name="EVENONLY"> F  </i>
   <i type="int" name="LMAXFOCK">     0</i>
   <i type="int" name="NMAXFOCKAE">     0</i>
   <i type="logical" name="LFOCKAEDFT"> F  </i>
   <i name="HFSCREEN">      0.00000000</i>
   <i name="HFSCREENC">      0.00000000</i>
   <i type="int" name="NBANDSGWLOW">     0</i>
  </separator>
  <separator name="vdW DFT" >
   <i type="logical" name="LUSE_VDW"> F  </i>
   <i name="Zab_VDW">     -0.84910000</i>
   <i name="PARAM1">      0.12340000</i>
   <i name="PARAM2">      1.00000000</i>
   <i name="PARAM3">      0.00000000</i>
  </separator>
  <separator name="model GW" >
   <i type="int" name="MODEL_GW">     0</i>
   <i name="MODEL_EPS0">      9.17662200</i>
   <i name="MODEL_ALPHA">      1.00000000</i>
  </separator>
  <separator name="linear response parameters" >
   <i type="logical" name="LEPSILON"> F  </i>
   <i type="logical" name="LRPA"> F  </i>
   <i type="logical" name="LNABLA"> F  </i>
   <i type="logical" name="LVEL"> F  </i>
   <i type="int" name="KINTER">     0</i>
   <i name="CSHIFT">      0.10000000</i>
   <i name="OMEGAMAX">     -1.00000000</i>
   <i name="DEG_THRESHOLD">      0.00200000</i>
   <i name="RTIME">     -0.10000000</i>
   <i name="WPLASMAI">      0.00000000</i>
   <v name="DFIELD">      0.00000000      0.00000000      0.00000000</v>
   <v name="WPLASMA">      0.00000000      0.00000000      0.00000000      0.00000000      0.00000000      0.00000000      0.00000000      0.00000000      0.00000000</v>
  </separator>
  <separator name="orbital magnetization" >
   <i type="logical" name="NUCIND"> F  </i>
   <v name="MAGPOS">      0.00000000      0.00000000      0.00000000</v>
   <i type="logical" name="LNICSALL"> T  </i>
   <i type="logical" name="ORBITALMAG"> F  </i>
   <i type="logical" name="LMAGBLOCH"> F  </i>
   <i type="logical" name="LCHIMAG"> F  </i>
   <i type="logical" name="LGAUGE"> T  </i>
   <i type="int" name="MAGATOM">     0</i>
   <v name="MAGDIPOL">      0.00000000      0.00000000      0.00000000</v>
   <v name="AVECCONST">      0.00000000      0.00000000      0.00000000</v>
  </separator>
  <separator name="response functions" >
   <i type="logical" name="LADDER"> F  </i>
   <i type="logical" name="LRPAFORCE"> F  </i>
   <i type="logical" name="LFXC"> F  </i>
   <i type="logical" name="LHARTREE"> T  </i>
   <i type="int" name="IBSE">     0</i>
   <v type="int" name="KPOINT">    -1     0     0     0</v>
   <i type="logical" name="LTCTE"> F  </i>
   <i type="logical" name="LTETE"> F  </i>
   <i type="logical" name="LTRIPLET"> F  </i>
   <i type="logical" name="LFXCEPS"> F  </i>
   <i type="logical" name="LFXHEG"> F  </i>
   <i type="int" name="NATURALO">     2</i>
   <i type="logical" name="L2ORDER"> F  </i>
   <i type="logical" name="LMP2LT"> F  </i>
   <i type="logical" name="LUSEW"> F  </i>
   <i name="ENCUTGW">     -2.00000000</i>
   <i name="ENCUTGWSOFT">     -2.00000000</i>
   <i name="ENCUTLF">     -1.00000000</i>
   <i type="int" name="LMAXMP2">    -1</i>
   <i name="SCISSOR">      0.00000000</i>
   <i type="int" name="NOMEGA">     0</i>
   <i type="int" name="NOMEGAR">     0</i>
   <i type="int" name="NBANDSGW">    -1</i>
   <i type="int" name="NBANDSO">    -1</i>
   <i type="int" name="NBANDSV">    -1</i>
   <i type="int" name="NELM">     1</i>
   <i type="int" name="NELMHF">     1</i>
   <i type="int" name="DIM">     3</i>
   <i type="int" name="ANTIRES">     0</i>
   <i name="OMEGAMAX">    -30.00000000</i>
   <i name="OMEGAMIN">    -30.00000000</i>
   <i name="OMEGATL">   -200.00000000</i>
   <i type="int" name="OMEGAGRID">   140</i>
   <i name="CSHIFT">     -0.10000000</i>
   <i type="logical" name="SELFENERGY"> F  </i>
   <i type="logical" name="LSPECTRAL"> F  </i>
   <i type="logical" name="LSPECTRALGW"> F  </i>
   <i type="logical" name="LSINGLES"> F  </i>
   <i type="logical" name="LFERMIGW"> F  </i>
   <i type="logical" name="ODDONLYGW"> F  </i>
   <i type="logical" name="EVENONLYGW"> F  </i>
   <i type="int" name="NKREDLFX">     1</i>
   <i type="int" name="NKREDLFY">     1</i>
   <i type="int" name="NKREDLFZ">     1</i>
   <i type="int" name="MAXMEM">  2800</i>
   <i type="int" name="TELESCOPE">     0</i>
   <i type="int" name="TAUPAR">     1</i>
   <i type="int" name="OMEGAPAR">    -1</i>
   <i name="LAMBDA">      1.00000000</i>
  </separator>
  <separator name="External order field" >
   <i name="OFIELD_KAPPA">      0.00000000</i>
   <v name="OFIELD_K">      0.00000000      0.00000000      0.00000000</v>
   <i name="OFIELD_Q6_NEAR">      0.00000000</i>
   <i name="OFIELD_Q6_FAR">      0.00000000</i>
   <i name="OFIELD_A">      0.00000000</i>
  </separator>
 </parameters>
 <atominfo>
  <atoms>       2 </atoms>
  <types>       1 </types>
  <array name="atoms" >
   <dimension dim="1">ion</dimension>
   <field type="string">element</field>
   <field type="int">atomtype</field>
   <set>
    <rc><c>Si</c><c>   1</c></rc>
    <rc><c>Si</c><c>   1</c></rc>
   </set>
  </array>
  <array name="atomtypes" >
   <dimension dim="1">type</dimension>
   <field type="int">atomspertype</field>
   <field type="string">element</field>
   <field>mass</field>
   <field>valence</field>
   <field type="string">pseudopotential</field>
   <set>
    <rc><c>   2</c><c>Si</c><c>     28.08500000</c><c>      4.00000000</c><c> PAW_PBE Si 05Jan2001                   </c></rc>
   </set>
  </array>
 </atominfo>
 <structure name="initialpos" >
  <crystal>
   <varray name="basis" >
    <v>      -2.45000000       2.45000000       1.27400000 </v>
    <v>       2.45000000      -2.45000000       1.27400000 </v>
    <v>       2.45000000       2.45000000      -1.27400000 </v>
   </varray>
   <i name="volume">     30.58874000 </i>
   <varray name="rec_basis" >
    <v>       0.00000000       0.20408163       0.39246468 </v>
    <v>       0.20408163       0.00000000       0.39246468 </v>
    <v>       0.20408163       0.20408163      -0.00000000 </v>
   </varray>
  </crystal>
  <varray name="positions" >
   <v>       0.25000000       0.75000000       0.50000000 </v>
   <v>       0.00000000       0.00000000       0.00000000 </v>
  </varray>
 </structure>
 <calculation>
  <scstep>
   <time name="dav">    0.62    0.62</time>
   <time name="total">    0.69    0.71</time>
   <energy>
    <i name="alphaZ">      4.40202223 </i>
    <i name="ewald">   -265.18101312 </i>
    <i name="hartreedc">     -2.49833583 </i>
    <i name="XCdc">    -17.57489363 </i>
    <i name="pawpsdc">     70.70357516 </i>
    <i name="pawaedc">    -35.62061120 </i>
    <i name="eentropy">     -0.01563349 </i>
    <i name="bandstr">     29.43261488 </i>
    <i name="atom">    206.12349923 </i>
    <i name="e_fr_energy">    -10.22877577 </i>
    <i name="e_wo_entrp">    -10.21314228 </i>
    <i name="e_0_energy">    -10.22095902 </i>
   </energy>
  </scstep>
  <scstep>
   <time name="dav">    0.59    0.59</time>
   <time name="total">    0.62    0.64</time>
   <energy>
    <i name="alphaZ">      4.40202223 </i>
    <i name="ewald">   -265.18101312 </i>
    <i name="hartreedc">     -2.49848431 </i>
    <i name="XCdc">    -17.57488369 </i>
    <i name="pawpsdc">     70.70365274 </i>
    <i name="pawaedc">    -35.62069116 </i>
    <i name="eentropy">     -0.01563160 </i>
    <i name="bandstr">     29.43275408 </i>
    <i name="atom">    206.12349923 </i>
    <i name="e_fr_energy">    -10.22877559 </i>
    <i name="e_wo_entrp">    -10.21314399 </i>
    <i name="e_0_energy">    -10.22095979 </i>
   </energy>
  </scstep>
  <structure>
   <crystal>
    <varray name="basis" >
     <v>      -2.45000000       2.45000000       1.27400000 </v>
     <v>       2.45000000      -2.45000000       1.27400000 </v>
     <v>       2.45000000       2.45000000      -1.27400000 </v>
    </varray>
    <i name="volume">     30.58874000 </i>
    <varray name="rec_basis" >
     <v>       0.00000000       0.20408163       0.39246468 </v>
     <v>       0.20408163       0.00000000       0.39246468 </v>
     <v>       0.20408163       0.20408163      -0.00000000 </v>
    </varray>
   </crystal>
   <varray name="positions" >
    <v>       0.25000000       0.75000000       0.50000000 </v>
    <v>       0.00000000       0.00000000       0.00000000 </v>
   </varray>
  </structure>
  <varray name="forces" >
   <v>      -0.00000000       0.00000000       0.00000000 </v>
   <v>       0.00000000      -0.00000000      -0.00000000 </v>
  </varray>
  <varray name="stress" >
   <v>     -22.54411919       0.00000000       0.00000000 </v>
   <v>      -0.00000000     -22.54411919       0.00000000 </v>
   <v>       0.00000000       0.00000000      47.07345244 </v>
  </varray>
  <energy>
   <i name="e_fr_energy">    -10.22877559 </i>
   <i name="e_wo_entrp">    -10.22095979 </i>
   <i name="e_0_energy">     -0.01563160 </i>
  </energy>
  <time name="totalsc">    2.59    3.39</time>
  <eigenvalues>
   <array>
    <dimension dim="1">band</dimension>
    <dimension dim="2">kpoint</dimension>
    <dimension dim="3">spin</dimension>
    <field>eigene</field>
    <field>occ</field>
    <set>
     <set comment="spin 1">
      <set comment="kpoint 1">
       <r>   -4.6148    1.0000 </r>
       <r>    6.1866    1.0000 </r>
       <r>    6.2997    1.0000 </r>
       <r>    6.2997    1.0000 </r>
       <r>   10.5421    0.0000 </r>
       <r>   16.8724    0.0000 </r>
       <r>   17.3702    0.0000 </r>
       <r>   17.3702    0.0000 </r>
      </set>
      <set comment="kpoint 2">
       <r>   -4.3815    1.0000 </r>
       <r>    5.4306    1.0000 </r>
       <r>    6.2553    1.0000 </r>
       <r>    7.4653    1.0000 </r>
       <r>   11.0239    0.0000 </r>
       <r>   15.5624    0.0000 </r>
       <r>   16.6353    0.0000 </r>
       <r>   17.3807    0.0000 </r>
      </set>
      <set comment="kpoint 3">
       <r>   -3.6832    1.0000 </r>
       <r>    5.0499    1.0000 </r>
       <r>    6.2547    1.0000 </r>
       <r>    8.9987    0.7940 </r>
       <r>   12.3091    0.0000 </r>
       <r>   13.4293    0.0000 </r>
       <r>   13.8317    0.0000 </r>
       <r>   15.8351    0.0000 </r>
      </set>
      <set comment="kpoint 4">
       <r>   -2.5257    1.0000 </r>
       <r>    5.1002    1.0000 </r>
       <r>    6.4805    1.0000 </r>
       <r>    9.3106    0.0831 </r>
       <r>   11.3875    0.0000 </r>
       <r>   12.0937    0.0000 </r>
       <r>   13.6165    0.0000 </r>
       <r>   14.5377    0.0000 </r>
      </set>
      <set comment="kpoint 5">
       <r>   -0.9203    1.0000 </r>
       <r>    5.5211    1.0000 </r>
       <r>    6.5211    1.0000 </r>
       <r>    6.9914    1.0000 </r>
       <r>    9.6545    0.0001 </r>
       <r>   12.0631    0.0000 </r>
       <r>   13.6888    0.0000 </r>
       <r>   13.8311    0.0000 </r>
      </set>
      <set comment="kpoint 6">
       <r>    1.1029    1.0000 </r>
       <r>    3.6109    1.0000 </r>
       <r>    6.4780    1.0000 </r>
       <r>    7.6286    1.0000 </r>
       <r>    8.0426    1.0000 </r>
       <r>   10.6388    0.0000 </r>
       <r>   13.5284    0.0000 </r>
       <r>   14.5253    0.0000 </r>
      </set>
      <set comment="kpoint 7">
       <r>   -3.7812    1.0000 </r>
       <r>    5.3620    1.0000 </r>
       <r>    7.0135    1.0000 </r>
       <r>    8.0713    1.0000 </r>
       <r>   11.8548    0.0000 </r>
       <r>   13.8683    0.0000 </r>
       <r>   13.9997    0.0000 </r>
       <r>   16.3620    0.0000 </r>
      </set>
      <set comment="kpoint 8">
       <r>   -2.7202    1.0000 </r>
       <r>    5.3900    1.0000 </r>
       <r>    7.4914    1.0000 </r>
       <r>    9.2217    0.2247 </r>
       <r>   11.0275    0.0000 </r>
       <r>   11.5549    0.0000 </r>
       <r>   13.4384    0.0000 </r>
       <r>   14.6553    0.0000 </r>
      </set>
      <set comment="kpoint 9">
       <r>   -1.2089    1.0000 </r>
       <r>    5.7767    1.0000 </r>
       <r>    7.1175    1.0000 </r>
       <r>    7.8500    1.0000 </r>
       <r>    9.2963    0.0996 </r>
       <r>   12.0565    0.0000 </r>
       <r>   12.5093    0.0000 </r>
       <r>   13.9601    0.0000 </r>
      </set>
      <set comment="kpoint 10">
       <r>    0.7311    1.0000 </r>
       <r>    4.2436    1.0000 </r>
       <r>    6.5909    1.0000 </r>
       <r>    6.9884    1.0000 </r>
       <r>    8.7903    0.9891 </r>
       <r>   10.8892    0.0000 </r>
       <r>   12.8249    0.0000 </r>
       <r>   14.9578    0.0000 </r>
      </set>
      <set comment="kpoint 11">
       <r>    1.6488    1.0000 </r>
       <r>    3.1632    1.0000 </r>
       <r>    5.6108    1.0000 </r>
       <r>    7.4349    1.0000 </r>
       <r>    8.5625    1.0000 </r>
       <r>   11.2207    0.0000 </r>
       <r>   12.5718    0.0000 </r>
       <r>   15.5682    0.0000 </r>
      </set>
      <set comment="kpoint 12">
       <r>   -0.4414    1.0000 </r>
       <r>    4.5110    1.0000 </r>
       <r>    5.9499    1.0000 </r>
       <r>    7.0131    1.0000 </r>
       <r>    9.6496    0.0001 </r>
       <r>   12.3513    0.0000 </r>
       <r>   13.0326    0.0000 </r>
       <r>   14.8103    0.0000 </r>
      </set>
      <set comment="kpoint 13">
       <r>   -2.1373    1.0000 </r>
       <r>    3.9422    1.0000 </r>
       <r>    6.4361    1.0000 </r>
       <r>    8.9259    0.9092 </r>
       <r>   11.2754    0.0000 </r>
       <r>   12.5193    0.0000 </r>
       <r>   13.3760    0.0000 </r>
       <r>   14.7823    0.0000 </r>
      </set>
      <set comment="kpoint 14">
       <r>   -3.3896    1.0000 </r>
       <r>    3.7743    1.0000 </r>
       <r>    6.2059    1.0000 </r>
       <r>    9.8834    0.0000 </r>
       <r>   12.5842    0.0000 </r>
       <r>   13.0818    0.0000 </r>
       <r>   13.7055    0.0000 </r>
       <r>   15.3003    0.0000 </r>
      </set>
      <set comment="kpoint 15">
       <r>   -4.1850    1.0000 </r>
       <r>    4.0319    1.0000 </r>
       <r>    6.2753    1.0000 </r>
       <r>    8.4333    1.0000 </r>
       <r>   12.1184    0.0000 </r>
       <r>   14.0637    0.0000 </r>
       <r>   15.9922    0.0000 </r>
       <r>   17.0509    0.0000 </r>
      </set>
      <set comment="kpoint 16">
       <r>   -4.5166    1.0000 </r>
       <r>    4.6833    1.0000 </r>
       <r>    6.3910    1.0000 </r>
       <r>    7.4476    1.0000 </r>
       <r>   11.1556    0.0000 </r>
       <r>   15.2737    0.0000 </r>
       <r>   16.6057    0.0000 </r>
       <r>   18.9232    0.0000 </r>
      </set>
      <set comment="kpoint 17">
       <r>   -1.3052    1.0000 </r>
       <r>    5.7718    1.0000 </r>
       <r>    7.7459    1.0000 </r>
       <r>    7.8585    1.0000 </r>
       <r>    9.5007    0.0032 </r>
       <r>   11.3420    0.0000 </r>
       <r>   12.9419    0.0000 </r>
       <r>   13.0940    0.0000 </r>
      </set>
      <set comment="kpoint 18">
       <r>    0.5437    1.0000 </r>
       <r>    5.0430    1.0000 </r>
       <r>    5.9839    1.0000 </r>
       <r>    6.5251    1.0000 </r>
       <r>    9.7829    0.0000 </r>
       <r>   11.5382    0.0000 </r>
       <r>   12.2247    0.0000 </r>
       <r>   13.6107    0.0000 </r>
      </set>
      <set comment="kpoint 19">
       <r>    2.3052    1.0000 </r>
       <r>    2.9582    1.0000 </r>
       <r>    4.4795    1.0000 </r>
       <r>    7.4248    1.0000 </r>
       <r>    9.0975    0.5486 </r>
       <r>   11.1617    0.0000 </r>
       <r>   12.8305    0.0000 </r>
       <r>   15.9463    0.0000 </r>
      </set>
      <set comment="kpoint 20">
       <r>    0.2248    1.0000 </r>
       <r>    3.2626    1.0000 </r>
       <r>    5.5750    1.0000 </r>
       <r>    7.4781    1.0000 </r>
       <r>    9.3766    0.0320 </r>
       <r>   11.3890    0.0000 </r>
       <r>   14.1289    0.0000 </r>
       <r>   15.6853    0.0000 </r>
      </set>
      <set comment="kpoint 21">
       <r>   -1.5572    1.0000 </r>
       <r>    2.5679    1.0000 </r>
       <r>    6.8817    1.0000 </r>
       <r>    8.5648    0.9999 </r>
       <r>   10.4800    0.0000 </r>
       <r>   12.4645    0.0000 </r>
       <r>   13.2900    0.0000 </r>
       <r>   15.9280    0.0000 </r>
      </set>
      <set comment="kpoint 22">
       <r>   -2.9018    1.0000 </r>
       <r>    2.2984    1.0000 </r>
       <r>    6.6061    1.0000 </r>
       <r>   10.4568    0.0000 </r>
       <r>   11.4272    0.0000 </r>
       <r>   12.6250    0.0000 </r>
       <r>   14.4494    0.0000 </r>
       <r>   15.9700    0.0000 </r>
      </set>
      <set comment="kpoint 23">
       <r>   -3.7926    1.0000 </r>
       <r>    2.4669    1.0000 </r>
       <r>    6.6237    1.0000 </r>
       <r>    9.1377    0.4354 </r>
       <r>   12.5327    0.0000 </r>
       <r>   13.9618    0.0000 </r>
       <r>   14.9357    0.0000 </r>
       <r>   16.5504    0.0000 </r>
      </set>
      <set comment="kpoint 24">
       <r>   -4.2216    1.0000 </r>
       <r>    3.0614    1.0000 </r>
       <r>    6.6647    1.0000 </r>
       <r>    8.2269    1.0000 </r>
       <r>   12.7707    0.0000 </r>
       <r>   13.6078    0.0000 </r>
       <r>   15.2927    0.0000 </r>
       <r>   19.3258    0.0000 </r>
      </set>
      <set comment="kpoint 25">
       <r>    2.5828    1.0000 </r>
       <r>    3.3625    1.0000 </r>
       <r>    3.5555    1.0000 </r>
       <r>    7.4167    1.0000 </r>
       <r>    9.5134    0.0024 </r>
       <r>   10.5926    0.0000 </r>
       <r>   14.0202    0.0000 </r>
       <r>   14.8462    0.0000 </r>
      </set>
      <set comment="kpoint 26">
       <r>    1.0728    1.0000 </r>
       <r>    2.0933    1.0000 </r>
       <r>    5.3910    1.0000 </r>
       <r>    8.0148    1.0000 </r>
       <r>    9.0282    0.7297 </r>
       <r>   10.7244    0.0000 </r>
       <r>   15.4026    0.0000 </r>
       <r>   16.2233    0.0000 </r>
      </set>
      <set comment="kpoint 27">
       <r>   -0.7888    1.0000 </r>
       <r>    1.2884    1.0000 </r>
       <r>    7.5246    1.0000 </r>
       <r>    8.3361    1.0000 </r>
       <r>    9.5080    0.0027 </r>
       <r>   12.0803    0.0000 </r>
       <r>   13.9870    0.0000 </r>
       <r>   15.8692    0.0000 </r>
      </set>
      <set comment="kpoint 28">
       <r>   -2.2218    1.0000 </r>
       <r>    0.9212    1.0000 </r>
       <r>    7.2244    1.0000 </r>
       <r>   10.0937    0.0000 </r>
       <r>   10.9854    0.0000 </r>
       <r>   12.5249    0.0000 </r>
       <r>   14.2060    0.0000 </r>
       <r>   14.9556    0.0000 </r>
      </set>
      <set comment="kpoint 29">
       <r>   -3.2060    1.0000 </r>
       <r>    1.0002    1.0000 </r>
       <r>    7.1680    1.0000 </r>
       <r>    9.8205    0.0000 </r>
       <r>   11.1361    0.0000 </r>
       <r>   13.7220    0.0000 </r>
       <r>   15.7288    0.0000 </r>
       <r>   16.3513    0.0000 </r>
      </set>
      <set comment="kpoint 30">
       <r>   -3.7312    1.0000 </r>
       <r>    1.5218    1.0000 </r>
       <r>    7.1206    1.0000 </r>
       <r>    8.8881    0.9455 </r>
       <r>   12.0957    0.0000 </r>
       <r>   13.9417    0.0000 </r>
       <r>   14.9075    0.0000 </r>
       <r>   19.0693    0.0000 </r>
      </set>
      <set comment="kpoint 31">
       <r>    0.1585    1.0000 </r>
       <r>    0.1674    1.0000 </r>
       <r>    8.0274    1.0000 </r>
       <r>    8.3175    1.0000 </r>
       <r>    8.8195    0.9816 </r>
       <r>   11.9577    0.0000 </r>
       <r>   14.5377    0.0000 </r>
       <r>   15.3287    0.0000 </r>
      </set>
      <set comment="kpoint 32">
       <r>   -1.3536    1.0000 </r>
       <r>   -0.3026    1.0000 </r>
       <r>    8.0265    1.0000 </r>
       <r>    8.9978    0.7959 </r>
       <r>   11.1488    0.0000 </r>
       <r>   12.8049    0.0000 </r>
       <r>   14.0418    0.0000 </r>
       <r>   14.0836    0.0000 </r>
      </set>
      <set comment="kpoint 33">
       <r>   -2.4281    1.0000 </r>
       <r>   -0.3163    1.0000 </r>
       <r>    7.8963    1.0000 </r>
       <r>    9.8837    0.0000 </r>
       <r>   10.6087    0.0000 </r>
       <r>   12.5753    0.0000 </r>
       <r>   15.7644    0.0000 </r>
       <r>   16.5103    0.0000 </r>
      </set>
      <set comment="kpoint 34">
       <r>   -3.0476    1.0000 </r>
       <r>    0.1209    1.0000 </r>
       <r>    7.7583    1.0000 </r>
       <r>    9.6225    0.0002 </r>
       <r>   10.7501    0.0000 </r>
       <r>   12.6641    0.0000 </r>
       <r>   17.2267    0.0000 </r>
       <r>   18.8761    0.0000 </r>
      </set>
      <set comment="kpoint 35">
       <r>   -1.4628    1.0000 </r>
       <r>   -1.4622    1.0000 </r>
       <r>    8.7924    0.9887 </r>
       <r>    8.8151    0.9829 </r>
       <r>   11.4651    0.0000 </r>
       <r>   11.5861    0.0000 </r>
       <r>   15.6951    0.0000 </r>
       <r>   16.4756    0.0000 </r>
      </set>
      <set comment="kpoint 36">
       <r>   -2.1741    1.0000 </r>
       <r>   -1.1149    1.0000 </r>
       <r>    8.5770    0.9999 </r>
       <r>    9.5753    0.0006 </r>
       <r>   10.4915    0.0000 </r>
       <r>   11.5069    0.0000 </r>
       <r>   18.7889    0.0000 </r>
       <r>   18.8256    0.0000 </r>
      </set>
      <set comment="kpoint 37">
       <r>   -3.4872    1.0000 </r>
       <r>    3.7575    1.0000 </r>
       <r>    7.2794    1.0000 </r>
       <r>    8.8350    0.9760 </r>
       <r>   12.8336    0.0000 </r>
       <r>   13.4419    0.0000 </r>
       <r>   13.7399    0.0000 </r>
       <r>   15.4814    0.0000 </r>
      </set>
      <set comment="kpoint 38">
       <r>   -2.3308    1.0000 </r>
       <r>    3.8598    1.0000 </r>
       <r>    7.7902    1.0000 </r>
       <r>    9.3566    0.0436 </r>
       <r>   10.8483    0.0000 </r>
       <r>   11.3053    0.0000 </r>
       <r>   14.2860    0.0000 </r>
       <r>   15.1581    0.0000 </r>
      </set>
      <set comment="kpoint 39">
       <r>   -0.7274    1.0000 </r>
       <r>    4.3688    1.0000 </r>
       <r>    6.6137    1.0000 </r>
       <r>    7.9068    1.0000 </r>
       <r>    9.3619    0.0402 </r>
       <r>   12.7681    0.0000 </r>
       <r>   13.3720    0.0000 </r>
       <r>   14.1538    0.0000 </r>
      </set>
      <set comment="kpoint 40">
       <r>    1.2930    1.0000 </r>
       <r>    3.7823    1.0000 </r>
       <r>    5.3599    1.0000 </r>
       <r>    6.6452    1.0000 </r>
       <r>    9.6038    0.0003 </r>
       <r>   11.7733    0.0000 </r>
       <r>   13.7392    0.0000 </r>
       <r>   14.4620    0.0000 </r>
      </set>
      <set comment="kpoint 41">
       <r>   -4.4182    1.0000 </r>
       <r>    4.3655    1.0000 </r>
       <r>    5.6046    1.0000 </r>
       <r>    8.4432    1.0000 </r>
       <r>   11.6155    0.0000 </r>
       <r>   14.0655    0.0000 </r>
       <r>   17.5320    0.0000 </r>
       <r>   18.1468    0.0000 </r>
      </set>
      <set comment="kpoint 42">
       <r>   -0.8231    1.0000 </r>
       <r>    4.3049    1.0000 </r>
       <r>    7.3556    1.0000 </r>
       <r>    7.4400    1.0000 </r>
       <r>    9.9878    0.0000 </r>
       <r>   11.8764    0.0000 </r>
       <r>   14.0074    0.0000 </r>
       <r>   14.2518    0.0000 </r>
      </set>
      <set comment="kpoint 43">
       <r>    1.1106    1.0000 </r>
       <r>    4.5596    1.0000 </r>
       <r>    5.1949    1.0000 </r>
       <r>    5.6410    1.0000 </r>
       <r>   10.7519    0.0000 </r>
       <r>   12.7098    0.0000 </r>
       <r>   13.2370    0.0000 </r>
       <r>   14.1593    0.0000 </r>
      </set>
      <set comment="kpoint 44">
       <r>    2.0279    1.0000 </r>
       <r>    3.4664    1.0000 </r>
       <r>    4.1928    1.0000 </r>
       <r>    6.4381    1.0000 </r>
       <r>   10.3841    0.0000 </r>
       <r>   12.4157    0.0000 </r>
       <r>   13.5306    0.0000 </r>
       <r>   15.2650    0.0000 </r>
      </set>
      <set comment="kpoint 45">
       <r>   -0.0570    1.0000 </r>
       <r>    3.0302    1.0000 </r>
       <r>    6.2696    1.0000 </r>
       <r>    7.8690    1.0000 </r>
       <r>    9.7282    0.0000 </r>
       <r>   12.5803    0.0000 </r>
       <r>   13.5478    0.0000 </r>
       <r>   14.9856    0.0000 </r>
      </set>
      <set comment="kpoint 46">
       <r>   -1.7489    1.0000 </r>
       <r>    2.4156    1.0000 </r>
       <r>    8.2175    1.0000 </r>
       <r>    9.2186    0.2314 </r>
       <r>   10.5940    0.0000 </r>
       <r>   11.5717    0.0000 </r>
       <r>   13.1313    0.0000 </r>
       <r>   15.0215    0.0000 </r>
      </set>
      <set comment="kpoint 47">
       <r>   -2.9988    1.0000 </r>
       <r>    2.2291    1.0000 </r>
       <r>    7.7201    1.0000 </r>
       <r>    9.4675    0.0063 </r>
       <r>   12.1011    0.0000 </r>
       <r>   12.9716    0.0000 </r>
       <r>   14.1471    0.0000 </r>
       <r>   14.8350    0.0000 </r>
      </set>
      <set comment="kpoint 48">
       <r>   -4.1236    1.0000 </r>
       <r>    3.0773    1.0000 </r>
       <r>    5.5506    1.0000 </r>
       <r>    9.4223    0.0148 </r>
       <r>   12.4583    0.0000 </r>
       <r>   13.0222    0.0000 </r>
       <r>   16.4772    0.0000 </r>
       <r>   18.8269    0.0000 </r>
      </set>
      <set comment="kpoint 49">
       <r>   -3.9889    1.0000 </r>
       <r>    3.7314    1.0000 </r>
       <r>    5.1806    1.0000 </r>
       <r>    9.7808    0.0000 </r>
       <r>   12.5613    0.0000 </r>
       <r>   12.8477    0.0000 </r>
       <r>   15.8106    0.0000 </r>
       <r>   18.0252    0.0000 </r>
      </set>
      <set comment="kpoint 50">
       <r>    2.8024    1.0000 </r>
       <r>    2.9959    1.0000 </r>
       <r>    3.6340    1.0000 </r>
       <r>    6.3646    1.0000 </r>
       <r>   10.9449    0.0000 </r>
       <r>   11.8841    0.0000 </r>
       <r>   14.7066    0.0000 </r>
       <r>   14.8877    0.0000 </r>
      </set>
      <set comment="kpoint 51">
       <r>    0.7981    1.0000 </r>
       <r>    1.8315    1.0000 </r>
       <r>    6.0958    1.0000 </r>
       <r>    7.8080    1.0000 </r>
       <r>   10.3372    0.0000 </r>
       <r>   11.5864    0.0000 </r>
       <r>   14.2330    0.0000 </r>
       <r>   15.4119    0.0000 </r>
      </set>
      <set comment="kpoint 52">
       <r>   -0.9773    1.0000 </r>
       <r>    1.1143    1.0000 </r>
       <r>    8.6384    0.9996 </r>
       <r>    9.1069    0.5220 </r>
       <r>   10.4206    0.0000 </r>
       <r>   11.8275    0.0000 </r>
       <r>   12.4612    0.0000 </r>
       <r>   14.1503    0.0000 </r>
      </set>
      <set comment="kpoint 53">
       <r>   -2.3176    1.0000 </r>
       <r>    0.8365    1.0000 </r>
       <r>    8.3306    1.0000 </r>
       <r>   10.1231    0.0000 </r>
       <r>   11.1118    0.0000 </r>
       <r>   12.4600    0.0000 </r>
       <r>   13.6167    0.0000 </r>
       <r>   13.9373    0.0000 </r>
      </set>
      <set comment="kpoint 54">
       <r>   -3.6339    1.0000 </r>
       <r>    1.5907    1.0000 </r>
       <r>    5.9564    1.0000 </r>
       <r>   10.1629    0.0000 </r>
       <r>   10.9547    0.0000 </r>
       <r>   15.0674    0.0000 </r>
       <r>   15.1526    0.0000 </r>
       <r>   18.8655    0.0000 </r>
      </set>
      <set comment="kpoint 55">
       <r>   -3.5975    1.0000 </r>
       <r>    2.5490    1.0000 </r>
       <r>    5.1312    1.0000 </r>
       <r>   10.7668    0.0000 </r>
       <r>   11.0337    0.0000 </r>
       <r>   14.3632    0.0000 </r>
       <r>   15.3339    0.0000 </r>
       <r>   17.2361    0.0000 </r>
      </set>
      <set comment="kpoint 56">
       <r>   -3.0973    1.0000 </r>
       <r>    3.5395    1.0000 </r>
       <r>    5.0968    1.0000 </r>
       <r>   10.7899    0.0000 </r>
       <r>   11.4658    0.0000 </r>
       <r>   12.9010    0.0000 </r>
       <r>   14.5042    0.0000 </r>
       <r>   15.5972    0.0000 </r>
      </set>
      <set comment="kpoint 57">
       <r>   -0.0221    1.0000 </r>
       <r>   -0.0192    1.0000 </r>
       <r>    8.7813    0.9908 </r>
       <r>    9.1368    0.4382 </r>
       <r>   10.3983    0.0000 </r>
       <r>   11.4983    0.0000 </r>
       <r>   12.8995    0.0000 </r>
       <r>   13.4623    0.0000 </r>
      </set>
      <set comment="kpoint 58">
       <r>   -1.4476    1.0000 </r>
       <r>   -0.3935    1.0000 </r>
       <r>    9.0994    0.5432 </r>
       <r>    9.9868    0.0000 </r>
       <r>   11.0054    0.0000 </r>
       <r>   11.7809    0.0000 </r>
       <r>   13.3600    0.0000 </r>
       <r>   13.4324    0.0000 </r>
      </set>
      <set comment="kpoint 59">
       <r>   -2.9515    1.0000 </r>
       <r>    0.2055    1.0000 </r>
       <r>    6.5872    1.0000 </r>
       <r>    9.6032    0.0003 </r>
       <r>   10.9152    0.0000 </r>
       <r>   13.9060    0.0000 </r>
       <r>   17.3069    0.0000 </r>
       <r>   18.5913    0.0000 </r>
      </set>
      <set comment="kpoint 60">
       <r>   -3.0129    1.0000 </r>
       <r>    1.1536    1.0000 </r>
       <r>    5.6040    1.0000 </r>
       <r>    9.5924    0.0004 </r>
       <r>   11.5523    0.0000 </r>
       <r>   14.6238    0.0000 </r>
       <r>   16.2232    0.0000 </r>
       <r>   16.6630    0.0000 </r>
      </set>
      <set comment="kpoint 61">
       <r>   -2.6117    1.0000 </r>
       <r>    2.4622    1.0000 </r>
       <r>    5.0938    1.0000 </r>
       <r>    9.8854    0.0000 </r>
       <r>   11.0671    0.0000 </r>
       <r>   13.3311    0.0000 </r>
       <r>   15.3510    0.0000 </r>
       <r>   16.4207    0.0000 </r>
      </set>
      <set comment="kpoint 62">
       <r>   -1.7513    1.0000 </r>
       <r>    3.7874    1.0000 </r>
       <r>    5.3957    1.0000 </r>
       <r>    8.3970    1.0000 </r>
       <r>   10.5038    0.0000 </r>
       <r>   13.1814    0.0000 </r>
       <r>   14.3544    0.0000 </r>
       <r>   14.6337    0.0000 </r>
      </set>
      <set comment="kpoint 63">
       <r>   -2.0797    1.0000 </r>
       <r>   -1.0239    1.0000 </r>
       <r>    7.4117    1.0000 </r>
       <r>    8.4195    1.0000 </r>
       <r>   11.7784    0.0000 </r>
       <r>   12.7759    0.0000 </r>
       <r>   18.3474    0.0000 </r>
       <r>   18.4378    0.0000 </r>
      </set>
      <set comment="kpoint 64">
       <r>   -2.2379    1.0000 </r>
       <r>   -0.1409    1.0000 </r>
       <r>    6.3189    1.0000 </r>
       <r>    8.3263    1.0000 </r>
       <r>   12.2993    0.0000 </r>
       <r>   14.0064    0.0000 </r>
       <r>   15.6349    0.0000 </r>
       <r>   17.4604    0.0000 </r>
      </set>
      <set comment="kpoint 65">
       <r>   -1.9354    1.0000 </r>
       <r>    1.1643    1.0000 </r>
       <r>    5.6408    1.0000 </r>
       <r>    8.5889    0.9999 </r>
       <r>   10.8838    0.0000 </r>
       <r>   13.9826    0.0000 </r>
       <r>   15.2345    0.0000 </r>
       <r>   16.7874    0.0000 </r>
      </set>
      <set comment="kpoint 66">
       <r>   -1.1753    1.0000 </r>
       <r>    2.8176    1.0000 </r>
       <r>    5.4569    1.0000 </r>
       <r>    7.9731    1.0000 </r>
       <r>    9.2728    0.1318 </r>
       <r>   13.2466    0.0000 </r>
       <r>   15.0345    0.0000 </r>
       <r>   15.8653    0.0000 </r>
      </set>
      <set comment="kpoint 67">
       <r>    0.0328    1.0000 </r>
       <r>    4.4057    1.0000 </r>
       <r>    5.4807    1.0000 </r>
       <r>    6.0776    1.0000 </r>
       <r>    9.6742    0.0000 </r>
       <r>   11.8970    0.0000 </r>
       <r>   12.8282    0.0000 </r>
       <r>   16.2198    0.0000 </r>
      </set>
      <set comment="kpoint 68">
       <r>   -1.2783    1.0000 </r>
       <r>   -1.2764    1.0000 </r>
       <r>    7.2264    1.0000 </r>
       <r>    7.2366    1.0000 </r>
       <r>   12.8797    0.0000 </r>
       <r>   13.4511    0.0000 </r>
       <r>   15.4200    0.0000 </r>
       <r>   17.4632    0.0000 </r>
      </set>
      <set comment="kpoint 69">
       <r>   -1.0734    1.0000 </r>
       <r>   -0.0339    1.0000 </r>
       <r>    6.4365    1.0000 </r>
       <r>    7.4272    1.0000 </r>
       <r>   10.7659    0.0000 </r>
       <r>   14.7093    0.0000 </r>
       <r>   15.1241    0.0000 </r>
       <r>   15.9087    0.0000 </r>
      </set>
      <set comment="kpoint 70">
       <r>   -0.4139    1.0000 </r>
       <r>    1.6228    1.0000 </r>
       <r>    6.0703    1.0000 </r>
       <r>    7.6352    1.0000 </r>
       <r>    8.1640    1.0000 </r>
       <r>   13.1004    0.0000 </r>
       <r>   15.8563    0.0000 </r>
       <r>   17.0356    0.0000 </r>
      </set>
      <set comment="kpoint 71">
       <r>    0.6906    1.0000 </r>
       <r>    3.5782    1.0000 </r>
       <r>    5.0644    1.0000 </r>
       <r>    6.2392    1.0000 </r>
       <r>    8.8387    0.9745 </r>
       <r>   11.5784    0.0000 </r>
       <r>   13.8144    0.0000 </r>
       <r>   17.0994    0.0000 </r>
      </set>
      <set comment="kpoint 72">
       <r>    2.1152    1.0000 </r>
       <r>    2.7897    1.0000 </r>
       <r>    5.6543    1.0000 </r>
       <r>    7.0706    1.0000 </r>
       <r>    8.7207    0.9973 </r>
       <r>   11.3440    0.0000 </r>
       <r>   11.4088    0.0000 </r>
       <r>   16.5164    0.0000 </r>
      </set>
      <set comment="kpoint 73">
       <r>    0.5175    1.0000 </r>
       <r>    0.5326    1.0000 </r>
       <r>    6.8861    1.0000 </r>
       <r>    6.9266    1.0000 </r>
       <r>    7.7858    1.0000 </r>
       <r>   13.0360    0.0000 </r>
       <r>   16.3625    0.0000 </r>
       <r>   17.3351    0.0000 </r>
      </set>
      <set comment="kpoint 74">
       <r>    1.5230    1.0000 </r>
       <r>    2.5106    1.0000 </r>
       <r>    4.8596    1.0000 </r>
       <r>    6.9199    1.0000 </r>
       <r>    7.8437    1.0000 </r>
       <r>   11.3980    0.0000 </r>
       <r>   15.2322    0.0000 </r>
       <r>   16.7340    0.0000 </r>
      </set>
      <set comment="kpoint 75">
       <r>    2.2532    1.0000 </r>
       <r>    3.0988    1.0000 </r>
       <r>    4.9045    1.0000 </r>
       <r>    7.2654    1.0000 </r>
       <r>    8.5854    0.9999 </r>
       <r>   10.6175    0.0000 </r>
       <r>   12.3735    0.0000 </r>
       <r>   15.6434    0.0000 </r>
      </set>
      <set comment="kpoint 76">
       <r>    0.3532    1.0000 </r>
       <r>    4.8704    1.0000 </r>
       <r>    7.0081    1.0000 </r>
       <r>    7.9613    1.0000 </r>
       <r>    7.9687    1.0000 </r>
       <r>   10.7396    0.0000 </r>
       <r>   11.6600    0.0000 </r>
       <r>   14.3159    0.0000 </r>
      </set>
      <set comment="kpoint 77">
       <r>    2.2014    1.0000 </r>
       <r>    3.8837    1.0000 </r>
       <r>    3.9826    1.0000 </r>
       <r>    7.6972    1.0000 </r>
       <r>    8.1911    1.0000 </r>
       <r>   10.3587    0.0000 </r>
       <r>   13.5117    0.0000 </r>
       <r>   14.4510    0.0000 </r>
      </set>
      <set comment="kpoint 78">
       <r>    0.1635    1.0000 </r>
       <r>    5.6454    1.0000 </r>
       <r>    6.5013    1.0000 </r>
       <r>    7.6629    1.0000 </r>
       <r>    8.8358    0.9757 </r>
       <r>   10.6825    0.0000 </r>
       <r>   11.5762    0.0000 </r>
       <r>   13.0165    0.0000 </r>
      </set>
      <set comment="kpoint 79">
       <r>   -1.4988    1.0000 </r>
       <r>    6.9404    1.0000 </r>
       <r>    7.7481    1.0000 </r>
       <r>    7.9376    1.0000 </r>
       <r>    9.2205    0.2273 </r>
       <r>   11.3857    0.0000 </r>
       <r>   11.8010    0.0000 </r>
       <r>   13.1034    0.0000 </r>
      </set>
      <set comment="kpoint 80">
       <r>   -1.5955    1.0000 </r>
       <r>    7.2396    1.0000 </r>
       <r>    8.1606    1.0000 </r>
       <r>    8.2643    1.0000 </r>
       <r>    9.1639    0.3641 </r>
       <r>   10.6530    0.0000 </r>
       <r>   12.1522    0.0000 </r>
       <r>   12.3160    0.0000 </r>
      </set>
      <set comment="kpoint 81">
       <r>   -2.9153    1.0000 </r>
       <r>    6.7372    1.0000 </r>
       <r>    7.4721    1.0000 </r>
       <r>    8.5611    1.0000 </r>
       <r>   11.3128    0.0000 </r>
       <r>   11.8015    0.0000 </r>
       <r>   12.4336    0.0000 </r>
       <r>   14.1704    0.0000 </r>
      </set>
      <set comment="kpoint 82">
       <r>   -3.8792    1.0000 </r>
       <r>    6.8616    1.0000 </r>
       <r>    6.9247    1.0000 </r>
       <r>    6.9247    1.0000 </r>
       <r>   11.2807    0.0000 </r>
       <r>   14.0662    0.0000 </r>
       <r>   14.3787    0.0000 </r>
       <r>   16.4319    0.0000 </r>
      </set>
      <set comment="kpoint 83">
       <r>   -0.1514    1.0000 </r>
       <r>    2.9485    1.0000 </r>
       <r>    7.0721    1.0000 </r>
       <r>    7.1225    1.0000 </r>
       <r>   10.6434    0.0000 </r>
       <r>   12.4395    0.0000 </r>
       <r>   13.8599    0.0000 </r>
       <r>   14.4778    0.0000 </r>
      </set>
      <set comment="kpoint 84">
       <r>    1.8588    1.0000 </r>
       <r>    3.8196    1.0000 </r>
       <r>    4.4569    1.0000 </r>
       <r>    5.3656    1.0000 </r>
       <r>   11.6882    0.0000 </r>
       <r>   13.8065    0.0000 </r>
       <r>   13.9229    0.0000 </r>
       <r>   14.5157    0.0000 </r>
      </set>
      <set comment="kpoint 85">
       <r>   -3.8301    1.0000 </r>
       <r>    2.8382    1.0000 </r>
       <r>    4.4233    1.0000 </r>
       <r>   10.8524    0.0000 </r>
       <r>   10.9203    0.0000 </r>
       <r>   13.9282    0.0000 </r>
       <r>   17.7545    0.0000 </r>
       <r>   18.0156    0.0000 </r>
      </set>
      <set comment="kpoint 86">
       <r>    2.7581    1.0000 </r>
       <r>    2.7971    1.0000 </r>
       <r>    4.3278    1.0000 </r>
       <r>    5.2772    1.0000 </r>
       <r>   12.3783    0.0000 </r>
       <r>   13.1846    0.0000 </r>
       <r>   14.3876    0.0000 </r>
       <r>   15.2464    0.0000 </r>
      </set>
      <set comment="kpoint 87">
       <r>    0.7058    1.0000 </r>
       <r>    1.7428    1.0000 </r>
       <r>    6.9336    1.0000 </r>
       <r>    6.9502    1.0000 </r>
       <r>   11.4670    0.0000 </r>
       <r>   12.3854    0.0000 </r>
       <r>   13.4419    0.0000 </r>
       <r>   14.0840    0.0000 </r>
      </set>
      <set comment="kpoint 88">
       <r>   -3.3427    1.0000 </r>
       <r>    1.7539    1.0000 </r>
       <r>    4.4176    1.0000 </r>
       <r>    9.3366    0.0584 </r>
       <r>   11.9978    0.0000 </r>
       <r>   15.6266    0.0000 </r>
       <r>   16.7851    0.0000 </r>
       <r>   18.4775    0.0000 </r>
      </set>
      <set comment="kpoint 89">
       <r>   -3.2086    1.0000 </r>
       <r>    2.3882    1.0000 </r>
       <r>    4.0501    1.0000 </r>
       <r>    9.4512    0.0087 </r>
       <r>   12.2133    0.0000 </r>
       <r>   15.0029    0.0000 </r>
       <r>   15.4596    0.0000 </r>
       <r>   18.5727    0.0000 </r>
      </set>
      <set comment="kpoint 90">
       <r>   -2.6641    1.0000 </r>
       <r>    0.4492    1.0000 </r>
       <r>    4.9693    1.0000 </r>
       <r>    7.9739    1.0000 </r>
       <r>   12.8588    0.0000 </r>
       <r>   15.7184    0.0000 </r>
       <r>   17.5546    0.0000 </r>
       <r>   18.1818    0.0000 </r>
      </set>
      <set comment="kpoint 91">
       <r>   -2.6281    1.0000 </r>
       <r>    1.4045    1.0000 </r>
       <r>    4.1107    1.0000 </r>
       <r>    8.0127    1.0000 </r>
       <r>   13.0229    0.0000 </r>
       <r>   14.8961    0.0000 </r>
       <r>   17.2598    0.0000 </r>
       <r>   17.9621    0.0000 </r>
      </set>
      <set comment="kpoint 92">
       <r>   -2.1302    1.0000 </r>
       <r>    2.3884    1.0000 </r>
       <r>    4.0888    1.0000 </r>
       <r>    8.4355    1.0000 </r>
       <r>   10.7643    0.0000 </r>
       <r>   14.7470    0.0000 </r>
       <r>   16.3578    0.0000 </r>
       <r>   16.9276    0.0000 </r>
      </set>
      <set comment="kpoint 93">
       <r>   -1.7986    1.0000 </r>
       <r>   -0.7546    1.0000 </r>
       <r>    5.7748    1.0000 </r>
       <r>    6.7818    1.0000 </r>
       <r>   13.7298    0.0000 </r>
       <r>   14.6791    0.0000 </r>
       <r>   17.9240    0.0000 </r>
       <r>   18.0017    0.0000 </r>
      </set>
      <set comment="kpoint 94">
       <r>   -1.8602    1.0000 </r>
       <r>    0.1958    1.0000 </r>
       <r>    4.7455    1.0000 </r>
       <r>    6.7357    1.0000 </r>
       <r>   13.3224    0.0000 </r>
       <r>   15.1806    0.0000 </r>
       <r>   17.0683    0.0000 </r>
       <r>   18.5078    0.0000 </r>
      </set>
      <set comment="kpoint 95">
       <r>   -1.4614    1.0000 </r>
       <r>    1.5065    1.0000 </r>
       <r>    4.2263    1.0000 </r>
       <r>    7.0965    1.0000 </r>
       <r>   10.4768    0.0000 </r>
       <r>   15.8397    0.0000 </r>
       <r>   16.4770    0.0000 </r>
       <r>   18.1393    0.0000 </r>
      </set>
      <set comment="kpoint 96">
       <r>   -0.6070    1.0000 </r>
       <r>    2.8340    1.0000 </r>
       <r>    4.5465    1.0000 </r>
       <r>    7.4627    1.0000 </r>
       <r>    7.9953    1.0000 </r>
       <r>   14.0996    0.0000 </r>
       <r>   15.7145    0.0000 </r>
       <r>   16.8974    0.0000 </r>
      </set>
      <set comment="kpoint 97">
       <r>   -0.9141    1.0000 </r>
       <r>   -0.9108    1.0000 </r>
       <r>    5.6388    1.0000 </r>
       <r>    5.6406    1.0000 </r>
       <r>   13.3781    0.0000 </r>
       <r>   15.5527    0.0000 </r>
       <r>   16.5037    0.0000 </r>
       <r>   18.5503    0.0000 </r>
      </set>
      <set comment="kpoint 98">
       <r>   -0.6128    1.0000 </r>
       <r>    0.3970    1.0000 </r>
       <r>    4.9451    1.0000 </r>
       <r>    5.9230    1.0000 </r>
       <r>   10.3237    0.0000 </r>
       <r>   16.3404    0.0000 </r>
       <r>   16.7896    0.0000 </r>
       <r>   17.9508    0.0000 </r>
      </set>
      <set comment="kpoint 99">
       <r>    0.1403    1.0000 </r>
       <r>    2.0558    1.0000 </r>
       <r>    4.7636    1.0000 </r>
       <r>    6.5732    1.0000 </r>
       <r>    7.3900    1.0000 </r>
       <r>   14.3506    0.0000 </r>
       <r>   16.6659    0.0000 </r>
       <r>   17.8996    0.0000 </r>
      </set>
      <set comment="kpoint 100">
       <r>    1.3322    1.0000 </r>
       <r>    3.6485    1.0000 </r>
       <r>    4.7671    1.0000 </r>
       <r>    5.4140    1.0000 </r>
       <r>    7.7005    1.0000 </r>
       <r>   12.4300    0.0000 </r>
       <r>   13.9144    0.0000 </r>
       <r>   17.4713    0.0000 </r>
      </set>
      <set comment="kpoint 101">
       <r>    1.0375    1.0000 </r>
       <r>    1.0601    1.0000 </r>
       <r>    5.5457    1.0000 </r>
       <r>    5.5633    1.0000 </r>
       <r>    7.2755    1.0000 </r>
       <r>   14.3573    0.0000 </r>
       <r>   17.6934    0.0000 </r>
       <r>   17.8717    0.0000 </r>
      </set>
      <set comment="kpoint 102">
       <r>    2.1280    1.0000 </r>
       <r>    3.0126    1.0000 </r>
       <r>    4.5310    1.0000 </r>
       <r>    5.7388    1.0000 </r>
       <r>    6.6129    1.0000 </r>
       <r>   12.6856    0.0000 </r>
       <r>   14.9472    0.0000 </r>
       <r>   16.5404    0.0000 </r>
      </set>
      <set comment="kpoint 103">
       <r>    2.0270    1.0000 </r>
       <r>    3.7495    1.0000 </r>
       <r>    5.1214    1.0000 </r>
       <r>    6.6425    1.0000 </r>
       <r>    7.8746    1.0000 </r>
       <r>   11.2033    0.0000 </r>
       <r>   12.4223    0.0000 </r>
       <r>   14.8276    0.0000 </r>
      </set>
      <set comment="kpoint 104">
       <r>    1.9425    1.0000 </r>
       <r>    4.5003    1.0000 </r>
       <r>    4.5829    1.0000 </r>
       <r>    6.9835    1.0000 </r>
       <r>    7.0702    1.0000 </r>
       <r>   11.4203    0.0000 </r>
       <r>   13.2053    0.0000 </r>
       <r>   13.8538    0.0000 </r>
      </set>
      <set comment="kpoint 105">
       <r>   -0.0272    1.0000 </r>
       <r>    6.3367    1.0000 </r>
       <r>    6.8097    1.0000 </r>
       <r>    7.9915    1.0000 </r>
       <r>    8.2641    1.0000 </r>
       <r>   10.5605    0.0000 </r>
       <r>   11.4885    0.0000 </r>
       <r>   12.2423    0.0000 </r>
      </set>
      <set comment="kpoint 106">
       <r>   -1.6923    1.0000 </r>
       <r>    8.1826    1.0000 </r>
       <r>    8.3850    1.0000 </r>
       <r>    8.3850    1.0000 </r>
       <r>    9.0090    0.7727 </r>
       <r>   10.0357    0.0000 </r>
       <r>   12.0050    0.0000 </r>
       <r>   12.0050    0.0000 </r>
      </set>
      <set comment="kpoint 107">
       <r>   -2.8596    1.0000 </r>
       <r>    1.6765    1.0000 </r>
       <r>    3.4031    1.0000 </r>
       <r>    7.8109    1.0000 </r>
       <r>   13.5591    0.0000 </r>
       <r>   16.8091    0.0000 </r>
       <r>   17.1289    0.0000 </r>
       <r>   18.1558    0.0000 </r>
      </set>
      <set comment="kpoint 108">
       <r>   -2.1884    1.0000 </r>
       <r>    0.7911    1.0000 </r>
       <r>    3.5397    1.0000 </r>
       <r>    6.4411    1.0000 </r>
       <r>   14.6509    0.0000 </r>
       <r>   16.6959    0.0000 </r>
       <r>   17.8741    0.0000 </r>
       <r>   18.7117    0.0000 </r>
      </set>
      <set comment="kpoint 109">
       <r>   -2.0549    1.0000 </r>
       <r>    1.4175    1.0000 </r>
       <r>    3.1785    1.0000 </r>
       <r>    6.5644    1.0000 </r>
       <r>   13.3413    0.0000 </r>
       <r>   15.9364    0.0000 </r>
       <r>   18.4622    0.0000 </r>
       <r>   19.3222    0.0000 </r>
      </set>
      <set comment="kpoint 110">
       <r>   -1.3367    1.0000 </r>
       <r>   -0.3224    1.0000 </r>
       <r>    4.2629    1.0000 </r>
       <r>    5.2505    1.0000 </r>
       <r>   15.4667    0.0000 </r>
       <r>   16.1399    0.0000 </r>
       <r>   17.9423    0.0000 </r>
       <r>   18.2369    0.0000 </r>
      </set>
      <set comment="kpoint 111">
       <r>   -1.3011    1.0000 </r>
       <r>    0.6314    1.0000 </r>
       <r>    3.3979    1.0000 </r>
       <r>    5.2873    1.0000 </r>
       <r>   13.2542    0.0000 </r>
       <r>   16.9827    0.0000 </r>
       <r>   18.9758    0.0000 </r>
       <r>   19.5248    0.0000 </r>
      </set>
      <set comment="kpoint 112">
       <r>   -0.8068    1.0000 </r>
       <r>    1.6132    1.0000 </r>
       <r>    3.3842    1.0000 </r>
       <r>    5.7476    1.0000 </r>
       <r>   10.1633    0.0000 </r>
       <r>   17.1299    0.0000 </r>
       <r>   17.8584    0.0000 </r>
       <r>   18.6151    0.0000 </r>
      </set>
      <set comment="kpoint 113">
       <r>   -0.3868    1.0000 </r>
       <r>   -0.3820    1.0000 </r>
       <r>    4.2094    1.0000 </r>
       <r>    4.2106    1.0000 </r>
       <r>   13.2067    0.0000 </r>
       <r>   17.6094    0.0000 </r>
       <r>   18.4463    0.0000 </r>
       <r>   19.5568    0.0000 </r>
      </set>
      <set comment="kpoint 114">
       <r>    0.0107    1.0000 </r>
       <r>    0.9275    1.0000 </r>
       <r>    3.6898    1.0000 </r>
       <r>    4.5883    1.0000 </r>
       <r>    9.9982    0.0000 </r>
       <r>   17.5882    0.0000 </r>
       <r>   18.6742    0.0000 </r>
       <r>   19.4184    0.0000 </r>
      </set>
      <set comment="kpoint 115">
       <r>    0.8563    1.0000 </r>
       <r>    2.2562    1.0000 </r>
       <r>    4.0192    1.0000 </r>
       <r>    5.3791    1.0000 </r>
       <r>    7.0870    1.0000 </r>
       <r>   15.4104    0.0000 </r>
       <r>   16.9001    0.0000 </r>
       <r>   18.5259    0.0000 </r>
      </set>
      <set comment="kpoint 116">
       <r>    1.6554    1.0000 </r>
       <r>    1.6881    1.0000 </r>
       <r>    4.4042    1.0000 </r>
       <r>    4.4137    1.0000 </r>
       <r>    6.9917    1.0000 </r>
       <r>   15.7224    0.0000 </r>
       <r>   17.6740    0.0000 </r>
       <r>   17.9500    0.0000 </r>
      </set>
      <set comment="kpoint 117">
       <r>    2.8089    1.0000 </r>
       <r>    3.2823    1.0000 </r>
       <r>    4.4353    1.0000 </r>
       <r>    5.0713    1.0000 </r>
       <r>    5.5702    1.0000 </r>
       <r>   13.8619    0.0000 </r>
       <r>   14.9724    0.0000 </r>
       <r>   15.8232    0.0000 </r>
      </set>
      <set comment="kpoint 118">
       <r>    1.8538    1.0000 </r>
       <r>    4.8898    1.0000 </r>
       <r>    4.9893    1.0000 </r>
       <r>    6.4897    1.0000 </r>
       <r>    6.4897    1.0000 </r>
       <r>   12.4746    0.0000 </r>
       <r>   13.1053    0.0000 </r>
       <r>   13.1054    0.0000 </r>
      </set>
      <set comment="kpoint 119">
       <r>   -1.5312    1.0000 </r>
       <r>    0.8949    1.0000 </r>
       <r>    2.6926    1.0000 </r>
       <r>    5.0728    1.0000 </r>
       <r>   15.7634    0.0000 </r>
       <r>   16.6124    0.0000 </r>
       <r>   18.3309    0.0000 </r>
       <r>   19.8467    0.0000 </r>
      </set>
      <set comment="kpoint 120">
       <r>   -0.7111    1.0000 </r>
       <r>    0.2083    1.0000 </r>
       <r>    2.9982    1.0000 </r>
       <r>    3.9021    1.0000 </r>
       <r>   16.1858    0.0000 </r>
       <r>   16.4034    0.0000 </r>
       <r>   19.0005    0.0000 </r>
       <r>   19.6898    0.0000 </r>
      </set>
      <set comment="kpoint 121">
       <r>   -0.5790    1.0000 </r>
       <r>    0.8306    1.0000 </r>
       <r>    2.6410    1.0000 </r>
       <r>    4.0292    1.0000 </r>
       <r>   13.0845    0.0000 </r>
       <r>   18.5382    0.0000 </r>
       <r>   19.9254    0.0000 </r>
       <r>   20.3250    0.0000 </r>
      </set>
      <set comment="kpoint 122">
       <r>    0.2392    1.0000 </r>
       <r>    0.2459    1.0000 </r>
       <r>    3.0346    1.0000 </r>
       <r>    3.0359    1.0000 </r>
       <r>   13.0181    0.0000 </r>
       <r>   19.2247    0.0000 </r>
       <r>   20.1946    0.0000 </r>
       <r>   20.2538    0.0000 </r>
      </set>
      <set comment="kpoint 123">
       <r>    0.7336    1.0000 </r>
       <r>    1.2234    1.0000 </r>
       <r>    3.0254    1.0000 </r>
       <r>    3.5092    1.0000 </r>
       <r>    9.8296    0.0000 </r>
       <r>   18.5087    0.0000 </r>
       <r>   19.7922    0.0000 </r>
       <r>   19.9033    0.0000 </r>
      </set>
      <set comment="kpoint 124">
       <r>    2.0414    1.0000 </r>
       <r>    2.0847    1.0000 </r>
       <r>    3.8417    1.0000 </r>
       <r>    3.8417    1.0000 </r>
       <r>    6.8986    1.0000 </r>
       <r>   16.6086    0.0000 </r>
       <r>   17.5974    0.0000 </r>
       <r>   17.5975    0.0000 </r>
      </set>
      <set comment="kpoint 125">
       <r>    0.0132    1.0000 </r>
       <r>    0.5025    1.0000 </r>
       <r>    2.3315    1.0000 </r>
       <r>    2.8160    1.0000 </r>
       <r>   16.2822    0.0000 </r>
       <r>   16.3323    0.0000 </r>
       <r>   20.3653    0.0000 </r>
       <r>   20.8877    0.0000 </r>
      </set>
      <set comment="kpoint 126">
       <r>    0.6304    1.0000 </r>
       <r>    0.6387    1.0000 </r>
       <r>    2.4601    1.0000 </r>
       <r>    2.4601    1.0000 </r>
       <r>   12.9491    0.0000 </r>
       <r>   19.6455    0.0000 </r>
       <r>   20.9631    0.0000 </r>
       <r>   21.0411    0.0000 </r>
      </set>
     </set>
    </set>
   </array>
  </eigenvalues>
  <separator name="orbital magnetization" >
   <v name="MAGDIPOLOUT">      0.00000000      0.00000000      0.00000000</v>
  </separator>
  <dos>
   <i name="efermi">      9.11474043 </i>
   <total>
    <array>
     <dimension dim="1">gridpoints</dimension>
     <dimension dim="2">spin</dimension>
     <field>energy</field>
     <field>total</field>
     <field>integrated</field>
     <set>
      <set comment="spin 1">
       <r>    -6.6148     0.0000     0.0000 </r>
       <r>    -6.5159     0.0000     0.0000 </r>
       <r>    -6.4171     0.0000     0.0000 </r>
       <r>    -6.3182     0.0000     0.0000 </r>
       <r>    -6.2194     0.0000     0.0000 </r>
       <r>    -6.1205     0.0000     0.0000 </r>
       <r>    -6.0217     0.0000     0.0000 </r>
       <r>    -5.9228     0.0000     0.0000 </r>
       <r>    -5.8240     0.0000     0.0000 </r>
       <r>    -5.7251     0.0000     0.0000 </r>
       <r>    -5.6263     0.0000     0.0000 </r>
       <r>    -5.5274     0.0000     0.0000 </r>
       <r>    -5.4286     0.0000     0.0000 </r>
       <r>    -5.3297     0.0000     0.0000 </r>
       <r>    -5.2309     0.0000     0.0000 </r>
       <r>    -5.1320     0.0000     0.0000 </r>
       <r>    -5.0332     0.0000     0.0000 </r>
       <r>    -4.9343     0.0003     0.0000 </r>
       <r>    -4.8354     0.0015     0.0002 </r>
       <r>    -4.7366     0.0063     0.0008 </r>
       <r>    -4.6377     0.0186     0.0026 </r>
       <r>    -4.5389     0.0412     0.0067 </r>
       <r>    -4.4400     0.0706     0.0137 </r>
       <r>    -4.3412     0.1013     0.0237 </r>
       <r>    -4.2423     0.1303     0.0366 </r>
       <r>    -4.1435     0.1486     0.0513 </r>
       <r>    -4.0446     0.1481     0.0659 </r>
       <r>    -3.9458     0.1495     0.0807 </r>
       <r>    -3.8469     0.1805     0.0985 </r>
       <r>    -3.7481     0.2281     0.1211 </r>
       <r>    -3.6492     0.2531     0.1461 </r>
       <r>    -3.5504     0.2439     0.1702 </r>
       <r>    -3.4515     0.2241     0.1924 </r>
       <r>    -3.3526     0.2169     0.2138 </r>
       <r>    -3.2538     0.2264     0.2362 </r>
       <r>    -3.1549     0.2512     0.2610 </r>
       <r>    -3.0561     0.2891     0.2896 </r>
       <r>    -2.9572     0.3194     0.3212 </r>
       <r>    -2.8584     0.3181     0.3526 </r>
       <r>    -2.7595     0.3037     0.3826 </r>
       <r>    -2.6607     0.3068     0.4130 </r>
       <r>    -2.5618     0.3113     0.4437 </r>
       <r>    -2.4630     0.3072     0.4741 </r>
       <r>    -2.3641     0.3293     0.5066 </r>
       <r>    -2.2653     0.3856     0.5448 </r>
       <r>    -2.1664     0.4225     0.5865 </r>
       <r>    -2.0676     0.3970     0.6258 </r>
       <r>    -1.9687     0.3398     0.6594 </r>
       <r>    -1.8699     0.3070     0.6897 </r>
       <r>    -1.7710     0.3041     0.7198 </r>
       <r>    -1.6721     0.3170     0.7511 </r>
       <r>    -1.5733     0.3622     0.7869 </r>
       <r>    -1.4744     0.4425     0.8307 </r>
       <r>    -1.3756     0.5133     0.8814 </r>
       <r>    -1.2767     0.5323     0.9340 </r>
       <r>    -1.1779     0.4966     0.9831 </r>
       <r>    -1.0790     0.4427     1.0269 </r>
       <r>    -0.9802     0.4153     1.0679 </r>
       <r>    -0.8813     0.4232     1.1097 </r>
       <r>    -0.7825     0.4389     1.1531 </r>
       <r>    -0.6836     0.4321     1.1959 </r>
       <r>    -0.5848     0.4093     1.2363 </r>
       <r>    -0.4859     0.4137     1.2772 </r>
       <r>    -0.3871     0.4511     1.3218 </r>
       <r>    -0.2882     0.4692     1.3682 </r>
       <r>    -0.1893     0.4664     1.4143 </r>
       <r>    -0.0905     0.5075     1.4645 </r>
       <r>     0.0084     0.5972     1.5235 </r>
       <r>     0.1072     0.6722     1.5900 </r>
       <r>     0.2061     0.6778     1.6570 </r>
       <r>     0.3049     0.5952     1.7158 </r>
       <r>     0.4038     0.4839     1.7636 </r>
       <r>     0.5026     0.4359     1.8067 </r>
       <r>     0.6015     0.4689     1.8531 </r>
       <r>     0.7003     0.5379     1.9062 </r>
       <r>     0.7992     0.5954     1.9651 </r>
       <r>     0.8980     0.6260     2.0270 </r>
       <r>     0.9969     0.6524     2.0915 </r>
       <r>     1.0957     0.6776     2.1585 </r>
       <r>     1.1946     0.6577     2.2235 </r>
       <r>     1.2934     0.5829     2.2811 </r>
       <r>     1.3923     0.5134     2.3318 </r>
       <r>     1.4912     0.5002     2.3813 </r>
       <r>     1.5900     0.5258     2.4333 </r>
       <r>     1.6889     0.5296     2.4856 </r>
       <r>     1.7877     0.4875     2.5338 </r>
       <r>     1.8866     0.4464     2.5780 </r>
       <r>     1.9854     0.4611     2.6235 </r>
       <r>     2.0843     0.5247     2.6754 </r>
       <r>     2.1831     0.5875     2.7335 </r>
       <r>     2.2820     0.6290     2.7957 </r>
       <r>     2.3808     0.6575     2.8607 </r>
       <r>     2.4797     0.6585     2.9257 </r>
       <r>     2.5785     0.6076     2.9858 </r>
       <r>     2.6774     0.5377     3.0390 </r>
       <r>     2.7762     0.5242     3.0908 </r>
       <r>     2.8751     0.5837     3.1485 </r>
       <r>     2.9740     0.6617     3.2139 </r>
       <r>     3.0728     0.6834     3.2814 </r>
       <r>     3.1717     0.6124     3.3420 </r>
       <r>     3.2705     0.5104     3.3924 </r>
       <r>     3.3694     0.4677     3.4387 </r>
       <r>     3.4682     0.4990     3.4880 </r>
       <r>     3.5671     0.5667     3.5440 </r>
       <r>     3.6659     0.6424     3.6075 </r>
       <r>     3.7648     0.7058     3.6773 </r>
       <r>     3.8636     0.7229     3.7488 </r>
       <r>     3.9625     0.6891     3.8169 </r>
       <r>     4.0613     0.6527     3.8814 </r>
       <r>     4.1602     0.6552     3.9462 </r>
       <r>     4.2590     0.7000     4.0154 </r>
       <r>     4.3579     0.7721     4.0917 </r>
       <r>     4.4568     0.8309     4.1738 </r>
       <r>     4.5556     0.8036     4.2533 </r>
       <r>     4.6545     0.6802     4.3205 </r>
       <r>     4.7533     0.5656     4.3764 </r>
       <r>     4.8522     0.5497     4.4308 </r>
       <r>     4.9510     0.6226     4.4923 </r>
       <r>     5.0499     0.7220     4.5637 </r>
       <r>     5.1487     0.7840     4.6412 </r>
       <r>     5.2476     0.8088     4.7211 </r>
       <r>     5.3464     0.8600     4.8061 </r>
       <r>     5.4453     0.9483     4.8999 </r>
       <r>     5.5441     1.0222     5.0009 </r>
       <r>     5.6430     1.0199     5.1018 </r>
       <r>     5.7418     0.8932     5.1901 </r>
       <r>     5.8407     0.6984     5.2591 </r>
       <r>     5.9395     0.5624     5.3147 </r>
       <r>     6.0384     0.5300     5.3671 </r>
       <r>     6.1373     0.5725     5.4237 </r>
       <r>     6.2361     0.6722     5.4901 </r>
       <r>     6.3350     0.8106     5.5702 </r>
       <r>     6.4338     0.9630     5.6654 </r>
       <r>     6.5327     1.0863     5.7728 </r>
       <r>     6.6315     1.0911     5.8807 </r>
       <r>     6.7304     0.9613     5.9757 </r>
       <r>     6.8292     0.8511     6.0598 </r>
       <r>     6.9281     0.8872     6.1476 </r>
       <r>     7.0269     0.9843     6.2448 </r>
       <r>     7.1258     1.0011     6.3438 </r>
       <r>     7.2246     0.9458     6.4373 </r>
       <r>     7.3235     0.9205     6.5283 </r>
       <r>     7.4223     0.9456     6.6218 </r>
       <r>     7.5212     0.9329     6.7140 </r>
       <r>     7.6201     0.8711     6.8001 </r>
       <r>     7.7189     0.8816     6.8873 </r>
       <r>     7.8178     1.0058     6.9867 </r>
       <r>     7.9166     1.1218     7.0976 </r>
       <r>     8.0155     1.0984     7.2062 </r>
       <r>     8.1143     0.9433     7.2994 </r>
       <r>     8.2132     0.7856     7.3771 </r>
       <r>     8.3120     0.7109     7.4473 </r>
       <r>     8.4109     0.6909     7.5156 </r>
       <r>     8.5097     0.6817     7.5830 </r>
       <r>     8.6086     0.6712     7.6494 </r>
       <r>     8.7074     0.6622     7.7148 </r>
       <r>     8.8063     0.6680     7.7809 </r>
       <r>     8.9051     0.6812     7.8482 </r>
       <r>     9.0040     0.6987     7.9173 </r>
       <r>     9.1028     0.7434     7.9907 </r>
       <r>     9.2017     0.8017     8.0700 </r>
       <r>     9.3006     0.8290     8.1519 </r>
       <r>     9.3994     0.8077     8.2318 </r>
       <r>     9.4983     0.7635     8.3073 </r>
       <r>     9.5971     0.7315     8.3796 </r>
       <r>     9.6960     0.7144     8.4502 </r>
       <r>     9.7948     0.6955     8.5189 </r>
       <r>     9.8937     0.6546     8.5837 </r>
       <r>     9.9925     0.5741     8.6404 </r>
       <r>    10.0914     0.4760     8.6875 </r>
       <r>    10.1902     0.4217     8.7291 </r>
       <r>    10.2891     0.4700     8.7756 </r>
       <r>    10.3879     0.6169     8.8366 </r>
       <r>    10.4868     0.7820     8.9139 </r>
       <r>    10.5856     0.9028     9.0031 </r>
       <r>    10.6845     0.9738     9.0994 </r>
       <r>    10.7834     0.9918     9.1974 </r>
       <r>    10.8822     0.9618     9.2925 </r>
       <r>    10.9811     0.9210     9.3836 </r>
       <r>    11.0799     0.8918     9.4717 </r>
       <r>    11.1788     0.8764     9.5584 </r>
       <r>    11.2776     0.9023     9.6476 </r>
       <r>    11.3765     0.9941     9.7458 </r>
       <r>    11.4753     1.0975     9.8543 </r>
       <r>    11.5742     1.1035     9.9634 </r>
       <r>    11.6730     0.9754    10.0598 </r>
       <r>    11.7719     0.8034    10.1392 </r>
       <r>    11.8707     0.6829    10.2067 </r>
       <r>    11.9696     0.6319    10.2692 </r>
       <r>    12.0684     0.6401    10.3325 </r>
       <r>    12.1673     0.6900    10.4007 </r>
       <r>    12.2661     0.7940    10.4792 </r>
       <r>    12.3650     0.9844    10.5765 </r>
       <r>    12.4639     1.1928    10.6944 </r>
       <r>    12.5627     1.2675    10.8197 </r>
       <r>    12.6616     1.1735    10.9357 </r>
       <r>    12.7604     1.0446    11.0390 </r>
       <r>    12.8593     0.9903    11.1369 </r>
       <r>    12.9581     1.0026    11.2360 </r>
       <r>    13.0570     1.0440    11.3392 </r>
       <r>    13.1558     1.0814    11.4461 </r>
       <r>    13.2547     1.1040    11.5552 </r>
       <r>    13.3535     1.1122    11.6652 </r>
       <r>    13.4524     1.0754    11.7715 </r>
       <r>    13.5512     0.9895    11.8693 </r>
       <r>    13.6501     0.9263    11.9609 </r>
       <r>    13.7489     0.9601    12.0558 </r>
       <r>    13.8478     1.0932    12.1638 </r>
       <r>    13.9467     1.2574    12.2881 </r>
       <r>    14.0455     1.3481    12.4214 </r>
       <r>    14.1444     1.2965    12.5495 </r>
       <r>    14.2432     1.1402    12.6623 </r>
       <r>    14.3421     0.9863    12.7598 </r>
       <r>    14.4409     0.8940    12.8481 </r>
       <r>    14.5398     0.8415    12.9313 </r>
       <r>    14.6386     0.8076    13.0112 </r>
       <r>    14.7375     0.8127    13.0915 </r>
       <r>    14.8363     0.8746    13.1780 </r>
       <r>    14.9352     0.9564    13.2725 </r>
       <r>    15.0340     0.9833    13.3697 </r>
       <r>    15.1329     0.9520    13.4638 </r>
       <r>    15.2317     0.9315    13.5559 </r>
       <r>    15.3306     0.9249    13.6473 </r>
       <r>    15.4294     0.8853    13.7348 </r>
       <r>    15.5283     0.8402    13.8179 </r>
       <r>    15.6272     0.8621    13.9031 </r>
       <r>    15.7260     0.9477    13.9968 </r>
       <r>    15.8249     1.0113    14.0968 </r>
       <r>    15.9237     0.9589    14.1915 </r>
       <r>    16.0226     0.7761    14.2683 </r>
       <r>    16.1214     0.5908    14.3267 </r>
       <r>    16.2203     0.5501    14.3811 </r>
       <r>    16.3191     0.6501    14.4453 </r>
       <r>    16.4180     0.7793    14.5224 </r>
       <r>    16.5168     0.8434    14.6057 </r>
       <r>    16.6157     0.8175    14.6865 </r>
       <r>    16.7145     0.7358    14.7593 </r>
       <r>    16.8134     0.6438    14.8229 </r>
       <r>    16.9122     0.5783    14.8801 </r>
       <r>    17.0111     0.5586    14.9353 </r>
       <r>    17.1100     0.5511    14.9898 </r>
       <r>    17.2088     0.5134    15.0405 </r>
       <r>    17.3077     0.4604    15.0860 </r>
       <r>    17.4065     0.4263    15.1282 </r>
       <r>    17.5054     0.4127    15.1690 </r>
       <r>    17.6042     0.3953    15.2081 </r>
       <r>    17.7031     0.3752    15.2451 </r>
       <r>    17.8019     0.4026    15.2849 </r>
       <r>    17.9008     0.4879    15.3332 </r>
       <r>    17.9996     0.5365    15.3862 </r>
       <r>    18.0985     0.4796    15.4336 </r>
       <r>    18.1973     0.3769    15.4709 </r>
       <r>    18.2962     0.3239    15.5029 </r>
       <r>    18.3950     0.3649    15.5390 </r>
       <r>    18.4939     0.4595    15.5844 </r>
       <r>    18.5928     0.5034    15.6341 </r>
       <r>    18.6916     0.4496    15.6786 </r>
       <r>    18.7905     0.3603    15.7142 </r>
       <r>    18.8893     0.2972    15.7436 </r>
       <r>    18.9882     0.2511    15.7684 </r>
       <r>    19.0870     0.1976    15.7879 </r>
       <r>    19.1859     0.1546    15.8032 </r>
       <r>    19.2847     0.1516    15.8182 </r>
       <r>    19.3836     0.1804    15.8361 </r>
       <r>    19.4824     0.2058    15.8564 </r>
       <r>    19.5813     0.2036    15.8765 </r>
       <r>    19.6801     0.1800    15.8943 </r>
       <r>    19.7790     0.1588    15.9100 </r>
       <r>    19.8778     0.1450    15.9243 </r>
       <r>    19.9767     0.1237    15.9366 </r>
       <r>    20.0755     0.0999    15.9464 </r>
       <r>    20.1744     0.0971    15.9560 </r>
       <r>    20.2733     0.1091    15.9668 </r>
       <r>    20.3721     0.1026    15.9770 </r>
       <r>    20.4710     0.0688    15.9838 </r>
       <r>    20.5698     0.0320    15.9869 </r>
       <r>    20.6687     0.0130    15.9882 </r>
       <r>    20.7675     0.0129    15.9895 </r>
       <r>    20.8664     0.0224    15.9917 </r>
       <r>    20.9652     0.0299    15.9946 </r>
       <r>    21.0641     0.0273    15.9973 </r>
       <r>    21.1629     0.0170    15.9990 </r>
       <r>    21.2618     0.0073    15.9997 </r>
       <r>    21.3606     0.0021    16.0000 </r>
       <r>    21.4595     0.0004    16.0000 </r>
       <r>    21.5583     0.0001    16.0000 </r>
       <r>    21.6572     0.0000    16.0000 </r>
       <r>    21.7561     0.0000    16.0000 </r>
       <r>    21.8549     0.0000    16.0000 </r>
       <r>    21.9538     0.0000    16.0000 </r>
       <r>    22.0526     0.0000    16.0000 </r>
       <r>    22.1515     0.0000    16.0000 </r>
       <r>    22.2503     0.0000    16.0000 </r>
       <r>    22.3492     0.0000    16.0000 </r>
       <r>    22.4480     0.0000    16.0000 </r>
       <r>    22.5469     0.0000    16.0000 </r>
       <r>    22.6457     0.0000    16.0000 </r>
       <r>    22.7446     0.0000    16.0000 </r>
       <r>    22.8434     0.0000    16.0000 </r>
       <r>    22.9423     0.0000    16.0000 </r>
       <r>    23.0411     0.0000    16.0000 </r>
      </set>
     </set>
    </array>
   </total>
  </dos>
 </calculation>
 <structure name="finalpos" >
  <crystal>
   <varray name="basis" >
    <v>      -2.45000000       2.45000000       1.27400000 </v>
    <v>       2.45000000      -2.45000000       1.27400000 </v>
    <v>       2.45000000       2.45000000      -1.27400000 </v>
   </varray>
   <i name="volume">     30.58874000 </i>
   <varray name="rec_basis" >
    <v>       0.00000000       0.20408163       0.39246468 </v>
    <v>       0.20408163       0.00000000       0.39246468 </v>
    <v>       0.20408163       0.20408163      -0.00000000 </v>
   </varray>
  </crystal>
  <varray name="positions" >
   <v>       0.25000000       0.75000000       0.50000000 </v>
   <v>       0.00000000       0.00000000       0.00000000 </v>
  </varray>
 </structure>
</modeling>
