    2    2   15    1
  0.1529437E+02  0.3691622E-09  0.3691622E-09  0.3691622E-09  0.5000000E-15
  1.000000000000000E-004
  CAR 
 unknown system                          
      8      3      8
 
  0.2500000E+00  0.2500000E+00  0.2500000E+00  0.2500000E+00
    1        3.195803   1.000000
    2        3.195803   1.000000
    3        4.356193   1.000000
    4        4.356194   1.000000
    5       14.044626   0.000000
    6       14.044628   0.000000
    7       16.164641   0.000000
    8       16.164642   0.000000
 
 -0.2500000E+00  0.2500000E+00  0.2500000E+00  0.5000000E+00
    1       -2.786183   1.000000
    2        3.097777   1.000000
    3        4.207485   1.000000
    4        9.814634   0.500000
    5       14.526660   0.000000
    6       16.299379   0.000000
    7       17.367282   0.000000
    8       17.522451   0.000000
 
 -0.2500000E+00 -0.2500000E+00  0.2500000E+00  0.2500000E+00
    1        0.529209   1.000000
    2        6.374991   1.000000
    3        6.542476   1.000000
    4        7.182041   1.000000
    5        7.182042   1.000000
    6       12.993736   0.000000
    7       12.993737   0.000000
    8       13.186200   0.000000
