unknown system                          
           1
    -2.450000    2.450000    1.274000
     2.450000   -2.450000    1.274000
     2.450000    2.450000   -1.274000
   Si
   2
Direct configuration=     1
   0.25000000  0.75000000  0.50000000
   0.00000000  0.00000000  0.00000000
unknown system                          
           1
    -2.182379    2.182379    1.413163
     2.182379   -2.182379    1.413163
     2.182379    2.182379   -1.413163
   Si
   2
Direct configuration=     2
   0.25000000  0.75000000  0.50000000
   0.00000000  0.00000000  0.00000000
unknown system                          
           1
    -2.340041    2.340041    1.331179
     2.340041   -2.340041    1.331179
     2.340041    2.340041   -1.331179
   Si
   2
Direct configuration=     3
   0.25000000  0.75000000  0.50000000
   0.00000000  0.00000000  0.00000000
unknown system                          
           1
    -2.336083    2.336083    1.333237
     2.336083   -2.336083    1.333237
     2.336083    2.336083   -1.333237
   Si
   2
Direct configuration=     4
   0.25000000  0.75000000  0.50000000
   0.00000000  0.00000000  0.00000000
unknown system                          
           1
    -2.335704    2.335704    1.333434
     2.335704   -2.335704    1.333434
     2.335704    2.335704   -1.333434
   Si
   2
Direct configuration=     5
   0.25000000  0.75000000  0.50000000
   0.00000000  0.00000000  0.00000000
unknown system                          
           1
    -2.335951    2.335951    1.333305
     2.335951   -2.335951    1.333305
     2.335951    2.335951   -1.333305
   Si
   2
Direct configuration=     6
   0.25000000  0.75000000  0.50000000
   0.00000000  0.00000000  0.00000000
unknown system                          
           1
    -2.336026    2.336026    1.333266
     2.336026   -2.336026    1.333266
     2.336026    2.336026   -1.333266
   Si
   2
Direct configuration=     7
   0.25000000  0.75000000  0.50000000
   0.00000000  0.00000000  0.00000000
unknown system                          
           1
    -2.336055    2.336055    1.333251
     2.336055   -2.336055    1.333251
     2.336055    2.336055   -1.333251
   Si
   2
Direct configuration=     8
   0.25000000  0.75000000  0.50000000
   0.00000000  0.00000000  0.00000000
unknown system                          
           1
    -2.336068    2.336068    1.333245
     2.336068   -2.336068    1.333245
     2.336068    2.336068   -1.333245
   Si
   2
Direct configuration=     9
   0.25000000  0.75000000  0.50000000
   0.00000000  0.00000000  0.00000000
unknown system                          
           1
    -2.336075    2.336075    1.333241
     2.336075   -2.336075    1.333241
     2.336075    2.336075   -1.333241
   Si
   2
Direct configuration=    10
   0.25000000  0.75000000  0.50000000
   0.00000000  0.00000000  0.00000000
unknown system                          
           1
    -2.336079    2.336079    1.333239
     2.336079   -2.336079    1.333239
     2.336079    2.336079   -1.333239
   Si
   2
Direct configuration=    11
   0.25000000  0.75000000  0.50000000
   0.00000000  0.00000000  0.00000000
unknown system                          
           1
    -2.336081    2.336081    1.333238
     2.336081   -2.336081    1.333238
     2.336081    2.336081   -1.333238
   Si
   2
Direct configuration=    12
   0.25000000  0.75000000  0.50000000
   0.00000000  0.00000000  0.00000000
unknown system                          
           1
    -2.336082    2.336082    1.333238
     2.336082   -2.336082    1.333238
     2.336082    2.336082   -1.333238
   Si
   2
Direct configuration=    13
   0.25000000  0.75000000  0.50000000
   0.00000000  0.00000000  0.00000000
unknown system                          
           1
    -2.336082    2.336082    1.333237
     2.336082   -2.336082    1.333237
     2.336082    2.336082   -1.333237
   Si
   2
Direct configuration=    14
   0.25000000  0.75000000  0.50000000
   0.00000000  0.00000000  0.00000000
unknown system                          
           1
    -2.336082    2.336082    1.333237
     2.336082   -2.336082    1.333237
     2.336082    2.336082   -1.333237
   Si
   2
Direct configuration=    15
   0.25000000  0.75000000  0.50000000
   0.00000000  0.00000000  0.00000000
