unknown system                          
   1.00000000000000     
     0.000000    2.715000    2.715000
     2.715000    0.000000    2.715000
     2.715000    2.715000    0.000000
   Si
     2
Direct
  0.500000  0.500000  0.500000
  0.750000  0.750000  0.750000
 
   24   24   24
 0.87129     0.90875      1.0261      1.2377      1.5647      2.0299      2.6487      3.4162      4.2931      5.1945    
  5.9943      6.5509      6.7510      6.5509      5.9943      5.1946      4.2931      3.4162      2.6487      2.0299    
  1.5647      1.2377      1.0261     0.90874     0.90875     0.96971      1.0994      1.3116      1.6232      2.0477    
  2.5877      3.2245      3.9100      4.5635      5.0835      5.3733      5.3733      5.0836      4.5636      3.9101    
  3.2246      2.5877      2.0477      1.6232      1.3116      1.0994     0.96973     0.90876      1.0261      1.0994    
  1.2313      1.4341      1.7189      2.0910      2.5432      3.0494      3.5607      4.0082      4.3170      4.4275    
  4.3170      4.0082      3.5607      3.0494      2.5432      2.0910      1.7189      1.4341      1.2313      1.0994    
  1.0261      1.0028      1.2377      1.3116      1.4341      1.6146      1.8595      2.1679      2.5270      2.9087    
  3.2691      3.5539      3.7120      3.7121      3.5539      3.2690      2.9086      2.5269      2.1679      1.8596    
  1.6147      1.4341      1.3116      1.2377      1.2033      1.2034      1.5647      1.6232      1.7189      1.8595    
  2.0483      2.2810      2.5432      2.8087      3.0414      3.2020      3.2594      3.2019      3.0413      2.8087    
  2.5432      2.2810      2.0483      1.8596      1.7189      1.6232      1.5647      1.5344      1.5252      1.5344    
  2.0299      2.0477      2.0910      2.1679      2.2810      2.4255      2.5877      2.7456      2.8725      2.9436    
  2.9435      2.8725      2.7455      2.5877      2.4256      2.2811      2.1679      2.0910      2.0477      2.0299    
  2.0268      2.0283      2.0283      2.0268      2.6487      2.5877      2.5432      2.5270      2.5432      2.5877    
  2.6487      2.7100      2.7550      2.7716      2.7550      2.7100      2.6487      2.5877      2.5432      2.5270    
  2.5432      2.5876      2.6486      2.7099      2.7550      2.7716      2.7550      2.7100      3.4162      3.2245    
  3.0494      2.9087      2.8087      2.7456      2.7100      2.6920      2.6848      2.6848      2.6921      2.7100    
  2.7456      2.8087      2.9087      3.0494      3.2245      3.4163      3.5978      3.7399      3.8180      3.8180    
  3.7399      3.5978      4.2931      3.9100      3.5607      3.2691      3.0414      2.8725      2.7550      2.6848    
  2.6612      2.6847      2.7550      2.8725      3.0414      3.2690      3.5606      3.9100      4.2931      4.6689    
  4.9871      5.2002      5.2751      5.2001      4.9870      4.6689      5.1945      4.5635      4.0082      3.5539    
  3.2020      2.9436      2.7716      2.6848      2.6847      2.7715      2.9436      3.2020      3.5539      4.0083    
  4.5636      5.1946      5.8463      6.4413      6.8963      7.1429      7.1429      6.8963      6.4413      5.8464    
  5.9943      5.0835      4.3170      3.7120      3.2594      2.9435      2.7550      2.6921      2.7550      2.9436    
  3.2595      3.7121      4.3170      5.0835      5.9943      6.9891      7.9646      8.7923      9.3485      9.5446    
  9.3485      8.7924      7.9647      6.9891      6.5509      5.3733      4.4275      3.7121      3.2019      2.8725    
  2.7100      2.7100      2.8725      3.2020      3.7121      4.4275      5.3733      6.5509      7.9106      9.3374    
  10.661      11.687      12.250      12.250      11.687      10.661      9.3374      7.9106      6.7510      5.3733    
  4.3170      3.5539      3.0413      2.7455      2.6487      2.7456      3.0414      3.5539      4.3170      5.3733    
  6.7509      8.4283      10.303      12.186      13.818      14.935      15.332      14.935      13.818      12.186    
  10.304      8.4284      6.5509      5.0836      4.0082      3.2690      2.8087      2.5877      2.5877      2.8087    
  3.2690      4.0083      5.0835      6.5509      8.4283      10.653      13.049      15.330      17.123      18.098    
  18.098      17.124      15.330      13.049      10.653      8.4284      5.9943      4.5636      3.5607      2.9086    
  2.5432      2.4256      2.5432      2.9087      3.5606      4.5636      5.9943      7.9106      10.303      13.049    
  15.878      18.345      19.992      20.565      19.992      18.345      15.878      13.049      10.303      7.9106    
  5.1946      3.9101      3.0494      2.5269      2.2810      2.2811      2.5270      3.0494      3.9100      5.1946    
  6.9891      9.3374      12.186      15.330      18.345      20.662      21.900      21.900      20.662      18.345    
  15.330      12.186      9.3374      6.9891      4.2931      3.2246      2.5432      2.1679      2.0483      2.1679    
  2.5432      3.2245      4.2931      5.8463      7.9646      10.661      13.818      17.123      19.992      21.900    
  22.564      21.900      19.992      17.123      13.818      10.661      7.9647      5.8463      3.4162      2.5877    
  2.0910      1.8596      1.8596      2.0910      2.5876      3.4163      4.6689      6.4413      8.7923      11.687    
  14.935      18.098      20.565      21.900      21.900      20.565      18.098      14.935      11.687      8.7924    
  6.4413      4.6689      2.6487      2.0477      1.7189      1.6147      1.7189      2.0477      2.6486      3.5978    
  4.9871      6.8963      9.3485      12.250      15.332      18.098      19.992      20.662      19.992      18.098    
  15.332      12.250      9.3486      6.8963      4.9870      3.5978      2.0299      1.6232      1.4341      1.4341    
  1.6232      2.0299      2.7099      3.7399      5.2002      7.1429      9.5446      12.250      14.935      17.124    
  18.345      18.345      17.123      14.935      12.250      9.5447      7.1430      5.2001      3.7399      2.7100    
  1.5647      1.3116      1.2313      1.3116      1.5647      2.0268      2.7550      3.8180      5.2751      7.1429    
  9.3485      11.687      13.818      15.330      15.878      15.330      13.818      11.687      9.3486      7.1430    
  5.2751      3.8179      2.7550      2.0268      1.2377      1.0994      1.0994      1.2377      1.5344      2.0283    
  2.7716      3.8180      5.2001      6.8963      8.7924      10.661      12.186      13.049      13.049      12.186    
  10.661      8.7924      6.8963      5.2001      3.8179      2.7715      2.0283      1.5344      1.0261     0.96973    
  1.0261      1.2033      1.5252      2.0283      2.7550      3.7399      4.9870      6.4413      7.9647      9.3374    
  10.304      10.653      10.303      9.3374      7.9647      6.4413      4.9870      3.7399      2.7550      2.0283    
  1.5252      1.2034     0.90874     0.90876      1.0028      1.2034      1.5344      2.0268      2.7100      3.5978    
  4.6689      5.8464      6.9891      7.9106      8.4284      8.4284      7.9106      6.9891      5.8463      4.6689    
  3.5978      2.7100      2.0268      1.5344      1.2034      1.0027     0.90874     0.96971      1.0994      1.3116    
  1.6232      2.0477      2.5877      3.2245      3.9100      4.5635      5.0835      5.3733      5.3733      5.0835    
  4.5635      3.9100      3.2246      2.5877      2.0477      1.6232      1.3116      1.0994     0.96974     0.90875    
 0.96971      1.0381      1.1625      1.3555      1.6287      1.9878      2.4255      2.9159      3.4108      3.8434    
  4.1414      4.2479      4.1414      3.8434      3.4109      2.9160      2.4255      1.9878      1.6287      1.3554    
  1.1625      1.0382     0.96973     0.94803      1.0994      1.1625      1.2702      1.4330      1.6582      1.9450    
  2.2810      2.6388      2.9763      3.2425      3.3901      3.3901      3.2425      2.9763      2.6389      2.2810    
  1.9450      1.6581      1.4330      1.2702      1.1625      1.0994      1.0708      1.0708      1.3116      1.3555    
  1.4330      1.5532      1.7200      1.9296      2.1679      2.4102      2.6229      2.7696      2.8222      2.7696    
  2.6229      2.4102      2.1678      1.9295      1.7200      1.5532      1.4330      1.3555      1.3116      1.2910    
  1.2852      1.2910      1.6232      1.6287      1.6582      1.7200      1.8171      1.9450      2.0910      2.2348    
  2.3513      2.4169      2.4169      2.3513      2.2348      2.0910      1.9450      1.8171      1.7200      1.6582    
  1.6288      1.6232      1.6296      1.6364      1.6364      1.6296      2.0477      1.9878      1.9450      1.9296    
  1.9450      1.9878      2.0477      2.1093      2.1554      2.1725      2.1554      2.1093      2.0477      1.9878    
  1.9450      1.9296      1.9450      1.9878      2.0477      2.1093      2.1554      2.1725      2.1554      2.1093    
  2.5877      2.4255      2.2810      2.1679      2.0910      2.0477      2.0299      2.0268      2.0283      2.0283    
  2.0268      2.0299      2.0477      2.0910      2.1679      2.2811      2.4256      2.5877      2.7455      2.8725    
  2.9436      2.9436      2.8725      2.7456      3.2245      2.9159      2.6388      2.4102      2.2348      2.1093    
  2.0268      1.9804      1.9656      1.9805      2.0268      2.1093      2.2347      2.4102      2.6388      2.9159    
  3.2246      3.5342      3.8033      3.9879      4.0538      3.9880      3.8034      3.5342      3.9100      3.4108    
  2.9763      2.6229      2.3513      2.1554      2.0283      1.9656      1.9655      2.0282      2.1554      2.3513    
  2.6228      2.9763      3.4108      3.9101      4.4359      4.9285      5.3153      5.5292      5.5292      5.3154    
  4.9285      4.4359      4.5635      3.8434      3.2425      2.7696      2.4169      2.1725      2.0283      1.9805    
  2.0282      2.1724      2.4168      2.7696      3.2426      3.8435      4.5636      5.3644      6.1702      6.8737    
  7.3581      7.5313      7.3581      6.8737      6.1702      5.3644      5.0835      4.1414      3.3901      2.8222    
  2.4169      2.1554      2.0268      2.0268      2.1554      2.4168      2.8221      3.3902      4.1416      5.0836    
  6.1899      7.3810      8.5192      9.4272      9.9343      9.9343      9.4272      8.5193      7.3811      6.1900    
  5.3733      4.2479      3.3901      2.7696      2.3513      2.1093      2.0299      2.1093      2.3513      2.7696    
  3.3902      4.2481      5.3734      6.7654      8.3616      10.013      11.490      12.524      12.897      12.524    
  11.490      10.013      8.3618      6.7655      5.3733      4.1414      3.2425      2.6229      2.2348      2.0477    
  2.0477      2.2347      2.6228      3.2426      4.1416      5.3734      6.9725      8.9142      11.071      13.189    
  14.915      15.891      15.891      14.915      13.189      11.071      8.9143      6.9726      5.0835      3.8434    
  2.9763      2.4102      2.0910      1.9878      2.0910      2.4102      2.9763      3.8435      5.0836      6.7654    
  8.9142      11.455      14.157      16.627      18.385      19.024      18.385      16.627      14.157      11.455    
  8.9143      6.7654      4.5635      3.4109      2.6389      2.1678      1.9450      1.9450      2.1679      2.6388    
  3.4108      4.5636      6.1899      8.3616      11.071      14.157      17.252      19.815      21.277      21.277    
  19.815      17.252      14.157      11.071      8.3616      6.1898      3.9100      2.9160      2.2810      1.9295    
  1.8171      1.9296      2.2811      2.9159      3.9101      5.3644      7.3810      10.013      13.189      16.627    
  19.815      22.097      22.925      22.097      19.815      16.627      13.189      10.013      7.3811      5.3644    
  3.2246      2.4255      1.9450      1.7200      1.7200      1.9450      2.4256      3.2246      4.4359      6.1702    
  8.5192      11.490      14.915      18.385      21.277      22.925      22.925      21.277      18.385      14.914    
  11.490      8.5193      6.1703      4.4359      2.5877      1.9878      1.6581      1.5532      1.6582      1.9878    
  2.5877      3.5342      4.9285      6.8737      9.4272      12.524      15.891      19.024      21.277      22.097    
  21.277      19.025      15.891      12.523      9.4272      6.8738      4.9286      3.5343      2.0477      1.6287    
  1.4330      1.4330      1.6288      2.0477      2.7455      3.8033      5.3153      7.3581      9.9343      12.897    
  15.891      18.385      19.815      19.815      18.385      15.891      12.896      9.9342      7.3582      5.3155    
  3.8035      2.7456      1.6232      1.3554      1.2702      1.3555      1.6232      2.1093      2.8725      3.9879    
  5.5292      7.5313      9.9343      12.524      14.915      16.627      17.252      16.627      14.914      12.523    
  9.9342      7.5314      5.5293      3.9880      2.8725      2.1093      1.3116      1.1625      1.1625      1.3116    
  1.6296      2.1554      2.9436      4.0538      5.5292      7.3581      9.4272      11.490      13.189      14.157    
  14.157      13.189      11.490      9.4272      7.3582      5.5293      4.0539      2.9435      2.1554      1.6296    
  1.0994      1.0382      1.0994      1.2910      1.6364      2.1725      2.9436      3.9880      5.3154      6.8737    
  8.5193      10.013      11.071      11.455      11.071      10.013      8.5193      6.8738      5.3155      3.9880    
  2.9435      2.1725      1.6364      1.2910     0.96974     0.96973      1.0708      1.2852      1.6364      2.1554    
  2.8725      3.8034      4.9285      6.1702      7.3811      8.3618      8.9143      8.9143      8.3616      7.3811    
  6.1703      4.9286      3.8035      2.8725      2.1554      1.6364      1.2852      1.0708     0.90875     0.94803    
  1.0708      1.2910      1.6296      2.1093      2.7456      3.5342      4.4359      5.3644      6.1900      6.7655    
  6.9726      6.7654      6.1898      5.3644      4.4359      3.5343      2.7456      2.1093      1.6296      1.2910    
  1.0708     0.94806      1.0261      1.0994      1.2313      1.4341      1.7189      2.0910      2.5432      3.0494    
  3.5607      4.0082      4.3170      4.4275      4.3169      4.0082      3.5606      3.0494      2.5432      2.0911    
  1.7190      1.4341      1.2313      1.0994      1.0261      1.0027      1.0994      1.1625      1.2702      1.4330    
  1.6582      1.9450      2.2810      2.6388      2.9763      3.2425      3.3901      3.3901      3.2425      2.9763    
  2.6389      2.2811      1.9450      1.6582      1.4330      1.2702      1.1625      1.0994      1.0708      1.0708    
  1.2313      1.2702      1.3415      1.4549      1.6147      1.8171      2.0483      2.2837      2.4902      2.6326    
  2.6836      2.6326      2.4902      2.2837      2.0484      1.8172      1.6147      1.4549      1.3415      1.2701    
  1.2313      1.2140      1.2093      1.2140      1.4341      1.4330      1.4549      1.5092      1.5990      1.7200    
  1.8595      1.9975      2.1094      2.1723      2.1723      2.1094      1.9975      1.8595      1.7200      1.5990    
  1.5092      1.4549      1.4330      1.4341      1.4455      1.4550      1.4550      1.4455      1.7189      1.6582    
  1.6147      1.5990      1.6147      1.6582      1.7189      1.7814      1.8281      1.8455      1.8281      1.7813    
  1.7189      1.6581      1.6147      1.5990      1.6147      1.6582      1.7189      1.7814      1.8281      1.8455    
  1.8281      1.7813      2.0910      1.9450      1.8171      1.7200      1.6582      1.6288      1.6232      1.6296    
  1.6364      1.6364      1.6296      1.6232      1.6288      1.6582      1.7200      1.8171      1.9450      2.0910    
  2.2348      2.3513      2.4169      2.4169      2.3513      2.2348      2.5432      2.2810      2.0483      1.8595    
  1.7189      1.6232      1.5647      1.5344      1.5252      1.5344      1.5647      1.6232      1.7190      1.8596    
  2.0483      2.2810      2.5432      2.8087      3.0413      3.2019      3.2594      3.2020      3.0414      2.8087    
  3.0494      2.6388      2.2837      1.9975      1.7814      1.6296      1.5344      1.4887      1.4887      1.5344    
  1.6297      1.7814      1.9975      2.2837      2.6388      3.0494      3.4848      3.8957      4.2207      4.4012    
  4.4013      4.2207      3.8957      3.4848      3.5607      2.9763      2.4902      2.1094      1.8281      1.6364    
  1.5252      1.4887      1.5252      1.6364      1.8281      2.1093      2.4901      2.9762      3.5607      4.2136    
  4.8751      5.4571      5.8604      6.0052      5.8604      5.4571      4.8751      4.2136      4.0082      3.2425    
  2.6326      2.1723      1.8455      1.6364      1.5344      1.5344      1.6364      1.8455      2.1723      2.6326    
  3.2425      4.0082      4.9107      5.8888      6.8312      7.5889      8.0143      8.0143      7.5889      6.8312    
  5.8888      4.9107      4.3170      3.3901      2.6836      2.1723      1.8281      1.6296      1.5647      1.6297    
  1.8281      2.1723      2.6836      3.3901      4.3170      5.4672      6.7952      8.1818      9.4324      10.314    
  10.634      10.314      9.4324      8.1818      6.7951      5.4672      4.4275      3.3901      2.6326      2.1094    
  1.7813      1.6232      1.6232      1.7814      2.1093      2.6326      3.3901      4.4275      5.7781      7.4300    
  9.2833      11.122      12.633      13.492      13.493      12.633      11.122      9.2832      7.4300      5.7782    
  4.3169      3.2425      2.4902      1.9975      1.7189      1.6288      1.7190      1.9975      2.4901      3.2425    
  4.3170      5.7781      7.6590      9.9068      12.326      14.559      16.159      16.744      16.159      14.559    
  12.326      9.9068      7.6591      5.7781      4.0082      2.9763      2.2837      1.8595      1.6581      1.6582    
  1.8596      2.2837      2.9762      4.0082      5.4672      7.4300      9.9068      12.764      15.662      18.083    
  19.474      19.474      18.083      15.662      12.764      9.9069      7.4300      5.4672      3.5606      2.6389    
  2.0484      1.7200      1.6147      1.7200      2.0483      2.6388      3.5607      4.9107      6.7952      9.2833    
  12.326      15.662      18.788      21.048      21.877      21.048      18.788      15.662      12.326      9.2833    
  6.7951      4.9106      3.0494      2.2811      1.8172      1.5990      1.5990      1.8171      2.2810      3.0494    
  4.2136      5.8888      8.1818      11.122      14.559      18.083      21.048      22.759      22.759      21.048    
  18.083      14.559      11.122      8.1819      5.8888      4.2135      2.5432      1.9450      1.6147      1.5092    
  1.6147      1.9450      2.5432      3.4848      4.8751      6.8312      9.4324      12.633      16.159      19.474    
  21.877      22.759      21.877      19.474      16.159      12.633      9.4325      6.8312      4.8751      3.4848    
  2.0911      1.6582      1.4549      1.4549      1.6582      2.0910      2.8087      3.8957      5.4571      7.5889    
  10.314      13.492      16.744      19.474      21.048      21.048      19.474      16.744      13.492      10.314    
  7.5889      5.4571      3.8957      2.8087      1.7190      1.4330      1.3415      1.4330      1.7189      2.2348    
  3.0413      4.2207      5.8604      8.0143      10.634      13.493      16.159      18.083      18.788      18.083    
  16.159      13.492      10.634      8.0143      5.8604      4.2207      3.0413      2.2349      1.4341      1.2702    
  1.2701      1.4341      1.7814      2.3513      3.2019      4.4012      6.0052      8.0143      10.314      12.633    
  14.559      15.662      15.662      14.559      12.633      10.314      8.0143      6.0052      4.4013      3.2020    
  2.3513      1.7814      1.2313      1.1625      1.2313      1.4455      1.8281      2.4169      3.2594      4.4013    
  5.8604      7.5889      9.4324      11.122      12.326      12.764      12.326      11.122      9.4325      7.5889    
  5.8604      4.4013      3.2595      2.4169      1.8281      1.4455      1.0994      1.0994      1.2140      1.4550    
  1.8455      2.4169      3.2020      4.2207      5.4571      6.8312      8.1818      9.2832      9.9068      9.9069    
  9.2833      8.1819      6.8312      5.4571      4.2207      3.2020      2.4169      1.8455      1.4550      1.2140    
  1.0261      1.0708      1.2093      1.4550      1.8281      2.3513      3.0414      3.8957      4.8751      5.8888    
  6.7951      7.4300      7.6591      7.4300      6.7951      5.8888      4.8751      3.8957      3.0413      2.3513    
  1.8281      1.4550      1.2093      1.0708      1.0027      1.0708      1.2140      1.4455      1.7813      2.2348    
  2.8087      3.4848      4.2136      4.9107      5.4672      5.7782      5.7781      5.4672      4.9106      4.2135    
  3.4848      2.8087      2.2349      1.7814      1.4455      1.2140      1.0708      1.0028      1.2377      1.3116    
  1.4341      1.6146      1.8595      2.1679      2.5270      2.9087      3.2691      3.5539      3.7120      3.7120    
  3.5539      3.2690      2.9086      2.5269      2.1679      1.8596      1.6147      1.4341      1.3116      1.2377    
  1.2033      1.2034      1.3116      1.3555      1.4330      1.5532      1.7200      1.9296      2.1679      2.4102    
  2.6228      2.7696      2.8221      2.7696      2.6229      2.4102      2.1679      1.9296      1.7200      1.5532    
  1.4330      1.3555      1.3116      1.2910      1.2852      1.2910      1.4341      1.4330      1.4549      1.5092    
  1.5990      1.7200      1.8595      1.9975      2.1094      2.1723      2.1723      2.1094      1.9975      1.8596    
  1.7200      1.5990      1.5092      1.4549      1.4330      1.4341      1.4455      1.4550      1.4550      1.4455    
  1.6146      1.5532      1.5092      1.4933      1.5092      1.5532      1.6146      1.6776      1.7247      1.7421    
  1.7247      1.6776      1.6146      1.5532      1.5092      1.4933      1.5092      1.5532      1.6146      1.6776    
  1.7247      1.7421      1.7247      1.6776      1.8595      1.7200      1.5990      1.5092      1.4549      1.4330    
  1.4341      1.4455      1.4550      1.4550      1.4455      1.4341      1.4330      1.4549      1.5092      1.5990    
  1.7200      1.8596      1.9975      2.1094      2.1723      2.1723      2.1094      1.9975      2.1679      1.9296    
  1.7200      1.5532      1.4330      1.3555      1.3116      1.2910      1.2852      1.2910      1.3116      1.3555    
  1.4330      1.5532      1.7200      1.9296      2.1679      2.4102      2.6229      2.7696      2.8221      2.7696    
  2.6228      2.4102      2.5270      2.1679      1.8595      1.6146      1.4341      1.3116      1.2377      1.2034    
  1.2033      1.2377      1.3116      1.4341      1.6147      1.8596      2.1679      2.5269      2.9086      3.2690    
  3.5539      3.7120      3.7120      3.5539      3.2691      2.9087      2.9087      2.4102      1.9975      1.6776    
  1.4455      1.2910      1.2034      1.1750      1.2033      1.2910      1.4456      1.6776      1.9975      2.4102    
  2.9086      3.4660      4.0301      4.5256      4.8685      4.9915      4.8685      4.5256      4.0301      3.4661    
  3.2691      2.6228      2.1094      1.7247      1.4550      1.2852      1.2033      1.2033      1.2852      1.4551    
  1.7247      2.1094      2.6228      3.2689      4.0300      4.8533      5.6447      6.2796      6.6356      6.6355    
  6.2795      5.6446      4.8533      4.0301      3.5539      2.7696      2.1723      1.7421      1.4550      1.2910    
  1.2377      1.2910      1.4551      1.7422      2.1724      2.7696      3.5538      4.5255      5.6446      6.8104    
  7.8593      8.5978      8.8650      8.5977      7.8592      6.8102      5.6446      4.5256      3.7120      2.8221    
  2.1723      1.7247      1.4455      1.3116      1.3116      1.4456      1.7247      2.1724      2.8221      3.7119    
  4.8684      6.2795      7.8593      9.4237      10.707      11.437      11.437      10.707      9.4235      7.8592    
  6.2795      4.8685      3.7120      2.7696      2.1094      1.6776      1.4341      1.3555      1.4341      1.6776    
  2.1094      2.7696      3.7119      4.9913      6.6355      8.5979      10.707      12.654      14.048      14.556    
  14.048      12.654      10.707      8.5977      6.6355      4.9915      3.5539      2.6229      1.9975      1.6146    
  1.4330      1.4330      1.6147      1.9975      2.6228      3.5538      4.8684      6.6355      8.8650      11.437    
  14.048      16.229      17.482      17.482      16.229      14.048      11.437      8.8650      6.6356      4.8685    
  3.2690      2.4102      1.8596      1.5532      1.4549      1.5532      1.8596      2.4102      3.2689      4.5255    
  6.2795      8.5979      11.437      14.557      17.482      19.600      20.377      19.600      17.482      14.556    
  11.437      8.5978      6.2796      4.5256      2.9086      2.1679      1.7200      1.5092      1.5092      1.7200    
  2.1679      2.9086      4.0300      5.6446      7.8593      10.707      14.048      17.482      20.377      22.049    
  22.049      20.377      17.482      14.048      10.707      7.8593      5.6447      4.0301      2.5269      1.9296    
  1.5990      1.4933      1.5990      1.9296      2.5269      3.4660      4.8533      6.8104      9.4237      12.654    
  16.229      19.600      22.049      22.948      22.049      19.600      16.229      12.654      9.4237      6.8104    
  4.8533      3.4660      2.1679      1.7200      1.5092      1.5092      1.7200      2.1679      2.9086      4.0301    
  5.6447      7.8593      10.707      14.048      17.482      20.377      22.049      22.049      20.377      17.482    
  14.048      10.707      7.8593      5.6446      4.0300      2.9086      1.8596      1.5532      1.4549      1.5532    
  1.8596      2.4102      3.2690      4.5256      6.2796      8.5978      11.437      14.556      17.482      19.600    
  20.377      19.600      17.482      14.557      11.437      8.5979      6.2795      4.5255      3.2689      2.4102    
  1.6147      1.4330      1.4330      1.6146      1.9975      2.6229      3.5539      4.8685      6.6356      8.8650    
  11.437      14.048      16.229      17.482      17.482      16.229      14.048      11.437      8.8650      6.6355    
  4.8684      3.5538      2.6228      1.9975      1.4341      1.3555      1.4341      1.6776      2.1094      2.7696    
  3.7120      4.9915      6.6355      8.5977      10.707      12.654      14.048      14.556      14.048      12.654    
  10.707      8.5979      6.6355      4.9913      3.7119      2.7696      2.1094      1.6776      1.3116      1.3116    
  1.4455      1.7247      2.1723      2.8221      3.7120      4.8685      6.2795      7.8592      9.4235      10.707    
  11.437      11.437      10.707      9.4237      7.8593      6.2795      4.8684      3.7119      2.8221      2.1724    
  1.7247      1.4456      1.2377      1.2910      1.4550      1.7421      2.1723      2.7696      3.5539      4.5256    
  5.6446      6.8102      7.8592      8.5977      8.8650      8.5978      7.8593      6.8104      5.6446      4.5255    
  3.5538      2.7696      2.1724      1.7422      1.4551      1.2910      1.2033      1.2852      1.4550      1.7247    
  2.1094      2.6228      3.2691      4.0301      4.8533      5.6446      6.2795      6.6355      6.6356      6.2796    
  5.6447      4.8533      4.0300      3.2689      2.6228      2.1094      1.7247      1.4551      1.2852      1.2033    
  1.2034      1.2910      1.4455      1.6776      1.9975      2.4102      2.9087      3.4661      4.0301      4.5256    
  4.8685      4.9915      4.8685      4.5256      4.0301      3.4660      2.9086      2.4102      1.9975      1.6776    
  1.4456      1.2910      1.2033      1.1750      1.5647      1.6232      1.7189      1.8595      2.0483      2.2810    
  2.5432      2.8087      3.0414      3.2020      3.2594      3.2019      3.0413      2.8087      2.5432      2.2810    
  2.0483      1.8596      1.7190      1.6232      1.5647      1.5344      1.5252      1.5344      1.6232      1.6288    
  1.6582      1.7200      1.8171      1.9450      2.0910      2.2348      2.3513      2.4169      2.4169      2.3513    
  2.2348      2.0910      1.9450      1.8171      1.7200      1.6582      1.6288      1.6232      1.6296      1.6364    
  1.6364      1.6296      1.7189      1.6582      1.6147      1.5990      1.6147      1.6582      1.7189      1.7813    
  1.8281      1.8455      1.8281      1.7814      1.7189      1.6582      1.6147      1.5990      1.6147      1.6581    
  1.7189      1.7813      1.8281      1.8455      1.8281      1.7814      1.8595      1.7200      1.5990      1.5092    
  1.4549      1.4330      1.4341      1.4455      1.4550      1.4550      1.4455      1.4341      1.4330      1.4549    
  1.5092      1.5990      1.7200      1.8595      1.9975      2.1094      2.1723      2.1723      2.1094      1.9975    
  2.0483      1.8171      1.6147      1.4549      1.3415      1.2702      1.2313      1.2140      1.2093      1.2140    
  1.2313      1.2701      1.3415      1.4549      1.6147      1.8172      2.0484      2.2837      2.4902      2.6326    
  2.6836      2.6326      2.4902      2.2837      2.2810      1.9450      1.6582      1.4330      1.2702      1.1625    
  1.0994      1.0708      1.0708      1.0994      1.1625      1.2702      1.4330      1.6582      1.9450      2.2811    
  2.6389      2.9763      3.2425      3.3901      3.3901      3.2425      2.9763      2.6388      2.5432      2.0910    