   2   2   0   0
  0.2001288E+02  0.3839590E-09  0.3839590E-09  0.3839590E-09  0.5000000E-15
  1.000000000000000E-004
  CAR 
 unknown system                          
     17.01082426     -8.04074816  301      6.13495274      1.00000000
     -8.041  0.0000E+00  0.0000E+00
     -7.957  0.0000E+00  0.0000E+00
     -7.874  0.0000E+00  0.0000E+00
     -7.790  0.0000E+00  0.0000E+00
     -7.707  0.0000E+00  0.0000E+00
     -7.623  0.0000E+00  0.0000E+00
     -7.540  0.0000E+00  0.0000E+00
     -7.456  0.0000E+00  0.0000E+00
     -7.373  0.0000E+00  0.0000E+00
     -7.289  0.0000E+00  0.0000E+00
     -7.206  0.1641E-17  0.1371E-18
     -7.122  0.1502E-15  0.1268E-16
     -7.039  0.1247E-13  0.1054E-14
     -6.955  0.7312E-12  0.6211E-13
     -6.872  0.3041E-10  0.2602E-11
     -6.788  0.8978E-09  0.7757E-10
     -6.705  0.1882E-07  0.1649E-08
     -6.621  0.2804E-06  0.2506E-07
     -6.538  0.2971E-05  0.2732E-06
     -6.454  0.2242E-04  0.2145E-05
     -6.371  0.1208E-03  0.1224E-04
     -6.287  0.4681E-03  0.5133E-04
     -6.204  0.1323E-02  0.1618E-03
     -6.120  0.2827E-02  0.3979E-03
     -6.037  0.4883E-02  0.8057E-03
     -5.953  0.7434E-02  0.1426E-02
     -5.870  0.1041E-01  0.2296E-02
     -5.786  0.1312E-01  0.3391E-02
     -5.703  0.1477E-01  0.4624E-02
     -5.619  0.1557E-01  0.5925E-02
     -5.536  0.1631E-01  0.7286E-02
     -5.452  0.1745E-01  0.8744E-02
     -5.369  0.1937E-01  0.1036E-01
     -5.285  0.2203E-01  0.1220E-01
     -5.202  0.2501E-01  0.1429E-01
     -5.118  0.2746E-01  0.1658E-01
     -5.035  0.2779E-01  0.1890E-01
     -4.951  0.2549E-01  0.2103E-01
     -4.868  0.2265E-01  0.2292E-01
     -4.784  0.2224E-01  0.2478E-01
     -4.701  0.2571E-01  0.2693E-01
     -4.617  0.3205E-01  0.2960E-01
     -4.534  0.3857E-01  0.3282E-01
     -4.450  0.4249E-01  0.3637E-01
     -4.367  0.4192E-01  0.3987E-01
     -4.283  0.3764E-01  0.4301E-01
     -4.200  0.3383E-01  0.4584E-01
     -4.116  0.3465E-01  0.4873E-01
     -4.032  0.4023E-01  0.5209E-01
     -3.949  0.4643E-01  0.5597E-01
     -3.865  0.4894E-01  0.6005E-01
     -3.782  0.4781E-01  0.6405E-01
     -3.698  0.4736E-01  0.6800E-01
     -3.615  0.5155E-01  0.7231E-01
     -3.531  0.5941E-01  0.7727E-01
     -3.448  0.6571E-01  0.8275E-01
     -3.364  0.6676E-01  0.8833E-01
     -3.281  0.6252E-01  0.9355E-01
     -3.197  0.5306E-01  0.9798E-01
     -3.114  0.3949E-01  0.1013E+00
     -3.030  0.2754E-01  0.1036E+00
     -2.947  0.2288E-01  0.1055E+00
     -2.863  0.2440E-01  0.1075E+00
     -2.780  0.2750E-01  0.1098E+00
     -2.696  0.3183E-01  0.1125E+00
     -2.613  0.3985E-01  0.1158E+00
     -2.529  0.4929E-01  0.1199E+00
     -2.446  0.5309E-01  0.1244E+00
     -2.362  0.4676E-01  0.1283E+00
     -2.279  0.3272E-01  0.1310E+00
     -2.195  0.1779E-01  0.1325E+00
     -2.112  0.7348E-02  0.1331E+00
     -2.028  0.2261E-02  0.1333E+00
     -1.945  0.5112E-03  0.1333E+00
     -1.861  0.9532E-04  0.1333E+00
     -1.778  0.1182E-03  0.1333E+00
     -1.694  0.7154E-03  0.1334E+00
     -1.611  0.3367E-02  0.1337E+00
     -1.527  0.1136E-01  0.1346E+00
     -1.444  0.2755E-01  0.1369E+00
     -1.360  0.4842E-01  0.1410E+00
     -1.277  0.6307E-01  0.1462E+00
     -1.193  0.6487E-01  0.1517E+00
     -1.110  0.6097E-01  0.1568E+00
     -1.026  0.6153E-01  0.1619E+00
     -0.943  0.6432E-01  0.1673E+00
     -0.859  0.6049E-01  0.1723E+00
     -0.776  0.5148E-01  0.1766E+00
     -0.692  0.4891E-01  0.1807E+00
     -0.609  0.5702E-01  0.1855E+00
     -0.525  0.6479E-01  0.1909E+00
     -0.442  0.6023E-01  0.1959E+00
     -0.358  0.4600E-01  0.1997E+00
     -0.275  0.3396E-01  0.2026E+00
     -0.191  0.2974E-01  0.2051E+00
     -0.108  0.3097E-01  0.2076E+00
     -0.024  0.3594E-01  0.2106E+00
      0.059  0.4425E-01  0.2143E+00
      0.143  0.5033E-01  0.2185E+00
      0.226  0.4632E-01  0.2224E+00
      0.310  0.3224E-01  0.2251E+00
      0.393  0.1654E-01  0.2265E+00
      0.477  0.6411E-02  0.2270E+00
      0.560  0.2996E-02  0.2273E+00
      0.644  0.5163E-02  0.2277E+00
      0.727  0.1277E-01  0.2288E+00
      0.811  0.2465E-01  0.2308E+00
      0.894  0.3543E-01  0.2338E+00
      0.978  0.3807E-01  0.2370E+00
      1.061  0.3077E-01  0.2395E+00
      1.145  0.1942E-01  0.2412E+00
      1.228  0.1179E-01  0.2421E+00
      1.312  0.1152E-01  0.2431E+00
      1.395  0.1786E-01  0.2446E+00
      1.479  0.2886E-01  0.2470E+00
      1.562  0.4274E-01  0.2506E+00
      1.646  0.5735E-01  0.2554E+00
      1.729  0.7049E-01  0.2612E+00
      1.813  0.7965E-01  0.2679E+00
      1.896  0.8113E-01  0.2747E+00
      1.980  0.7336E-01  0.2808E+00
      2.063  0.6153E-01  0.2859E+00
      2.147  0.5523E-01  0.2905E+00
      2.230  0.6082E-01  0.2956E+00
      2.314  0.7473E-01  0.3019E+00
      2.397  0.8473E-01  0.3089E+00
      2.481  0.8212E-01  0.3158E+00
      2.564  0.7101E-01  0.3217E+00
      2.648  0.6275E-01  0.3270E+00
      2.731  0.6541E-01  0.3324E+00
      2.815  0.7858E-01  0.3390E+00
      2.898  0.9304E-01  0.3468E+00
      2.982  0.9860E-01  0.3550E+00
      3.065  0.9624E-01  0.3630E+00
      3.149  0.9606E-01  0.3711E+00
      3.232  0.1015E+00  0.3795E+00
      3.316  0.1053E+00  0.3883E+00
      3.399  0.1017E+00  0.3968E+00
      3.483  0.9347E-01  0.4046E+00
      3.566  0.8728E-01  0.4119E+00
      3.650  0.8519E-01  0.4190E+00
      3.733  0.8302E-01  0.4260E+00
      3.817  0.7923E-01  0.4326E+00
      3.901  0.7837E-01  0.4391E+00
      3.984  0.8232E-01  0.4460E+00
      4.068  0.8796E-01  0.4533E+00
      4.151  0.9318E-01  0.4611E+00
      4.235  0.9632E-01  0.4692E+00
      4.318  0.9373E-01  0.4770E+00
      4.402  0.8417E-01  0.4840E+00
      4.485  0.7094E-01  0.4899E+00
      4.569  0.5784E-01  0.4948E+00
      4.652  0.4830E-01  0.4988E+00
      4.736  0.4617E-01  0.5027E+00
      4.819  0.5105E-01  0.5069E+00
      4.903  0.5582E-01  0.5116E+00
      4.986  0.5376E-01  0.5161E+00
      5.070  0.4518E-01  0.5198E+00
      5.153  0.3469E-01  0.5227E+00
      5.237  0.2575E-01  0.5249E+00
      5.320  0.1963E-01  0.5265E+00
      5.404  0.1649E-01  0.5279E+00
      5.487  0.1541E-01  0.5292E+00
      5.571  0.1460E-01  0.5304E+00
      5.654  0.1288E-01  0.5315E+00
      5.738  0.1009E-01  0.5323E+00
      5.821  0.6654E-02  0.5329E+00
      5.905  0.3472E-02  0.5332E+00
      5.988  0.1364E-02  0.5333E+00
      6.072  0.3951E-03  0.5333E+00
      6.155  0.1134E-03  0.5333E+00
      6.239  0.2164E-03  0.5334E+00
      6.322  0.9315E-03  0.5334E+00
      6.406  0.3079E-02  0.5337E+00
      6.489  0.7480E-02  0.5343E+00
      6.573  0.1349E-01  0.5354E+00
      6.656  0.1834E-01  0.5370E+00
      6.740  0.1939E-01  0.5386E+00
      6.823  0.1764E-01  0.5401E+00
      6.907  0.1766E-01  0.5415E+00
      6.990  0.2263E-01  0.5434E+00
      7.074  0.3064E-01  0.5460E+00
      7.157  0.3780E-01  0.5491E+00
      7.241  0.4346E-01  0.5528E+00
      7.324  0.4892E-01  0.5569E+00
      7.408  0.5355E-01  0.5613E+00
      7.491  0.5580E-01  0.5660E+00
      7.575  0.5557E-01  0.5706E+00
      7.658  0.5499E-01  0.5752E+00
      7.742  0.5922E-01  0.5802E+00
      7.825  0.7261E-01  0.5862E+00
      7.909  0.9097E-01  0.5938E+00
      7.992  0.1029E+00  0.6024E+00
      8.076  0.1011E+00  0.6109E+00
      8.159  0.8901E-01  0.6183E+00
      8.243  0.7668E-01  0.6247E+00
      8.326  0.7436E-01  0.6309E+00
      8.410  0.8433E-01  0.6380E+00
      8.493  0.9634E-01  0.6460E+00
      8.577  0.9819E-01  0.6542E+00
      8.660  0.9125E-01  0.6618E+00
      8.744  0.8740E-01  0.6691E+00
      8.827  0.9278E-01  0.6769E+00
      8.911  0.1027E+00  0.6854E+00
      8.994  0.1101E+00  0.6946E+00
      9.078  0.1102E+00  0.7038E+00
      9.161  0.1030E+00  0.7124E+00
      9.245  0.9715E-01  0.7205E+00
      9.328  0.1021E+00  0.7291E+00
      9.412  0.1147E+00  0.7387E+00
      9.495  0.1223E+00  0.7489E+00
      9.579  0.1181E+00  0.7587E+00
      9.662  0.1061E+00  0.7676E+00
      9.746  0.9440E-01  0.7755E+00
      9.829  0.8779E-01  0.7828E+00
      9.913  0.8524E-01  0.7899E+00
      9.996  0.8369E-01  0.7969E+00
     10.080  0.8164E-01  0.8037E+00
     10.163  0.8052E-01  0.8104E+00
     10.247  0.8374E-01  0.8174E+00
     10.330  0.9160E-01  0.8251E+00
     10.414  0.9758E-01  0.8332E+00
     10.497  0.9610E-01  0.8413E+00
     10.581  0.9131E-01  0.8489E+00
     10.664  0.9085E-01  0.8565E+00
     10.748  0.9459E-01  0.8644E+00
     10.831  0.9588E-01  0.8724E+00
     10.915  0.9027E-01  0.8799E+00
     10.998  0.7911E-01  0.8865E+00
     11.082  0.6679E-01  0.8921E+00
     11.165  0.5568E-01  0.8967E+00
     11.249  0.4496E-01  0.9005E+00
     11.332  0.3642E-01  0.9035E+00
     11.416  0.3735E-01  0.9067E+00
     11.499  0.5310E-01  0.9111E+00
     11.583  0.7829E-01  0.9176E+00
     11.666  0.1005E+00  0.9260E+00
     11.750  0.1125E+00  0.9354E+00
     11.833  0.1142E+00  0.9449E+00
     11.917  0.1062E+00  0.9538E+00
     12.001  0.9034E-01  0.9614E+00
     12.084  0.7192E-01  0.9674E+00
     12.168  0.5610E-01  0.9721E+00
     12.251  0.4507E-01  0.9758E+00
     12.335  0.3956E-01  0.9791E+00
     12.418  0.3970E-01  0.9824E+00
     12.502  0.4427E-01  0.9861E+00
     12.585  0.4850E-01  0.9902E+00
     12.669  0.4671E-01  0.9941E+00
     12.752  0.4051E-01  0.9975E+00
     12.836  0.3826E-01  0.1001E+01
     12.919  0.4310E-01  0.1004E+01
     13.003  0.4855E-01  0.1008E+01
     13.086  0.4900E-01  0.1012E+01
     13.170  0.4856E-01  0.1016E+01
     13.253  0.5465E-01  0.1021E+01
     13.337  0.6599E-01  0.1027E+01
     13.420  0.7176E-01  0.1033E+01
     13.504  0.6415E-01  0.1038E+01
     13.587  0.4809E-01  0.1042E+01
     13.671  0.3470E-01  0.1045E+01
     13.754  0.2815E-01  0.1047E+01
     13.838  0.2383E-01  0.1049E+01
     13.921  0.1733E-01  0.1051E+01
     14.005  0.9763E-02  0.1051E+01
     14.088  0.4457E-02  0.1052E+01
     14.172  0.3129E-02  0.1052E+01
     14.255  0.6039E-02  0.1053E+01
     14.339  0.1238E-01  0.1054E+01
     14.422  0.1879E-01  0.1055E+01
     14.506  0.2045E-01  0.1057E+01
     14.589  0.1622E-01  0.1058E+01
     14.673  0.1054E-01  0.1059E+01
     14.756  0.8708E-02  0.1060E+01
     14.840  0.1199E-01  0.1061E+01
     14.923  0.1715E-01  0.1062E+01
     15.007  0.1937E-01  0.1064E+01
     15.090  0.1640E-01  0.1065E+01
     15.174  0.1031E-01  0.1066E+01
     15.257  0.4785E-02  0.1066E+01
     15.341  0.1629E-02  0.1067E+01
     15.424  0.4041E-03  0.1067E+01
     15.508  0.7257E-04  0.1067E+01
     15.591  0.9388E-05  0.1067E+01
     15.675  0.8712E-06  0.1067E+01
     15.758  0.5780E-07  0.1067E+01
     15.842  0.2736E-08  0.1067E+01
     15.925  0.9218E-10  0.1067E+01
     16.009  0.2209E-11  0.1067E+01
     16.092  0.3759E-13  0.1067E+01
     16.176  0.4481E-15  0.1067E+01
     16.259  0.4924E-17  0.1067E+01
     16.343  0.0000E+00  0.1067E+01
     16.426  0.0000E+00  0.1067E+01
     16.510  0.0000E+00  0.1067E+01
     16.593  0.0000E+00  0.1067E+01
     16.677  0.0000E+00  0.1067E+01
     16.760  0.0000E+00  0.1067E+01
     16.844  0.0000E+00  0.1067E+01
     16.927  0.0000E+00  0.1067E+01
     17.011  0.0000E+00  0.1067E+01
