unknown system                          
   1.00000000000000     
    -2.445324    2.445324    1.275312
     2.445324   -2.445324    1.275312
     2.445324    2.445324   -1.275312
   Si
     2
Direct
  0.250000  0.750000  0.500000
 -0.000000  0.000000 -0.000000
 
   32   32   32
 -.53346042950E+01 -.41678676786E+01 -.10330233637E+01 0.31268515407E+01 0.71659804828E+01
 0.10143007659E+02 0.11587777255E+02 0.11556723296E+02 0.10505060509E+02 0.90508614343E+01
 0.76121942396E+01 0.63352923432E+01 0.52943274418E+01 0.45118985227E+01 0.39779854549E+01
 0.36704734168E+01 0.35703909531E+01 0.36704828469E+01 0.39779686005E+01 0.45118570957E+01
 0.52943033786E+01 0.63352950391E+01 0.76121920518E+01 0.90508466859E+01 0.10505057030E+02
 0.11556730355E+02 0.11587772018E+02 0.10143000111E+02 0.71659985992E+01 0.31268773629E+01
 -.10330322179E+01 -.41678983089E+01 -.41678983089E+01 -.47657130410E+01 -.31054184482E+01
 0.29030026291E+00 0.44093660763E+01 0.81453999613E+01 0.10675453613E+02 0.11671871210E+02
 0.11306480189E+02 0.10091900711E+02 0.86253541679E+01 0.72258631240E+01 0.60124411346E+01
 0.50440635108E+01 0.43328934888E+01 0.38642646449E+01 0.36157832928E+01 0.35706527977E+01
 0.37248957993E+01 0.40889736052E+01 0.46836745776E+01 0.55298223275E+01 0.66316076213E+01
 0.79559842346E+01 0.94157386764E+01 0.10831951082E+02 0.11715404096E+02 0.11466454319E+02
 0.97084645036E+01 0.65016476617E+01 0.24315971702E+01 -.14969241146E+01 -.10330322179E+01
 -.31054443086E+01 -.31400875346E+01 -.11328787005E+01 0.22791440366E+01 0.60824374840E+01
 0.92744363146E+01 0.11191298662E+02 0.11658758351E+02 0.10950388420E+02 0.96080375406E+01
 0.81566345501E+01 0.68136018542E+01 0.56767681423E+01 0.47894489055E+01 0.41542190132E+01
 0.37527094899E+01 0.35629915567E+01 0.35710946455E+01 0.37765949869E+01 0.41927062178E+01
 0.48409494817E+01 0.57399097058E+01 0.68877879340E+01 0.82420438156E+01 0.97049605416E+01
 0.11065810711E+02 0.11803583710E+02 0.11365726436E+02 0.94652893884E+01 0.62667584442E+01
 0.24315971702E+01 0.31268773629E+01 0.29029596888E+00 -.11328939653E+01 -.68763614005E+00
 0.14718245452E+01 0.46503250727E+01 0.78985905436E+01 0.10368642215E+02 0.11578459773E+02
 0.11501966080E+02 0.10489780862E+02 0.90777586146E+01 0.76631405704E+01 0.63920870066E+01
 0.53420125168E+01 0.45408453463E+01 0.39827926961E+01 0.36472446752E+01 0.35138071669E+01
 0.35716125937E+01 0.38233738011E+01 0.42844025105E+01 0.49763211145E+01 0.59148564307E+01
 0.70920160153E+01 0.84570751246E+01 0.99054657773E+01 0.11205337427E+02 0.11841716244E+02
 0.11327258981E+02 0.94652893884E+01 0.65016476617E+01 0.71659985992E+01 0.44093850604E+01
 0.22791427005E+01 0.14718178229E+01 0.22552184290E+01 0.43566726111E+01 0.70830288003E+01
 0.96048603791E+01 0.11260571306E+02 0.11752463721E+02 0.11182259482E+02 0.99456614485E+01
 0.85226729918E+01 0.71643665378E+01 0.59782087173E+01 0.50210894623E+01 0.43072369804E+01
 0.38245912777E+01 0.35516234117E+01 0.34699231394E+01 0.35717925758E+01 0.38629088330E+01
 0.43600238406E+01 0.50837884140E+01 0.60463398162E+01 0.72340816642E+01 0.85905033714E+01
 0.10008121393E+02 0.11251731235E+02 0.11841716244E+02 0.11365726436E+02 0.97084645036E+01
 0.10143000111E+02 0.81454028947E+01 0.60824402150E+01 0.46503249738E+01 0.43566750175E+01
 0.53061298429E+01 0.71581335168E+01 0.92767815766E+01 0.10990076899E+02 0.11832150240E+02
 0.11673879349E+02 0.10714173130E+02 0.93584180711E+01 0.79647997564E+01 0.66800485078E+01
 0.55875255561E+01 0.47254436184E+01 0.40967573815E+01 0.36849731881E+01 0.34687921108E+01
 0.34324759263E+01 0.35715264018E+01 0.38938012724E+01 0.44163751356E+01 0.51581992523E+01
 0.61278332927E+01 0.73070229884E+01 0.86358337171E+01 0.10008121393E+02 0.11205337427E+02
 0.11803583710E+02 0.11466454319E+02 0.11587772018E+02 0.10675436873E+02 0.92744239303E+01
 0.78985867781E+01 0.70830327523E+01 0.71581402466E+01 0.81047875144E+01 0.95657376346E+01
 0.11003521881E+02 0.11919844942E+02 0.12034055030E+02 0.11356335148E+02 0.10146038576E+02
 0.87668003725E+01 0.74269535526E+01 0.62289762437E+01 0.52343144024E+01 0.44651587376E+01
 0.39159810716E+01 0.35680112627E+01 0.34013198546E+01 0.34029456360E+01 0.35710137174E+01
 0.39148048645E+01 0.44510186577E+01 0.51963017729E+01 0.61555241809E+01 0.73070229884E+01
 0.85905033714E+01 0.99054657773E+01 0.11065810711E+02 0.11715404096E+02 0.11556730355E+02
 0.11671866610E+02 0.11191287296E+02 0.10368628723E+02 0.96048503883E+01 0.92767821956E+01
 0.95657449197E+01 0.10373827592E+02 0.11370381911E+02 0.12139943423E+02 0.12354122334E+02
 0.11890988009E+02 0.10862274220E+02 0.95482383544E+01 0.81984229606E+01 0.69318493828E+01
 0.58283858789E+01 0.49304921570E+01 0.42480805585E+01 0.37701686512E+01 0.34773021093E+01
 0.33514349761E+01 0.33823717986E+01 0.35704353914E+01 0.39254565969E+01 0.44627772252E+01
 0.51963017729E+01 0.61278332927E+01 0.72340816642E+01 0.84570751246E+01 0.97049605416E+01
 0.10831951082E+02 0.10505057030E+02 0.11306490003E+02 0.11658764755E+02 0.11578450995E+02
 0.11260551943E+02 0.10990063260E+02 0.11003523829E+02 0.11370390326E+02 0.11956782359E+02
 0.12488614225E+02 0.12677286619E+02 0.12344079479E+02 0.11489827688E+02 0.10287861604E+02
 0.89736701735E+01 0.76805424175E+01 0.64999072965E+01 0.54923630026E+01 0.46854633667E+01
 0.40804742796E+01 0.36633514878E+01 0.34153027437E+01 0.33207087071E+01 0.33718323263E+01
 0.35702566930E+01 0.39254565969E+01 0.44510186577E+01 0.51581992523E+01 0.60463398162E+01
 0.70920160153E+01 0.82420438156E+01 0.94157386764E+01 0.90508466859E+01 0.10091898608E+02
 0.10950391380E+02 0.11501965443E+02 0.11752457334E+02 0.11832139965E+02 0.11919836986E+02
 0.12139944634E+02 0.12488620944E+02 0.12829546842E+02 0.12959477060E+02 0.12706386106E+02
 0.12011069135E+02 0.10957446365E+02 0.97273997968E+01 0.84553743432E+01 0.72374312763E+01
 0.61479572667E+01 0.52319556823E+01 0.45061284625E+01 0.39664949647E+01 0.35981485608E+01
 0.33838748790E+01 0.33103892394E+01 0.33718323263E+01 0.35704353914E+01 0.39148048645E+01
 0.44163751356E+01 0.50837884140E+01 0.59148564307E+01 0.68877879340E+01 0.79559842346E+01
 0.76121920518E+01 0.86253398507E+01 0.96080197234E+01 0.10489773048E+02 0.11182265379E+02
 0.11673886350E+02 0.12034050195E+02 0.12354112198E+02 0.12677286956E+02 0.12959485705E+02
 0.13083682866E+02 0.12918363385E+02 0.12387329694E+02 0.11515796108E+02 0.10424192511E+02
 0.92282521444E+01 0.80222860388E+01 0.68890003916E+01 0.58885788179E+01 0.50545761906E+01
 0.43968471071E+01 0.39088939468E+01 0.35762875257E+01 0.33838748790E+01 0.33207087071E+01
 0.33823717986E+01 0.35710137174E+01 0.38938012724E+01 0.43600238406E+01 0.49763211145E+01
 0.57399097058E+01 0.66316076213E+01 0.63352950391E+01 0.72258570721E+01 0.81566211433E+01
 0.90777465279E+01 0.99456581700E+01 0.10714178904E+02 0.11356340288E+02 0.11890984278E+02
 0.12344073928E+02 0.12706390820E+02 0.12918373591E+02 0.12892277732E+02 0.12558625710E+02
 0.11910712054E+02 0.11016237753E+02 0.99587953886E+01 0.88242167892E+01 0.76973373730E+01
 0.66493810173E+01 0.57299092468E+01 0.49648576454E+01 0.43602056287E+01 0.39088939468E+01
 0.35981485608E+01 0.34153027437E+01 0.33514349761E+01 0.34029456360E+01 0.35715264018E+01
 0.38629088330E+01 0.42844025105E+01 0.48409494817E+01 0.55298223275E+01 0.52943033786E+01
 0.60124384106E+01 0.68136136052E+01 0.76631461169E+01 0.85226614984E+01 0.93584047136E+01
 0.10146041665E+02 0.10862286377E+02 0.11489830074E+02 0.12011064015E+02 0.12387333310E+02
 0.12558636030E+02 0.12466819034E+02 0.12088678899E+02 0.11448094737E+02 0.10594736530E+02
 0.95990783102E+01 0.85408691291E+01 0.74962954443E+01 0.65275134542E+01 0.56765887920E+01
 0.49648576454E+01 0.43968471071E+01 0.39664949647E+01 0.36633514878E+01 0.34773021093E+01
 0.34013198546E+01 0.34324759263E+01 0.35717925758E+01 0.38233738011E+01 0.41927062178E+01
 0.46836745776E+01 0.45118570957E+01 0.50440472717E+01 0.56767795126E+01 0.63921057832E+01
 0.71643692818E+01 0.79647873806E+01 0.87667952422E+01 0.95482500283E+01 0.10287872790E+02
 0.10957442490E+02 0.11515788885E+02 0.11910717270E+02 0.12088689102E+02 0.12011500567E+02
 0.11668006063E+02 0.11078571167E+02 0.10291221779E+02 0.93723344826E+01 0.83951137474E+01
 0.74283492267E+01 0.65275134542E+01 0.57299092468E+01 0.50545761906E+01 0.45061284625E+01
 0.40804742796E+01 0.37701686512E+01 0.35680112627E+01 0.34687921108E+01 0.34699231394E+01
 0.35716125937E+01 0.37765949869E+01 0.40889736052E+01 0.39779686005E+01 0.43328779201E+01
 0.47894374545E+01 0.53420169359E+01 0.59782273661E+01 0.66800628801E+01 0.74269536474E+01
 0.81984199928E+01 0.89736751739E+01 0.97274059496E+01 0.10424190551E+02 0.11016233681E+02
 0.11448097867E+02 0.11668011934E+02 0.11641089788E+02 0.11358725253E+02 0.10841024637E+02
 0.10132737416E+02 0.92949972789E+01 0.83951137474E+01 0.74962954443E+01 0.66493810173E+01
 0.58885788179E+01 0.52319556823E+01 0.46854633667E+01 0.42480805585E+01 0.39159810716E+01
 0.36849731881E+01 0.35516234117E+01 0.35138071669E+01 0.35710946455E+01 0.37248957993E+01
 0.36704828469E+01 0.38642735791E+01 0.41542128154E+01 0.45408408862E+01 0.50211058788E+01
 0.55875525172E+01 0.62289883383E+01 0.69318431991E+01 0.76805382550E+01 0.84553829966E+01
 0.92282613689E+01 0.99587934619E+01 0.10594729910E+02 0.11078570128E+02 0.11358727641E+02
 0.11400875202E+02 0.11195391729E+02 0.10759242191E+02 0.10132737416E+02 0.93723344826E+01
 0.85408691291E+01 0.76973373730E+01 0.68890003916E+01 0.61479572667E+01 0.54923630026E+01
 0.49304921570E+01 0.44651587376E+01 0.40967573815E+01 0.38245912777E+01 0.36472446752E+01
 0.35629915567E+01 0.35706527977E+01 0.35703909531E+01 0.36158066029E+01 0.37527402901E+01
 0.39828166492E+01 0.43072527502E+01 0.47254563216E+01 0.52343248244E+01 0.58283912685E+01
 0.64999086945E+01 0.72374335108E+01 0.80222907319E+01 0.88242201914E+01 0.95990771710E+01
 0.10291217893E+02 0.10841021844E+02 0.11195391017E+02 0.11317836100E+02 0.11195391729E+02
 0.10841024637E+02 0.10291221779E+02 0.95990783102E+01 0.88242167892E+01 0.80222860388E+01
 0.72374312763E+01 0.64999072965E+01 0.58283858789E+01 0.52343144024E+01 0.47254436184E+01
 0.43072369804E+01 0.39827926961E+01 0.37527094899E+01 0.36157832928E+01 0.36704734168E+01
 0.35706714938E+01 0.35630422268E+01 0.36472997843E+01 0.38246233061E+01 0.40967658605E+01
 0.44651625181E+01 0.49305024395E+01 0.54923725621E+01 0.61479561767E+01 0.68889931499E+01
 0.76973365202E+01 0.85408762462E+01 0.93723387061E+01 0.10132733193E+02 0.10759236687E+02
 0.11195391017E+02 0.11400875202E+02 0.11358725253E+02 0.11078571167E+02 0.10594736530E+02
 0.99587953886E+01 0.92282521444E+01 0.84553743432E+01 0.76805424175E+01 0.69318493828E+01
 0.62289762437E+01 0.55875255561E+01 0.50210894623E+01 0.45408453463E+01 0.41542190132E+01
 0.38642646449E+01 0.39779854549E+01 0.37249228355E+01 0.35711357286E+01 0.35138542961E+01
 0.35516653639E+01 0.36850024336E+01 0.39159950386E+01 0.42480832486E+01 0.46854626399E+01
 0.52319545802E+01 0.58885747340E+01 0.66493755582E+01 0.74962955904E+01 0.83951195428E+01
 0.92949996348E+01 0.10132733193E+02 0.10841021844E+02 0.11358727641E+02 0.11641089788E+02
 0.11668006063E+02 0.11448094737E+02 0.11016237753E+02 0.10424192511E+02 0.97273997968E+01
 0.89736701735E+01 0.81984229606E+01 0.74269535526E+01 0.66800485078E+01 0.59782087173E+01
 0.53420125168E+01 0.47894489055E+01 0.43328934888E+01 0.45118985227E+01 0.40890209736E+01
 0.37766315420E+01 0.35716393646E+01 0.34699542043E+01 0.34688305708E+01 0.35680378249E+01
 0.37701663724E+01 0.40804561052E+01 0.45061210422E+01 0.50545822785E+01 0.57299095091E+01
 0.65275026200E+01 0.74283433761E+01 0.83951195428E+01 0.93723387061E+01 0.10291217893E+02
 0.11078570128E+02 0.11668011934E+02 0.12011500567E+02 0.12088678899E+02 0.11910712054E+02
 0.11515796108E+02 0.10957446365E+02 0.10287861604E+02 0.95482383544E+01 0.87668003725E+01
 0.79647997564E+01 0.71643665378E+01 0.63920870066E+01 0.56767681423E+01 0.50440635108E+01
 0.52943274418E+01 0.46837128722E+01 0.41927478129E+01 0.38234086063E+01 0.35718161658E+01
 0.34324918847E+01 0.34013298867E+01 0.34772991742E+01 0.36633337807E+01 0.39664775993E+01
 0.43968438473E+01 0.49648600216E+01 0.56765818679E+01 0.65275026200E+01 0.74962955904E+01
 0.85408762462E+01 0.95990771710E+01 0.10594729910E+02 0.11448097867E+02 0.12088689102E+02
 0.12466819034E+02 0.12558625710E+02 0.12387329694E+02 0.12011069135E+02 0.11489827688E+02
 0.10862274220E+02 0.10146038576E+02 0.93584180711E+01 0.85226729918E+01 0.76631405704E+01
 0.68136018542E+01 0.60124411346E+01 0.63352923432E+01 0.55298254321E+01 0.48409770873E+01
 0.42844478926E+01 0.38629381546E+01 0.35715198829E+01 0.34029226596E+01 0.33514215401E+01
 0.34152940211E+01 0.35981269824E+01 0.39088662608E+01 0.43601928992E+01 0.49648600216E+01
 0.57299095091E+01 0.66493755582E+01 0.76973365202E+01 0.88242201914E+01 0.99587934619E+01
 0.11016233681E+02 0.11910717270E+02 0.12558636030E+02 0.12892277732E+02 0.12918363385E+02
 0.12706386106E+02 0.12344079479E+02 0.11890988009E+02 0.11356335148E+02 0.10714173130E+02
 0.99456614485E+01 0.90777586146E+01 0.81566345501E+01 0.72258631240E+01 0.76121942396E+01
 0.66316025302E+01 0.57399125012E+01 0.49763393592E+01 0.43600418946E+01 0.38937951257E+01
 0.35709832162E+01 0.33823403798E+01 0.33206872216E+01 0.33838490688E+01 0.35762508182E+01
 0.39088662608E+01 0.43968438473E+01 0.50545822785E+01 0.58885747340E+01 0.68889931499E+01
 0.80222907319E+01 0.92282613689E+01 0.10424190551E+02 0.11515788885E+02 0.12387333310E+02
 0.12918373591E+02 0.13083682866E+02 0.12959477060E+02 0.12677286619E+02 0.12354122334E+02
 0.12034055030E+02 0.11673879349E+02 0.11182259482E+02 0.10489780862E+02 0.96080375406E+01
 0.86253541679E+01 0.90508614343E+01 0.79560025034E+01 0.68877899370E+01 0.59148398020E+01
 0.50837727278E+01 0.44163694404E+01 0.39147908240E+01 0.35703966292E+01 0.33717816337E+01
 0.33103494813E+01 0.33838490688E+01 0.35981269824E+01 0.39664775993E+01 0.45061210422E+01
 0.52319545802E+01 0.61479561767E+01 0.72374335108E+01 0.84553829966E+01 0.97274059496E+01
 0.10957442490E+02 0.12011064015E+02 0.12706390820E+02 0.12959485705E+02 0.12829546842E+02
 0.12488614225E+02 0.12139943423E+02 0.11919844942E+02 0.11832150240E+02 0.11752463721E+02
 0.11501966080E+02 0.10950388420E+02 0.10091900711E+02 0.10505060509E+02 0.94157572426E+01
 0.82420574884E+01 0.70920057479E+01 0.60463138158E+01 0.51581795407E+01 0.44510034530E+01
 0.39254215408E+01 0.35701984124E+01 0.33717816337E+01 0.33206872216E+01 0.34152940211E+01
 0.36633337807E+01 0.40804561052E+01 0.46854626399E+01 0.54923725621E+01 0.64999086945E+01
 0.76805382550E+01 0.89736751739E+01 0.10287872790E+02 0.11489830074E+02 0.12344073928E+02
 0.12677286956E+02 0.12488620944E+02 0.11956782359E+02 0.11370381911E+02 0.11003521881E+02
 0.10990076899E+02 0.11260571306E+02 0.11578459773E+02 0.11658758351E+02 0.11306480189E+02
 0.11556723296E+02 0.10831939098E+02 0.97049606572E+01 0.84570886135E+01 0.72340854834E+01
 0.61278107396E+01 0.51962641536E+01 0.44627414914E+01 0.39254215408E+01 0.35703966292E+01
 0.33823403798E+01 0.33514215401E+01 0.34772991742E+01 0.37701663724E+01 0.42480832486E+01
 0.49305024395E+01 0.58283912685E+01 0.69318431991E+01 0.81984199928E+01 0.95482500283E+01
 0.10862286377E+02 0.11890984278E+02 0.12354112198E+02 0.12139944634E+02 0.11370390326E+02
 0.10373827592E+02 0.95657376346E+01 0.92767815766E+01 0.96048603791E+01 0.10368642215E+02
 0.11191298662E+02 0.11671871210E+02 0.11587777255E+02 0.11715386488E+02 0.11065788904E+02
 0.99054693904E+01 0.85905243458E+01 0.73070206507E+01 0.61554869147E+01 0.51962641536E+01
 0.44510034530E+01 0.39147908240E+01 0.35709832162E+01 0.34029226596E+01 0.34013298867E+01
 0.35680378249E+01 0.39159950386E+01 0.44651625181E+01 0.52343248244E+01 0.62289883383E+01
 0.74269536474E+01 0.87667952422E+01 0.10146041665E+02 0.11356340288E+02 0.12034050195E+02
 0.11919836986E+02 0.11003523829E+02 0.95657449197E+01 0.81047875144E+01 0.71581335168E+01
 0.70830288003E+01 0.78985905436E+01 0.92744363146E+01 0.10675453613E+02 0.10143007659E+02
 0.11466464502E+02 0.11803575663E+02 0.11205315835E+02 0.10008113694E+02 0.86358425681E+01
 0.73070206507E+01 0.61278107396E+01 0.51581795407E+01 0.44163694404E+01 0.38937951257E+01
 0.35715198829E+01 0.34324918847E+01 0.34688305708E+01 0.36850024336E+01 0.40967658605E+01
 0.47254563216E+01 0.55875525172E+01 0.66800628801E+01 0.79647873806E+01 0.93584047136E+01
 0.10714178904E+02 0.11673886350E+02 0.11832139965E+02 0.10990063260E+02 0.92767821956E+01
 0.71581402466E+01 0.53061298429E+01 0.43566726111E+01 0.46503250727E+01 0.60824374840E+01
 0.81453999613E+01 0.71659804828E+01 0.97084756513E+01 0.11365746429E+02 0.11841703719E+02
 0.11251697162E+02 0.10008113694E+02 0.85905243458E+01 0.72340854834E+01 0.60463138158E+01
 0.50837727278E+01 0.43600418946E+01 0.38629381546E+01 0.35718161658E+01 0.34699542043E+01
 0.35516653639E+01 0.38246233061E+01 0.43072527502E+01 0.50211058788E+01 0.59782273661E+01
 0.71643692818E+01 0.85226614984E+01 0.99456581700E+01 0.11182265379E+02 0.11752457334E+02
 0.11260551943E+02 0.96048503883E+01 0.70830327523E+01 0.43566750175E+01 0.22552184290E+01
 0.14718245452E+01 0.22791440366E+01 0.44093660763E+01 0.31268515407E+01 0.65016215202E+01
 0.94652945972E+01 0.11327272786E+02 0.11841703719E+02 0.11205315835E+02 0.99054693904E+01
 0.84570886135E+01 0.70920057479E+01 0.59148398020E+01 0.49763393592E+01 0.42844478926E+01
 0.38234086063E+01 0.35716393646E+01 0.35138542961E+01 0.36472997843E+01 0.39828166492E+01
 0.45408408862E+01 0.53420169359E+01 0.63921057832E+01 0.76631461169E+01 0.90777465279E+01
 0.10489773048E+02 0.11501965443E+02 0.11578450995E+02 0.10368628723E+02 0.78985867781E+01
 0.46503249738E+01 0.14718178229E+01 -.68763614005E+00 -.11328787005E+01 0.29030026291E+00
 -.10330233637E+01 0.24315625238E+01 0.62667224419E+01 0.94652945972E+01 0.11365746429E+02
 0.11803575663E+02 0.11065788904E+02 0.97049606572E+01 0.82420574884E+01 0.68877899370E+01
 0.57399125012E+01 0.48409770873E+01 0.41927478129E+01 0.37766315420E+01 0.35711357286E+01
 0.35630422268E+01 0.37527402901E+01 0.41542128154E+01 0.47894374545E+01 0.56767795126E+01
 0.68136136052E+01 0.81566211433E+01 0.96080197234E+01 0.10950391380E+02 0.11658764755E+02
 0.11191287296E+02 0.92744239303E+01 0.60824402150E+01 0.22791427005E+01 -.11328939653E+01
 -.31400875346E+01 -.31054184482E+01 -.41678676786E+01 -.14969169619E+01 0.24315625238E+01
 0.65016215202E+01 0.97084756513E+01 0.11466464502E+02 0.11715386488E+02 0.10831939098E+02
 0.94157572426E+01 0.79560025034E+01 0.66316025302E+01 0.55298254321E+01 0.46837128722E+01
 0.40890209736E+01 0.37249228355E+01 0.35706714938E+01 0.36158066029E+01 0.38642735791E+01
 0.43328779201E+01 0.50440472717E+01 0.60124384106E+01 0.72258570721E+01 0.86253398507E+01
 0.10091898608E+02 0.11306490003E+02 0.11671866610E+02 0.10675436873E+02 0.81454028947E+01
 0.44093850604E+01 0.29029596888E+00 -.31054443086E+01 -.47657130410E+01 -.41677526729E+01
 -.33138000823E+01 -.55577598402E+00 0.32686559963E+01 0.70836700464E+01 0.99636695294E+01
 0.11408154418E+02 0.11421578657E+02 0.10411495501E+02 0.89710953672E+01 0.75301234229E+01
 0.62418037652E+01 0.51842518670E+01 0.43828695510E+01 0.38284954830E+01 0.34983395521E+01
 0.33719082884E+01 0.34400728463E+01 0.37083107512E+01 0.41948065804E+01 0.49229069195E+01
 0.59068226672E+01 0.71314259861E+01 0.85324440263E+01 0.99832885403E+01 0.11138681598E+02
 0.11407922497E+02 0.10319110372E+02 0.77593966317E+01 0.41106310309E+01 0.21609348064E+00
 -.28521400945E+01 -.33138283928E+01 -.41678710735E+01 -.28522034874E+01 0.21613316664E+00
 0.41106710937E+01 0.77593572587E+01 0.10319056521E+02 0.11407952023E+02 0.11138764648E+02
 0.99833100884E+01 0.85323801921E+01 0.71313786889E+01 0.59068602501E+01 0.49229613223E+01
 0.41947874354E+01 0.37082520925E+01 0.34400751059E+01 0.33719695912E+01 0.34983553156E+01
 0.38284326659E+01 0.43828284394E+01 0.51843060565E+01 0.62418780434E+01 0.75301139996E+01
 0.89710361245E+01 0.10411494298E+02 0.11421631002E+02 0.11408149932E+02 0.99635851414E+01
 0.70836257155E+01 0.32687283806E+01 -.55568619755E+00 -.45898818069E+00 -.27471653311E+01
 -.31053234817E+01 -.14305297132E+01 0.17385207321E+01 0.54446503871E+01 0.86820889661E+01
 0.10736120635E+02 0.11363303150E+02 0.10779216291E+02 0.94969492855E+01 0.80595608762E+01
 0.67142923858E+01 0.55664172779E+01 0.46649332926E+01 0.40150682079E+01 0.35986861268E+01
 0.33929060102E+01 0.33824324200E+01 0.35655552455E+01 0.39547349659E+01 0.45720210783E+01
 0.54385995815E+01 0.65577883351E+01 0.78943223300E+01 0.93586747687E+01 0.10768560495E+02
 0.11642088646E+02 0.11416873047E+02 0.97644357939E+01 0.67821825536E+01 0.30566656061E+01
 0.35132268389E+01 0.49476801379E+00 -.12332260539E+01 -.11329266721E+01 0.74506443128E+00
 0.37848564390E+01 0.70596955752E+01 0.96848137426E+01 0.11106028927E+02 0.11223175146E+02
 0.10337345053E+02 0.89728434271E+01 0.75695306803E+01 0.62945177879E+01 0.52335198378E+01
 0.44199370763E+01 0.38500995437E+01 0.35033350498E+01 0.33582931076E+01 0.34029680556E+01
 0.36391772769E+01 0.40820828186E+01 0.47544831841E+01 0.56751223122E+01 0.68410693451E+01
 0.82081811237E+01 0.96786954450E+01 0.11046353590E+02 0.11814708224E+02 0.11474490870E+02
 0.97811818896E+01 0.69167926452E+01 0.74726890311E+01 0.45714370427E+01 0.21664301343E+01
 0.10119388629E+01 0.14718418604E+01 0.33686449245E+01 0.60616999273E+01 0.87114790709E+01
 0.10594626480E+02 0.11331352238E+02 0.10953987403E+02 0.98226489415E+01 0.84311611674E+01
 0.70795831739E+01 0.58874866611E+01 0.49200258326E+01 0.41961414942E+01 0.37052082169E+01
 0.34253612557E+01 0.33373016011E+01 0.34324732031E+01 0.37161177841E+01 0.42054138860E+01
 0.49226964049E+01 0.58833109986E+01 0.70783511036E+01 0.84567762894E+01 0.99161510315E+01
 0.11238793632E+02 0.11946755039E+02 0.11597282572E+02 0.10025629502E+02 0.10459153766E+02
 0.83606920382E+01 0.60711367678E+01 0.43157935534E+01 0.36773652220E+01 0.43566374593E+01
 0.60894943375E+01 0.82634482032E+01 0.10170110312E+02 0.11268195332E+02 0.11347740680E+02
 0.10550464434E+02 0.92635630411E+01 0.78901343489E+01 0.66070106941E+01 0.55072288609E+01
 0.46363205898E+01 0.40007915546E+01 0.35848978651E+01 0.33668575032E+01 0.33301807799E+01
 0.34698121449E+01 0.37936491700E+01 0.43197380795E+01 0.50690674260E+01 0.60532984838E+01
 0.72581107220E+01 0.86275446916E+01 0.10058269603E+02 0.11338922919E+02 0.12034579223E+02
 0.11773767656E+02 0.11965861923E+02 0.11000320762E+02 0.94355434675E+01 0.77897666066E+01
 0.66450245780E+01 0.64125342899E+01 0.71580650359E+01 0.85766565996E+01 0.10128324989E+02
 0.11261804302E+02 0.11618811701E+02 0.11138858871E+02 0.10040818130E+02 0.86978824080E+01
 0.73690370082E+01 0.61685917507E+01 0.51667499769E+01 0.43914615573E+01 0.38395149718E+01
 0.34923354936E+01 0.33294344769E+01 0.33372648760E+01 0.35137553022E+01 0.38687215563E+01
 0.44202521660E+01 0.51871293412E+01 0.61769228520E+01 0.73708388563E+01 0.87107466857E+01
 0.10096425390E+02 0.11339252276E+02 0.12063180424E+02 0.12009386720E+02 0.12118273954E+02
 0.11542385572E+02 0.10523425005E+02 0.94826725697E+01 0.88527053396E+01 0.88908532889E+01
 0.95657075119E+01 0.10574778185E+02 0.11481194262E+02 0.11897409727E+02 0.11631071444E+02
 0.10739206773E+02 0.94818389940E+01 0.81512958695E+01 0.68881368721E+01 0.57802077908E+01
 0.48770253374E+01 0.41924694453E+01 0.37167452898E+01 0.34301890329E+01 0.33142113309E+01
 0.33582598558E+01 0.35628396776E+01 0.39387294872E+01 0.45029004113E+01 0.52712607705E+01
 0.62476371712E+01 0.74102576371E+01 0.87013326307E+01 0.10026912863E+02 0.11231974794E+02
 0.11012486415E+02 0.11849025000E+02 0.12170880932E+02 0.11974436755E+02 0.11455420760E+02
 0.10928824856E+02 0.10687123305E+02 0.10863609598E+02 0.11370294303E+02 0.11941351603E+02
 0.12256447668E+02 0.12080567472E+02 0.11357720555E+02 0.10224994235E+02 0.89334047634E+01
 0.76484232645E+01 0.64666870561E+01 0.54553622291E+01 0.46469554012E+01 0.40449923799E+01
 0.36357514299E+01 0.33999998520E+01 0.33216447515E+01 0.33928359755E+01 0.36156985658E+01
 0.40009590754E+01 0.45638681636E+01 0.53173096590E+01 0.62617601910E+01 0.73738563994E+01
 0.85986894416E+01 0.98514389711E+01 0.95775548553E+01 0.10682345935E+02 0.11563958385E+02
 0.12073513472E+02 0.12205581278E+02 0.12099889829E+02 0.11968545443E+02 0.11985514451E+02
 0.12195237640E+02 0.12488601799E+02 0.12657225409E+02 0.12495070210E+02 0.11895916074E+02
 0.10903555785E+02 0.96929510367E+01 0.84296074675E+01 0.72129249799E+01 0.61215510346E+01
 0.52051157959E+01 0.44832106374E+01 0.39527402858E+01 0.35985232647E+01 0.34027773671E+01
 0.33518522513E+01 0.34400297432E+01 0.36703643157E+01 0.40528448031E+01 0.46004184885E+01
 0.53228350112E+01 0.62180601615E+01 0.72629322548E+01 0.84074933363E+01 0.81368065567E+01
 0.92171538905E+01 0.10252756107E+02 0.11150688419E+02 0.11799618786E+02 0.12183397908E+02
 0.12385237227E+02 0.12527789758E+02 0.12693866391E+02 0.12872416915E+02 0.12959434411E+02
 0.12811597119E+02 0.12322566595E+02 0.11483380235E+02 0.10398315931E+02 0.92052323757E+01
 0.79997259550E+01 0.68656111930E+01 0.58660570142E+01 0.50372272102E+01 0.43901276134E+01
 0.39181507835E+01 0.36062171184E+01 0.34385520610E+01 0.34039494117E+01 0.34983315359E+01
 0.37248446896E+01 0.40920364167E+01 0.46104265554E+01 0.52871418880E+01 0.61185925496E+01
 0.70830511638E+01 0.68428954769E+01 0.77995012967E+01 0.87865075891E+01 0.97464331528E+01
 0.10624912291E+02 0.11354247910E+02 0.11905138880E+02 0.12310776251E+02 0.12623204834E+02
 0.12862094060E+02 0.12988369902E+02 0.12918381870E+02 0.12569839011E+02 0.11913665640E+02
 0.11003757118E+02 0.99371059899E+01 0.87976546877E+01 0.76687287976E+01 0.66223127333E+01
 0.57094037629E+01 0.49567855040E+01 0.43703195306E+01 0.39421831082E+01 0.36586905534E+01
 0.35064986293E+01 0.34765179684E+01 0.35656416861E+01 0.37766188389E+01 0.41164194579E+01
 0.45932241313E+01 0.52118957800E+01 0.59681484553E+01 0.57741466800E+01 0.65543918176E+01
 0.74115175550E+01 0.83045837704E+01 0.91884985836E+01 0.10023189639E+02 0.10776541562E+02
 0.11417713253E+02 0.11941088077E+02 0.12348688843E+02 0.12621312100E+02 0.12710664398E+02
 0.12558624613E+02 0.12132237670E+02 0.11452286773E+02 0.10573871426E+02 0.95638067596E+01
 0.84992051337E+01 0.74551982669E+01 0.64938518756E+01 0.56572476663E+01 0.49662775500E+01
 0.44244910458E+01 0.40245891496E+01 0.37549892362E+01 0.36048558898E+01 0.35670602840E+01
 0.36392310131E+01 0.38234105921E+01 0.41247673825E+01 0.45493431484E+01 0.51004881836E+01
 0.49585693059E+01 0.55461725150E+01 0.62310893333E+01 0.69903506168E+01 0.77926032182E+01
 0.86034259940E+01 0.93916574555E+01 0.10132884824E+02 0.10806808559E+02 0.11388866549E+02
 0.11849494419E+02 0.12148904015E+02 0.12240331418E+02 0.12088700998E+02 0.11687290340E+02
 0.11056630709E+02 0.10242990174E+02 0.93105994392E+01 0.83308426379E+01 0.73711906592E+01
 0.64860999232E+01 0.57118301194E+01 0.50661212667E+01 0.45520275111E+01 0.41638402053E+01
 0.38927527783E+01 0.37307652359E+01 0.36726062371E+01 0.37163014819E+01 0.38630351884E+01
 0.41164190256E+01 0.44808314088E+01 0.43911482783E+01 0.47928738507E+01 0.52948244176E+01
 0.58877860232E+01 0.65547849929E+01 0.72728584327E+01 0.80168913570E+01 0.87632300311E+01
 0.94903305462E+01 0.10175269662E+02 0.10788091096E+02 0.11288545066E+02 0.11629279904E+02
 0.11765662594E+02 0.11668017389E+02 0.11330704137E+02 0.10774778803E+02 0.10044436352E+02
 0.91993222635E+01 0.83048434625E+01 0.74222924240E+01 0.66007611834E+01 0.58727991057E+01
 0.52546868480E+01 0.47503727648E+01 0.43568153798E+01 0.40685669990E+01 0.38805870973E+01
 0.37894625830E+01 0.37937338508E+01 0.38938808331E+01 0.40920497878E+01 0.40528683229E+01
 0.42845040769E+01 0.46112403626E+01 0.50316248458E+01 0.55394126969E+01 0.61231114289E+01
 0.67673041895E+01 0.74548395392E+01 0.81681019888E+01 0.88876940379E+01 0.95884616239E+01
 0.10235304675E+02 0.10782635456E+02 0.11179876029E+02 0.11381692797E+02 0.11358726939E+02
 0.11104670142E+02 0.10637940429E+02 0.99984626723E+01 0.92408532510E+01 0.84253910106E+01
 0.76085717853E+01 0.68355748788E+01 0.61366397352E+01 0.55278636353E+01 0.50151197500E+01
 0.45988055525E+01 0.42774573425E+01 0.40494960055E+01 0.39136158292E+01 0.38688495744E+01
 0.39149512139E+01 0.39255303868E+01 0.40009948775E+01 0.41660513756E+01 0.44217196125E+01
 0.47675314820E+01 0.52000981718E+01 0.57128069543E+01 0.62966740676E+01 0.69412302710E+01
 0.76338685710E+01 0.83568923794E+01 0.90833148024E+01 0.97741364296E+01 0.10379919889E+02
 0.10847491161E+02 0.11129796680E+02 0.11195405536E+02 0.11034753494E+02 0.10661947765E+02
 0.10112242897E+02 0.94357994077E+01 0.86888232764E+01 0.79241239383E+01 0.71838437378E+01
 0.64965301920E+01 0.58787366827E+01 0.53391954560E+01 0.48828512207E+01 0.45130683528E+01
 0.42320694048E+01 0.40407312680E+01 0.39387649713E+01 0.40009622959E+01 0.39255772585E+01
 0.39388169499E+01 0.40407133212E+01 0.42320208695E+01 0.45130756324E+01 0.48829098264E+01
 0.53392245486E+01 0.58787119316E+01 0.64965124277E+01 0.71838688966E+01 0.79241480022E+01
 0.86888052528E+01 0.94357704749E+01 0.10112249505E+02 0.10661974715E+02 0.11034753415E+02
 0.11195376442E+02 0.11129781068E+02 0.10847507508E+02 0.10379938015E+02 0.97741283760E+01
 0.90832981901E+01 0.83569010612E+01 0.76338951745E+01 0.69412298347E+01 0.62966323874E+01
 0.57127726080E+01 0.52001151405E+01 0.47675637669E+01 0.44216957575E+01 0.41659786990E+01
 0.42845410936E+01 0.40528506084E+01 0.39148889985E+01 0.38688107743E+01 0.39136317366E+01
 0.40495284153E+01 0.42774601890E+01 0.45987866858E+01 0.50151207799E+01 0.55278929051E+01
 0.61366579490E+01 0.68355565517E+01 0.76085484677E+01 0.84254029796E+01 0.92408824372E+01
 0.99984599317E+01 0.10637907607E+02 0.11104657389E+02 0.11358745169E+02 0.11381693445E+02
 0.11179839271E+02 0.10782613265E+02 0.10235335703E+02 0.95885015032E+01 0.88876862816E+01
 0.81680713559E+01 0.74548463698E+01 0.67673369821E+01 0.61231026832E+01 0.55393532791E+01