<?xml version="1.0" encoding="ISO-8859-1"?>
<modeling>
 <generator>
  <i name="program" type="string">vasp </i>
  <i name="version" type="string">5.4.4.18Apr17-6-g9f103f2a35  </i>
  <i name="subversion" type="string">(build Dec 09 2018 21:25:21) complex            parallel </i>
  <i name="platform" type="string">IFC18.0.1.163_CrayMPICH7.7.0_MKL18.0.1.163 </i>
  <i name="date" type="string">2019 03 20 </i>
  <i name="time" type="string">09:29:19 </i>
 </generator>
 <incar>
  <i type="string" name="PREC">normal</i>
  <i type="int" name="IBRION">     2</i>
  <i name="EDIFF">      0.00040000</i>
  <i name="EDIFFG">     -0.01000000</i>
  <i type="int" name="NSW">    15</i>
  <i type="int" name="ISIF">     3</i>
  <i name="ENCUT">    300.00000000</i>
  <i type="int" name="NBANDS">     8</i>
  <i type="logical" name="LREAL"> F  </i>
  <i type="int" name="ISMEAR">     0</i>
  <i name="SIGMA">      0.20000000</i>
  <v type="int" name="KPOINT_BSE">    -1     0     0     0</v>
 </incar>
 <structure name="primitive_cell" >
  <crystal>
   <varray name="basis" >
    <v>      -2.45000000       2.45000000       1.27400000 </v>
    <v>       2.45000000      -2.45000000       1.27400000 </v>
    <v>       2.45000000       2.45000000      -1.27400000 </v>
   </varray>
   <i name="volume">     30.58874000 </i>
   <varray name="rec_basis" >
    <v>       0.00000000       0.20408163       0.39246468 </v>
    <v>       0.20408163       0.00000000       0.39246468 </v>
    <v>       0.20408163       0.20408163      -0.00000000 </v>
   </varray>
  </crystal>
  <varray name="positions" >
   <v>       0.25000000      -0.25000000      -0.50000000 </v>
   <v>       0.00000000       0.00000000       0.00000000 </v>
  </varray>
 </structure>
 <varray name="primitive_index" >
  <v type="int" >        1 </v>
  <v type="int" >        2 </v>
 </varray>
 <kpoints>
  <generation param="Monkhorst-Pack">
   <v type="int" name="divisions">       6        6        6 </v>
   <v name="usershift">      0.00000000       0.00000000       0.00000000 </v>
   <v name="genvec1">      0.16666667      -0.00000000       0.00000000 </v>
   <v name="genvec2">     -0.00000000       0.16666667       0.00000000 </v>
   <v name="genvec3">     -0.00000000      -0.00000000       0.16666667 </v>
   <v name="shift">      0.50000000       0.50000000       0.50000000 </v>
  </generation>
  <varray name="kpointlist" >
   <v>       0.08333333       0.08333333       0.08333333 </v>
   <v>       0.25000000       0.08333333       0.08333333 </v>
   <v>       0.41666667       0.08333333       0.08333333 </v>
   <v>      -0.08333333       0.08333333       0.08333333 </v>
   <v>       0.25000000       0.25000000       0.08333333 </v>
   <v>       0.41666667       0.25000000       0.08333333 </v>
   <v>      -0.41666667       0.25000000       0.08333333 </v>
   <v>      -0.25000000       0.25000000       0.08333333 </v>
   <v>      -0.08333333       0.25000000       0.08333333 </v>
   <v>       0.41666667       0.41666667       0.08333333 </v>
   <v>      -0.41666667       0.41666667       0.08333333 </v>
   <v>      -0.25000000       0.41666667       0.08333333 </v>
   <v>      -0.08333333       0.41666667       0.08333333 </v>
   <v>      -0.41666667      -0.41666667       0.08333333 </v>
   <v>      -0.25000000      -0.41666667       0.08333333 </v>
   <v>      -0.08333333      -0.41666667       0.08333333 </v>
   <v>      -0.25000000      -0.25000000       0.08333333 </v>
   <v>      -0.08333333      -0.25000000       0.08333333 </v>
   <v>      -0.08333333      -0.08333333       0.08333333 </v>
   <v>       0.25000000       0.25000000       0.25000000 </v>
   <v>      -0.25000000       0.25000000       0.25000000 </v>
   <v>      -0.41666667       0.41666667       0.25000000 </v>
   <v>      -0.25000000       0.41666667       0.25000000 </v>
   <v>      -0.41666667      -0.41666667       0.25000000 </v>
   <v>      -0.25000000      -0.41666667       0.25000000 </v>
   <v>      -0.25000000      -0.25000000       0.25000000 </v>
   <v>      -0.41666667       0.41666667       0.41666667 </v>
   <v>      -0.41666667      -0.41666667       0.41666667 </v>
  </varray>
  <varray name="weights" >
   <v>       0.03703704 </v>
   <v>       0.07407407 </v>
   <v>       0.03703704 </v>
   <v>       0.01851852 </v>
   <v>       0.03703704 </v>
   <v>       0.07407407 </v>
   <v>       0.03703704 </v>
   <v>       0.03703704 </v>
   <v>       0.03703704 </v>
   <v>       0.01851852 </v>
   <v>       0.03703704 </v>
   <v>       0.07407407 </v>
   <v>       0.03703704 </v>
   <v>       0.03703704 </v>
   <v>       0.07407407 </v>
   <v>       0.03703704 </v>
   <v>       0.03703704 </v>
   <v>       0.03703704 </v>
   <v>       0.00925926 </v>
   <v>       0.00925926 </v>
   <v>       0.01851852 </v>
   <v>       0.03703704 </v>
   <v>       0.03703704 </v>
   <v>       0.03703704 </v>
   <v>       0.03703704 </v>
   <v>       0.00925926 </v>
   <v>       0.01851852 </v>
   <v>       0.00925926 </v>
  </varray>
 </kpoints>
 <parameters>
  <separator name="general" >
   <i type="string" name="SYSTEM">unknown system</i>
   <i type="logical" name="LCOMPAT"> F  </i>
  </separator>
  <separator name="electronic" >
   <i type="string" name="PREC">normal</i>
   <i name="ENMAX">    300.00000000</i>
   <i name="ENAUG">    322.06900000</i>
   <i name="EDIFF">      0.00040000</i>
   <i type="int" name="IALGO">    38</i>
   <i type="int" name="IWAVPR">    11</i>
   <i type="int" name="NBANDS">     8</i>
   <i name="NELECT">      8.00000000</i>
   <i type="int" name="TURBO">     0</i>
   <i type="int" name="IRESTART">     0</i>
   <i type="int" name="NREBOOT">     0</i>
   <i type="int" name="NMIN">     0</i>
   <i name="EREF">      0.00000000</i>
   <separator name="electronic smearing" >
    <i type="int" name="ISMEAR">     0</i>
    <i name="SIGMA">      0.20000000</i>
    <i name="KSPACING">      0.50000000</i>
    <i type="logical" name="KGAMMA"> T  </i>
   </separator>
   <separator name="electronic projectors" >
    <i type="logical" name="LREAL"> F  </i>
    <v name="ROPT">      0.00000000</v>
    <i type="int" name="LMAXPAW">  -100</i>
    <i type="int" name="LMAXMIX">     2</i>
    <i type="logical" name="NLSPLINE"> F  </i>
   </separator>
   <separator name="electronic startup" >
    <i type="int" name="ISTART">     0</i>
    <i type="int" name="ICHARG">     2</i>
    <i type="int" name="INIWAV">     1</i>
   </separator>
   <separator name="electronic spin" >
    <i type="int" name="ISPIN">     1</i>
    <i type="logical" name="LNONCOLLINEAR"> F  </i>
    <v name="MAGMOM">      1.00000000      1.00000000</v>
    <i name="NUPDOWN">     -1.00000000</i>
    <i type="logical" name="LSORBIT"> F  </i>
    <v name="SAXIS">      0.00000000      0.00000000      1.00000000</v>
    <i type="logical" name="LSPIRAL"> F  </i>
    <v name="QSPIRAL">      0.00000000      0.00000000      0.00000000</v>
    <i type="logical" name="LZEROZ"> F  </i>
   </separator>
   <separator name="electronic exchange-correlation" >
    <i type="logical" name="LASPH"> F  </i>
    <i type="logical" name="LMETAGGA"> F  </i>
   </separator>
   <separator name="electronic convergence" >
    <i type="int" name="NELM">    60</i>
    <i type="int" name="NELMDL">    -5</i>
    <i type="int" name="NELMIN">     2</i>
    <i name="ENINI">    300.00000000</i>
    <separator name="electronic convergence detail" >
     <i type="logical" name="LDIAG"> T  </i>
     <i type="logical" name="LSUBROT"> F  </i>
     <i name="WEIMIN">      0.00100000</i>
     <i name="EBREAK">      0.00001250</i>
     <i name="DEPER">      0.30000000</i>
     <i type="int" name="NRMM">     4</i>
     <i name="TIME">      0.40000000</i>
    </separator>
   </separator>
   <separator name="electronic mixer" >
    <i name="AMIX">      0.40000000</i>
    <i name="BMIX">      1.00000000</i>
    <i name="AMIN">      0.10000000</i>
    <i name="AMIX_MAG">      1.60000000</i>
    <i name="BMIX_MAG">      1.00000000</i>
    <separator name="electronic mixer details" >
     <i type="int" name="IMIX">     4</i>
     <i type="logical" name="MIXFIRST"> F  </i>
     <i type="int" name="MAXMIX">   -45</i>
     <i name="WC">    100.00000000</i>
     <i type="int" name="INIMIX">     1</i>
     <i type="int" name="MIXPRE">     1</i>
     <i type="int" name="MREMOVE">     5</i>
    </separator>
   </separator>
   <separator name="electronic dipolcorrection" >
    <i type="logical" name="LDIPOL"> F  </i>
    <i type="logical" name="LMONO"> F  </i>
    <i type="int" name="IDIPOL">     0</i>
    <i name="EPSILON">      1.00000000</i>
    <v name="DIPOL">   -100.00000000   -100.00000000   -100.00000000</v>
    <i name="EFIELD">      0.00000000</i>
   </separator>
  </separator>
  <separator name="grids" >
   <i type="int" name="NGX">    16</i>
   <i type="int" name="NGY">    16</i>
   <i type="int" name="NGZ">    16</i>
   <i type="int" name="NGXF">    32</i>
   <i type="int" name="NGYF">    32</i>
   <i type="int" name="NGZF">    32</i>
   <i type="logical" name="ADDGRID"> F  </i>
  </separator>
  <separator name="ionic" >
   <i type="int" name="NSW">    15</i>
   <i type="int" name="IBRION">     2</i>
   <i type="int" name="MDALGO">     0</i>
   <i type="int" name="ISIF">     3</i>
   <i name="PSTRESS">      0.00000000</i>
   <i name="EDIFFG">     -0.01000000</i>
   <i type="int" name="NFREE">     1</i>
   <i name="POTIM">      0.50000000</i>
   <i name="SMASS">     -3.00000000</i>
   <i name="SCALEE">      1.00000000</i>
  </separator>
  <separator name="ionic md" >
   <i name="TEBEG">      0.00010000</i>
   <i name="TEEND">      0.00010000</i>
   <i type="int" name="NBLOCK">     1</i>
   <i type="int" name="KBLOCK">    15</i>
   <i type="int" name="NPACO">   256</i>
   <i name="APACO">     16.00000000</i>
  </separator>
  <separator name="symmetry" >
   <i type="int" name="ISYM">     2</i>
   <i name="SYMPREC">      0.00001000</i>
  </separator>
  <separator name="dos" >
   <i type="int" name="LORBIT">     0</i>
   <v name="RWIGS">     -1.00000000</v>
   <i type="int" name="NEDOS">   301</i>
   <i name="EMIN">     10.00000000</i>
   <i name="EMAX">    -10.00000000</i>
   <i name="EFERMI">      0.00000000</i>
  </separator>
  <separator name="writing" >
   <i type="int" name="NWRITE">     2</i>
   <i type="logical" name="LWAVE"> T  </i>
   <i type="logical" name="LDOWNSAMPLE"> F  </i>
   <i type="logical" name="LCHARG"> T  </i>
   <i type="logical" name="LPARD"> F  </i>
   <i type="logical" name="LVTOT"> F  </i>
   <i type="logical" name="LVHAR"> F  </i>
   <i type="logical" name="LELF"> F  </i>
   <i type="logical" name="LOPTICS"> F  </i>
   <v name="STM">      0.00000000      0.00000000      0.00000000      0.00000000      0.00000000      0.00000000      0.00000000</v>
  </separator>
  <separator name="performance" >
   <i type="int" name="NPAR">     8</i>
   <i type="int" name="NSIM">     4</i>
   <i type="int" name="NBLK">    -1</i>
   <i type="logical" name="LPLANE"> T  </i>
   <i type="logical" name="LSCALAPACK"> T  </i>
   <i type="logical" name="LSCAAWARE"> F  </i>
   <i type="logical" name="LSCALU"> F  </i>
   <i type="logical" name="LASYNC"> F  </i>
   <i type="logical" name="LORBITALREAL"> F  </i>
  </separator>
  <separator name="miscellaneous" >
   <i type="int" name="IDIOT">     3</i>
   <i type="int" name="ISPECIAL">     0</i>
   <i type="logical" name="LMUSIC"> F  </i>
   <v name="POMASS">     28.08500000</v>
   <v name="DARWINR">      0.00000000</v>
   <v name="DARWINV">      1.00000000</v>
   <i type="logical" name="LCORR"> T  </i>
  </separator>
  <i type="logical" name="GGA_COMPAT"> T  </i>
  <i type="logical" name="LBERRY"> F  </i>
  <i type="int" name="ICORELEVEL">     0</i>
  <i type="logical" name="LDAU"> F  </i>
  <i type="int" name="I_CONSTRAINED_M">     0</i>
  <separator name="electronic exchange-correlation" >
   <i type="string" name="GGA">--</i>
   <i type="int" name="VOSKOWN">     0</i>
   <i type="logical" name="LHFCALC"> F  </i>
   <i type="string" name="PRECFOCK"></i>
   <i type="logical" name="LSYMGRAD"> F  </i>
   <i type="logical" name="LHFONE"> F  </i>
   <i type="logical" name="LRHFCALC"> F  </i>
   <i type="logical" name="LTHOMAS"> F  </i>
   <i type="logical" name="LMODELHF"> F  </i>
   <i name="ENCUT4O">     -1.00000000</i>
   <i type="int" name="EXXOEP">     0</i>
   <i type="int" name="FOURORBIT">     0</i>
   <i name="AEXX">      0.00000000</i>
   <i name="HFALPHA">      0.00000000</i>
   <i name="MCALPHA">      0.00000000</i>
   <i name="ALDAX">      1.00000000</i>
   <i name="AGGAX">      1.00000000</i>
   <i name="ALDAC">      1.00000000</i>
   <i name="AGGAC">      1.00000000</i>
   <i type="int" name="NKREDX">     1</i>
   <i type="int" name="NKREDY">     1</i>
   <i type="int" name="NKREDZ">     1</i>
   <i type="logical" name="SHIFTRED"> F  </i>
   <i type="logical" name="ODDONLY"> F  </i>
   <i type="logical" name="EVENONLY"> F  </i>
   <i type="int" name="LMAXFOCK">     0</i>
   <i type="int" name="NMAXFOCKAE">     0</i>
   <i type="logical" name="LFOCKAEDFT"> F  </i>
   <i name="HFSCREEN">      0.00000000</i>
   <i name="HFSCREENC">      0.00000000</i>
   <i type="int" name="NBANDSGWLOW">     0</i>
  </separator>
  <separator name="vdW DFT" >
   <i type="logical" name="LUSE_VDW"> F  </i>
   <i name="Zab_VDW">     -0.84910000</i>
   <i name="PARAM1">      0.12340000</i>
   <i name="PARAM2">      1.00000000</i>
   <i name="PARAM3">      0.00000000</i>
  </separator>
  <separator name="model GW" >
   <i type="int" name="MODEL_GW">     0</i>
   <i name="MODEL_EPS0">      9.17662200</i>
   <i name="MODEL_ALPHA">      1.00000000</i>
  </separator>
  <separator name="linear response parameters" >
   <i type="logical" name="LEPSILON"> F  </i>
   <i type="logical" name="LRPA"> F  </i>
   <i type="logical" name="LNABLA"> F  </i>
   <i type="logical" name="LVEL"> F  </i>
   <i type="int" name="KINTER">     0</i>
   <i name="CSHIFT">      0.10000000</i>
   <i name="OMEGAMAX">     -1.00000000</i>
   <i name="DEG_THRESHOLD">      0.00200000</i>
   <i name="RTIME">     -0.10000000</i>
   <i name="WPLASMAI">      0.00000000</i>
   <v name="DFIELD">      0.00000000      0.00000000      0.00000000</v>
   <v name="WPLASMA">      0.00000000      0.00000000      0.00000000      0.00000000      0.00000000      0.00000000      0.00000000      0.00000000      0.00000000</v>
  </separator>
  <separator name="orbital magnetization" >
   <i type="logical" name="NUCIND"> F  </i>
   <v name="MAGPOS">      0.00000000      0.00000000      0.00000000</v>
   <i type="logical" name="LNICSALL"> T  </i>
   <i type="logical" name="ORBITALMAG"> F  </i>
   <i type="logical" name="LMAGBLOCH"> F  </i>
   <i type="logical" name="LCHIMAG"> F  </i>
   <i type="logical" name="LGAUGE"> T  </i>
   <i type="int" name="MAGATOM">     0</i>
   <v name="MAGDIPOL">      0.00000000      0.00000000      0.00000000</v>
   <v name="AVECCONST">      0.00000000      0.00000000      0.00000000</v>
  </separator>
  <separator name="response functions" >
   <i type="logical" name="LADDER"> F  </i>
   <i type="logical" name="LRPAFORCE"> F  </i>
   <i type="logical" name="LFXC"> F  </i>
   <i type="logical" name="LHARTREE"> T  </i>
   <i type="int" name="IBSE">     0</i>
   <v type="int" name="KPOINT">    -1     0     0     0</v>
   <i type="logical" name="LTCTE"> F  </i>
   <i type="logical" name="LTETE"> F  </i>
   <i type="logical" name="LTRIPLET"> F  </i>
   <i type="logical" name="LFXCEPS"> F  </i>
   <i type="logical" name="LFXHEG"> F  </i>
   <i type="int" name="NATURALO">     2</i>
   <i type="logical" name="L2ORDER"> F  </i>
   <i type="logical" name="LMP2LT"> F  </i>
   <i type="logical" name="LUSEW"> F  </i>
   <i name="ENCUTGW">     -2.00000000</i>
   <i name="ENCUTGWSOFT">     -2.00000000</i>
   <i name="ENCUTLF">     -1.00000000</i>
   <i type="int" name="LMAXMP2">    -1</i>
   <i name="SCISSOR">      0.00000000</i>
   <i type="int" name="NOMEGA">     0</i>
   <i type="int" name="NOMEGAR">     0</i>
   <i type="int" name="NBANDSGW">    -1</i>
   <i type="int" name="NBANDSO">    -1</i>
   <i type="int" name="NBANDSV">    -1</i>
   <i type="int" name="NELM">     1</i>
   <i type="int" name="NELMHF">     1</i>
   <i type="int" name="DIM">     3</i>
   <i type="int" name="ANTIRES">     0</i>
   <i name="OMEGAMAX">    -30.00000000</i>
   <i name="OMEGAMIN">    -30.00000000</i>
   <i name="OMEGATL">   -200.00000000</i>
   <i type="int" name="OMEGAGRID">   140</i>
   <i name="CSHIFT">     -0.10000000</i>
   <i type="logical" name="SELFENERGY"> F  </i>
   <i type="logical" name="LSPECTRAL"> F  </i>
   <i type="logical" name="LSPECTRALGW"> F  </i>
   <i type="logical" name="LSINGLES"> F  </i>
   <i type="logical" name="LFERMIGW"> F  </i>
   <i type="logical" name="ODDONLYGW"> F  </i>
   <i type="logical" name="EVENONLYGW"> F  </i>
   <i type="int" name="NKREDLFX">     1</i>
   <i type="int" name="NKREDLFY">     1</i>
   <i type="int" name="NKREDLFZ">     1</i>
   <i type="int" name="MAXMEM">  2800</i>
   <i type="int" name="TELESCOPE">     0</i>
   <i type="int" name="TAUPAR">     1</i>
   <i type="int" name="OMEGAPAR">    -1</i>
   <i name="LAMBDA">      1.00000000</i>
  </separator>
  <separator name="External order field" >
   <i name="OFIELD_KAPPA">      0.00000000</i>
   <v name="OFIELD_K">      0.00000000      0.00000000      0.00000000</v>
   <i name="OFIELD_Q6_NEAR">      0.00000000</i>
   <i name="OFIELD_Q6_FAR">      0.00000000</i>
   <i name="OFIELD_A">      0.00000000</i>
  </separator>
 </parameters>
 <atominfo>
  <atoms>       2 </atoms>
  <types>       1 </types>
  <array name="atoms" >
   <dimension dim="1">ion</dimension>
   <field type="string">element</field>
   <field type="int">atomtype</field>
   <set>
    <rc><c>Si</c><c>   1</c></rc>
    <rc><c>Si</c><c>   1</c></rc>
   </set>
  </array>
  <array name="atomtypes" >
   <dimension dim="1">type</dimension>
   <field type="int">atomspertype</field>
   <field type="string">element</field>
   <field>mass</field>
   <field>valence</field>
   <field type="string">pseudopotential</field>
   <set>
    <rc><c>   2</c><c>Si</c><c>     28.08500000</c><c>      4.00000000</c><c> PAW_PBE Si 05Jan2001                   </c></rc>
   </set>
  </array>
 </atominfo>
 <structure name="initialpos" >
  <crystal>
   <varray name="basis" >
    <v>      -2.45000000       2.45000000       1.27400000 </v>
    <v>       2.45000000      -2.45000000       1.27400000 </v>
    <v>       2.45000000       2.45000000      -1.27400000 </v>
   </varray>
   <i name="volume">     30.58874000 </i>
   <varray name="rec_basis" >
    <v>       0.00000000       0.20408163       0.39246468 </v>
    <v>       0.20408163       0.00000000       0.39246468 </v>
    <v>       0.20408163       0.20408163      -0.00000000 </v>
   </varray>
  </crystal>
  <varray name="positions" >
   <v>       0.25000000       0.75000000       0.50000000 </v>
   <v>       0.00000000       0.00000000       0.00000000 </v>
  </varray>
 </structure>
 <calculation>
  <scstep>
   <time name="dav">    0.24    0.25</time>
   <time name="total">    0.29    0.31</time>
   <energy>
    <i name="alphaZ">      4.40202223 </i>
    <i name="ewald">   -265.18101312 </i>
    <i name="hartreedc">     -2.30415367 </i>
    <i name="XCdc">    -17.81548033 </i>
    <i name="pawpsdc">     65.95520812 </i>
    <i name="pawaedc">    -30.76852678 </i>
    <i name="eentropy">     -0.02804533 </i>
    <i name="bandstr">     39.65215406 </i>
    <i name="atom">    206.12968587 </i>
    <i name="e_fr_energy">      0.04185106 </i>
    <i name="e_wo_entrp">      0.06989639 </i>
    <i name="e_0_energy">      0.05587372 </i>
   </energy>
  </scstep>
  <scstep>
   <time name="dav">    0.36    0.37</time>
   <time name="total">    0.37    0.38</time>
   <energy>
    <i name="e_fr_energy">    -10.21063200 </i>
    <i name="e_wo_entrp">    -10.19964821 </i>
    <i name="e_0_energy">    -10.20514011 </i>
   </energy>
  </scstep>
  <scstep>
   <time name="dav">    0.36    0.36</time>
   <time name="total">    0.36    0.36</time>
   <energy>
    <i name="e_fr_energy">    -10.29772702 </i>
    <i name="e_wo_entrp">    -10.28639771 </i>
    <i name="e_0_energy">    -10.29206237 </i>
   </energy>
  </scstep>
  <scstep>
   <time name="dav">    0.36    0.37</time>
   <time name="total">    0.36    0.37</time>
   <energy>
    <i name="e_fr_energy">    -10.29790520 </i>
    <i name="e_wo_entrp">    -10.28657395 </i>
    <i name="e_0_energy">    -10.29223957 </i>
   </energy>
  </scstep>
  <scstep>
   <time name="dav">    0.35    0.35</time>
   <time name="total">    0.36    0.37</time>
   <energy>
    <i name="e_fr_energy">    -10.29790525 </i>
    <i name="e_wo_entrp">    -10.28657399 </i>
    <i name="e_0_energy">    -10.29223962 </i>
   </energy>
  </scstep>
  <scstep>
   <time name="dav">    0.29    0.29</time>
   <time name="total">    0.34    0.34</time>
   <energy>
    <i name="e_fr_energy">    -10.29322422 </i>
    <i name="e_wo_entrp">    -10.28187599 </i>
    <i name="e_0_energy">    -10.28755010 </i>
   </energy>
  </scstep>
  <scstep>
   <time name="dav">    0.27    0.27</time>
   <time name="total">    0.31    0.33</time>
   <energy>
    <i name="e_fr_energy">    -10.28927084 </i>
    <i name="e_wo_entrp">    -10.27789711 </i>
    <i name="e_0_energy">    -10.28358398 </i>
   </energy>
  </scstep>
  <scstep>
   <time name="dav">    0.17    0.17</time>
   <time name="total">    0.20    0.21</time>
   <energy>
    <i name="alphaZ">      4.40202223 </i>
    <i name="ewald">   -265.18101312 </i>
    <i name="hartreedc">     -2.49530329 </i>
    <i name="XCdc">    -17.58004034 </i>
    <i name="pawpsdc">     70.33757006 </i>
    <i name="pawaedc">    -35.25084861 </i>
    <i name="eentropy">     -0.01137164 </i>
    <i name="bandstr">     29.36004198 </i>
    <i name="atom">    206.12968587 </i>
    <i name="e_fr_energy">    -10.28925685 </i>
    <i name="e_wo_entrp">    -10.27788521 </i>
    <i name="e_0_energy">    -10.28357103 </i>
   </energy>
  </scstep>
  <structure>
   <crystal>
    <varray name="basis" >
     <v>      -2.45000000       2.45000000       1.27400000 </v>
     <v>       2.45000000      -2.45000000       1.27400000 </v>
     <v>       2.45000000       2.45000000      -1.27400000 </v>
    </varray>
    <i name="volume">     30.58874000 </i>
    <varray name="rec_basis" >
     <v>       0.00000000       0.20408163       0.39246468 </v>
     <v>       0.20408163       0.00000000       0.39246468 </v>
     <v>       0.20408163       0.20408163      -0.00000000 </v>
    </varray>
   </crystal>
   <varray name="positions" >
    <v>       0.25000000       0.75000000       0.50000000 </v>
    <v>       0.00000000       0.00000000       0.00000000 </v>
   </varray>
  </structure>
  <varray name="forces" >
   <v>      -0.00000000       0.00000000      -0.00000000 </v>
   <v>       0.00000000      -0.00000000       0.00000000 </v>
  </varray>
  <varray name="stress" >
   <v>      -7.52845346      -0.00000000      -0.00000000 </v>
   <v>      -0.00000000      -7.52845346       0.00000000 </v>
   <v>      -0.00000000       0.00000000       4.06110389 </v>
  </varray>
  <energy>
   <i name="e_fr_energy">    -10.28925685 </i>
   <i name="e_wo_entrp">    -10.28357103 </i>
   <i name="e_0_energy">     -0.01137164 </i>
  </energy>
  <time name="totalsc">    3.55    4.24</time>
 </calculation>
 <calculation>
  <scstep>
   <time name="dav">    0.31    0.31</time>
   <time name="total">    0.35    0.36</time>
   <energy>
    <i name="alphaZ">      4.42443090 </i>
    <i name="ewald">   -265.65603475 </i>
    <i name="hartreedc">     -2.50066714 </i>
    <i name="XCdc">    -17.55281829 </i>
    <i name="pawpsdc">     70.32943358 </i>
    <i name="pawaedc">    -35.24300982 </i>
    <i name="eentropy">     -0.01160495 </i>
    <i name="bandstr">     29.79073883 </i>
    <i name="atom">    206.12968587 </i>
    <i name="e_fr_energy">    -10.28984578 </i>
    <i name="e_wo_entrp">    -10.27824083 </i>
    <i name="e_0_energy">    -10.28404331 </i>
   </energy>
  </scstep>
  <scstep>
   <time name="dav">    0.26    0.26</time>
   <time name="total">    0.29    0.30</time>
   <energy>
    <i name="alphaZ">      4.42443090 </i>
    <i name="ewald">   -265.65603475 </i>
    <i name="hartreedc">     -2.48525606 </i>
    <i name="XCdc">    -17.55251358 </i>
    <i name="pawpsdc">     70.36208880 </i>
    <i name="pawaedc">    -35.27646923 </i>
    <i name="eentropy">     -0.01159897 </i>
    <i name="bandstr">     29.77608944 </i>
    <i name="atom">    206.12968587 </i>
    <i name="e_fr_energy">    -10.28957758 </i>
    <i name="e_wo_entrp">    -10.27797862 </i>
    <i name="e_0_energy">    -10.28377810 </i>
   </energy>
  </scstep>
  <structure>
   <crystal>
    <varray name="basis" >
     <v>      -2.44150577       2.44150577       1.27638268 </v>
     <v>       2.44150577      -2.44150577       1.27638268 </v>
     <v>       2.44150577       2.44150577      -1.27638268 </v>
    </varray>
    <i name="volume">     30.43381550 </i>
    <varray name="rec_basis" >
     <v>       0.00000000       0.20479165       0.39173205 </v>
     <v>       0.20479165      -0.00000000       0.39173205 </v>
     <v>       0.20479165       0.20479165       0.00000000 </v>
    </varray>
   </crystal>
   <varray name="positions" >
    <v>       0.25000000       0.75000000       0.50000000 </v>
    <v>      -0.00000000       0.00000000      -0.00000000 </v>
   </varray>
  </structure>
  <varray name="forces" >
   <v>       0.00000000      -0.00000000      -0.00000000 </v>
   <v>      -0.00000000       0.00000000       0.00000000 </v>
  </varray>
  <varray name="stress" >
   <v>       1.27983604      -0.00000000       0.00000000 </v>
   <v>       0.00000000       1.27983604       0.00000000 </v>
   <v>       0.00000000       0.00000000      -1.76834361 </v>
  </varray>
  <energy>
   <i name="e_fr_energy">    -10.28957758 </i>
   <i name="e_wo_entrp">    -10.28377810 </i>
   <i name="e_0_energy">     -0.01159897 </i>
  </energy>
  <time name="totalsc">    0.92    1.04</time>
 </calculation>
 <calculation>
  <scstep>
   <time name="dav">    0.27    0.27</time>
   <time name="total">    0.32    0.32</time>
   <energy>
    <i name="alphaZ">      4.42063794 </i>
    <i name="ewald">   -265.57597900 </i>
    <i name="hartreedc">     -2.46433274 </i>
    <i name="XCdc">    -17.55583922 </i>
    <i name="pawpsdc">     70.41566282 </i>
    <i name="pawaedc">    -35.33126021 </i>
    <i name="eentropy">     -0.01154664 </i>
    <i name="bandstr">     29.68341702 </i>
    <i name="atom">    206.12968587 </i>
    <i name="e_fr_energy">    -10.28955417 </i>
    <i name="e_wo_entrp">    -10.27800752 </i>
    <i name="e_0_energy">    -10.28378085 </i>
   </energy>
  </scstep>
  <scstep>
   <time name="dav">    0.15    0.15</time>
   <time name="total">    0.18    0.19</time>
   <energy>
    <i name="alphaZ">      4.42063794 </i>
    <i name="ewald">   -265.57597900 </i>
    <i name="hartreedc">     -2.46661824 </i>
    <i name="XCdc">    -17.55576457 </i>
    <i name="pawpsdc">     70.41540830 </i>
    <i name="pawaedc">    -35.33111159 </i>
    <i name="eentropy">     -0.01154795 </i>
    <i name="bandstr">     29.68574188 </i>
    <i name="atom">    206.12968587 </i>
    <i name="e_fr_energy">    -10.28954735 </i>
    <i name="e_wo_entrp">    -10.27799940 </i>
    <i name="e_0_energy">    -10.28377337 </i>
   </energy>
  </scstep>
  <structure>
   <crystal>
    <varray name="basis" >
     <v>      -2.44293726       2.44293726       1.27598114 </v>
     <v>       2.44293726      -2.44293726       1.27598114 </v>
     <v>       2.44293726       2.44293726      -1.27598114 </v>
    </varray>
    <i name="volume">     30.45992805 </i>
    <varray name="rec_basis" >
     <v>       0.00000000       0.20467165       0.39185532 </v>
     <v>       0.20467165       0.00000000       0.39185532 </v>
     <v>       0.20467165       0.20467165      -0.00000000 </v>
    </varray>
   </crystal>
   <varray name="positions" >
    <v>       0.25000000       0.75000000       0.50000000 </v>
    <v>      -0.00000000       0.00000000      -0.00000000 </v>
   </varray>
  </structure>
  <varray name="forces" >
   <v>      -0.00000000       0.00000000      -0.00000000 </v>
   <v>       0.00000000      -0.00000000       0.00000000 </v>
  </varray>
  <varray name="stress" >
   <v>       3.52349005       0.00000000      -0.00000000 </v>
   <v>       0.00000000       3.52349005       0.00000000 </v>
   <v>       0.00000000       0.00000000      -3.32433167 </v>
  </varray>
  <energy>
   <i name="e_fr_energy">    -10.28954735 </i>
   <i name="e_wo_entrp">    -10.28377337 </i>
   <i name="e_0_energy">     -0.01154795 </i>
  </energy>
  <time name="totalsc">    0.79    0.92</time>
 </calculation>
 <calculation>
  <scstep>
   <time name="dav">    0.31    0.31</time>
   <time name="total">    0.36    0.36</time>
   <energy>
    <i name="alphaZ">      4.41432911 </i>
    <i name="ewald">   -265.44250970 </i>
    <i name="hartreedc">     -2.46941599 </i>
    <i name="XCdc">    -17.56307338 </i>
    <i name="pawpsdc">     70.41392549 </i>
    <i name="pawaedc">    -35.32982041 </i>
    <i name="eentropy">     -0.01148011 </i>
    <i name="bandstr">     29.56872950 </i>
    <i name="atom">    206.12968587 </i>
    <i name="e_fr_energy">    -10.28962960 </i>
    <i name="e_wo_entrp">    -10.27814950 </i>
    <i name="e_0_energy">    -10.28388955 </i>
   </energy>
  </scstep>
  <scstep>
   <time name="dav">    0.16    0.16</time>
   <time name="total">    0.20    0.20</time>
   <energy>
    <i name="alphaZ">      4.41432911 </i>
    <i name="ewald">   -265.44250970 </i>
    <i name="hartreedc">     -2.47369673 </i>
    <i name="XCdc">    -17.56319344 </i>
    <i name="pawpsdc">     70.40194256 </i>
    <i name="pawaedc">    -35.31751725 </i>
    <i name="eentropy">     -0.01148147 </i>
    <i name="bandstr">     29.57283287 </i>
    <i name="atom">    206.12968587 </i>
    <i name="e_fr_energy">    -10.28960817 </i>
    <i name="e_wo_entrp">    -10.27812670 </i>
    <i name="e_0_energy">    -10.28386743 </i>
   </energy>
  </scstep>
  <structure>
   <crystal>
    <varray name="basis" >
     <v>      -2.44532390       2.44532390       1.27531167 </v>
     <v>       2.44532390      -2.44532390       1.27531167 </v>
     <v>       2.44532390       2.44532390      -1.27531167 </v>
    </varray>
    <i name="volume">     30.50346046 </i>
    <varray name="rec_basis" >
     <v>       0.00000000       0.20447189       0.39206102 </v>
     <v>       0.20447189       0.00000000       0.39206102 </v>
     <v>       0.20447189       0.20447189       0.00000000 </v>
    </varray>
   </crystal>
   <varray name="positions" >
    <v>       0.25000000       0.75000000       0.50000000 </v>
    <v>      -0.00000000       0.00000000      -0.00000000 </v>
   </varray>
  </structure>
  <varray name="forces" >
   <v>      -0.00000000      -0.00000000      -0.00000000 </v>
   <v>       0.00000000       0.00000000       0.00000000 </v>
  </varray>
  <varray name="stress" >
   <v>       0.31532817       0.00000000       0.00000000 </v>
   <v>       0.00000000       0.31532817       0.00000000 </v>
   <v>       0.00000000       0.00000000      -1.03777190 </v>
  </varray>
  <energy>
   <i name="e_fr_energy">    -10.28960817 </i>
   <i name="e_wo_entrp">    -10.28386743 </i>
   <i name="e_0_energy">     -0.01148147 </i>
  </energy>
  <time name="totalsc">    0.88    1.09</time>
  <eigenvalues>
   <array>
    <dimension dim="1">band</dimension>
    <dimension dim="2">kpoint</dimension>
    <dimension dim="3">spin</dimension>
    <field>eigene</field>
    <field>occ</field>
    <set>
     <set comment="spin 1">
      <set comment="kpoint 1">
       <r>   -3.6559    1.0000 </r>
       <r>    3.9557    1.0000 </r>
       <r>    7.1676    1.0000 </r>
       <r>    8.6941    0.9999 </r>
       <r>   12.8524    0.0000 </r>
       <r>   13.7470    0.0000 </r>
       <r>   13.9623    0.0000 </r>
       <r>   15.8308    0.0000 </r>
      </set>
      <set comment="kpoint 2">
       <r>   -1.3327    1.0000 </r>
       <r>    4.3172    1.0000 </r>
       <r>    7.5017    1.0000 </r>
       <r>    8.0021    1.0000 </r>
       <r>    9.7509    0.0001 </r>
       <r>   12.3584    0.0000 </r>
       <r>   13.5845    0.0000 </r>
       <r>   14.4098    0.0000 </r>
      </set>
      <set comment="kpoint 3">
       <r>    2.1950    1.0000 </r>
       <r>    2.7477    1.0000 </r>
       <r>    6.0475    1.0000 </r>
       <r>    6.1519    1.0000 </r>
       <r>    9.6034    0.0025 </r>
       <r>   11.3676    0.0000 </r>
       <r>   13.7131    0.0000 </r>
       <r>   14.5360    0.0000 </r>
      </set>
      <set comment="kpoint 4">
       <r>   -4.4380    1.0000 </r>
       <r>    4.5657    1.0000 </r>
       <r>    5.7331    1.0000 </r>
       <r>    8.3163    1.0000 </r>
       <r>   11.4852    0.0000 </r>
       <r>   14.3805    0.0000 </r>
       <r>   17.5933    0.0000 </r>
       <r>   18.1463    0.0000 </r>
      </set>
      <set comment="kpoint 5">
       <r>    2.1008    1.0000 </r>
       <r>    4.0073    1.0000 </r>
       <r>    4.1134    1.0000 </r>
       <r>    5.8730    1.0000 </r>
       <r>   11.0136    0.0000 </r>
       <r>   12.2265    0.0000 </r>
       <r>   13.8368    0.0000 </r>
       <r>   14.3557    0.0000 </r>
      </set>
      <set comment="kpoint 6">
       <r>   -0.0370    1.0000 </r>
       <r>    1.8726    1.0000 </r>
       <r>    6.9986    1.0000 </r>
       <r>    8.3229    1.0000 </r>
       <r>    9.9964    0.0000 </r>
       <r>   11.8178    0.0000 </r>
       <r>   13.6152    0.0000 </r>
       <r>   15.2637    0.0000 </r>
      </set>
      <set comment="kpoint 7">
       <r>   -2.6673    1.0000 </r>
       <r>    1.2012    1.0000 </r>
       <r>    8.0626    1.0000 </r>
       <r>    9.8927    0.0000 </r>
       <r>   11.4798    0.0000 </r>
       <r>   12.9415    0.0000 </r>
       <r>   14.0938    0.0000 </r>
       <r>   14.3603    0.0000 </r>
      </set>
      <set comment="kpoint 8">
       <r>   -3.7756    1.0000 </r>
       <r>    1.9870    1.0000 </r>
       <r>    6.0030    1.0000 </r>
       <r>    9.9004    0.0000 </r>
       <r>   11.5022    0.0000 </r>
       <r>   14.5341    0.0000 </r>
       <r>   15.4033    0.0000 </r>
       <r>   18.8931    0.0000 </r>
      </set>
      <set comment="kpoint 9">
       <r>   -3.3262    1.0000 </r>
       <r>    3.7060    1.0000 </r>
       <r>    5.2069    1.0000 </r>
       <r>   10.7331    0.0000 </r>
       <r>   11.8569    0.0000 </r>
       <r>   13.2520    0.0000 </r>
       <r>   14.0394    0.0000 </r>
       <r>   15.9619    0.0000 </r>
      </set>
      <set comment="kpoint 10">
       <r>   -1.0366    1.0000 </r>
       <r>   -1.0366    1.0000 </r>
       <r>    9.5174    0.0139 </r>
       <r>    9.5174    0.0139 </r>
       <r>   11.4177    0.0000 </r>
       <r>   11.4177    0.0000 </r>
       <r>   13.7222    0.0000 </r>
       <r>   13.7222    0.0000 </r>
      </set>
      <set comment="kpoint 11">
       <r>   -2.4609    1.0000 </r>
       <r>   -0.5182    1.0000 </r>
       <r>    7.2250    1.0000 </r>
       <r>    9.0738    0.8252 </r>
       <r>   11.3099    0.0000 </r>
       <r>   13.1452    0.0000 </r>
       <r>   18.2186    0.0000 </r>
       <r>   18.5118    0.0000 </r>
      </set>
      <set comment="kpoint 12">
       <r>   -2.3427    1.0000 </r>
       <r>    1.4662    1.0000 </r>
       <r>    5.6086    1.0000 </r>
       <r>    9.2223    0.4545 </r>
       <r>   11.3737    0.0000 </r>
       <r>   13.5245    0.0000 </r>
       <r>   15.5381    0.0000 </r>
       <r>   16.8074    0.0000 </r>
      </set>
      <set comment="kpoint 13">
       <r>   -0.6863    1.0000 </r>
       <r>    4.3058    1.0000 </r>
       <r>    5.9002    1.0000 </r>
       <r>    6.4756    1.0000 </r>
       <r>   10.1088    0.0000 </r>
       <r>   12.3411    0.0000 </r>
       <r>   13.3370    0.0000 </r>
       <r>   15.4640    0.0000 </r>
      </set>
      <set comment="kpoint 14">
       <r>   -0.7276    1.0000 </r>
       <r>   -0.7226    1.0000 </r>
       <r>    7.1010    1.0000 </r>
       <r>    7.1199    1.0000 </r>
       <r>   11.2677    0.0000 </r>
       <r>   14.5562    0.0000 </r>
       <r>   15.3510    0.0000 </r>
       <r>   15.3788    0.0000 </r>
      </set>
      <set comment="kpoint 15">
       <r>    0.5901    1.0000 </r>
       <r>    2.4359    1.0000 </r>
       <r>    5.8048    1.0000 </r>
       <r>    6.5881    1.0000 </r>
       <r>    8.2743    1.0000 </r>
       <r>   11.8610    0.0000 </r>
       <r>   15.4151    0.0000 </r>
       <r>   17.0413    0.0000 </r>
      </set>
      <set comment="kpoint 16">
       <r>    1.4763    1.0000 </r>
       <r>    3.4528    1.0000 </r>
       <r>    6.4126    1.0000 </r>
       <r>    7.6178    1.0000 </r>
       <r>    8.2310    1.0000 </r>
       <r>   10.8066    0.0000 </r>
       <r>   11.6727    0.0000 </r>
       <r>   15.7494    0.0000 </r>
      </set>
      <set comment="kpoint 17">
       <r>    1.1699    1.0000 </r>
       <r>    4.9039    1.0000 </r>
       <r>    4.9535    1.0000 </r>
       <r>    7.7599    1.0000 </r>
       <r>    8.7369    0.9995 </r>
       <r>   10.3042    0.0000 </r>
       <r>   12.6720    0.0000 </r>
       <r>   13.5334    0.0000 </r>
      </set>
      <set comment="kpoint 18">
       <r>   -1.9862    1.0000 </r>
       <r>    6.7622    1.0000 </r>
       <r>    7.7480    1.0000 </r>
       <r>    8.5083    1.0000 </r>
       <r>    9.9064    0.0000 </r>
       <r>   11.1863    0.0000 </r>
       <r>   12.3762    0.0000 </r>
       <r>   13.5648    0.0000 </r>
      </set>
      <set comment="kpoint 19">
       <r>   -3.9870    1.0000 </r>
       <r>    6.8371    1.0000 </r>
       <r>    6.8669    1.0000 </r>
       <r>    6.8669    1.0000 </r>
       <r>   11.1768    0.0000 </r>
       <r>   14.5219    0.0000 </r>
       <r>   14.7918    0.0000 </r>
       <r>   16.7478    0.0000 </r>
      </set>
      <set comment="kpoint 20">
       <r>    3.4070    1.0000 </r>
       <r>    3.4070    1.0000 </r>
       <r>    4.0785    1.0000 </r>
       <r>    4.0785    1.0000 </r>
       <r>   13.2554    0.0000 </r>
       <r>   13.2554    0.0000 </r>
       <r>   15.0808    0.0000 </r>
       <r>   15.0808    0.0000 </r>
      </set>
      <set comment="kpoint 21">
       <r>   -3.1199    1.0000 </r>
       <r>    1.9794    1.0000 </r>
       <r>    3.6556    1.0000 </r>
       <r>    8.5935    1.0000 </r>
       <r>   12.9706    0.0000 </r>
       <r>   16.0908    0.0000 </r>
       <r>   17.2494    0.0000 </r>
       <r>   18.2651    0.0000 </r>
      </set>
      <set comment="kpoint 22">
       <r>   -1.8234    1.0000 </r>
       <r>    0.0571    1.0000 </r>
       <r>    4.3071    1.0000 </r>
       <r>    6.1332    1.0000 </r>
       <r>   14.7996    0.0000 </r>
       <r>   16.2008    0.0000 </r>
       <r>   17.8243    0.0000 </r>
       <r>   18.2264    0.0000 </r>
      </set>
      <set comment="kpoint 23">
       <r>   -1.3789    1.0000 </r>
       <r>    1.7585    1.0000 </r>
       <r>    3.4909    1.0000 </r>
       <r>    6.5432    1.0000 </r>
       <r>   10.8110    0.0000 </r>
       <r>   16.5599    0.0000 </r>
       <r>   17.5470    0.0000 </r>
       <r>   18.4078    0.0000 </r>
      </set>
      <set comment="kpoint 24">
       <r>    0.1656    1.0000 </r>
       <r>    0.1761    1.0000 </r>
       <r>    4.4261    1.0000 </r>
       <r>    4.4290    1.0000 </r>
       <r>   10.5477    0.0000 </r>
       <r>   17.6589    0.0000 </r>
       <r>   18.3117    0.0000 </r>
       <r>   19.1073    0.0000 </r>
      </set>
      <set comment="kpoint 25">
       <r>    1.7933    1.0000 </r>
       <r>    3.0241    1.0000 </r>
       <r>    4.7569    1.0000 </r>
       <r>    5.2491    1.0000 </r>
       <r>    6.0299    1.0000 </r>
       <r>   13.9968    0.0000 </r>
       <r>   15.3581    0.0000 </r>
       <r>   17.2950    0.0000 </r>
      </set>
      <set comment="kpoint 26">
       <r>    0.8539    1.0000 </r>
       <r>    5.8072    1.0000 </r>
       <r>    5.9017    1.0000 </r>
       <r>    7.2752    1.0000 </r>
       <r>    7.2752    1.0000 </r>
       <r>   11.6601    0.0000 </r>
       <r>   12.2916    0.0000 </r>
       <r>   12.2916    0.0000 </r>
      </set>
      <set comment="kpoint 27">
       <r>   -0.5976    1.0000 </r>
       <r>    0.6616    1.0000 </r>
       <r>    2.4581    1.0000 </r>
       <r>    3.6988    1.0000 </r>
       <r>   16.1720    0.0000 </r>
       <r>   16.3689    0.0000 </r>
       <r>   19.4756    0.0000 </r>
       <r>   20.5970    0.0000 </r>
      </set>
      <set comment="kpoint 28">
       <r>    1.0914    1.0000 </r>
       <r>    1.1095    1.0000 </r>
       <r>    2.8867    1.0000 </r>
       <r>    2.8867    1.0000 </r>
       <r>   10.2716    0.0000 </r>
       <r>   19.2310    0.0000 </r>
       <r>   20.3647    0.0000 </r>
       <r>   20.3648    0.0000 </r>
      </set>
     </set>
    </set>
   </array>
  </eigenvalues>
  <separator name="orbital magnetization" >
   <v name="MAGDIPOLOUT">      0.00000000      0.00000000      0.00000000</v>
  </separator>
  <dos>
   <i name="efermi">      9.20608787 </i>
   <total>
    <array>
     <dimension dim="1">gridpoints</dimension>
     <dimension dim="2">spin</dimension>
     <field>energy</field>
     <field>total</field>
     <field>integrated</field>
     <set>
      <set comment="spin 1">
       <r>    -6.4380     0.0000     0.0000 </r>
       <r>    -6.3412     0.0000     0.0000 </r>
       <r>    -6.2444     0.0000     0.0000 </r>
       <r>    -6.1476     0.0000     0.0000 </r>
       <r>    -6.0508     0.0000     0.0000 </r>
       <r>    -5.9540     0.0000     0.0000 </r>
       <r>    -5.8573     0.0000     0.0000 </r>
       <r>    -5.7605     0.0000     0.0000 </r>
       <r>    -5.6637     0.0000     0.0000 </r>
       <r>    -5.5669     0.0000     0.0000 </r>
       <r>    -5.4701     0.0000     0.0000 </r>
       <r>    -5.3733     0.0000     0.0000 </r>
       <r>    -5.2766     0.0000     0.0000 </r>
       <r>    -5.1798     0.0000     0.0000 </r>
       <r>    -5.0830     0.0000     0.0000 </r>
       <r>    -4.9862     0.0000     0.0000 </r>
       <r>    -4.8894     0.0002     0.0000 </r>
       <r>    -4.7926     0.0021     0.0002 </r>
       <r>    -4.6959     0.0107     0.0013 </r>
       <r>    -4.5991     0.0357     0.0047 </r>
       <r>    -4.5023     0.0755     0.0120 </r>
       <r>    -4.4055     0.1021     0.0219 </r>
       <r>    -4.3087     0.0895     0.0306 </r>
       <r>    -4.2119     0.0572     0.0361 </r>
       <r>    -4.1152     0.0469     0.0406 </r>
       <r>    -4.0184     0.0779     0.0482 </r>
       <r>    -3.9216     0.1531     0.0630 </r>
       <r>    -3.8248     0.2666     0.0888 </r>
       <r>    -3.7280     0.3687     0.1245 </r>
       <r>    -3.6312     0.3819     0.1615 </r>
       <r>    -3.5345     0.3078     0.1912 </r>
       <r>    -3.4377     0.2448     0.2149 </r>
       <r>    -3.3409     0.2469     0.2388 </r>
       <r>    -3.2441     0.2588     0.2639 </r>
       <r>    -3.1473     0.2269     0.2858 </r>
       <r>    -3.0505     0.1630     0.3016 </r>
       <r>    -2.9538     0.1038     0.3117 </r>
       <r>    -2.8570     0.0912     0.3205 </r>
       <r>    -2.7602     0.1505     0.3351 </r>
       <r>    -2.6634     0.2579     0.3600 </r>
       <r>    -2.5666     0.3768     0.3965 </r>
       <r>    -2.4698     0.5051     0.4454 </r>
       <r>    -2.3731     0.6006     0.5035 </r>
       <r>    -2.2763     0.5635     0.5580 </r>
       <r>    -2.1795     0.4104     0.5977 </r>
       <r>    -2.0827     0.2996     0.6267 </r>
       <r>    -1.9859     0.3084     0.6566 </r>
       <r>    -1.8892     0.3519     0.6906 </r>
       <r>    -1.7924     0.3298     0.7226 </r>
       <r>    -1.6956     0.2415     0.7459 </r>
       <r>    -1.5988     0.1843     0.7638 </r>
       <r>    -1.5020     0.2687     0.7898 </r>
       <r>    -1.4052     0.4785     0.8361 </r>
       <r>    -1.3085     0.6253     0.8966 </r>
       <r>    -1.2117     0.5693     0.9517 </r>
       <r>    -1.1149     0.4169     0.9920 </r>
       <r>    -1.0181     0.3266     1.0237 </r>
       <r>    -0.9213     0.3370     1.0563 </r>
       <r>    -0.8245     0.4682     1.1016 </r>
       <r>    -0.7278     0.6831     1.1677 </r>
       <r>    -0.6310     0.8010     1.2452 </r>
       <r>    -0.5342     0.6989     1.3129 </r>
       <r>    -0.4374     0.4606     1.3575 </r>
       <r>    -0.3406     0.2474     1.3814 </r>
       <r>    -0.2438     0.1790     1.3987 </r>
       <r>    -0.1471     0.3045     1.4282 </r>
       <r>    -0.0503     0.5633     1.4827 </r>
       <r>     0.0465     0.7870     1.5589 </r>
       <r>     0.1433     0.8258     1.6388 </r>
       <r>     0.2401     0.6641     1.7031 </r>
       <r>     0.3369     0.4320     1.7449 </r>
       <r>     0.4336     0.3228     1.7761 </r>
       <r>     0.5304     0.4019     1.8150 </r>
       <r>     0.6272     0.5119     1.8646 </r>
       <r>     0.7240     0.4728     1.9103 </r>
       <r>     0.8208     0.3192     1.9412 </r>
       <r>     0.9176     0.2165     1.9622 </r>
       <r>     1.0143     0.2599     1.9873 </r>
       <r>     1.1111     0.4171     2.0277 </r>
       <r>     1.2079     0.5619     2.0821 </r>
       <r>     1.3047     0.6268     2.1427 </r>
       <r>     1.4015     0.6815     2.2087 </r>
       <r>     1.4983     0.7303     2.2794 </r>
       <r>     1.5950     0.7041     2.3475 </r>
       <r>     1.6918     0.7048     2.4157 </r>
       <r>     1.7886     0.8534     2.4983 </r>
       <r>     1.8854     1.0242     2.5975 </r>
       <r>     1.9822     1.0381     2.6979 </r>
       <r>     2.0790     0.9029     2.7853 </r>
       <r>     2.1757     0.7300     2.8560 </r>
       <r>     2.2725     0.6118     2.9152 </r>
       <r>     2.3693     0.5938     2.9726 </r>
       <r>     2.4661     0.6049     3.0312 </r>
       <r>     2.5629     0.5291     3.0824 </r>
       <r>     2.6597     0.4086     3.1219 </r>
       <r>     2.7564     0.3557     3.1564 </r>
       <r>     2.8532     0.3624     3.1914 </r>
       <r>     2.9500     0.3642     3.2267 </r>
       <r>     3.0468     0.3270     3.2583 </r>
       <r>     3.1436     0.2530     3.2828 </r>
       <r>     3.2403     0.2154     3.3037 </r>
       <r>     3.3371     0.3064     3.3333 </r>
       <r>     3.4339     0.4960     3.3813 </r>
       <r>     3.5307     0.6418     3.4434 </r>
       <r>     3.6275     0.6706     3.5083 </r>
       <r>     3.7243     0.6231     3.5687 </r>
       <r>     3.8210     0.5699     3.6238 </r>
       <r>     3.9178     0.5966     3.6816 </r>
       <r>     4.0146     0.7175     3.7510 </r>
       <r>     4.1114     0.8583     3.8341 </r>
       <r>     4.2082     1.0223     3.9330 </r>
       <r>     4.3050     1.2176     4.0508 </r>
       <r>     4.4017     1.2680     4.1736 </r>
       <r>     4.4985     1.0393     4.2742 </r>
       <r>     4.5953     0.6971     4.3416 </r>
       <r>     4.6921     0.4915     4.3892 </r>
       <r>     4.7889     0.4797     4.4356 </r>
       <r>     4.8857     0.5445     4.4883 </r>
       <r>     4.9824     0.5579     4.5423 </r>
       <r>     5.0792     0.5136     4.5920 </r>
       <r>     5.1760     0.4895     4.6394 </r>
       <r>     5.2728     0.4710     4.6850 </r>
       <r>     5.3696     0.4015     4.7238 </r>
       <r>     5.4664     0.3704     4.7597 </r>
       <r>     5.5631     0.5013     4.8082 </r>
       <r>     5.6599     0.7664     4.8824 </r>
       <r>     5.7567     1.0656     4.9855 </r>
       <r>     5.8535     1.3204     5.1133 </r>
       <r>     5.9503     1.4528     5.2539 </r>
       <r>     6.0471     1.4121     5.3906 </r>
       <r>     6.1438     1.1924     5.5060 </r>
       <r>     6.2406     0.8824     5.5914 </r>
       <r>     6.3374     0.6990     5.6590 </r>
       <r>     6.4342     0.7735     5.7339 </r>
       <r>     6.5310     0.9558     5.8264 </r>
       <r>     6.6278     0.9983     5.9230 </r>
       <r>     6.7245     0.8717     6.0074 </r>
       <r>     6.8213     0.7587     6.0808 </r>
       <r>     6.9181     0.8035     6.1586 </r>
       <r>     7.0149     0.9850     6.2539 </r>
       <r>     7.1117     1.1453     6.3648 </r>
       <r>     7.2085     1.1170     6.4729 </r>
       <r>     7.3052     0.9090     6.5608 </r>
       <r>     7.4020     0.7236     6.6309 </r>
       <r>     7.4988     0.7023     6.6988 </r>
       <r>     7.5956     0.7668     6.7731 </r>
       <r>     7.6924     0.7900     6.8495 </r>
       <r>     7.7892     0.7525     6.9224 </r>
       <r>     7.8859     0.7231     6.9923 </r>
       <r>     7.9827     0.7796     7.0678 </r>
       <r>     8.0795     0.9159     7.1564 </r>
       <r>     8.1763     1.0982     7.2627 </r>
       <r>     8.2731     1.2702     7.3857 </r>
       <r>     8.3698     1.2618     7.5078 </r>
       <r>     8.4666     1.0310     7.6076 </r>
       <r>     8.5634     0.7925     7.6843 </r>
       <r>     8.6602     0.6767     7.7498 </r>
       <r>     8.7570     0.5858     7.8065 </r>
       <r>     8.8538     0.4395     7.8490 </r>
       <r>     8.9505     0.3299     7.8809 </r>
       <r>     9.0473     0.3668     7.9164 </r>
       <r>     9.1441     0.4985     7.9647 </r>
       <r>     9.2409     0.5692     8.0198 </r>
       <r>     9.3377     0.5154     8.0696 </r>
       <r>     9.4345     0.4536     8.1135 </r>
       <r>     9.5312     0.5103     8.1629 </r>
       <r>     9.6280     0.6696     8.2277 </r>
       <r>     9.7248     0.8760     8.3125 </r>
       <r>     9.8216     1.1061     8.4196 </r>
       <r>     9.9184     1.2748     8.5430 </r>
       <r>    10.0152     1.2419     8.6632 </r>
       <r>    10.1119     0.9959     8.7595 </r>
       <r>    10.2087     0.7031     8.8276 </r>
       <r>    10.3055     0.5035     8.8763 </r>
       <r>    10.4023     0.4006     8.9151 </r>
       <r>    10.4991     0.3740     8.9513 </r>
       <r>    10.5959     0.4347     8.9934 </r>
       <r>    10.6926     0.5697     9.0485 </r>
       <r>    10.7894     0.6943     9.1157 </r>
       <r>    10.8862     0.7022     9.1837 </r>
       <r>    10.9830     0.6249     9.2441 </r>
       <r>    11.0798     0.6309     9.3052 </r>
       <r>    11.1766     0.8456     9.3870 </r>
       <r>    11.2733     1.2396     9.5070 </r>
       <r>    11.3701     1.5985     9.6617 </r>
       <r>    11.4669     1.6567     9.8221 </r>
       <r>    11.5637     1.4055     9.9581 </r>
       <r>    11.6605     1.1561    10.0700 </r>
       <r>    11.7573     1.1469    10.1810 </r>
       <r>    11.8540     1.2100    10.2981 </r>
       <r>    11.9508     1.0384    10.3986 </r>
       <r>    12.0476     0.7005    10.4664 </r>
       <r>    12.1444     0.5621    10.5208 </r>
       <r>    12.2412     0.7621    10.5945 </r>
       <r>    12.3380     1.0332    10.6945 </r>
       <r>    12.4347     1.0263    10.7939 </r>
       <r>    12.5315     0.7447    10.8659 </r>
       <r>    12.6283     0.4906    10.9134 </r>
       <r>    12.7251     0.4316    10.9552 </r>
       <r>    12.8219     0.5032    11.0039 </r>
       <r>    12.9187     0.5899    11.0610 </r>
       <r>    13.0154     0.6255    11.1215 </r>
       <r>    13.1122     0.6448    11.1839 </r>
       <r>    13.2090     0.7169    11.2533 </r>
       <r>    13.3058     0.8524    11.3358 </r>
       <r>    13.4026     1.1088    11.4431 </r>
       <r>    13.4993     1.5631    11.5944 </r>
       <r>    13.5961     2.0059    11.7885 </r>
       <r>    13.6929     2.0634    11.9882 </r>
       <r>    13.7897     1.7274    12.1554 </r>
       <r>    13.8865     1.3424    12.2854 </r>
       <r>    13.9833     1.1234    12.3941 </r>
       <r>    14.0800     0.9865    12.4896 </r>
       <r>    14.1768     0.8604    12.5728 </r>
       <r>    14.2736     0.8973    12.6597 </r>
       <r>    14.3704     1.1601    12.7719 </r>
       <r>    14.4672     1.3839    12.9059 </r>
       <r>    14.5640     1.3010    13.0318 </r>
       <r>    14.6607     0.9673    13.1254 </r>
       <r>    14.7575     0.6286    13.1863 </r>
       <r>    14.8543     0.4127    13.2262 </r>
       <r>    14.9511     0.2982    13.2551 </r>
       <r>    15.0479     0.3030    13.2844 </r>
       <r>    15.1447     0.5223    13.3349 </r>
       <r>    15.2414     1.0082    13.4325 </r>
       <r>    15.3382     1.6048    13.5878 </r>
       <r>    15.4350     1.9301    13.7746 </r>
       <r>    15.5318     1.7391    13.9430 </r>
       <r>    15.6286     1.2399    14.0630 </r>
       <r>    15.7254     0.8317    14.1434 </r>
       <r>    15.8221     0.6588    14.2072 </r>
       <r>    15.9189     0.6053    14.2658 </r>
       <r>    16.0157     0.5728    14.3212 </r>
       <r>    16.1125     0.5548    14.3749 </r>
       <r>    16.2093     0.5287    14.4261 </r>
       <r>    16.3061     0.4553    14.4702 </r>
       <r>    16.4028     0.3672    14.5057 </r>
       <r>    16.4996     0.3332    14.5379 </r>
       <r>    16.5964     0.3691    14.5737 </r>
       <r>    16.6932     0.4573    14.6179 </r>
       <r>    16.7900     0.5647    14.6726 </r>
       <r>    16.8868     0.6303    14.7336 </r>
       <r>    16.9835     0.6371    14.7952 </r>
       <r>    17.0803     0.6113    14.8544 </r>
       <r>    17.1771     0.5584    14.9084 </r>
       <r>    17.2739     0.4944    14.9563 </r>
       <r>    17.3707     0.4459    14.9994 </r>
       <r>    17.4675     0.4492    15.0429 </r>
       <r>    17.5642     0.5189    15.0931 </r>
       <r>    17.6610     0.5735    15.1486 </r>
       <r>    17.7578     0.5305    15.2000 </r>
       <r>    17.8546     0.4144    15.2401 </r>
       <r>    17.9514     0.3139    15.2705 </r>
       <r>    18.0482     0.3419    15.3036 </r>
       <r>    18.1449     0.5556    15.3573 </r>
       <r>    18.2417     0.8291    15.4376 </r>
       <r>    18.3385     0.9440    15.5289 </r>
       <r>    18.4353     0.8344    15.6097 </r>
       <r>    18.5321     0.6025    15.6680 </r>
       <r>    18.6288     0.3682    15.7036 </r>
       <r>    18.7256     0.2240    15.7253 </r>
       <r>    18.8224     0.2092    15.7456 </r>
       <r>    18.9192     0.2687    15.7716 </r>
       <r>    19.0160     0.3190    15.8024 </r>
       <r>    19.1128     0.3255    15.8339 </r>
       <r>    19.2095     0.2826    15.8613 </r>
       <r>    19.3063     0.2102    15.8816 </r>
       <r>    19.4031     0.1558    15.8967 </r>
       <r>    19.4999     0.1289    15.9092 </r>
       <r>    19.5967     0.0967    15.9186 </r>
       <r>    19.6935     0.0524    15.9236 </r>
       <r>    19.7902     0.0188    15.9254 </r>
       <r>    19.8870     0.0044    15.9259 </r>
       <r>    19.9838     0.0018    15.9261 </r>
       <r>    20.0806     0.0073    15.9268 </r>
       <r>    20.1774     0.0274    15.9294 </r>
       <r>    20.2742     0.0681    15.9360 </r>
       <r>    20.3709     0.1149    15.9471 </r>
       <r>    20.4677     0.1434    15.9610 </r>
       <r>    20.5645     0.1466    15.9752 </r>
       <r>    20.6613     0.1252    15.9873 </r>
       <r>    20.7581     0.0814    15.9952 </r>
       <r>    20.8549     0.0366    15.9987 </r>
       <r>    20.9516     0.0108    15.9998 </r>
       <r>    21.0484     0.0021    16.0000 </r>
       <r>    21.1452     0.0002    16.0000 </r>
       <r>    21.2420     0.0000    16.0000 </r>
       <r>    21.3388     0.0000    16.0000 </r>
       <r>    21.4356     0.0000    16.0000 </r>
       <r>    21.5323     0.0000    16.0000 </r>
       <r>    21.6291     0.0000    16.0000 </r>
       <r>    21.7259     0.0000    16.0000 </r>
       <r>    21.8227     0.0000    16.0000 </r>
       <r>    21.9195     0.0000    16.0000 </r>
       <r>    22.0163     0.0000    16.0000 </r>
       <r>    22.1130     0.0000    16.0000 </r>
       <r>    22.2098     0.0000    16.0000 </r>
       <r>    22.3066     0.0000    16.0000 </r>
       <r>    22.4034     0.0000    16.0000 </r>
       <r>    22.5002     0.0000    16.0000 </r>
       <r>    22.5970     0.0000    16.0000 </r>
      </set>
     </set>
    </array>
   </total>
  </dos>
 </calculation>
 <structure name="finalpos" >
  <crystal>
   <varray name="basis" >
    <v>      -2.44532390       2.44532390       1.27531167 </v>
    <v>       2.44532390      -2.44532390       1.27531167 </v>
    <v>       2.44532390       2.44532390      -1.27531167 </v>
   </varray>
   <i name="volume">     30.50346046 </i>
   <varray name="rec_basis" >
    <v>       0.00000000       0.20447189       0.39206102 </v>
    <v>       0.20447189       0.00000000       0.39206102 </v>
    <v>       0.20447189       0.20447189       0.00000000 </v>
   </varray>
  </crystal>
  <varray name="positions" >
   <v>       0.25000000       0.75000000       0.50000000 </v>
   <v>      -0.00000000       0.00000000      -0.00000000 </v>
  </varray>
 </structure>
</modeling>
