unknown system                          
   1.00000000000000     
     0.000000    2.744799    2.744799
     2.744799    0.000000    2.744799
     2.744799    2.744799   -0.000000
   Si
     2
Direct
  0.500000  0.500000  0.500000
  0.750000  0.750000  0.750000
 
   32   32   32
 0.87669     0.89833     0.96440      1.0786      1.2470      1.4777      1.7803      2.1641      2.6352      3.1924    
  3.8227      4.4978      5.1738      5.7940      6.2964      6.6245      6.7386      6.6244      6.2963      5.7939    
  5.1737      4.4977      3.8226      3.1924      2.6353      2.1643      1.7804      1.4778      1.2470      1.0786    
 0.96435     0.89828     0.89833     0.93568      1.0124      1.1323      1.3008      1.5246      1.8104      2.1640    
  2.5870      3.0737      3.6080      4.1608      4.6913      5.1511      5.4914      5.6726      5.6726      5.4913    
  5.1510      4.6913      4.1608      3.6080      3.0738      2.5871      2.1642      1.8105      1.5246      1.3008    
  1.1322      1.0123     0.93563     0.89831     0.96440      1.0124      1.0949      1.2158      1.3795      1.5911    
  1.8551      2.1740      2.5460      2.9622      3.4046      3.8451      4.2476      4.5729      4.7850      4.8587    
  4.7850      4.5729      4.2476      3.8451      3.4046      2.9623      2.5461      2.1741      1.8552      1.5911    
  1.3795      1.2157      1.0949      1.0123     0.96439     0.94869      1.0786      1.1323      1.2158      1.3325    
  1.4861      1.6805      1.9181      2.1990      2.5186      2.8661      3.2229      3.5633      3.8569      4.0735    
  4.1888      4.1887      4.0735      3.8569      3.5633      3.2230      2.8662      2.5187      2.1990      1.9181    
  1.6804      1.4861      1.3324      1.2157      1.1322      1.0786      1.0524      1.0524      1.2470      1.3008    
  1.3795      1.4861      1.6239      1.7957      2.0024      2.2423      2.5090      2.7905      3.0688      3.3217    
  3.5250      3.6572      3.7030      3.6571      3.5250      3.3217      3.0689      2.7905      2.5091      2.2424    
  2.0024      1.7956      1.6238      1.4860      1.3794      1.3008      1.2470      1.2157      1.2054      1.2157    
  1.4777      1.5246      1.5911      1.6805      1.7957      1.9388      2.1099      2.3056      2.5186      2.7368    
  2.9440      3.1219      3.2525      3.3218      3.3218      3.2525      3.1218      2.9440      2.7368      2.5187    
  2.3056      2.1098      1.9387      1.7956      1.6804      1.5911      1.5246      1.4777      1.4480      1.4335    
  1.4334      1.4479      1.7803      1.8104      1.8551      1.9181      2.0024      2.1099      2.2396      2.3876    
  2.5460      2.7037      2.8471      2.9621      3.0367      3.0626      3.0367      2.9621      2.8470      2.7037    
  2.5460      2.3876      2.2396      2.1098      2.0024      1.9180      1.8551      1.8105      1.7804      1.7614    
  1.7511      1.7478      1.7510      1.7614      2.1641      2.1640      2.1740      2.1990      2.2423      2.3056    
  2.3876      2.4838      2.5870      2.6875      2.7750      2.8395      2.8738      2.8738      2.8395      2.7750    
  2.6875      2.5870      2.4838      2.3876      2.3056      2.2423      2.1990      2.1741      2.1641      2.1642    
  2.1695      2.1756      2.1794      2.1794      2.1755      2.1694      2.6352      2.5870      2.5460      2.5186    
  2.5090      2.5186      2.5460      2.5870      2.6352      2.6833      2.7239      2.7508      2.7602      2.7508    
  2.7239      2.6834      2.6353      2.5870      2.5461      2.5187      2.5091      2.5187      2.5461      2.5870    
  2.6353      2.6834      2.7239      2.7508      2.7602      2.7508      2.7239      2.6833      3.1924      3.0737    
  2.9622      2.8661      2.7905      2.7368      2.7037      2.6875      2.6833      2.6858      2.6902      2.6932    
  2.6932      2.6902      2.6858      2.6834      2.6876      2.7038      2.7369      2.7906      2.8662      2.9623    
  3.0738      3.1924      3.3074      3.4069      3.4802      3.5190      3.5190      3.4802      3.4070      3.3074    
  3.8227      3.6080      3.4046      3.2229      3.0688      2.9440      2.8471      2.7750      2.7239      2.6902    
  2.6710      2.6649      2.6711      2.6903      2.7240      2.7751      2.8472      2.9441      3.0689      3.2230    
  3.4046      3.6080      3.8226      4.0336      4.2232      4.3739      4.4709      4.5044      4.4709      4.3740    
  4.2233      4.0336      4.4978      4.1608      3.8451      3.5633      3.3217      3.1219      2.9621      2.8395    
  2.7508      2.6932      2.6649      2.6649      2.6933      2.7510      2.8397      2.9623      3.1220      3.3218    
  3.5633      3.8450      4.1607      4.4977      4.8365      5.1525      5.4192      5.6123      5.7137      5.7137    
  5.6124      5.4193      5.1527      4.8366      5.1738      4.6913      4.2476      3.8569      3.5250      3.2525    
  3.0367      2.8738      2.7602      2.6932      2.6711      2.6933      2.7604      2.8740      3.0369      3.2527    
  3.5251      3.8569      4.2476      4.6912      5.1737      5.6714      6.1520      6.5784      6.9141      7.1287    
  7.2025      7.1288      6.9142      6.5786      6.1521      5.6715      5.7940      5.1511      4.5729      4.0735    
  3.6572      3.3218      3.0626      2.8738      2.7508      2.6902      2.6903      2.7510      2.8740      3.0628    
  3.3220      3.6572      4.0735      4.5728      5.1509      5.7939      6.4751      7.1557      7.7871      8.3178    
  8.7012      8.9021      8.9021      8.7012      8.3179      7.7872      7.1558      6.4752      6.2964      5.4914    
  4.7850      4.1888      3.7030      3.3218      3.0367      2.8395      2.7239      2.6858      2.7240      2.8397    
  3.0369      3.3220      3.7031      4.1887      4.7849      5.4912      6.2962      7.1733      8.0792      8.9553    
  9.7345      10.350      10.744      10.880      10.744      10.350      9.7344      8.9553      8.0792      7.1734    
  6.6245      5.6726      4.8587      4.1887      3.6571      3.2525      2.9621      2.7750      2.6834      2.6834    
  2.7751      2.9623      3.2527      3.6572      4.1887      4.8586      5.6725      6.6244      7.6912      8.8295    
  9.9752      11.047      11.958      12.621      12.971      12.971      12.621      11.958      11.047      9.9751    
  8.8295      7.6913      6.7386      5.6726      4.7850      4.0735      3.5250      3.1218      2.8470      2.6875    
  2.6353      2.6876      2.8472      3.1220      3.5251      4.0735      4.7849      5.6725      6.7385      7.9674    
  9.3209      10.735      12.123      13.378      14.384      15.038      15.265      15.038      14.384      13.378    
  12.123      10.735      9.3210      7.9675      6.6244      5.4913      4.5729      3.8569      3.3217      2.9440    
  2.7037      2.5870      2.5870      2.7038      2.9441      3.3218      3.8569      4.5728      5.4912      6.6244    
  7.9674      9.4922      11.143      12.833      14.448      15.847      16.875      17.418      17.418      16.875    
  15.847      14.448      12.833      11.143      9.4922      7.9675      6.2963      5.1510      4.2476      3.5633    
  3.0689      2.7368      2.5460      2.4838      2.5461      2.7369      3.0689      3.5633      4.2476      5.1509    
  6.2962      7.6912      9.3209      11.143      13.081      15.026      16.816      18.254      19.183      19.503    
  19.183      18.254      16.816      15.026      13.081      11.143      9.3209      7.6912      5.7939      4.6913    
  3.8451      3.2230      2.7905      2.5187      2.3876      2.3876      2.5187      2.7906      3.2230      3.8450    
  4.6912      5.7939      7.1733      8.8295      10.735      12.833      15.026      17.155      18.994      20.342    
  21.054      21.054      20.342      18.994      17.155      15.026      12.833      10.735      8.8295      7.1733    
  5.1737      4.1608      3.4046      2.8662      2.5091      2.3056      2.2396      2.3056      2.5091      2.8662    
  3.4046      4.1607      5.1737      6.4751      8.0792      9.9752      12.123      14.448      16.816      18.994    
  20.746      21.881      22.274      21.881      20.746      18.994      16.816      14.448      12.123      9.9751    
  8.0791      6.4751      4.4977      3.6080      2.9623      2.5187      2.2424      2.1098      2.1098      2.2423    
  2.5187      2.9623      3.6080      4.4977      5.6714      7.1557      8.9553      11.047      13.378      15.847    
  18.254      20.342      21.881      22.699      22.699      21.881      20.342      18.254      15.847      13.378    
  11.047      8.9552      7.1556      5.6713      3.8226      3.0738      2.5461      2.1990      2.0024      1.9387    
  2.0024      2.1990      2.5461      3.0738      3.8226      4.8365      6.1520      7.7871      9.7345      11.958    
  14.384      16.875      19.183      21.054      22.274      22.699      22.274      21.054      19.183      16.875    
  14.384      11.958      9.7344      7.7870      6.1519      4.8365      3.1924      2.5871      2.1741      1.9181    
  1.7956      1.7956      1.9180      2.1741      2.5870      3.1924      4.0336      5.1525      6.5784      8.3178    
  10.350      12.621      15.038      17.418      19.503      21.054      21.881      21.881      21.054      19.503    
  17.418      15.038      12.621      10.349      8.3177      6.5783      5.1524      4.0335      2.6353      2.1642    
  1.8552      1.6804      1.6238      1.6804      1.8551      2.1641      2.6353      3.3074      4.2232      5.4192    
  6.9141      8.7012      10.744      12.971      15.265      17.418      19.183      20.342      20.746      20.342    
  19.183      17.418      15.264      12.971      10.744      8.7010      6.9140      5.4191      4.2232      3.3074    
  2.1643      1.8105      1.5911      1.4861      1.4860      1.5911      1.8105      2.1642      2.6834      3.4069    
  4.3739      5.6123      7.1287      8.9021      10.880      12.971      15.038      16.875      18.254      18.994    
  18.994      18.254      16.875      15.038      12.971      10.880      8.9020      7.1286      5.6122      4.3739    
  3.4070      2.6834      1.7804      1.5246      1.3795      1.3324      1.3794      1.5246      1.7804      2.1695    
  2.7239      3.4802      4.4709      5.7137      7.2025      8.9021      10.744      12.621      14.384      15.847    
  16.816      17.155      16.816      15.847      14.384      12.621      10.744      8.9020      7.2024      5.7136    
  4.4708      3.4802      2.7240      2.1696      1.4778      1.3008      1.2157      1.2157      1.3008      1.4777    
  1.7614      2.1756      2.7508      3.5190      4.5044      5.7137      7.1288      8.7012      10.350      11.958    
  13.378      14.448      15.026      15.026      14.448      13.378      11.958      10.349      8.7010      7.1286    
  5.7136      4.5043      3.5190      2.7509      2.1757      1.7615      1.2470      1.1322      1.0949      1.1322    
  1.2470      1.4480      1.7511      2.1794      2.7602      3.5190      4.4709      5.6124      6.9142      8.3179    
  9.7344      11.047      12.123      12.833      13.081      12.833      12.123      11.047      9.7344      8.3177    
  6.9140      5.6122      4.4708      3.5190      2.7603      2.1795      1.7512      1.4480      1.0786      1.0123    
  1.0123      1.0786      1.2157      1.4335      1.7478      2.1794      2.7508      3.4802      4.3740      5.4193    
  6.5786      7.7872      8.9553      9.9751      10.735      11.143      11.143      10.735      9.9751      8.9552    
  7.7870      6.5783      5.4191      4.3739      3.4802      2.7509      2.1795      1.7479      1.4335      1.2157    
 0.96435     0.93563     0.96439      1.0524      1.2054      1.4334      1.7510      2.1755      2.7239      3.4070    
  4.2233      5.1527      6.1521      7.1558      8.0792      8.8295      9.3210      9.4922      9.3209      8.8295    
  8.0791      7.1556      6.1519      5.1524      4.2232      3.4070      2.7240      2.1757      1.7512      1.4335    
  1.2054      1.0524     0.89828     0.89831     0.94869      1.0524      1.2157      1.4479      1.7614      2.1694    
  2.6833      3.3074      4.0336      4.8366      5.6715      6.4752      7.1734      7.6913      7.9675      7.9675    
  7.6912      7.1733      6.4751      5.6713      4.8365      4.0335      3.3074      2.6834      2.1696      1.7615    
  1.4480      1.2157      1.0524     0.94863     0.89833     0.93568      1.0124      1.1323      1.3008      1.5246    
  1.8104      2.1640      2.5870      3.0737      3.6080      4.1608      4.6913      5.1511      5.4914      5.6726    
  5.6726      5.4913      5.1510      4.6913      4.1608      3.6080      3.0738      2.5871      2.1642      1.8105    
  1.5246      1.3008      1.1322      1.0123     0.93563     0.89831     0.93568     0.98247      1.0631      1.1814    
  1.3417      1.5490      1.8077      2.1199      2.4838      2.8907      3.3229      3.7533      4.1466      4.4644    
  4.6717      4.7438      4.6717      4.4644      4.1465      3.7532      3.3230      2.8908      2.4839      2.1200    
  1.8077      1.5490      1.3417      1.1813      1.0631     0.98244     0.93566     0.92035      1.0124      1.0631    
  1.1425      1.2538      1.4007      1.5867      1.8140      2.0825      2.3876      2.7189      3.0590      3.3835    
  3.6636      3.8705      3.9806      3.9806      3.8705      3.6636      3.3835      3.0591      2.7191      2.3877    
  2.0825      1.8140      1.5867      1.4006      1.2537      1.1425      1.0631      1.0124     0.98765     0.98765    
  1.1323      1.1814      1.2538      1.3525      1.4808      1.6410      1.8339      2.0574      2.3056      2.5675    
  2.8265      3.0621      3.2517      3.3752      3.4180      3.3752      3.2517      3.0621      2.8265      2.5675    
  2.3057      2.0575      1.8339      1.6410      1.4808      1.3525      1.2537      1.1813      1.1323      1.1039    
  1.0946      1.1039      1.3008      1.3417      1.4007      1.4808      1.5850      1.7150      1.8706      2.0486    
  2.2424      2.4409      2.6297      2.7921      2.9117      2.9752      2.9752      2.9117      2.7921      2.6297    
  2.4409      2.2424      2.0487      1.8706      1.7149      1.5849      1.4807      1.4006      1.3417      1.3008    
  1.2752      1.2629      1.2629      1.2752      1.5246      1.5490      1.5867      1.6410      1.7150      1.8101    
  1.9255      2.0574      2.1990      2.3402      2.4689      2.5725      2.6399      2.6632      2.6399      2.5725    
  2.4689      2.3402      2.1990      2.0574      1.9255      1.8101      1.7149      1.6409      1.5866      1.5490    
  1.5246      1.5099      1.5021      1.4997      1.5021      1.5098      1.8104      1.8077      1.8140      1.8339    
  1.8706      1.9255      1.9974      2.0825      2.1740      2.2636      2.3418      2.3997      2.4306      2.4306    
  2.3998      2.3418      2.2637      2.1741      2.0825      1.9974      1.9254      1.8705      1.8338      1.8140    
  1.8077      1.8105      1.8176      1.8249      1.8293      1.8293      1.8248      1.8176      2.1640      2.1199    
  2.0825      2.0574      2.0486      2.0574      2.0825      2.1199      2.1640      2.2080      2.2451      2.2698    
  2.2785      2.2699      2.2452      2.2080      2.1641      2.1199      2.0825      2.0574      2.0486      2.0574    
  2.0825      2.1199      2.1641      2.2080      2.2452      2.2699      2.2785      2.2698      2.2451      2.2080    
  2.5870      2.4838      2.3876      2.3056      2.2424      2.1990      2.1740      2.1640      2.1641      2.1694    
  2.1755      2.1794      2.1794      2.1756      2.1695      2.1642      2.1641      2.1741      2.1990      2.2423    
  2.3056      2.3876      2.4838      2.5870      2.6875      2.7750      2.8395      2.8738      2.8738      2.8395    
  2.7750      2.6875      3.0737      2.8907      2.7189      2.5675      2.4409      2.3402      2.2636      2.2080    
  2.1694      2.1445      2.1305      2.1260      2.1306      2.1446      2.1696      2.2081      2.2637      2.3401    
  2.4408      2.5674      2.7190      2.8907      3.0737      3.2551      3.4195      3.5510      3.6360      3.6654    
  3.6360      3.5510      3.4196      3.2552      3.6080      3.3229      3.0590      2.8265      2.6297      2.4689    
  2.3418      2.2451      2.1755      2.1305      2.1084      2.1084      2.1306      2.1757      2.2453      2.3419    
  2.4689      2.6296      2.8264      3.0590      3.3229      3.6079      3.8979      4.1712      4.4042      4.5742    
  4.6640      4.6640      4.5743      4.4043      4.1713      3.8979      4.1608      3.7533      3.3835      3.0621    
  2.7921      2.5725      2.3997      2.2698      2.1794      2.1260      2.1084      2.1262      2.1796      2.2700    
  2.3998      2.5725      2.7920      3.0619      3.3834      3.7532      4.1607      4.5870      5.0044      5.3795    
  5.6781      5.8706      5.9371      5.8707      5.6782      5.3796      5.0045      4.5871      4.6913      4.1466    
  3.6636      3.2517      2.9117      2.6399      2.4306      2.2785      2.1794      2.1306      2.1306      2.1796    
  2.2787      2.4307      2.6399      2.9116      3.2516      3.6635      4.1464      4.6912      5.2775      5.8724    
  6.4327      6.9101      7.2586      7.4426      7.4426      7.2586      6.9101      6.4328      5.8725      5.2776    
  5.1511      4.4644      3.8705      3.3752      2.9752      2.6632      2.4306      2.2699      2.1756      2.1446    
  2.1757      2.2700      2.4307      2.6632      2.9752      3.3750      3.8704      4.4642      5.1509      5.9112    
  6.7095      7.4941      8.2021      8.7678      9.1335      9.2601      9.1335      8.7678      8.2021      7.4942    
  6.7096      5.9113      5.4914      4.6717      3.9806      3.4180      2.9752      2.6399      2.3998      2.2452    
  2.1695      2.1696      2.2453      2.3998      2.6399      2.9752      3.4179      3.9804      4.6715      5.4912    
  6.4247      7.4375      8.4734      9.4570      10.302      10.923      11.252      11.252      10.923      10.302    
  9.4570      8.4734      7.4376      6.4248      5.6726      4.7438      3.9806      3.3752      2.9117      2.5725    
  2.3418      2.2080      2.1642      2.2081      2.3419      2.5725      2.9116      3.3750      3.9804      4.7436    
  5.6725      6.7601      7.9778      9.2707      10.556      11.731      12.680      13.300      13.515      13.300    
  12.680      11.731      10.556      9.2707      7.9779      6.7602      5.6726      4.6717      3.8705      3.2517    
  2.7921      2.4689      2.2637      2.1641      2.1641      2.2637      2.4689      2.7920      3.2516      3.8704    
  4.6715      5.6725      6.8768      8.2661      9.7934      11.378      12.906      14.239      15.233      15.766    
  15.766      15.233      14.239      12.906      11.378      9.7934      8.2662      6.8769      5.4913      4.4644    
  3.6636      3.0621      2.6297      2.3402      2.1741      2.1199      2.1741      2.3401      2.6296      3.0619    
  3.6635      4.4642      5.4912      6.7601      8.2661      9.9756      11.818      13.683      15.417      16.844    
  17.788      18.118      17.788      16.844      15.417      13.683      11.818      9.9757      8.2662      6.7602    
  5.1510      4.1465      3.3835      2.8265      2.4409      2.1990      2.0825      2.0825      2.1990      2.4408    
  2.8264      3.3834      4.1464      5.1509      6.4247      7.9778      9.7934      11.818      13.955      16.054    
  17.919      19.330      20.090      20.090      19.330      17.920      16.054      13.955      11.818      9.7934    
  7.9779      6.4247      4.6913      3.7532      3.0591      2.5675      2.2424      2.0574      1.9974      2.0574    
  2.2423      2.5674      3.0590      3.7532      4.6912      5.9112      7.4375      9.2707      11.378      13.683    
  16.054      18.298      20.166      21.407      21.841      21.407      20.166      18.298      16.054      13.683    
  11.378      9.2706      7.4375      5.9112      4.1608      3.3230      2.7191      2.3057      2.0487      1.9255    
  1.9254      2.0486      2.3056      2.7190      3.3229      4.1607      5.2775      6.7095      8.4734      10.556    
  12.906      15.417      17.919      20.166      21.869      22.789      22.789      21.870      20.166      17.920    
  15.417      12.906      10.556      8.4734      6.7094      5.2775      3.6080      2.8908      2.3877      2.0575    
  1.8706      1.8101      1.8705      2.0574      2.3876      2.8907      3.6079      4.5870      5.8724      7.4941    
  9.4570      11.731      14.239      16.844      19.330      21.407      22.789      23.275      22.789      21.407    
  19.330      16.844      14.239      11.731      9.4569      7.4940      5.8723      4.5870      3.0738      2.4839    
  2.0825      1.8339      1.7149      1.7149      1.8338      2.0825      2.4838      3.0737      3.8979      5.0044    
  6.4327      8.2021      10.302      12.680      15.233      17.788      20.090      21.841      22.789      22.789    
  21.841      20.090      17.788      15.233      12.680      10.302      8.2020      6.4326      5.0043      3.8979    
  2.5871      2.1200      1.8140      1.6410      1.5849      1.6409      1.8140      2.1199      2.5870      3.2551    
  4.1712      5.3795      6.9101      8.7678      10.923      13.300      15.766      18.118      20.090      21.407    
  21.870      21.407      20.090      18.118      15.766      13.300      10.923      8.7677      6.9100      5.3795    
  4.1713      3.2553      2.1642      1.8077      1.5867      1.4808      1.4807      1.5866      1.8077      2.1641    
  2.6875      3.4195      4.4042      5.6781      7.2586      9.1335      11.252      13.515      15.766      17.788    
  19.330      20.166      20.166      19.330      17.788      15.766      13.515      11.252      9.1334      7.2585    
  5.6781      4.4043      3.4197      2.6877      1.8105      1.5490      1.4006      1.3525      1.4006      1.5490    
  1.8105      2.2080      2.7750      3.5510      4.5742      5.8706      7.4426      9.2601      11.252      13.300    
  15.233      16.844      17.920      18.298      17.920      16.844      15.233      13.300      11.252      9.2600    
  7.4425      5.8706      4.5743      3.5511      2.7751      2.2082      1.5246      1.3417      1.2537      1.2537    
  1.3417      1.5246      1.8176      2.2452      2.8395      3.6360      4.6640      5.9371      7.4426      9.1335    
  10.923      12.680      14.239      15.417      16.054      16.054      15.417      14.239      12.680      10.923    
  9.1334      7.4425      5.9371      4.6641      3.6361      2.8397      2.2453      1.8177      1.3008      1.1813    
  1.1425      1.1813      1.3008      1.5099      1.8249      2.2699      2.8738      3.6654      4.6640      5.8707    
  7.2586      8.7678      10.302      11.731      12.906      13.683      13.955      13.683      12.906      11.731    
  10.302      8.7677      7.2585      5.8706      4.6641      3.6656      2.8740      2.2700      1.8250      1.5099    
  1.1322      1.0631      1.0631      1.1323      1.2752      1.5021      1.8293      2.2785      2.8738      3.6360    
  4.5743      5.6782      6.9101      8.2021      9.4570      10.556      11.378      11.818      11.818      11.378    
  10.556      9.4569      8.2020      6.9100      5.6781      4.5743      3.6361      2.8740      2.2787      1.8294    
  1.5022      1.2752      1.0123     0.98244      1.0124      1.1039      1.2629      1.4997      1.8293      2.2698    
  2.8395      3.5510      4.4043      5.3796      6.4328      7.4942      8.4734      9.2707      9.7934      9.9757    
  9.7934      9.2706      8.4734      7.4940      6.4326      5.3795      4.4043      3.5511      2.8397      2.2700    
  1.8294      1.4998      1.2629      1.1039     0.93563     0.93566     0.98765      1.0946      1.2629      1.5021    
  1.8248      2.2451      2.7750      3.4196      4.1713      5.0045      5.8725      6.7096      7.4376      7.9779    
  8.2662      8.2662      7.9779      7.4375      6.7094      5.8723      5.0043      4.1713      3.4197      2.7751    
  2.2453      1.8250      1.5022      1.2629      1.0946     0.98759     0.89831     0.92035     0.98765      1.1039    
  1.2752      1.5098      1.8176      2.2080      2.6875      3.2552      3.8979      4.5871      5.2776      5.9113    
  6.4248      6.7602      6.8769      6.7602      6.4247      5.9112      5.2775      4.5870      3.8979      3.2553    
  2.6877      2.2082      1.8177      1.5099      1.2752      1.1039     0.98759     0.92031     0.96441      1.0124    
  1.0949      1.2158      1.3795      1.5911      1.8551      2.1740      2.5460      2.9622      3.4046      3.8451    
  4.2476      4.5729      4.7850      4.8587      4.7850      4.5729      4.2476      3.8451      3.4046      2.9623    
  2.5461      2.1741      1.8552      1.5911      1.3795      1.2157      1.0949      1.0123     0.96439     0.94869    
  1.0124      1.0631      1.1425      1.2538      1.4007      1.5867      1.8140      2.0825      2.3876      2.7189    
  3.0590      3.3835      3.6636      3.8705      3.9806      3.9806      3.8705      3.6636      3.3835      3.0591    
  2.7190      2.3877      2.0825      1.8140      1.5867      1.4006      1.2537      1.1425      1.0631      1.0124    
 0.98765     0.98765      1.0949      1.1425      1.2128      1.3091      1.4343      1.5908      1.7792      1.9974    
  2.2396      2.4950      2.7477      2.9776      3.1628      3.2834      3.3253      3.2834      3.1628      2.9776    
  2.7477      2.4951      2.2397      1.9975      1.7792      1.5908      1.4343      1.3090      1.2128      1.1425    
  1.0949      1.0676      1.0586      1.0676      1.2158      1.2538      1.3091      1.3849      1.4839      1.6077    
  1.7559      1.9255      2.1099      2.2989      2.4788      2.6338      2.7480      2.8087      2.8087      2.7480    
  2.6338      2.4788      2.2989      2.1099      1.9255      1.7559      1.6077      1.4839      1.3848      1.3091    
  1.2538      1.2158      1.1923      1.1811      1.1811      1.1923      1.3795      1.4007      1.4343      1.4839    
  1.5522      1.6405      1.7478      1.8706      2.0024      2.1342      2.2545      2.3516      2.4148      2.4368    
  2.4148      2.3516      2.2545      2.1342      2.0025      1.8706      1.7478      1.6404      1.5522      1.4839    
  1.4343      1.4007      1.3795      1.3673      1.3613      1.3594      1.3612      1.3673      1.5911      1.5867    
  1.5908      1.6077      1.6405      1.6903      1.7559      1.8339      1.9181      2.0007      2.0731      2.1270    
  2.1557      2.1557      2.1270      2.0732      2.0008      1.9181      1.8339      1.7559      1.6902      1.6404    
  1.6077      1.5908      1.5867      1.5911      1.5996      1.6078      1.6128      1.6128      1.6078      1.5995    
  1.8551      1.8140      1.7792      1.7559      1.7478      1.7559      1.7792      1.8140      1.8551      1.8963    
  1.9312      1.9545      1.9627      1.9545      1.9312      1.8963      1.8552      1.8140      1.7792      1.7559    
  1.7477      1.7559      1.7792      1.8140      1.8552      1.8963      1.9312      1.9545      1.9627      1.9545    
  1.9312      1.8963      2.1740      2.0825      1.9974      1.9255      1.8706      1.8339      1.8140      1.8077    
  1.8104      1.8176      1.8249      1.8293      1.8293      1.8249      1.8176      1.8105      1.8077      1.8140    
  1.8338      1.8705      1.9254      1.9974      2.0825      2.1741      2.2637      2.3418      2.3998      2.4306    
  2.4306      2.3998      2.3418      2.2636      2.5460      2.3876      2.2396      2.1099      2.0024      1.9181    
  1.8551      1.8104      1.7803      1.7614      1.7510      1.7478      1.7511      1.7614      1.7804      1.8105    
  1.8551      1.9180      2.0024      2.1098      2.2396      2.3876      2.5460      2.7037      2.8470      2.9621    
  3.0367      3.0626      3.0367      2.9621      2.8471      2.7037      2.9622      2.7189      2.4950      2.2989    
  2.1342      2.0007      1.8963      1.8176      1.7614      1.7252      1.7075      1.7076      1.7253      1.7615    
  1.8176      1.8963      2.0007      2.1341      2.2988      2.4949      2.7189      2.9622      3.2109      3.4465    
  3.6482      3.7960      3.8742      3.8742      3.7960      3.6482      3.4465      3.2109      3.4046      3.0590    
  2.7477      2.4788      2.2545      2.0731      1.9312      1.8249      1.7510      1.7075      1.6932      1.7076    
  1.7511      1.8249      1.9312      2.0731      2.2544      2.4787      2.7476      3.0590      3.4045      3.7683    
  4.1268      4.4509      4.7103      4.8782      4.9363      4.8782      4.7104      4.4510      4.1268      3.7683    
  3.8451      3.3835      2.9776      2.6338      2.3516      2.1270      1.9545      1.8293      1.7478      1.7076    
  1.7076      1.7479      1.8294      1.9545      2.1269      2.3515      2.6336      2.9774      3.3834      3.8450    
  4.3457      4.8578      5.3438      5.7605      6.0662      6.2281      6.2282      6.0662      5.7605      5.3438    
  4.8579      4.3458      4.2476      3.6636      3.1628      2.7480      2.4148      2.1557      1.9627      1.8293    
  1.7511      1.7253      1.7511      1.8294      1.9627      2.1556      2.4147      2.7478      3.1626      3.6635    