   2   2   0   0
  0.2001288E+02  0.3839590E-09  0.3839590E-09  0.3839590E-09  0.5000000E-15
  1.000000000000000E-004
  CAR 
 unknown system                          
     17.24015148     -8.16201339  301      5.95966926      1.00000000
     -8.162  0.0000E+00  0.0000E+00
     -8.077  0.0000E+00  0.0000E+00
     -7.993  0.0000E+00  0.0000E+00
     -7.908  0.0000E+00  0.0000E+00
     -7.823  0.0000E+00  0.0000E+00
     -7.739  0.0000E+00  0.0000E+00
     -7.654  0.0000E+00  0.0000E+00
     -7.569  0.0000E+00  0.0000E+00
     -7.485  0.0000E+00  0.0000E+00
     -7.400  0.0000E+00  0.0000E+00
     -7.315  0.5245E-18  0.4441E-19
     -7.231  0.6643E-16  0.5670E-17
     -7.146  0.5579E-14  0.4781E-15
     -7.061  0.3306E-12  0.2847E-13
     -6.977  0.1384E-10  0.1201E-11
     -6.892  0.4110E-09  0.3600E-10
     -6.807  0.8683E-08  0.7712E-09
     -6.723  0.1312E-06  0.1188E-07
     -6.638  0.1425E-05  0.1326E-06
     -6.553  0.1123E-04  0.1083E-05
     -6.469  0.6475E-04  0.6566E-05
     -6.384  0.2766E-03  0.2999E-04
     -6.299  0.8890E-03  0.1053E-03
     -6.215  0.2196E-02  0.2912E-03
     -6.130  0.4293E-02  0.6547E-03
     -6.045  0.6915E-02  0.1240E-02
     -5.960  0.9600E-02  0.2053E-02
     -5.876  0.1199E-01  0.3069E-02
     -5.791  0.1401E-01  0.4255E-02
     -5.706  0.1583E-01  0.5595E-02
     -5.622  0.1756E-01  0.7082E-02
     -5.537  0.1903E-01  0.8693E-02
     -5.452  0.2023E-01  0.1041E-01
     -5.368  0.2159E-01  0.1223E-01
     -5.283  0.2324E-01  0.1420E-01
     -5.198  0.2478E-01  0.1630E-01
     -5.114  0.2579E-01  0.1848E-01
     -5.029  0.2644E-01  0.2072E-01
     -4.944  0.2761E-01  0.2306E-01
     -4.860  0.2974E-01  0.2558E-01
     -4.775  0.3186E-01  0.2828E-01
     -4.690  0.3280E-01  0.3105E-01
     -4.606  0.3296E-01  0.3384E-01
     -4.521  0.3382E-01  0.3671E-01
     -4.436  0.3605E-01  0.3976E-01
     -4.352  0.3883E-01  0.4305E-01
     -4.267  0.4140E-01  0.4655E-01
     -4.182  0.4374E-01  0.5026E-01
     -4.098  0.4578E-01  0.5413E-01
     -4.013  0.4755E-01  0.5816E-01
     -3.928  0.5003E-01  0.6239E-01
     -3.844  0.5391E-01  0.6696E-01
     -3.759  0.5757E-01  0.7183E-01
     -3.674  0.5838E-01  0.7678E-01
     -3.590  0.5637E-01  0.8155E-01
     -3.505  0.5358E-01  0.8609E-01
     -3.420  0.5030E-01  0.9035E-01
     -3.336  0.4602E-01  0.9424E-01
     -3.251  0.4292E-01  0.9788E-01
     -3.166  0.4363E-01  0.1016E+00
     -3.082  0.4662E-01  0.1055E+00
     -2.997  0.4723E-01  0.1095E+00
     -2.912  0.4281E-01  0.1131E+00
     -2.828  0.3514E-01  0.1161E+00
     -2.743  0.2822E-01  0.1185E+00
     -2.658  0.2518E-01  0.1206E+00
     -2.574  0.2657E-01  0.1229E+00
     -2.489  0.2987E-01  0.1254E+00
     -2.404  0.3084E-01  0.1280E+00
     -2.320  0.2681E-01  0.1303E+00
     -2.235  0.1888E-01  0.1319E+00
     -2.150  0.1056E-01  0.1328E+00
     -2.065  0.4869E-02  0.1332E+00
     -1.981  0.3057E-02  0.1335E+00
     -1.896  0.5621E-02  0.1339E+00
     -1.811  0.1272E-01  0.1350E+00
     -1.727  0.2225E-01  0.1369E+00
     -1.642  0.2914E-01  0.1394E+00
     -1.557  0.2985E-01  0.1419E+00
     -1.473  0.2678E-01  0.1442E+00
     -1.388  0.2623E-01  0.1464E+00
     -1.303  0.3356E-01  0.1492E+00
     -1.219  0.4994E-01  0.1535E+00
     -1.134  0.7054E-01  0.1594E+00
     -1.049  0.8567E-01  0.1667E+00
     -0.965  0.8738E-01  0.1741E+00
     -0.880  0.7664E-01  0.1806E+00
     -0.795  0.6243E-01  0.1859E+00
     -0.711  0.5243E-01  0.1903E+00
     -0.626  0.4656E-01  0.1942E+00
     -0.541  0.4159E-01  0.1978E+00
     -0.457  0.3835E-01  0.2010E+00
     -0.372  0.3932E-01  0.2043E+00
     -0.287  0.4191E-01  0.2079E+00
     -0.203  0.4034E-01  0.2113E+00
     -0.118  0.3392E-01  0.2142E+00
     -0.033  0.2830E-01  0.2166E+00
      0.051  0.2755E-01  0.2189E+00
      0.136  0.2907E-01  0.2214E+00
      0.221  0.2791E-01  0.2237E+00
      0.305  0.2347E-01  0.2257E+00
      0.390  0.1975E-01  0.2274E+00
      0.475  0.2026E-01  0.2291E+00
      0.559  0.2426E-01  0.2312E+00
      0.644  0.2705E-01  0.2334E+00
      0.729  0.2458E-01  0.2355E+00
      0.813  0.1837E-01  0.2371E+00
      0.898  0.1370E-01  0.2382E+00
      0.983  0.1370E-01  0.2394E+00
      1.067  0.1697E-01  0.2408E+00
      1.152  0.2044E-01  0.2426E+00
      1.237  0.2316E-01  0.2445E+00
      1.321  0.2719E-01  0.2468E+00
      1.406  0.3498E-01  0.2498E+00
      1.491  0.4694E-01  0.2538E+00
      1.575  0.6136E-01  0.2590E+00
      1.660  0.7416E-01  0.2652E+00
      1.745  0.7976E-01  0.2720E+00
      1.830  0.7619E-01  0.2785E+00
      1.914  0.6861E-01  0.2843E+00
      1.999  0.6479E-01  0.2897E+00
      2.084  0.6772E-01  0.2955E+00
      2.168  0.7335E-01  0.3017E+00
      2.253  0.7588E-01  0.3081E+00
      2.338  0.7455E-01  0.3144E+00
      2.422  0.7312E-01  0.3206E+00
      2.507  0.7384E-01  0.3269E+00
      2.592  0.7629E-01  0.3333E+00
      2.676  0.8111E-01  0.3402E+00
      2.761  0.8929E-01  0.3478E+00
      2.846  0.9769E-01  0.3560E+00
      2.930  0.1006E+00  0.3646E+00
      3.015  0.9758E-01  0.3728E+00
      3.100  0.9452E-01  0.3808E+00
      3.184  0.9627E-01  0.3890E+00
      3.269  0.9974E-01  0.3974E+00
      3.354  0.9887E-01  0.4058E+00
      3.438  0.9378E-01  0.4137E+00
      3.523  0.8987E-01  0.4213E+00
      3.608  0.8990E-01  0.4290E+00
      3.692  0.9116E-01  0.4367E+00
      3.777  0.8959E-01  0.4443E+00
      3.862  0.8469E-01  0.4514E+00
      3.946  0.8023E-01  0.4582E+00
      4.031  0.8032E-01  0.4650E+00
      4.116  0.8425E-01  0.4722E+00
      4.200  0.8586E-01  0.4794E+00
      4.285  0.8053E-01  0.4862E+00
      4.370  0.7134E-01  0.4923E+00
      4.454  0.6460E-01  0.4978E+00
      4.539  0.6148E-01  0.5030E+00
      4.624  0.5773E-01  0.5079E+00
      4.708  0.5059E-01  0.5121E+00
      4.793  0.4233E-01  0.5157E+00
      4.878  0.3618E-01  0.5188E+00
      4.962  0.3215E-01  0.5215E+00
      5.047  0.2836E-01  0.5239E+00
      5.132  0.2443E-01  0.5260E+00
      5.216  0.2128E-01  0.5278E+00
      5.301  0.1881E-01  0.5294E+00
      5.386  0.1588E-01  0.5307E+00
      5.470  0.1221E-01  0.5317E+00
      5.555  0.8533E-02  0.5325E+00
      5.640  0.5393E-02  0.5329E+00
      5.725  0.2941E-02  0.5332E+00
      5.809  0.1296E-02  0.5333E+00
      5.894  0.4439E-03  0.5333E+00
      5.979  0.1569E-03  0.5333E+00
      6.063  0.2704E-03  0.5334E+00
      6.148  0.9604E-03  0.5334E+00
      6.233  0.2661E-02  0.5337E+00
      6.317  0.5508E-02  0.5341E+00
      6.402  0.8987E-02  0.5349E+00
      6.487  0.1272E-01  0.5360E+00
      6.571  0.1716E-01  0.5374E+00
      6.656  0.2252E-01  0.5393E+00
      6.741  0.2762E-01  0.5417E+00
      6.825  0.3128E-01  0.5443E+00
      6.910  0.3349E-01  0.5472E+00
      6.995  0.3486E-01  0.5501E+00
      7.079  0.3655E-01  0.5532E+00
      7.164  0.4068E-01  0.5566E+00
      7.249  0.4863E-01  0.5608E+00
      7.333  0.5842E-01  0.5657E+00
      7.418  0.6547E-01  0.5713E+00
      7.503  0.6770E-01  0.5770E+00
      7.587  0.6912E-01  0.5828E+00
      7.672  0.7550E-01  0.5892E+00
      7.757  0.8675E-01  0.5966E+00
      7.841  0.9694E-01  0.6048E+00
      7.926  0.1017E+00  0.6134E+00
      8.011  0.1020E+00  0.6220E+00
      8.095  0.1009E+00  0.6306E+00
      8.180  0.9929E-01  0.6390E+00
      8.265  0.9573E-01  0.6471E+00
      8.349  0.8906E-01  0.6546E+00
      8.434  0.8095E-01  0.6615E+00
      8.519  0.7487E-01  0.6678E+00
      8.603  0.7300E-01  0.6740E+00
      8.688  0.7606E-01  0.6804E+00
      8.773  0.8503E-01  0.6876E+00
      8.857  0.9984E-01  0.6961E+00
      8.942  0.1165E+00  0.7060E+00
      9.027  0.1286E+00  0.7168E+00
      9.111  0.1325E+00  0.7281E+00
      9.196  0.1287E+00  0.7390E+00
      9.281  0.1205E+00  0.7492E+00
      9.365  0.1108E+00  0.7585E+00
      9.450  0.1027E+00  0.7672E+00
      9.535  0.9713E-01  0.7755E+00
      9.620  0.9240E-01  0.7833E+00
      9.704  0.8803E-01  0.7907E+00
      9.789  0.8645E-01  0.7981E+00
      9.874  0.8810E-01  0.8055E+00
      9.958  0.8923E-01  0.8131E+00
     10.043  0.8761E-01  0.8205E+00
     10.128  0.8519E-01  0.8277E+00
     10.212  0.8360E-01  0.8348E+00
     10.297  0.8186E-01  0.8417E+00
     10.382  0.7998E-01  0.8485E+00
     10.466  0.8065E-01  0.8553E+00
     10.551  0.8529E-01  0.8625E+00
     10.636  0.9077E-01  0.8702E+00
     10.720  0.9238E-01  0.8781E+00
     10.805  0.8872E-01  0.8856E+00
     10.890  0.8181E-01  0.8925E+00
     10.974  0.7418E-01  0.8988E+00
     11.059  0.6788E-01  0.9045E+00
     11.144  0.6518E-01  0.9100E+00
     11.228  0.6783E-01  0.9158E+00
     11.313  0.7476E-01  0.9221E+00
     11.398  0.8152E-01  0.9290E+00
     11.482  0.8420E-01  0.9361E+00
     11.567  0.8269E-01  0.9432E+00
     11.652  0.7802E-01  0.9498E+00
     11.736  0.6985E-01  0.9557E+00
     11.821  0.5880E-01  0.9607E+00
     11.906  0.4907E-01  0.9648E+00
     11.990  0.4589E-01  0.9687E+00
     12.075  0.5071E-01  0.9730E+00
     12.160  0.6013E-01  0.9781E+00
     12.244  0.6914E-01  0.9839E+00
     12.329  0.7447E-01  0.9902E+00
     12.414  0.7510E-01  0.9966E+00
     12.498  0.7081E-01  0.1003E+01
     12.583  0.6158E-01  0.1008E+01
     12.668  0.4981E-01  0.1012E+01
     12.752  0.3987E-01  0.1015E+01
     12.837  0.3377E-01  0.1018E+01
     12.922  0.3011E-01  0.1021E+01
     13.006  0.2759E-01  0.1023E+01
     13.091  0.2733E-01  0.1025E+01
     13.176  0.3181E-01  0.1028E+01
     13.260  0.4188E-01  0.1032E+01
     13.345  0.5364E-01  0.1036E+01
     13.430  0.5886E-01  0.1041E+01
     13.515  0.5194E-01  0.1046E+01
     13.599  0.3666E-01  0.1049E+01
     13.684  0.2270E-01  0.1051E+01
     13.769  0.1580E-01  0.1052E+01
     13.853  0.1418E-01  0.1053E+01
     13.938  0.1334E-01  0.1054E+01
     14.023  0.1180E-01  0.1055E+01
     14.107  0.1155E-01  0.1056E+01
     14.192  0.1429E-01  0.1058E+01
     14.277  0.1836E-01  0.1059E+01
     14.361  0.1978E-01  0.1061E+01
     14.446  0.1629E-01  0.1062E+01
     14.531  0.9922E-02  0.1063E+01
     14.615  0.4506E-02  0.1063E+01
     14.700  0.1938E-02  0.1063E+01
     14.785  0.1881E-02  0.1064E+01
     14.869  0.3247E-02  0.1064E+01
     14.954  0.4826E-02  0.1064E+01
     15.039  0.5723E-02  0.1065E+01
     15.123  0.5896E-02  0.1065E+01
     15.208  0.5610E-02  0.1066E+01
     15.293  0.4710E-02  0.1066E+01
     15.377  0.3171E-02  0.1066E+01
     15.462  0.1602E-02  0.1067E+01
     15.547  0.5895E-03  0.1067E+01
     15.631  0.1558E-03  0.1067E+01
     15.716  0.2944E-04  0.1067E+01
     15.801  0.3961E-05  0.1067E+01
     15.885  0.3789E-06  0.1067E+01
     15.970  0.2570E-07  0.1067E+01
     16.055  0.1235E-08  0.1067E+01
     16.139  0.4193E-10  0.1067E+01
     16.224  0.1005E-11  0.1067E+01
     16.309  0.1699E-13  0.1067E+01
     16.393  0.2014E-15  0.1067E+01
     16.478  0.2098E-17  0.1067E+01
     16.563  0.0000E+00  0.1067E+01
     16.647  0.0000E+00  0.1067E+01
     16.732  0.0000E+00  0.1067E+01
     16.817  0.0000E+00  0.1067E+01
     16.901  0.0000E+00  0.1067E+01
     16.986  0.0000E+00  0.1067E+01
     17.071  0.0000E+00  0.1067E+01
     17.155  0.0000E+00  0.1067E+01
     17.240  0.0000E+00  0.1067E+01
