   2   2   0   0
  0.2001288E+02  0.3839590E-09  0.3839590E-09  0.3839590E-09  0.5000000E-15
  1.000000000000000E-004
  CAR 
 unknown system                          
     16.30163277     -7.92974771  301      6.18494220      1.00000000
     -7.930  0.0000E+00  0.0000E+00
     -7.849  0.0000E+00  0.0000E+00
     -7.768  0.0000E+00  0.0000E+00
     -7.687  0.0000E+00  0.0000E+00
     -7.607  0.0000E+00  0.0000E+00
     -7.526  0.0000E+00  0.0000E+00
     -7.445  0.0000E+00  0.0000E+00
     -7.364  0.0000E+00  0.0000E+00
     -7.284  0.0000E+00  0.0000E+00
     -7.203  0.0000E+00  0.0000E+00
     -7.122  0.0000E+00  0.0000E+00
     -7.041  0.1002E-15  0.8095E-17
     -6.960  0.7987E-14  0.6532E-15
     -6.880  0.4693E-12  0.3856E-13
     -6.799  0.1999E-10  0.1653E-11
     -6.718  0.6178E-09  0.5155E-10
     -6.637  0.1385E-07  0.1170E-08
     -6.557  0.2255E-06  0.1938E-07
     -6.476  0.2665E-05  0.2347E-06
     -6.395  0.2289E-04  0.2084E-05
     -6.314  0.1429E-03  0.1363E-04
     -6.234  0.6488E-03  0.6603E-04
     -6.153  0.2143E-02  0.2391E-03
     -6.072  0.5150E-02  0.6551E-03
     -5.991  0.9010E-02  0.1383E-02
     -5.910  0.1149E-01  0.2311E-02
     -5.830  0.1077E-01  0.3180E-02
     -5.749  0.7914E-02  0.3820E-02
     -5.668  0.6533E-02  0.4347E-02
     -5.587  0.1019E-01  0.5170E-02
     -5.507  0.1963E-01  0.6756E-02
     -5.426  0.3043E-01  0.9213E-02
     -5.345  0.3484E-01  0.1203E-01
     -5.264  0.2942E-01  0.1440E-01
     -5.184  0.1960E-01  0.1599E-01
     -5.103  0.1437E-01  0.1715E-01
     -5.022  0.1824E-01  0.1862E-01
     -4.941  0.2790E-01  0.2087E-01
     -4.860  0.3466E-01  0.2367E-01
     -4.780  0.3217E-01  0.2627E-01
     -4.699  0.2319E-01  0.2815E-01
     -4.618  0.1678E-01  0.2950E-01
     -4.537  0.1956E-01  0.3108E-01
     -4.457  0.3056E-01  0.3355E-01
     -4.376  0.4187E-01  0.3693E-01
     -4.295  0.4468E-01  0.4054E-01
     -4.214  0.3844E-01  0.4364E-01
     -4.133  0.3342E-01  0.4634E-01
     -4.053  0.4106E-01  0.4966E-01
     -3.972  0.6112E-01  0.5460E-01
     -3.891  0.8028E-01  0.6108E-01
     -3.810  0.8524E-01  0.6797E-01
     -3.730  0.7453E-01  0.7399E-01
     -3.649  0.5523E-01  0.7845E-01
     -3.568  0.3493E-01  0.8127E-01
     -3.487  0.2003E-01  0.8289E-01
     -3.407  0.1521E-01  0.8411E-01
     -3.326  0.2068E-01  0.8578E-01
     -3.245  0.3056E-01  0.8825E-01
     -3.164  0.3618E-01  0.9118E-01
     -3.083  0.3450E-01  0.9396E-01
     -3.003  0.3240E-01  0.9658E-01
     -2.922  0.3923E-01  0.9975E-01
     -2.841  0.5664E-01  0.1043E+00
     -2.760  0.7708E-01  0.1105E+00
     -2.680  0.8873E-01  0.1177E+00
     -2.599  0.8246E-01  0.1244E+00
     -2.518  0.5970E-01  0.1292E+00
     -2.437  0.3276E-01  0.1318E+00
     -2.357  0.1338E-01  0.1329E+00
     -2.276  0.4021E-02  0.1332E+00
     -2.195  0.8847E-03  0.1333E+00
     -2.114  0.1420E-03  0.1333E+00
     -2.033  0.1658E-04  0.1333E+00
     -1.953  0.1409E-05  0.1333E+00
     -1.872  0.9301E-07  0.1333E+00
     -1.791  0.1344E-06  0.1333E+00
     -1.710  0.2034E-05  0.1333E+00
     -1.630  0.2309E-04  0.1333E+00
     -1.549  0.1913E-03  0.1334E+00
     -1.468  0.1160E-02  0.1334E+00
     -1.387  0.5165E-02  0.1339E+00
     -1.307  0.1701E-01  0.1352E+00
     -1.226  0.4186E-01  0.1386E+00
     -1.145  0.7817E-01  0.1449E+00
     -1.064  0.1134E+00  0.1541E+00
     -0.983  0.1322E+00  0.1648E+00
     -0.903  0.1283E+00  0.1751E+00
     -0.822  0.1062E+00  0.1837E+00
     -0.741  0.7502E-01  0.1898E+00
     -0.660  0.4404E-01  0.1933E+00
     -0.580  0.2077E-01  0.1950E+00
     -0.499  0.7786E-02  0.1956E+00
     -0.418  0.3154E-02  0.1959E+00
     -0.337  0.4724E-02  0.1963E+00
     -0.256  0.1346E-01  0.1974E+00
     -0.176  0.3173E-01  0.1999E+00
     -0.095  0.5669E-01  0.2045E+00
     -0.014  0.7589E-01  0.2106E+00
      0.067  0.7559E-01  0.2167E+00
      0.147  0.5569E-01  0.2212E+00
      0.228  0.3020E-01  0.2237E+00
      0.309  0.1201E-01  0.2246E+00
      0.390  0.3514E-02  0.2249E+00
      0.470  0.8903E-03  0.2250E+00
      0.551  0.9296E-03  0.2251E+00
      0.632  0.3272E-02  0.2253E+00
      0.713  0.9501E-02  0.2261E+00
      0.794  0.2024E-01  0.2277E+00
      0.874  0.3187E-01  0.2303E+00
      0.955  0.3839E-01  0.2334E+00
      1.036  0.3875E-01  0.2365E+00
      1.117  0.3817E-01  0.2396E+00
      1.197  0.3907E-01  0.2428E+00
      1.278  0.3681E-01  0.2458E+00
      1.359  0.2814E-01  0.2480E+00
      1.440  0.1794E-01  0.2495E+00
      1.520  0.1536E-01  0.2507E+00
      1.601  0.2770E-01  0.2530E+00
      1.682  0.5561E-01  0.2575E+00
      1.763  0.8731E-01  0.2645E+00
      1.844  0.1018E+00  0.2727E+00
      1.924  0.8793E-01  0.2798E+00
      2.005  0.5647E-01  0.2844E+00
      2.086  0.2829E-01  0.2867E+00
      2.167  0.1596E-01  0.2880E+00
      2.247  0.2198E-01  0.2897E+00
      2.328  0.4484E-01  0.2934E+00
      2.409  0.7878E-01  0.2997E+00
      2.490  0.1105E+00  0.3087E+00
      2.571  0.1244E+00  0.3187E+00
      2.651  0.1166E+00  0.3281E+00
      2.732  0.9997E-01  0.3362E+00
      2.813  0.9049E-01  0.3435E+00
      2.894  0.8956E-01  0.3507E+00
      2.974  0.8897E-01  0.3579E+00
      3.055  0.8691E-01  0.3649E+00
      3.136  0.8561E-01  0.3719E+00
      3.217  0.8053E-01  0.3784E+00
      3.297  0.6864E-01  0.3839E+00
      3.378  0.6071E-01  0.3888E+00
      3.459  0.6991E-01  0.3945E+00
      3.540  0.9172E-01  0.4019E+00
      3.621  0.1067E+00  0.4105E+00
      3.701  0.1053E+00  0.4190E+00
      3.782  0.1001E+00  0.4271E+00
      3.863  0.1053E+00  0.4356E+00
      3.944  0.1129E+00  0.4447E+00
      4.024  0.1054E+00  0.4532E+00
      4.105  0.8360E-01  0.4599E+00
      4.186  0.6524E-01  0.4652E+00
      4.267  0.5987E-01  0.4701E+00
      4.347  0.6200E-01  0.4751E+00
      4.428  0.6644E-01  0.4804E+00
      4.509  0.7386E-01  0.4864E+00
      4.590  0.8122E-01  0.4930E+00
      4.671  0.8035E-01  0.4994E+00
      4.751  0.6830E-01  0.5050E+00
      4.832  0.5136E-01  0.5091E+00
      4.913  0.3882E-01  0.5122E+00
      4.994  0.3541E-01  0.5151E+00
      5.074  0.3727E-01  0.5181E+00
      5.155  0.3571E-01  0.5210E+00
      5.236  0.2721E-01  0.5232E+00
      5.317  0.1712E-01  0.5246E+00
      5.398  0.1269E-01  0.5256E+00
      5.478  0.1564E-01  0.5269E+00
      5.559  0.2133E-01  0.5286E+00
      5.640  0.2311E-01  0.5305E+00
      5.721  0.1847E-01  0.5320E+00
      5.801  0.1077E-01  0.5328E+00
      5.882  0.4570E-02  0.5332E+00
      5.963  0.1411E-02  0.5333E+00
      6.044  0.3171E-03  0.5333E+00
      6.124  0.5195E-04  0.5333E+00
      6.205  0.8077E-05  0.5333E+00
      6.286  0.2049E-04  0.5333E+00
      6.367  0.1505E-03  0.5333E+00
      6.448  0.8252E-03  0.5334E+00
      6.528  0.3291E-02  0.5337E+00
      6.609  0.9548E-02  0.5345E+00
      6.690  0.2017E-01  0.5361E+00
      6.771  0.3103E-01  0.5386E+00
      6.851  0.3496E-01  0.5414E+00
      6.932  0.2966E-01  0.5438E+00
      7.013  0.2180E-01  0.5456E+00
      7.094  0.2029E-01  0.5472E+00
      7.174  0.2696E-01  0.5494E+00
      7.255  0.3490E-01  0.5522E+00
      7.336  0.3631E-01  0.5551E+00
      7.417  0.3136E-01  0.5577E+00
      7.498  0.2728E-01  0.5599E+00
      7.578  0.3040E-01  0.5623E+00
      7.659  0.4192E-01  0.5657E+00
      7.740  0.5855E-01  0.5704E+00
      7.821  0.7458E-01  0.5765E+00
      7.901  0.8648E-01  0.5834E+00
      7.982  0.9519E-01  0.5911E+00
      8.063  0.1020E+00  0.5994E+00
      8.144  0.1064E+00  0.6080E+00
      8.225  0.1081E+00  0.6167E+00
      8.305  0.1058E+00  0.6252E+00
      8.386  0.9558E-01  0.6330E+00
      8.467  0.8044E-01  0.6395E+00
      8.548  0.7359E-01  0.6454E+00
      8.628  0.8577E-01  0.6523E+00
      8.709  0.1130E+00  0.6615E+00
      8.790  0.1365E+00  0.6725E+00
      8.871  0.1352E+00  0.6834E+00
      8.951  0.1046E+00  0.6919E+00
      9.032  0.6259E-01  0.6969E+00
      9.113  0.3218E-01  0.6995E+00
      9.194  0.2607E-01  0.7016E+00
      9.275  0.4739E-01  0.7054E+00
      9.355  0.9168E-01  0.7128E+00
      9.436  0.1420E+00  0.7243E+00
      9.517  0.1734E+00  0.7383E+00
      9.598  0.1712E+00  0.7521E+00
      9.678  0.1426E+00  0.7637E+00
      9.759  0.1062E+00  0.7722E+00
      9.840  0.7682E-01  0.7784E+00
      9.921  0.6155E-01  0.7834E+00
     10.001  0.6252E-01  0.7885E+00
     10.082  0.7670E-01  0.7947E+00
     10.163  0.9459E-01  0.8023E+00
     10.244  0.1044E+00  0.8107E+00
     10.325  0.9991E-01  0.8188E+00
     10.405  0.8458E-01  0.8256E+00
     10.486  0.6748E-01  0.8311E+00
     10.567  0.5656E-01  0.8357E+00
     10.648  0.5484E-01  0.8401E+00
     10.728  0.6050E-01  0.8450E+00
     10.809  0.7061E-01  0.8507E+00
     10.890  0.8265E-01  0.8573E+00
     10.971  0.9217E-01  0.8648E+00
     11.052  0.9643E-01  0.8726E+00
     11.132  0.9937E-01  0.8806E+00
     11.213  0.1049E+00  0.8891E+00
     11.294  0.1096E+00  0.8979E+00
     11.375  0.1074E+00  0.9066E+00
     11.455  0.9400E-01  0.9142E+00
     11.536  0.7029E-01  0.9199E+00
     11.617  0.4670E-01  0.9236E+00
     11.698  0.3899E-01  0.9268E+00
     11.778  0.5522E-01  0.9313E+00
     11.859  0.8582E-01  0.9382E+00
     11.940  0.1083E+00  0.9469E+00
     12.021  0.1091E+00  0.9558E+00
     12.102  0.9733E-01  0.9636E+00
     12.182  0.8817E-01  0.9707E+00
     12.263  0.8011E-01  0.9772E+00
     12.344  0.6319E-01  0.9823E+00
     12.425  0.3886E-01  0.9854E+00
     12.505  0.1804E-01  0.9869E+00
     12.586  0.7362E-02  0.9875E+00
     12.667  0.6466E-02  0.9880E+00
     12.748  0.1322E-01  0.9891E+00
     12.828  0.2449E-01  0.9911E+00
     12.909  0.3379E-01  0.9938E+00
     12.990  0.3519E-01  0.9966E+00
     13.071  0.3161E-01  0.9992E+00
     13.152  0.3509E-01  0.1002E+01
     13.232  0.5486E-01  0.1006E+01
     13.313  0.8423E-01  0.1013E+01
     13.394  0.1021E+00  0.1022E+01
     13.475  0.9293E-01  0.1029E+01
     13.555  0.6417E-01  0.1034E+01
     13.636  0.3627E-01  0.1037E+01
     13.717  0.2075E-01  0.1039E+01
     13.798  0.1463E-01  0.1040E+01
     13.878  0.1139E-01  0.1041E+01
     13.959  0.1003E-01  0.1042E+01
     14.040  0.1488E-01  0.1043E+01
     14.121  0.2980E-01  0.1045E+01
     14.202  0.5131E-01  0.1049E+01
     14.282  0.6673E-01  0.1055E+01
     14.363  0.6423E-01  0.1060E+01
     14.444  0.4563E-01  0.1064E+01
     14.525  0.2390E-01  0.1066E+01
     14.605  0.9221E-02  0.1066E+01
     14.686  0.2618E-02  0.1067E+01
     14.767  0.5461E-03  0.1067E+01
     14.848  0.8360E-04  0.1067E+01
     14.929  0.9374E-05  0.1067E+01
     15.009  0.7689E-06  0.1067E+01
     15.090  0.4606E-07  0.1067E+01
     15.171  0.2013E-08  0.1067E+01
     15.252  0.6407E-10  0.1067E+01
     15.332  0.1484E-11  0.1067E+01
     15.413  0.2498E-13  0.1067E+01
     15.494  0.3093E-15  0.1067E+01
     15.575  0.0000E+00  0.1067E+01
     15.655  0.0000E+00  0.1067E+01
     15.736  0.0000E+00  0.1067E+01
     15.817  0.0000E+00  0.1067E+01
     15.898  0.0000E+00  0.1067E+01
     15.979  0.0000E+00  0.1067E+01
     16.059  0.0000E+00  0.1067E+01
     16.140  0.0000E+00  0.1067E+01
     16.221  0.0000E+00  0.1067E+01
     16.302  0.0000E+00  0.1067E+01
