unknown system                          
   1.00000000000000     
    -2.358139    2.358139    1.345648
     2.358139   -2.358139    1.345648
     2.358139    2.358139   -1.345648
   Si
     2
Direct
  0.000000  0.000000  0.000000
  0.250000  0.750000  0.500000
 
   32   32   32
 -5.2174     -4.1139     -1.1342      2.8651      6.8321      9.8791      11.521      11.741      10.898      9.5458    
  8.1384      6.8510      5.7771      4.9568      4.3914      4.0639      3.9571      4.0639      4.3913      4.9567    
  5.7771      6.8511      8.1384      9.5458      10.898      11.741      11.521      9.8791      6.8321      2.8651    
 -1.1342     -4.1140     -4.1140     -4.6130     -2.9858     0.27468      4.2396      7.8950      10.471      11.627    
  11.468      10.421      9.0372      7.6698      6.4544      5.4669      4.7338      4.2493      3.9953      3.9569    
  4.1314      4.5297      5.1710      6.0693      7.2146      8.5534      9.9786      11.265      11.898      11.360    
  9.3794      6.0962      2.1098     -1.6323     -1.1342     -2.9858     -2.8999     -.91714      2.3557      5.9908    
  9.0796      11.011      11.600      11.057      9.8491      8.4746      7.1694      6.0428      5.1523      4.5118    
  4.1099      3.9285      3.9564      4.1951      4.6589      5.3671      6.3295      7.5275      8.8962      10.318    
  11.518      11.973      11.223      9.0948      5.8335      2.1098      2.8651     0.27467     -.91715     -.35836    
  1.7564      4.7700      7.8251      10.168      11.367      11.384      10.510      9.2163      7.8823      6.6592    
  5.6345      4.8471      4.3000      3.9786      3.8664      3.9559      4.2528      4.7733      5.5359      6.5457    
  7.7757      9.1520      10.549      11.664      12.000      11.170      9.0948      6.0962      6.8321      4.2396    
  2.3557      1.7564      2.6129      4.6253      7.1514      9.4589      10.977      11.451      10.965      9.8582    
  8.5546      7.2858      6.1617      5.2465      4.5631      4.1065      3.8607      3.8116      3.9557      4.3020    
  4.8680      5.6700      6.7077      7.9474      9.3097      10.666      11.712      12.000      11.223      9.3794    
  9.8791      7.8950      5.9908      4.7700      4.6253      5.5812      7.2897      9.1792      10.675      11.393    
  11.233      10.371      9.1566      7.8922      6.7106      5.6964      4.8931      4.3104      3.9380      3.7601    
  3.7660      3.9558      4.3410      4.9389      5.7628      6.8079      8.0352      9.3630      10.666      11.664    
  11.973      11.360      11.521      10.471      9.0796      7.8251      7.1514      7.2897      8.1653      9.4355    
  10.636      11.359      11.388      10.750      9.6716      8.4531      7.2572      6.1792      5.2801      4.5859    
  4.0964      3.7991      3.6797      3.7311      3.9563      4.3681      4.9827      5.8104      6.8418      8.0352    
  9.3097      10.549      11.518      11.898      11.741      11.627      11.011      10.168      9.4589      9.1792    
  9.4355      10.102      10.882      11.433      11.505      11.021      10.091      8.9515      7.7804      6.6762    
  5.7112      4.9259      4.3329      3.9263      3.6930      3.6214      3.7075      3.9568      4.3820      4.9976    
  5.8104      6.8079      7.9474      9.1520      10.318      11.265      10.898      11.468      11.600      11.367    
  10.977      10.675      10.636      10.882      11.277      11.593      11.610      11.208      10.411      9.3756    
  8.2633      7.1699      6.1721      5.3216      4.6430      4.1398      3.8033      3.6216      3.5861      3.6957    
  3.9570      4.3820      4.9827      5.7628      6.7077      7.7757      8.8962      9.9786      9.5458      10.421    
  11.057      11.384      11.451      11.393      11.359      11.433      11.593      11.721      11.663      11.306    
  10.627      9.7140      8.6917      7.6450      6.6494      5.7632      5.0215      4.4375      4.0097      3.7290    
  3.5857      3.5743      3.6957      3.9568      4.3681      4.9389      5.6700      6.5457      7.5275      8.5534    
  8.1384      9.0372      9.8491      10.510      10.965      11.233      11.388      11.505      11.610      11.663    
  11.580      11.277      10.720      9.9509      9.0501      8.0865      7.1300      6.2412      5.4629      4.8180    
  4.3131      3.9444      3.7042      3.5857      3.5861      3.7075      3.9563      4.3410      4.8680      5.5359    
  6.3295      7.2146      6.8511      7.6698      8.4746      9.2163      9.8582      10.371      10.750      11.021    
  11.208      11.306      11.277      11.073      10.664      10.065      9.3195      8.4771      7.5991      6.7445    
  5.9610      5.2796      4.7154      4.2714      3.9444      3.7290      3.6216      3.6214      3.7311      3.9558    
  4.3020      4.7733      5.3671      6.0693      5.7771      6.4544      7.1694      7.8823      8.5546      9.1566    
  9.6716      10.091      10.411      10.627      10.720      10.664      10.437      10.036      9.4775      8.7953    
  8.0378      7.2587      6.5065      5.8186      5.2180      4.7154      4.3131      4.0097      3.8033      3.6930    
  3.6797      3.7660      3.9557      4.2528      4.6589      5.1710      4.9567      5.4668      6.0428      6.6593    
  7.2859      7.8922      8.4531      8.9515      9.3756      9.7140      9.9509      10.065      10.036      9.8489    
  9.5034      9.0168      8.4221      7.7627      7.0840      6.4262      5.8186      5.2796      4.8180      4.4375    
  4.1398      3.9263      3.7991      3.7601      3.8116      3.9559      4.1951      4.5297      4.3913      4.7337    
  5.1522      5.6345      6.1617      6.7106      7.2572      7.7804      8.2633      8.6917      9.0501      9.3195    
  9.4775      9.5034      9.3840      9.1191      8.7243      8.2286      7.6691      7.0840      6.5065      5.9610    
  5.4629      5.0215      4.6430      4.3329      4.0964      3.9380      3.8607      3.8664      3.9564      4.1314    
  4.0639      4.2493      4.5118      4.8471      5.2465      5.6964      6.1792      6.6762      7.1699      7.6450    
  8.0865      8.4771      8.7953      9.0168      9.1191      9.0872      8.9184      8.6243      8.2286      7.7627    
  7.2587      6.7445      6.2412      5.7632      5.3216      4.9259      4.5859      4.3104      4.1065      3.9786    
  3.9285      3.9569      3.9571      3.9953      4.1099      4.3001      4.5631      4.8931      5.2801      5.7112    
  6.1721      6.6494      7.1300      7.5991      8.0378      8.4221      8.7243      8.9184      8.9854      8.9184    
  8.7243      8.4221      8.0378      7.5991      7.1300      6.6494      6.1721      5.7112      5.2801      4.8931    
  4.5631      4.3000      4.1099      3.9953      4.0639      3.9570      3.9286      3.9787      4.1066      4.3104    
  4.5859      4.9259      5.3216      5.7632      6.2412      6.7445      7.2587      7.7627      8.2286      8.6243    
  8.9184      9.0872      9.1191      9.0168      8.7953      8.4771      8.0865      7.6450      7.1699      6.6762    
  6.1792      5.6964      5.2465      4.8471      4.5118      4.2493      4.3914      4.1315      3.9565      3.8665    
  3.8607      3.9380      4.0965      4.3329      4.6430      5.0215      5.4629      5.9610      6.5065      7.0840    
  7.6691      8.2286      8.7243      9.1191      9.3840      9.5034      9.4775      9.3195      9.0501      8.6917    
  8.2633      7.7804      7.2572      6.7106      6.1617      5.6345      5.1523      4.7338      4.9568      4.5298    
  4.1952      3.9560      3.8117      3.7601      3.7991      3.9263      4.1398      4.4375      4.8180      5.2796    
  5.8186      6.4262      7.0840      7.7627      8.4221      9.0168      9.5034      9.8489      10.036      10.065    
  9.9509      9.7140      9.3756      8.9515      8.4531      7.8922      7.2858      6.6592      6.0428      5.4669    
  5.7771      5.1710      4.6590      4.2528      3.9558      3.7660      3.6797      3.6930      3.8033      4.0097    
  4.3131      4.7154      5.2180      5.8186      6.5065      7.2587      8.0378      8.7953      9.4775      10.036    
  10.437      10.664      10.720      10.627      10.411      10.091      9.6716      9.1566      8.5546      7.8823    
  7.1694      6.4544      6.8510      6.0693      5.3671      4.7734      4.3020      3.9558      3.7310      3.6213    
  3.6215      3.7289      3.9443      4.2714      4.7154      5.2796      5.9610      6.7445      7.5991      8.4771    
  9.3195      10.065      10.664      11.073      11.277      11.306      11.208      11.021      10.750      10.371    
  9.8582      9.2163      8.4746      7.6698      8.1384      7.2146      6.3295      5.5360      4.8680      4.3410    
  3.9563      3.7074      3.5860      3.5856      3.7041      3.9443      4.3131      4.8180      5.4629      6.2412    
  7.1300      8.0865      9.0501      9.9509      10.720      11.277      11.580      11.663      11.610      11.505    
  11.388      11.233      10.965      10.510      9.8491      9.0372      9.5458      8.5534      7.5275      6.5457    
  5.6699      4.9389      4.3681      3.9567      3.6955      3.5742      3.5856      3.7289      4.0097      4.4375    
  5.0215      5.7632      6.6494      7.6450      8.6917      9.7140      10.627      11.306      11.663      11.721    
  11.593      11.433      11.359      11.393      11.451      11.384      11.057      10.421      10.898      9.9787    
  8.8963      7.7757      6.7077      5.7628      4.9827      4.3819      3.9568      3.6955      3.5860      3.6215    
  3.8033      4.1398      4.6430      5.3216      6.1721      7.1699      8.2633      9.3756      10.411      11.208    
  11.610      11.593      11.277      10.882      10.636      10.675      10.977      11.367      11.600      11.468    
  11.741      11.265      10.318      9.1520      7.9474      6.8079      5.8103      4.9975      4.3819      3.9567    
  3.7074      3.6213      3.6930      3.9263      4.3329      4.9259      5.7112      6.6762      7.7804      8.9515    
  10.091      11.021      11.505      11.433      10.882      10.102      9.4355      9.1792      9.4589      10.168    
  11.011      11.627      11.521      11.898      11.518      10.549      9.3097      8.0352      6.8418      5.8103    
  4.9827      4.3681      3.9563      3.7310      3.6797      3.7991      4.0965      4.5859      5.2801      6.1792    
  7.2572      8.4531      9.6716      10.750      11.388      11.359      10.636      9.4355      8.1653      7.2897    
  7.1514      7.8251      9.0796      10.471      9.8791      11.360      11.973      11.664      10.666      9.3631    
  8.0352      6.8079      5.7628      4.9389      4.3410      3.9558      3.7660      3.7601      3.9380      4.3104    
  4.8931      5.6964      6.7106      7.8922      9.1566      10.371      11.233      11.393      10.675      9.1792    
  7.2897      5.5812      4.6253      4.7700      5.9908      7.8950      6.8321      9.3794      11.223      12.000    
  11.712      10.666      9.3097      7.9474      6.7077      5.6699      4.8680      4.3020      3.9558      3.8117    
  3.8607      4.1066      4.5631      5.2465      6.1617      7.2859      8.5546      9.8582      10.965      11.451    
  10.977      9.4589      7.1514      4.6253      2.6129      1.7564      2.3557      4.2396      2.8651      6.0962    
  9.0948      11.170      12.000      11.664      10.549      9.1520      7.7757      6.5457      5.5360      4.7734    
  4.2528      3.9560      3.8665      3.9787      4.3001      4.8471      5.6345      6.6593      7.8823      9.2163    
  10.510      11.384      11.367      10.168      7.8251      4.7700      1.7564     -.35836     -.91714     0.27468    
 -1.1342      2.1098      5.8334      9.0948      11.223      11.973      11.518      10.318      8.8963      7.5275    
  6.3295      5.3671      4.6590      4.1952      3.9565      3.9286      4.1099      4.5118      5.1522      6.0428    
  7.1694      8.4746      9.8491      11.057      11.600      11.011      9.0796      5.9908      2.3557     -.91715    
 -2.8999     -2.9858     -4.1139     -1.6322      2.1098      6.0962      9.3794      11.360      11.898      11.265    
  9.9787      8.5534      7.2146      6.0693      5.1710      4.5298      4.1315      3.9570      3.9953      4.2493    
  4.7337      5.4668      6.4544      7.6698      9.0372      10.421      11.468      11.627      10.471      7.8950    
  4.2396     0.27467     -2.9858     -4.6130     -4.1138     -3.3338     -.73708      2.9262      6.6743      9.6342    
  11.289      11.566      10.774      9.4391      8.0263      6.7234      5.6277      4.7828      4.1911      3.8352    
  3.6957      3.7633      4.0428      4.5508      5.3063      6.3145      7.5453      8.9170      10.283      11.259    
  11.305      10.036      7.4104      3.8267     0.79841E-01 -2.8479     -3.3338     -4.1140     -2.8481     0.79882E-01
  3.8268      7.4104      10.036      11.305      11.259      10.283      8.9169      7.5452      6.3146      5.3064    
  4.5507      4.0427      3.7633      3.6958      3.8352      4.1910      4.7827      5.6278      6.7235      8.0262    
  9.4390      10.774      11.566      11.289      9.6341      6.6742      2.9262     -.73694     -.61987     -2.7216    
 -2.9857     -1.3477      1.6856      5.2396      8.3964      10.489      11.257      10.854      9.7146      8.3525    
  7.0417      5.8996      4.9897      4.3291      3.9070      3.7041      3.7075      3.9172      4.3465      5.0163    
  5.9408      7.1089      8.4646      9.8988      11.178      11.798      11.281      9.4063      6.3493      2.7093    
  3.2228     0.41457     -1.1132     -.91725     0.91525      3.8041      6.9074      9.4277      10.857      11.080    
  10.339      9.0940      7.7673      6.5360      5.4954      4.6903      4.1262      3.7885      3.6598      3.7311    
  4.0068      4.5035      5.2419      6.2322      7.4543      8.8418      10.277      11.490      11.983      11.341    
  9.4322      6.5138      7.1469      4.3794      2.1914      1.2261      1.7563      3.5764      6.0894      8.5443    
  10.303      11.028      10.735      9.7301      8.4517      7.1840      6.0485      5.1176      4.4189      3.9490    
  3.6919      3.6324      3.7660      4.1010      4.6561      5.4506      6.4891      7.7439      9.1414      10.559    
  11.711      12.137      11.493      9.7270      10.238      8.1317      5.9779      4.4180      3.9267      4.6253    
  6.2356      8.1994      9.8983      10.870      10.938      10.225      9.0662      7.8124      6.6250      5.5971    
  4.7793      4.1845      3.8035      3.6202      3.6231      3.8115      4.1970      4.7986      5.6331      6.6998    
  7.9647      9.3495      10.732      11.837      12.256      11.721      11.971      10.856      9.2847      7.7489    
  6.7464      6.5916      7.2896      8.5395      9.8642      10.799      11.053      10.587      9.5956      8.3967    
  7.2002      6.1108      5.1974      4.4909      3.9938      3.6935      3.5757      3.6324      3.8664      4.2910    
  4.9248      5.7812      6.8543      8.1054      9.4550      10.786      11.856      12.320      12.289      12.165    
  11.444      10.397      9.4116      8.8447      8.8755      9.4354      10.243      10.929      11.182      10.862    
  10.033      8.9211      7.7525      6.6387      5.6594      4.8611      4.2599      3.8512      3.6217      3.5594    
  3.6598      3.9284      4.3794      5.0293      5.8877      6.9445      8.1581      9.4508      10.715      11.755    
  11.519      12.126      12.223      11.869      11.277      10.731      10.460      10.544      10.881      11.242    
  11.369      11.090      10.383      9.3762      8.2650      7.1622      6.1496      5.2849      4.5969      4.0911    
  3.7592      3.5889      3.5710      3.7041      3.9953      4.4581      5.1067      5.9469      6.9651      8.1188    
  9.3344      10.516      10.194      11.143      11.803      12.084      12.030      11.793      11.557      11.454    
  11.500      11.593      11.567      11.273      10.649      9.7518      8.7231      7.6641      6.6522      5.7505    
  4.9980      4.4105      3.9873      3.7189      3.5951      3.6097      3.7633      4.0638      4.5235      5.1533    
  5.9554      6.9138      7.9873      9.1089      8.7837      9.7641      10.638      11.314      11.722      11.883    
  11.889      11.846      11.816      11.782      11.663      11.360      10.810      10.031      9.1106      8.1278    
  7.1518      6.2456      5.4551      4.8059      4.3053      3.9497      3.7304      3.6395      3.6737      3.8352    
  4.1314      4.5724      5.1662      5.9119      6.7922      7.7691      7.4743      8.3740      9.2457      10.031    
  10.683      11.154      11.443      11.593      11.654      11.643      11.535      11.277      10.828      10.188    
  9.4065      8.5346      7.6315      6.7567      5.9595      5.2730      4.7133      4.2833      3.9786      3.7928    
  3.7208      3.7613      3.9172      4.1951      4.6027      5.1448      5.8181      6.6058      6.3638      7.1179    
  7.9002      8.6635      9.3619      9.9601      10.437      10.782      11.004      11.115      11.110      10.967    
  10.664      10.197      9.5855      8.8614      8.0712      7.2675      6.4998      5.8062      5.2103      4.7229    
  4.3450      4.0738      3.9052      3.8371      3.8699      4.0068      4.2528      4.6130      5.0897      5.6783    
  5.4998      6.0787      6.7180      7.3859      8.0458      8.6617      9.2052      9.6584      10.013      10.265    
  10.406      10.424      10.304      10.036      9.6233      9.0823      8.4459      7.7566      7.0596      6.3951    
  5.7927      5.2703      4.8357      4.4906      4.2342      4.0659      3.9862      3.9970      4.1012      4.3021    
  4.6027      5.0035      4.8905      5.2913      5.7649      6.2946      6.8563      7.4219      7.9633      8.4578    
  8.8891      9.2465      9.5202      9.6974      9.7627      9.7009      9.5034      9.1735      8.7280      8.1962    
  7.6148      7.0216      6.4494      5.9219      5.4534      5.0510      4.7183      4.4577      4.2722      4.1650    
  4.1390      4.1970      4.3411      4.5724      4.5234      4.7561      5.0633      5.4380      5.8681      6.3355    
  6.8193      7.2980      7.7535      8.1713      8.5398      8.8461      9.0743      9.2059      9.2242      9.1191    
  8.8916      8.5550      8.1335      7.6576      7.1588      6.6638      6.1924      5.7570      5.3657      5.0248    
  4.7406      4.5200      4.3689      4.2918      4.2911      4.3682      4.3820      4.4581      4.6070      4.8268    
  5.1129      5.4567      5.8453      6.2630      6.6940      7.1245      7.5423      7.9357      8.2897      8.5853    
  8.8010      8.9166      8.9185      8.8031      8.5791      8.2651      7.8860      7.4677      7.0325      6.5975    
  6.1745      5.7733      5.4037      5.0767      4.8032      4.5922      4.4498      4.3794      4.4580      4.3821    
  4.3795      4.4498      4.5921      4.8032      5.0768      5.4038      5.7733      6.1745      6.5975      7.0326    
  7.4677      7.8860      8.2651      8.5792      8.8031      8.9184      8.9166      8.8010      8.5853      8.2897    
  7.9357      7.5423      7.1245      6.6940      6.2630      5.8453      5.4568      5.1130      4.8267      4.6068    
  4.7561      4.5234      4.3682      4.2911      4.2918      4.3690      4.5201      4.7407      5.0248      5.3657    
  5.7570      6.1924      6.6638      7.1588      7.6576      8.1335      8.5550      8.8916      9.1191      9.2242    
  9.2059      9.0743      8.8462      8.5398      8.1713      7.7534      7.2981      6.8193      6.3355      5.8680    
  5.4380      5.0633      5.2913      4.8905      4.5724      4.3411      4.1971      4.1391      4.1650      4.2722    
  4.4577      4.7183      5.0510      5.4534      5.9219      6.4494      7.0216      7.6148      8.1962      8.7280    
  9.1735      9.5034      9.7008      9.7627      9.6975      9.5202      9.2465      8.8891      8.4578      7.9634    
  7.4218      6.8563      6.2946      5.7650      6.0787      5.4997      5.0035      4.6027      4.3020      4.1011    
  3.9970      3.9862      4.0659      4.2342      4.4906      4.8357      5.2703      5.7927      6.3950      7.0596    
  7.7566      8.4459      9.0823      9.6232      10.036      10.304      10.424      10.406      10.265      10.013    
  9.6584      9.2051      8.6617      8.0459      7.3860      6.7179      7.1178      6.3639      5.6784      5.0897    
  4.6129      4.2527      4.0068      3.8699      3.8371      3.9052      4.0738      4.3451      4.7229      5.2103    
  5.8061      6.4998      7.2676      8.0712      8.8614      9.5855      10.197      10.664      10.967      11.110    
  11.115      11.004      10.782      10.437      9.9601      9.3620      8.6635      7.9001      8.3740      7.4744    
  6.6058      5.8181      5.1448      4.6027      4.1951      3.9172      3.7612      3.7208      3.7928      3.9786    
  4.2832      4.7133      5.2730      5.9595      6.7567      7.6315      8.5346      9.4065      10.188      10.828    
  11.277      11.535      11.643      11.654      11.593      11.443      11.154      10.683      10.031      9.2456    
  9.7642      8.7837      7.7691      6.7922      5.9119      5.1663      4.5724      4.1313      3.8351      3.6737    
  3.6395      3.7303      3.9497      4.3053      4.8059      5.4551      6.2455      7.1518      8.1279      9.1106    
  10.031      10.810      11.360      11.663      11.782      11.816      11.846      11.889      11.883      11.722    
  11.314      10.638      11.143      10.194      9.1089      7.9874      6.9138      5.9554      5.1532      4.5234    
  4.0638      3.7633      3.6097      3.5952      3.7190      3.9873      4.4105      4.9980      5.7505      6.6523    
  7.6641      8.7231      9.7518      10.649      11.273      11.567      11.593      11.500      11.454      11.557    
  11.793      12.030      12.084      11.803      12.126      11.519      10.516      9.3345      8.1188      6.9651    
  5.9469      5.1067      4.4581      3.9952      3.7041      3.5711      3.5889      3.7592      4.0911      4.5969    
  5.2849      6.1496      7.1622      8.2650      9.3763      10.383      11.090      11.369      11.242      10.882    
  10.544      10.460      10.731      11.277      11.869      12.223      12.165      12.289      11.755      10.715    
  9.4508      8.1582      6.9445      5.8877      5.0293      4.3794      3.9285      3.6598      3.5594      3.6217    
  3.8512      4.2599      4.8611      5.6593      6.6388      7.7526      8.9211      10.033      10.862      11.182    
  10.929      10.243      9.4354      8.8756      8.8448      9.4116      10.397      11.444      10.856      11.971    
  12.320      11.856      10.786      9.4551      8.1054      6.8543      5.7812      4.9249      4.2911      3.8663    
  3.6324      3.5758      3.6936      3.9937      4.4909      5.1974      6.1108      7.2002      8.3966      9.5956    
  10.587      11.053      10.799      9.8642      8.5396      7.2897      6.5917      6.7463      7.7488      9.2848    
  8.1317      10.238      11.721      12.257      11.837      10.732      9.3495      7.9647      6.6998      5.6331    
  4.7986      4.1970      3.8115      3.6231      3.6202      3.8035      4.1845      4.7793      5.5971      6.6249    
  7.8124      9.0662      10.225      10.938      10.870      9.8983      8.1995      6.2357      4.6253      3.9268    
  4.4181      5.9780      4.3793      7.1468      9.7271      11.493      12.137      11.711      10.559      9.1415    
  7.7439      6.4890      5.4505      4.6562      4.1011      3.7660      3.6324      3.6919      3.9491      4.4189    
  5.1176      6.0485      7.1841      8.4518      9.7301      10.735      11.028      10.303      8.5443      6.0893    
  3.5764      1.7566      1.2264      2.1915     0.41458      3.2229      6.5140      9.4322      11.341      11.983    
  11.490      10.277      8.8418      7.4542      6.2322      5.2420      4.5035      4.0067      3.7311      3.6599    
  3.7886      4.1262      4.6903      5.4955      6.5361      7.7673      9.0939      10.339      11.080      10.857    
  9.4276      6.9073      3.8042     0.91553     -.91703     -1.1131     -2.7214     -.61965      2.7093      6.3491    
  9.4063      11.282      11.798      11.178      9.8988      8.4646      7.1090      5.9408      5.0162      4.3465    
  3.9173      3.7076      3.7041      3.9069      4.3292      4.9898      5.8996      7.0416      8.3525      9.7147    
  10.854      11.257      10.488      8.3964      5.2397      1.6857     -1.3477     -2.9856     -1.1339     -.61964    
  1.4780      4.5382      7.7087      10.208      11.556      11.668      10.812      9.4626      8.0461      6.7363    
  5.6275      4.7630      4.1467      3.7612      3.5861      3.6096      3.8340      4.2736      4.9479      5.8666    
  7.0111      8.3164      9.6656      10.788      11.199      10.503      8.5943      5.7534      2.6315     0.80030E-01
 -.73690     -1.6322     -.73690      1.6722      4.8782      8.0011      10.301      11.385      11.261      10.267    
  8.9047      7.5349      6.3000      5.2806      4.5082      3.9789      3.6737      3.5743      3.6737      3.9790    
  4.5083      5.2807      6.2999      7.5349      8.9047      10.267      11.261      11.385      10.301      8.0011    
  4.8782      1.6722      1.4780     -.61968     -1.1339     0.80050E-01  2.6315      5.7534      8.5943      10.503    
  11.199      10.788      9.6656      8.3164      7.0111      5.8666      4.9479      4.2736      3.8340      3.6097    
  3.5861      3.7612      4.1467      4.7631      5.6275      6.7363      8.0461      9.4626      10.812      11.668    
  11.556      10.208      7.7087      4.5382      4.8152      2.0923     0.41473     0.27483      1.6857      4.1759    
  6.9813      9.3325      10.705      10.942      10.242      9.0278      7.7181      6.4940      5.4525      4.6409    
  4.0666      3.7160      3.5710      3.6214      3.8699      4.3321      5.0294      5.9757      7.1590      8.5247    
  9.9691      11.286      12.026      11.761      10.301      7.8089      8.3081      5.6714      3.4131      2.1915    
  2.3557      3.8042      6.0284      8.3203      10.036      10.797      10.572      9.6269      8.3806      7.1306    
  6.0025      5.0720      4.3695      3.8937      3.6288      3.5594      3.6797      3.9969      4.5294      5.2980    
  6.3117      7.5504      8.9506      10.403      11.679      12.342      12.023      10.605      11.086      9.1247    
  6.9599      5.2179      4.4181      4.7700      6.0893      7.8775      9.5267      10.544      10.701      10.075    
  8.9707      7.7452      6.5737      5.5529      4.7371      4.1420      3.7600      3.5752      3.5758      3.7600    
  4.1390      4.7322      5.5584      6.6213      7.8933      9.3046      10.743      11.978      12.609      12.330    
  12.636      11.655      10.111      8.4597      7.2128      6.7462      7.1511      8.1993      9.4445      10.407    
  10.752      10.389      9.4745      8.3148      7.1421      6.0659      5.1596      4.4576      3.9645      3.6691    
  3.5572      3.6203      3.8607      4.2918      4.9330      5.7999      6.8905      8.1710      9.5679      10.971    
  12.166      12.802      12.883      12.870      12.194      11.085      9.9227      9.0938      8.8445      9.1790    
  9.8641      10.536      10.855      10.632      9.8891      8.8270      7.6871      6.5916      5.6234      4.8334    
  4.2402      3.8410      3.6234      3.5753      3.6919      3.9786      4.4499      5.1236      6.0114      7.1058    
  8.3684      9.7245      11.069      12.219      12.120      12.814      12.960      12.583      11.874      11.125    
  10.607      10.460      10.636      10.929      11.075      10.864      10.232      9.2765      8.1937      7.1114    
  6.1128      5.2590      4.5821      4.0894      3.7738      3.6233      3.6288      3.7886      4.1099      4.6070    
  5.2954      6.1822      7.2552      8.4729      9.7623      11.025      10.837      11.857      12.565      12.848    
  12.725      12.344      11.908      11.590      11.454      11.433      11.369      11.095      10.516      9.6568    
  8.6494      7.6086      6.6112      5.7219      4.9824      4.4109      4.0075      3.7634      3.6684      3.7161    
  3.9070      4.2493      4.7562      5.4398      6.3029      7.3291      8.4763      9.6752      9.4648      10.511    
  11.434      12.128      12.503      12.571      12.428      12.203      11.993      11.816      11.610      11.273    
  10.724      9.9541      9.0396      8.0670      7.1023      6.2080      5.4317      4.8005      4.3229      3.9954    
  3.8095      3.7570      3.8340      4.0428      4.3913      4.8906      5.5492      6.3659      7.3219      8.3759    
  8.1752      9.1403      10.062      10.875      11.520      11.938      12.124      12.133      12.033      11.871    
  11.643      11.306      10.810      10.142      9.3434      8.4677      7.5684      6.7024      5.9190      5.2519    
  4.7177      4.3197      4.0530      3.9106      3.8866      3.9791      4.1911      4.5298      5.0035      5.6175    
  6.3670      7.2323      7.0644      7.8845      8.7189      9.5139      10.217      10.789      11.201      11.442    
  11.533      11.502      11.364      11.110      10.720      10.188      9.5343      8.7875      7.9890      7.1878    