       N       E                     dE             d eps       ncg     rms          rms(c)
DAV:   1     0.219430380402E+01    0.21943E+01   -0.28428E+03   896   0.589E+02
DAV:   2    -0.101705384051E+02   -0.12365E+02   -0.12069E+02  1416   0.688E+01
DAV:   3    -0.102825527431E+02   -0.11201E+00   -0.11144E+00  1128   0.821E+00
DAV:   4    -0.102828009567E+02   -0.24821E-03   -0.24821E-03  1424   0.413E-01
DAV:   5    -0.102828012273E+02   -0.27061E-06   -0.27225E-06  1160   0.898E-03    0.170E+00
DAV:   6    -0.102705655672E+02    0.12236E-01   -0.57161E-03  1232   0.475E-01    0.104E+00
DAV:   7    -0.102631159562E+02    0.74496E-02   -0.13772E-02  1176   0.785E-01    0.655E-02
DAV:   8    -0.102630388867E+02    0.77070E-04   -0.76222E-04   664   0.201E-01
   1 F= -.10263039E+02 E0= -.10254494E+02  d E =-.102630E+02
