<?xml version="1.0" encoding="ISO-8859-1"?>
<modeling>
 <generator>
  <i name="program" type="string">vasp </i>
  <i name="version" type="string">5.4.4.18Apr17-6-g9f103f2a35  </i>
  <i name="subversion" type="string">(build Dec 09 2018 21:25:21) complex            parallel </i>
  <i name="platform" type="string">IFC18.0.1.163_CrayMPICH7.7.0_MKL18.0.1.163 </i>
  <i name="date" type="string">2019 04 01 </i>
  <i name="time" type="string">15:51:47 </i>
 </generator>
 <incar>
  <i type="string" name="PREC">normal</i>
  <i type="int" name="IBRION">     2</i>
  <i name="EDIFF">      0.00040000</i>
  <i name="EDIFFG">     -0.01000000</i>
  <i type="int" name="NSW">    15</i>
  <i type="int" name="ISIF">     2</i>
  <i name="ENCUT">    350.00000000</i>
  <i type="int" name="NBANDS">     8</i>
  <i type="logical" name="LREAL"> F  </i>
  <i type="int" name="ISMEAR">     0</i>
  <i name="SIGMA">      0.20000000</i>
  <v type="int" name="KPOINT_BSE">    -1     0     0     0</v>
 </incar>
 <structure name="primitive_cell" >
  <crystal>
   <varray name="basis" >
    <v>      -2.35813900       2.35813900       1.34564800 </v>
    <v>       2.35813900      -2.35813900       1.34564800 </v>
    <v>       2.35813900       2.35813900      -1.34564800 </v>
   </varray>
   <i name="volume">     29.93162279 </i>
   <varray name="rec_basis" >
    <v>      -0.00000000       0.21203161       0.37156820 </v>
    <v>       0.21203161      -0.00000000       0.37156820 </v>
    <v>       0.21203161       0.21203161      -0.00000000 </v>
   </varray>
  </crystal>
  <varray name="positions" >
   <v>       0.00000000       0.00000000       0.00000000 </v>
   <v>       0.25000000      -0.25000000      -0.50000000 </v>
  </varray>
 </structure>
 <varray name="primitive_index" >
  <v type="int" >        1 </v>
  <v type="int" >        2 </v>
 </varray>
 <kpoints>
  <generation param="Monkhorst-Pack">
   <v type="int" name="divisions">       8        8        8 </v>
   <v name="usershift">      0.00000000       0.00000000       0.00000000 </v>
   <v name="genvec1">      0.12500000      -0.00000000       0.00000000 </v>
   <v name="genvec2">     -0.00000000       0.12500000       0.00000000 </v>
   <v name="genvec3">     -0.00000000       0.00000000       0.12500000 </v>
   <v name="shift">      0.50000000       0.50000000       0.50000000 </v>
  </generation>
  <varray name="kpointlist" >
   <v>       0.06250000       0.06250000       0.06250000 </v>
   <v>       0.18750000       0.06250000       0.06250000 </v>
   <v>       0.31250000       0.06250000       0.06250000 </v>
   <v>       0.43750000       0.06250000       0.06250000 </v>
   <v>      -0.06250000       0.06250000       0.06250000 </v>
   <v>       0.18750000       0.18750000       0.06250000 </v>
   <v>       0.31250000       0.18750000       0.06250000 </v>
   <v>       0.43750000       0.18750000       0.06250000 </v>
   <v>      -0.43750000       0.18750000       0.06250000 </v>
   <v>      -0.31250000       0.18750000       0.06250000 </v>
   <v>      -0.18750000       0.18750000       0.06250000 </v>
   <v>      -0.06250000       0.18750000       0.06250000 </v>
   <v>       0.31250000       0.31250000       0.06250000 </v>
   <v>       0.43750000       0.31250000       0.06250000 </v>
   <v>      -0.43750000       0.31250000       0.06250000 </v>
   <v>      -0.31250000       0.31250000       0.06250000 </v>
   <v>      -0.18750000       0.31250000       0.06250000 </v>
   <v>      -0.06250000       0.31250000       0.06250000 </v>
   <v>       0.43750000       0.43750000       0.06250000 </v>
   <v>      -0.43750000       0.43750000       0.06250000 </v>
   <v>      -0.31250000       0.43750000       0.06250000 </v>
   <v>      -0.18750000       0.43750000       0.06250000 </v>
   <v>      -0.06250000       0.43750000       0.06250000 </v>
   <v>      -0.43750000      -0.43750000       0.06250000 </v>
   <v>      -0.31250000      -0.43750000       0.06250000 </v>
   <v>      -0.18750000      -0.43750000       0.06250000 </v>
   <v>      -0.06250000      -0.43750000       0.06250000 </v>
   <v>      -0.31250000      -0.31250000       0.06250000 </v>
   <v>      -0.18750000      -0.31250000       0.06250000 </v>
   <v>      -0.06250000      -0.31250000       0.06250000 </v>
   <v>      -0.18750000      -0.18750000       0.06250000 </v>
   <v>      -0.06250000      -0.18750000       0.06250000 </v>
   <v>      -0.06250000      -0.06250000       0.06250000 </v>
   <v>       0.18750000       0.18750000       0.18750000 </v>
   <v>       0.31250000       0.18750000       0.18750000 </v>
   <v>      -0.18750000       0.18750000       0.18750000 </v>
   <v>       0.31250000       0.31250000       0.18750000 </v>
   <v>      -0.31250000       0.31250000       0.18750000 </v>
   <v>      -0.18750000       0.31250000       0.18750000 </v>
   <v>      -0.43750000       0.43750000       0.18750000 </v>
   <v>      -0.31250000       0.43750000       0.18750000 </v>
   <v>      -0.18750000       0.43750000       0.18750000 </v>
   <v>      -0.43750000      -0.43750000       0.18750000 </v>
   <v>      -0.31250000      -0.43750000       0.18750000 </v>
   <v>      -0.18750000      -0.43750000       0.18750000 </v>
   <v>      -0.31250000      -0.31250000       0.18750000 </v>
   <v>      -0.18750000      -0.31250000       0.18750000 </v>
   <v>      -0.18750000      -0.18750000       0.18750000 </v>
   <v>      -0.31250000       0.31250000       0.31250000 </v>
   <v>      -0.43750000       0.43750000       0.31250000 </v>
   <v>      -0.31250000       0.43750000       0.31250000 </v>
   <v>      -0.43750000      -0.43750000       0.31250000 </v>
   <v>      -0.31250000      -0.43750000       0.31250000 </v>
   <v>      -0.31250000      -0.31250000       0.31250000 </v>
   <v>      -0.43750000       0.43750000       0.43750000 </v>
   <v>      -0.43750000      -0.43750000       0.43750000 </v>
  </varray>
  <varray name="weights" >
   <v>       0.01562500 </v>
   <v>       0.03125000 </v>
   <v>       0.03125000 </v>
   <v>       0.01562500 </v>
   <v>       0.00781250 </v>
   <v>       0.01562500 </v>
   <v>       0.03125000 </v>
   <v>       0.03125000 </v>
   <v>       0.03125000 </v>
   <v>       0.01562500 </v>
   <v>       0.01562500 </v>
   <v>       0.01562500 </v>
   <v>       0.01562500 </v>
   <v>       0.03125000 </v>
   <v>       0.01562500 </v>
   <v>       0.01562500 </v>
   <v>       0.03125000 </v>
   <v>       0.01562500 </v>
   <v>       0.00781250 </v>
   <v>       0.01562500 </v>
   <v>       0.03125000 </v>
   <v>       0.03125000 </v>
   <v>       0.01562500 </v>
   <v>       0.01562500 </v>
   <v>       0.03125000 </v>
   <v>       0.03125000 </v>
   <v>       0.01562500 </v>
   <v>       0.01562500 </v>
   <v>       0.03125000 </v>
   <v>       0.01562500 </v>
   <v>       0.01562500 </v>
   <v>       0.01562500 </v>
   <v>       0.00390625 </v>
   <v>       0.01562500 </v>
   <v>       0.01562500 </v>
   <v>       0.00781250 </v>
   <v>       0.00781250 </v>
   <v>       0.01562500 </v>
   <v>       0.01562500 </v>
   <v>       0.01562500 </v>
   <v>       0.03125000 </v>
   <v>       0.01562500 </v>
   <v>       0.01562500 </v>
   <v>       0.03125000 </v>
   <v>       0.01562500 </v>
   <v>       0.01562500 </v>
   <v>       0.01562500 </v>
   <v>       0.00390625 </v>
   <v>       0.00781250 </v>
   <v>       0.01562500 </v>
   <v>       0.01562500 </v>
   <v>       0.01562500 </v>
   <v>       0.01562500 </v>
   <v>       0.00390625 </v>
   <v>       0.00781250 </v>
   <v>       0.00390625 </v>
  </varray>
 </kpoints>
 <parameters>
  <separator name="general" >
   <i type="string" name="SYSTEM">unknown system</i>
   <i type="logical" name="LCOMPAT"> F  </i>
  </separator>
  <separator name="electronic" >
   <i type="string" name="PREC">normal</i>
   <i name="ENMAX">    350.00000000</i>
   <i name="ENAUG">    322.06900000</i>
   <i name="EDIFF">      0.00040000</i>
   <i type="int" name="IALGO">    38</i>
   <i type="int" name="IWAVPR">    11</i>
   <i type="int" name="NBANDS">     8</i>
   <i name="NELECT">      8.00000000</i>
   <i type="int" name="TURBO">     0</i>
   <i type="int" name="IRESTART">     0</i>
   <i type="int" name="NREBOOT">     0</i>
   <i type="int" name="NMIN">     0</i>
   <i name="EREF">      0.00000000</i>
   <separator name="electronic smearing" >
    <i type="int" name="ISMEAR">     0</i>
    <i name="SIGMA">      0.20000000</i>
    <i name="KSPACING">      0.50000000</i>
    <i type="logical" name="KGAMMA"> T  </i>
   </separator>
   <separator name="electronic projectors" >
    <i type="logical" name="LREAL"> F  </i>
    <v name="ROPT">      0.00000000</v>
    <i type="int" name="LMAXPAW">  -100</i>
    <i type="int" name="LMAXMIX">     2</i>
    <i type="logical" name="NLSPLINE"> F  </i>
   </separator>
   <separator name="electronic startup" >
    <i type="int" name="ISTART">     0</i>
    <i type="int" name="ICHARG">     2</i>
    <i type="int" name="INIWAV">     1</i>
   </separator>
   <separator name="electronic spin" >
    <i type="int" name="ISPIN">     1</i>
    <i type="logical" name="LNONCOLLINEAR"> F  </i>
    <v name="MAGMOM">      1.00000000      1.00000000</v>
    <i name="NUPDOWN">     -1.00000000</i>
    <i type="logical" name="LSORBIT"> F  </i>
    <v name="SAXIS">      0.00000000      0.00000000      1.00000000</v>
    <i type="logical" name="LSPIRAL"> F  </i>
    <v name="QSPIRAL">      0.00000000      0.00000000      0.00000000</v>
    <i type="logical" name="LZEROZ"> F  </i>
   </separator>
   <separator name="electronic exchange-correlation" >
    <i type="logical" name="LASPH"> F  </i>
    <i type="logical" name="LMETAGGA"> F  </i>
   </separator>
   <separator name="electronic convergence" >
    <i type="int" name="NELM">    60</i>
    <i type="int" name="NELMDL">    -5</i>
    <i type="int" name="NELMIN">     2</i>
    <i name="ENINI">    350.00000000</i>
    <separator name="electronic convergence detail" >
     <i type="logical" name="LDIAG"> T  </i>
     <i type="logical" name="LSUBROT"> F  </i>
     <i name="WEIMIN">      0.00100000</i>
     <i name="EBREAK">      0.00001250</i>
     <i name="DEPER">      0.30000000</i>
     <i type="int" name="NRMM">     4</i>
     <i name="TIME">      0.40000000</i>
    </separator>
   </separator>
   <separator name="electronic mixer" >
    <i name="AMIX">      0.40000000</i>
    <i name="BMIX">      1.00000000</i>
    <i name="AMIN">      0.10000000</i>
    <i name="AMIX_MAG">      1.60000000</i>
    <i name="BMIX_MAG">      1.00000000</i>
    <separator name="electronic mixer details" >
     <i type="int" name="IMIX">     4</i>
     <i type="logical" name="MIXFIRST"> F  </i>
     <i type="int" name="MAXMIX">   -45</i>
     <i name="WC">    100.00000000</i>
     <i type="int" name="INIMIX">     1</i>
     <i type="int" name="MIXPRE">     1</i>
     <i type="int" name="MREMOVE">     5</i>
    </separator>
   </separator>
   <separator name="electronic dipolcorrection" >
    <i type="logical" name="LDIPOL"> F  </i>
    <i type="logical" name="LMONO"> F  </i>
    <i type="int" name="IDIPOL">     0</i>
    <i name="EPSILON">      1.00000000</i>
    <v name="DIPOL">   -100.00000000   -100.00000000   -100.00000000</v>
    <i name="EFIELD">      0.00000000</i>
   </separator>
  </separator>
  <separator name="grids" >
   <i type="int" name="NGX">    16</i>
   <i type="int" name="NGY">    16</i>
   <i type="int" name="NGZ">    16</i>
   <i type="int" name="NGXF">    32</i>
   <i type="int" name="NGYF">    32</i>
   <i type="int" name="NGZF">    32</i>
   <i type="logical" name="ADDGRID"> F  </i>
  </separator>
  <separator name="ionic" >
   <i type="int" name="NSW">    15</i>
   <i type="int" name="IBRION">     2</i>
   <i type="int" name="MDALGO">     0</i>
   <i type="int" name="ISIF">     2</i>
   <i name="PSTRESS">      0.00000000</i>
   <i name="EDIFFG">     -0.01000000</i>
   <i type="int" name="NFREE">     1</i>
   <i name="POTIM">      0.50000000</i>
   <i name="SMASS">     -3.00000000</i>
   <i name="SCALEE">      1.00000000</i>
  </separator>
  <separator name="ionic md" >
   <i name="TEBEG">      0.00010000</i>
   <i name="TEEND">      0.00010000</i>
   <i type="int" name="NBLOCK">     1</i>
   <i type="int" name="KBLOCK">    15</i>
   <i type="int" name="NPACO">   256</i>
   <i name="APACO">     16.00000000</i>
  </separator>
  <separator name="symmetry" >
   <i type="int" name="ISYM">     2</i>
   <i name="SYMPREC">      0.00001000</i>
  </separator>
  <separator name="dos" >
   <i type="int" name="LORBIT">     0</i>
   <v name="RWIGS">     -1.00000000</v>
   <i type="int" name="NEDOS">   301</i>
   <i name="EMIN">     10.00000000</i>
   <i name="EMAX">    -10.00000000</i>
   <i name="EFERMI">      0.00000000</i>
  </separator>
  <separator name="writing" >
   <i type="int" name="NWRITE">     2</i>
   <i type="logical" name="LWAVE"> T  </i>
   <i type="logical" name="LDOWNSAMPLE"> F  </i>
   <i type="logical" name="LCHARG"> T  </i>
   <i type="logical" name="LPARD"> F  </i>
   <i type="logical" name="LVTOT"> F  </i>
   <i type="logical" name="LVHAR"> F  </i>
   <i type="logical" name="LELF"> F  </i>
   <i type="logical" name="LOPTICS"> F  </i>
   <v name="STM">      0.00000000      0.00000000      0.00000000      0.00000000      0.00000000      0.00000000      0.00000000</v>
  </separator>
  <separator name="performance" >
   <i type="int" name="NPAR">     8</i>
   <i type="int" name="NSIM">     4</i>
   <i type="int" name="NBLK">    -1</i>
   <i type="logical" name="LPLANE"> T  </i>
   <i type="logical" name="LSCALAPACK"> T  </i>
   <i type="logical" name="LSCAAWARE"> F  </i>
   <i type="logical" name="LSCALU"> F  </i>
   <i type="logical" name="LASYNC"> F  </i>
   <i type="logical" name="LORBITALREAL"> F  </i>
  </separator>
  <separator name="miscellaneous" >
   <i type="int" name="IDIOT">     3</i>
   <i type="int" name="ISPECIAL">     0</i>
   <i type="logical" name="LMUSIC"> F  </i>
   <v name="POMASS">     28.08500000</v>
   <v name="DARWINR">      0.00000000</v>
   <v name="DARWINV">      1.00000000</v>
   <i type="logical" name="LCORR"> T  </i>
  </separator>
  <i type="logical" name="GGA_COMPAT"> T  </i>
  <i type="logical" name="LBERRY"> F  </i>
  <i type="int" name="ICORELEVEL">     0</i>
  <i type="logical" name="LDAU"> F  </i>
  <i type="int" name="I_CONSTRAINED_M">     0</i>
  <separator name="electronic exchange-correlation" >
   <i type="string" name="GGA">--</i>
   <i type="int" name="VOSKOWN">     0</i>
   <i type="logical" name="LHFCALC"> F  </i>
   <i type="string" name="PRECFOCK"></i>
   <i type="logical" name="LSYMGRAD"> F  </i>
   <i type="logical" name="LHFONE"> F  </i>
   <i type="logical" name="LRHFCALC"> F  </i>
   <i type="logical" name="LTHOMAS"> F  </i>
   <i type="logical" name="LMODELHF"> F  </i>
   <i name="ENCUT4O">     -1.00000000</i>
   <i type="int" name="EXXOEP">     0</i>
   <i type="int" name="FOURORBIT">     0</i>
   <i name="AEXX">      0.00000000</i>
   <i name="HFALPHA">      0.00000000</i>
   <i name="MCALPHA">      0.00000000</i>
   <i name="ALDAX">      1.00000000</i>
   <i name="AGGAX">      1.00000000</i>
   <i name="ALDAC">      1.00000000</i>
   <i name="AGGAC">      1.00000000</i>
   <i type="int" name="NKREDX">     1</i>
   <i type="int" name="NKREDY">     1</i>
   <i type="int" name="NKREDZ">     1</i>
   <i type="logical" name="SHIFTRED"> F  </i>
   <i type="logical" name="ODDONLY"> F  </i>
   <i type="logical" name="EVENONLY"> F  </i>
   <i type="int" name="LMAXFOCK">     0</i>
   <i type="int" name="NMAXFOCKAE">     0</i>
   <i type="logical" name="LFOCKAEDFT"> F  </i>
   <i name="HFSCREEN">      0.00000000</i>
   <i name="HFSCREENC">      0.00000000</i>
   <i type="int" name="NBANDSGWLOW">     0</i>
  </separator>
  <separator name="vdW DFT" >
   <i type="logical" name="LUSE_VDW"> F  </i>
   <i name="Zab_VDW">     -0.84910000</i>
   <i name="PARAM1">      0.12340000</i>
   <i name="PARAM2">      1.00000000</i>
   <i name="PARAM3">      0.00000000</i>
  </separator>
  <separator name="model GW" >
   <i type="int" name="MODEL_GW">     0</i>
   <i name="MODEL_EPS0">      8.97948684</i>
   <i name="MODEL_ALPHA">      1.00000000</i>
  </separator>
  <separator name="linear response parameters" >
   <i type="logical" name="LEPSILON"> F  </i>
   <i type="logical" name="LRPA"> F  </i>
   <i type="logical" name="LNABLA"> F  </i>
   <i type="logical" name="LVEL"> F  </i>
   <i type="int" name="KINTER">     0</i>
   <i name="CSHIFT">      0.10000000</i>
   <i name="OMEGAMAX">     -1.00000000</i>
   <i name="DEG_THRESHOLD">      0.00200000</i>
   <i name="RTIME">     -0.10000000</i>
   <i name="WPLASMAI">      0.00000000</i>
   <v name="DFIELD">      0.00000000      0.00000000      0.00000000</v>
   <v name="WPLASMA">      0.00000000      0.00000000      0.00000000      0.00000000      0.00000000      0.00000000      0.00000000      0.00000000      0.00000000</v>
  </separator>
  <separator name="orbital magnetization" >
   <i type="logical" name="NUCIND"> F  </i>
   <v name="MAGPOS">      0.00000000      0.00000000      0.00000000</v>
   <i type="logical" name="LNICSALL"> T  </i>
   <i type="logical" name="ORBITALMAG"> F  </i>
   <i type="logical" name="LMAGBLOCH"> F  </i>
   <i type="logical" name="LCHIMAG"> F  </i>
   <i type="logical" name="LGAUGE"> T  </i>
   <i type="int" name="MAGATOM">     0</i>
   <v name="MAGDIPOL">      0.00000000      0.00000000      0.00000000</v>
   <v name="AVECCONST">      0.00000000      0.00000000      0.00000000</v>
  </separator>
  <separator name="response functions" >
   <i type="logical" name="LADDER"> F  </i>
   <i type="logical" name="LRPAFORCE"> F  </i>
   <i type="logical" name="LFXC"> F  </i>
   <i type="logical" name="LHARTREE"> T  </i>
   <i type="int" name="IBSE">     0</i>
   <v type="int" name="KPOINT">    -1     0     0     0</v>
   <i type="logical" name="LTCTE"> F  </i>
   <i type="logical" name="LTETE"> F  </i>
   <i type="logical" name="LTRIPLET"> F  </i>
   <i type="logical" name="LFXCEPS"> F  </i>
   <i type="logical" name="LFXHEG"> F  </i>
   <i type="int" name="NATURALO">     2</i>
   <i type="logical" name="L2ORDER"> F  </i>
   <i type="logical" name="LMP2LT"> F  </i>
   <i type="logical" name="LUSEW"> F  </i>
   <i name="ENCUTGW">     -2.00000000</i>
   <i name="ENCUTGWSOFT">     -2.00000000</i>
   <i name="ENCUTLF">     -1.00000000</i>
   <i type="int" name="LMAXMP2">    -1</i>
   <i name="SCISSOR">      0.00000000</i>
   <i type="int" name="NOMEGA">     0</i>
   <i type="int" name="NOMEGAR">     0</i>
   <i type="int" name="NBANDSGW">    -1</i>
   <i type="int" name="NBANDSO">    -1</i>
   <i type="int" name="NBANDSV">    -1</i>
   <i type="int" name="NELM">     1</i>
   <i type="int" name="NELMHF">     1</i>
   <i type="int" name="DIM">     3</i>
   <i type="int" name="ANTIRES">     0</i>
   <i name="OMEGAMAX">    -30.00000000</i>
   <i name="OMEGAMIN">    -30.00000000</i>
   <i name="OMEGATL">   -200.00000000</i>
   <i type="int" name="OMEGAGRID">   140</i>
   <i name="CSHIFT">     -0.10000000</i>
   <i type="logical" name="SELFENERGY"> F  </i>
   <i type="logical" name="LSPECTRAL"> F  </i>
   <i type="logical" name="LSPECTRALGW"> F  </i>
   <i type="logical" name="LSINGLES"> F  </i>
   <i type="logical" name="LFERMIGW"> F  </i>
   <i type="logical" name="ODDONLYGW"> F  </i>
   <i type="logical" name="EVENONLYGW"> F  </i>
   <i type="int" name="NKREDLFX">     1</i>
   <i type="int" name="NKREDLFY">     1</i>
   <i type="int" name="NKREDLFZ">     1</i>
   <i type="int" name="MAXMEM">  2800</i>
   <i type="int" name="TELESCOPE">     0</i>
   <i type="int" name="TAUPAR">     1</i>
   <i type="int" name="OMEGAPAR">    -1</i>
   <i name="LAMBDA">      1.00000000</i>
  </separator>
  <separator name="External order field" >
   <i name="OFIELD_KAPPA">      0.00000000</i>
   <v name="OFIELD_K">      0.00000000      0.00000000      0.00000000</v>
   <i name="OFIELD_Q6_NEAR">      0.00000000</i>
   <i name="OFIELD_Q6_FAR">      0.00000000</i>
   <i name="OFIELD_A">      0.00000000</i>
  </separator>
 </parameters>
 <atominfo>
  <atoms>       2 </atoms>
  <types>       1 </types>
  <array name="atoms" >
   <dimension dim="1">ion</dimension>
   <field type="string">element</field>
   <field type="int">atomtype</field>
   <set>
    <rc><c>Si</c><c>   1</c></rc>
    <rc><c>Si</c><c>   1</c></rc>
   </set>
  </array>
  <array name="atomtypes" >
   <dimension dim="1">type</dimension>
   <field type="int">atomspertype</field>
   <field type="string">element</field>
   <field>mass</field>
   <field>valence</field>
   <field type="string">pseudopotential</field>
   <set>
    <rc><c>   2</c><c>Si</c><c>     28.08500000</c><c>      4.00000000</c><c> PAW_PBE Si 05Jan2001                   </c></rc>
   </set>
  </array>
 </atominfo>
 <structure name="initialpos" >
  <crystal>
   <varray name="basis" >
    <v>      -2.35813900       2.35813900       1.34564800 </v>
    <v>       2.35813900      -2.35813900       1.34564800 </v>
    <v>       2.35813900       2.35813900      -1.34564800 </v>
   </varray>
   <i name="volume">     29.93162279 </i>
   <varray name="rec_basis" >
    <v>      -0.00000000       0.21203161       0.37156820 </v>
    <v>       0.21203161      -0.00000000       0.37156820 </v>
    <v>       0.21203161       0.21203161      -0.00000000 </v>
   </varray>
  </crystal>
  <varray name="positions" >
   <v>       0.00000000       0.00000000       0.00000000 </v>
   <v>       0.25000000       0.75000000       0.50000000 </v>
  </varray>
 </structure>
 <calculation>
  <scstep>
   <time name="dav">    0.48    0.48</time>
   <time name="total">    0.52    0.53</time>
   <energy>
    <i name="alphaZ">      4.49866399 </i>
    <i name="ewald">   -267.11163077 </i>
    <i name="hartreedc">     -2.10336416 </i>
    <i name="XCdc">    -17.71040712 </i>
    <i name="pawpsdc">     65.95520812 </i>
    <i name="pawaedc">    -30.76852678 </i>
    <i name="eentropy">     -0.01365888 </i>
    <i name="bandstr">     43.31676526 </i>
    <i name="atom">    206.13125414 </i>
    <i name="e_fr_energy">      2.19430380 </i>
    <i name="e_wo_entrp">      2.20796268 </i>
    <i name="e_0_energy">      2.20113324 </i>
   </energy>
  </scstep>
  <scstep>
   <time name="dav">    0.78    0.78</time>
   <time name="total">    0.78    0.78</time>
   <energy>
    <i name="e_fr_energy">    -10.17053841 </i>
    <i name="e_wo_entrp">    -10.15286835 </i>
    <i name="e_0_energy">    -10.16170338 </i>
   </energy>
  </scstep>
  <scstep>
   <time name="dav">    0.61    0.62</time>
   <time name="total">    0.61    0.62</time>
   <energy>
    <i name="e_fr_energy">    -10.28255274 </i>
    <i name="e_wo_entrp">    -10.26541657 </i>
    <i name="e_0_energy">    -10.27398466 </i>
   </energy>
  </scstep>
  <scstep>
   <time name="dav">    0.78    0.78</time>
   <time name="total">    0.78    0.79</time>
   <energy>
    <i name="e_fr_energy">    -10.28280096 </i>
    <i name="e_wo_entrp">    -10.26566469 </i>
    <i name="e_0_energy">    -10.27423282 </i>
   </energy>
  </scstep>
  <scstep>
   <time name="dav">    0.63    0.64</time>
   <time name="total">    0.66    0.66</time>
   <energy>
    <i name="e_fr_energy">    -10.28280123 </i>
    <i name="e_wo_entrp">    -10.26566497 </i>
    <i name="e_0_energy">    -10.27423310 </i>
   </energy>
  </scstep>
  <scstep>
   <time name="dav">    0.66    0.66</time>
   <time name="total">    0.71    0.71</time>
   <energy>
    <i name="e_fr_energy">    -10.27056557 </i>
    <i name="e_wo_entrp">    -10.25345856 </i>
    <i name="e_0_energy">    -10.26201206 </i>
   </energy>
  </scstep>
  <scstep>
   <time name="dav">    0.63    0.63</time>
   <time name="total">    0.68    0.68</time>
   <energy>
    <i name="e_fr_energy">    -10.26311596 </i>
    <i name="e_wo_entrp">    -10.24603163 </i>
    <i name="e_0_energy">    -10.25457379 </i>
   </energy>
  </scstep>
  <scstep>
   <time name="dav">    0.38    0.38</time>
   <time name="total">    0.41    0.42</time>
   <energy>
    <i name="alphaZ">      4.49866399 </i>
    <i name="ewald">   -267.11163077 </i>
    <i name="hartreedc">     -2.39711156 </i>
    <i name="XCdc">    -17.45462696 </i>
    <i name="pawpsdc">     70.96495083 </i>
    <i name="pawaedc">    -35.89869416 </i>
    <i name="eentropy">     -0.01709045 </i>
    <i name="bandstr">     31.02124605 </i>
    <i name="atom">    206.13125414 </i>
    <i name="e_fr_energy">    -10.26303889 </i>
    <i name="e_wo_entrp">    -10.24594843 </i>
    <i name="e_0_energy">    -10.25449366 </i>
   </energy>
  </scstep>
  <structure>
   <crystal>
    <varray name="basis" >
     <v>      -2.35813900       2.35813900       1.34564800 </v>
     <v>       2.35813900      -2.35813900       1.34564800 </v>
     <v>       2.35813900       2.35813900      -1.34564800 </v>
    </varray>
    <i name="volume">     29.93162279 </i>
    <varray name="rec_basis" >
     <v>      -0.00000000       0.21203161       0.37156820 </v>
     <v>       0.21203161      -0.00000000       0.37156820 </v>
     <v>       0.21203161       0.21203161      -0.00000000 </v>
    </varray>
   </crystal>
   <varray name="positions" >
    <v>       0.00000000       0.00000000       0.00000000 </v>
    <v>       0.25000000       0.75000000       0.50000000 </v>
   </varray>
  </structure>
  <varray name="forces" >
   <v>       0.00000000       0.00000000      -0.00000000 </v>
   <v>      -0.00000000      -0.00000000       0.00000000 </v>
  </varray>
  <varray name="stress" >
   <v>      39.15711402       0.00000000       0.00000000 </v>
   <v>       0.00000000      39.15711402       0.00000000 </v>
   <v>       0.00000000       0.00000000      20.28791538 </v>
  </varray>
  <energy>
   <i name="e_fr_energy">    -10.26303889 </i>
   <i name="e_wo_entrp">    -10.25449366 </i>
   <i name="e_0_energy">     -0.01709045 </i>
  </energy>
  <time name="totalsc">    6.36    6.93</time>
  <eigenvalues>
   <array>
    <dimension dim="1">band</dimension>
    <dimension dim="2">kpoint</dimension>
    <dimension dim="3">spin</dimension>
    <field>eigene</field>
    <field>occ</field>
    <set>
     <set comment="spin 1">
      <set comment="kpoint 1">
       <r>   -4.0037    1.0000 </r>
       <r>    5.2464    1.0000 </r>
       <r>    7.4518    1.0000 </r>
       <r>    9.3926    0.3810 </r>
       <r>   12.5630    0.0000 </r>
       <r>   14.3320    0.0000 </r>
       <r>   14.7913    0.0000 </r>
       <r>   17.1912    0.0000 </r>
      </set>
      <set comment="kpoint 2">
       <r>   -2.7788    1.0000 </r>
       <r>    4.9078    1.0000 </r>
       <r>    7.6802    1.0000 </r>
       <r>    9.6852    0.0088 </r>
       <r>   11.4289    0.0000 </r>
       <r>   11.8671    0.0000 </r>
       <r>   14.3617    0.0000 </r>
       <r>   15.4401    0.0000 </r>
      </set>
      <set comment="kpoint 3">
       <r>   -0.7679    1.0000 </r>
       <r>    5.0112    1.0000 </r>
       <r>    5.9574    1.0000 </r>
       <r>    7.8295    1.0000 </r>
       <r>    9.2915    0.6598 </r>
       <r>   12.2607    0.0000 </r>
       <r>   14.3050    0.0000 </r>
       <r>   14.6854    0.0000 </r>
      </set>
      <set comment="kpoint 4">
       <r>    1.5796    1.0000 </r>
       <r>    2.5130    1.0000 </r>
       <r>    6.2843    1.0000 </r>
       <r>    6.7972    1.0000 </r>
       <r>    9.1865    0.8758 </r>
       <r>   11.1265    0.0000 </r>
       <r>   14.1279    0.0000 </r>
       <r>   14.9525    0.0000 </r>
      </set>
      <set comment="kpoint 5">
       <r>   -4.4144    1.0000 </r>
       <r>    5.9893    1.0000 </r>
       <r>    6.5911    1.0000 </r>
       <r>    9.1059    0.9576 </r>
       <r>   11.6328    0.0000 </r>
       <r>   15.7886    0.0000 </r>
       <r>   18.0150    0.0000 </r>
       <r>   18.3641    0.0000 </r>
      </set>
      <set comment="kpoint 6">
       <r>   -0.9632    1.0000 </r>
       <r>    5.0533    1.0000 </r>
       <r>    6.8254    1.0000 </r>
       <r>    7.0626    1.0000 </r>
       <r>   10.3519    0.0000 </r>
       <r>   12.7171    0.0000 </r>
       <r>   13.4936    0.0000 </r>
       <r>   13.7999    0.0000 </r>
      </set>
      <set comment="kpoint 7">
       <r>    1.5128    1.0000 </r>
       <r>    3.3042    1.0000 </r>
       <r>    4.7438    1.0000 </r>
       <r>    6.3329    1.0000 </r>
       <r>   10.5729    0.0000 </r>
       <r>   12.3145    0.0000 </r>
       <r>   13.4773    0.0000 </r>
       <r>   15.7209    0.0000 </r>
      </set>
      <set comment="kpoint 8">
       <r>    0.2070    1.0000 </r>
       <r>    3.2237    1.0000 </r>
       <r>    5.1895    1.0000 </r>
       <r>    7.7521    1.0000 </r>
       <r>    9.8377    0.0003 </r>
       <r>   12.6358    0.0000 </r>
       <r>   14.5119    0.0000 </r>
       <r>   15.7060    0.0000 </r>
      </set>
      <set comment="kpoint 9">
       <r>   -1.9811    1.0000 </r>
       <r>    2.6931    1.0000 </r>
       <r>    8.1733    1.0000 </r>
       <r>    9.2293    0.8027 </r>
       <r>   10.8866    0.0000 </r>
       <r>   12.5789    0.0000 </r>
       <r>   13.6719    0.0000 </r>
       <r>   16.1439    0.0000 </r>
      </set>
      <set comment="kpoint 10">
       <r>   -3.4000    1.0000 </r>
       <r>    2.8650    1.0000 </r>
       <r>    7.9773    1.0000 </r>
       <r>   10.2538    0.0000 </r>
       <r>   12.8107    0.0000 </r>
       <r>   14.1221    0.0000 </r>
       <r>   15.0621    0.0000 </r>
       <r>   16.0738    0.0000 </r>
      </set>
      <set comment="kpoint 11">
       <r>   -4.0107    1.0000 </r>
       <r>    3.7757    1.0000 </r>
       <r>    6.7631    1.0000 </r>
       <r>   10.2889    0.0000 </r>
       <r>   13.8027    0.0000 </r>
       <r>   13.8254    0.0000 </r>
       <r>   17.0233    0.0000 </r>
       <r>   17.6113    0.0000 </r>
      </set>
      <set comment="kpoint 12">
       <r>   -3.8023    1.0000 </r>
       <r>    5.0531    1.0000 </r>
       <r>    5.9754    1.0000 </r>
       <r>   10.8838    0.0000 </r>
       <r>   13.3208    0.0000 </r>
       <r>   13.4585    0.0000 </r>
       <r>   14.4106    0.0000 </r>
       <r>   16.5660    0.0000 </r>
      </set>
      <set comment="kpoint 13">
       <r>    1.5156    1.0000 </r>
       <r>    1.5884    1.0000 </r>
       <r>    4.9761    1.0000 </r>
       <r>    7.6663    1.0000 </r>
       <r>   10.6533    0.0000 </r>
       <r>   11.4934    0.0000 </r>
       <r>   15.8318    0.0000 </r>
       <r>   16.5582    0.0000 </r>
      </set>
      <set comment="kpoint 14">
       <r>   -0.7930    1.0000 </r>
       <r>    0.7730    1.0000 </r>
       <r>    8.4464    1.0000 </r>
       <r>    9.2188    0.8227 </r>
       <r>   10.7512    0.0000 </r>
       <r>   12.1832    0.0000 </r>
       <r>   13.6565    0.0000 </r>
       <r>   15.1105    0.0000 </r>
      </set>
      <set comment="kpoint 15">
       <r>   -2.3989    1.0000 </r>
       <r>    0.7548    1.0000 </r>
       <r>    8.8384    0.9999 </r>
       <r>   11.1373    0.0000 </r>
       <r>   11.5220    0.0000 </r>
       <r>   13.5355    0.0000 </r>
       <r>   14.3745    0.0000 </r>
       <r>   14.5772    0.0000 </r>
      </set>
      <set comment="kpoint 16">
       <r>   -3.2065    1.0000 </r>
       <r>    1.5174    1.0000 </r>
       <r>    7.4901    1.0000 </r>
       <r>   11.1997    0.0000 </r>
       <r>   11.7902    0.0000 </r>
       <r>   15.3706    0.0000 </r>
       <r>   16.6865    0.0000 </r>
       <r>   17.3878    0.0000 </r>
      </set>
      <set comment="kpoint 17">
       <r>   -3.1998    1.0000 </r>
       <r>    3.0228    1.0000 </r>
       <r>    6.1887    1.0000 </r>
       <r>   11.4644    0.0000 </r>
       <r>   12.1345    0.0000 </r>
       <r>   13.5802    0.0000 </r>
       <r>   15.4654    0.0000 </r>
       <r>   16.5009    0.0000 </r>
      </set>
      <set comment="kpoint 18">
       <r>   -2.3800    1.0000 </r>
       <r>    4.8365    1.0000 </r>
       <r>    5.8904    1.0000 </r>
       <r>    8.7682    1.0000 </r>
       <r>   11.8562    0.0000 </r>
       <r>   13.8552    0.0000 </r>
       <r>   14.0748    0.0000 </r>
       <r>   14.4402    0.0000 </r>
      </set>
      <set comment="kpoint 19">
       <r>   -1.0091    1.0000 </r>
       <r>   -1.0091    1.0000 </r>
       <r>    9.9995    0.0000 </r>
       <r>    9.9995    0.0000 </r>
       <r>   12.4968    0.0000 </r>
       <r>   12.4968    0.0000 </r>
       <r>   14.0242    0.0000 </r>
       <r>   14.0242    0.0000 </r>
      </set>
      <set comment="kpoint 20">
       <r>   -2.0081    1.0000 </r>
       <r>   -0.4267    1.0000 </r>
       <r>    8.5850    1.0000 </r>
       <r>   10.0278    0.0000 </r>
       <r>   12.3364    0.0000 </r>
       <r>   13.7489    0.0000 </r>
       <r>   16.9337    0.0000 </r>
       <r>   17.0795    0.0000 </r>
      </set>
      <set comment="kpoint 21">
       <r>   -2.2010    1.0000 </r>
       <r>    0.9404    1.0000 </r>
       <r>    7.0867    1.0000 </r>
       <r>    9.9284    0.0000 </r>
       <r>   11.9349    0.0000 </r>
       <r>   13.8901    0.0000 </r>
       <r>   15.3505    0.0000 </r>
       <r>   16.6177    0.0000 </r>
      </set>
      <set comment="kpoint 22">
       <r>   -1.5860    1.0000 </r>
       <r>    3.0273    1.0000 </r>
       <r>    6.1949    1.0000 </r>
       <r>    8.0823    1.0000 </r>
       <r>   10.5127    0.0000 </r>
       <r>   13.1513    0.0000 </r>
       <r>   15.1576    0.0000 </r>
       <r>   16.1772    0.0000 </r>
      </set>
      <set comment="kpoint 23">
       <r>   -0.1853    1.0000 </r>
       <r>    4.4229    1.0000 </r>
       <r>    5.8559    1.0000 </r>
       <r>    6.4250    1.0000 </r>
       <r>    9.8636    0.0001 </r>
       <r>   11.9735    0.0000 </r>
       <r>   12.8627    0.0000 </r>
       <r>   16.3550    0.0000 </r>
      </set>
      <set comment="kpoint 24">
       <r>   -0.8186    1.0000 </r>
       <r>   -0.8119    1.0000 </r>
       <r>    8.3420    1.0000 </r>
       <r>    8.3650    1.0000 </r>
       <r>   11.8472    0.0000 </r>
       <r>   14.5731    0.0000 </r>
       <r>   15.3596    0.0000 </r>
       <r>   15.4303    0.0000 </r>
      </set>
      <set comment="kpoint 25">
       <r>   -0.4048    1.0000 </r>
       <r>    1.1477    1.0000 </r>
       <r>    7.0554    1.0000 </r>
       <r>    7.8241    1.0000 </r>
       <r>    8.9704    0.9963 </r>
       <r>   12.7095    0.0000 </r>
       <r>   16.3725    0.0000 </r>
       <r>   17.6815    0.0000 </r>
      </set>
      <set comment="kpoint 26">
       <r>    0.7726    1.0000 </r>
       <r>    3.5072    1.0000 </r>
       <r>    4.5220    1.0000 </r>
       <r>    7.0060    1.0000 </r>
       <r>    9.3543    0.4872 </r>
       <r>   11.3455    0.0000 </r>
       <r>   13.7666    0.0000 </r>
       <r>   17.7662    0.0000 </r>
      </set>
      <set comment="kpoint 27">
       <r>    1.1377    1.0000 </r>
       <r>    2.9570    1.0000 </r>
       <r>    6.9443    1.0000 </r>
       <r>    7.3448    1.0000 </r>
       <r>    8.3747    1.0000 </r>
       <r>   10.6724    0.0000 </r>
       <r>   12.5120    0.0000 </r>
       <r>   16.5075    0.0000 </r>
      </set>
      <set comment="kpoint 28">
       <r>    1.9748    1.0000 </r>
       <r>    2.1762    1.0000 </r>
       <r>    4.1269    1.0000 </r>
       <r>    7.9206    1.0000 </r>
       <r>    8.4051    1.0000 </r>
       <r>   10.9002    0.0000 </r>
       <r>   15.7238    0.0000 </r>
       <r>   16.6964    0.0000 </r>
      </set>
      <set comment="kpoint 29">
       <r>    0.7996    1.0000 </r>
       <r>    4.0328    1.0000 </r>
       <r>    5.4848    1.0000 </r>
       <r>    7.7500    1.0000 </r>
       <r>    8.9226    0.9987 </r>
       <r>   10.7954    0.0000 </r>
       <r>   12.4234    0.0000 </r>
       <r>   15.1689    0.0000 </r>
      </set>
      <set comment="kpoint 30">
       <r>   -1.3577    1.0000 </r>
       <r>    6.2772    1.0000 </r>
       <r>    7.5975    1.0000 </r>
       <r>    7.7044    1.0000 </r>
       <r>    9.1234    0.9453 </r>
       <r>   11.3270    0.0000 </r>
       <r>   12.6644    0.0000 </r>
       <r>   14.2939    0.0000 </r>
      </set>
      <set comment="kpoint 31">
       <r>   -1.5549    1.0000 </r>
       <r>    7.0614    1.0000 </r>
       <r>    7.5778    1.0000 </r>
       <r>    8.0318    1.0000 </r>
       <r>    9.4802    0.1781 </r>
       <r>   11.4789    0.0000 </r>
       <r>   12.2835    0.0000 </r>
       <r>   12.4513    0.0000 </r>
      </set>
      <set comment="kpoint 32">
       <r>   -3.1793    1.0000 </r>
       <r>    7.0310    1.0000 </r>
       <r>    7.5436    1.0000 </r>
       <r>    9.7568    0.0020 </r>
       <r>   11.5397    0.0000 </r>
       <r>   11.9737    0.0000 </r>
       <r>   12.6548    0.0000 </r>
       <r>   14.2867    0.0000 </r>
      </set>
      <set comment="kpoint 33">
       <r>   -4.2054    1.0000 </r>
       <r>    7.2755    1.0000 </r>
       <r>    7.2755    1.0000 </r>
       <r>    8.1979    1.0000 </r>
       <r>   11.3135    0.0000 </r>
       <r>   15.0527    0.0000 </r>
       <r>   15.2227    0.0000 </r>
       <r>   17.1776    0.0000 </r>
      </set>
      <set comment="kpoint 34">
       <r>    0.0162    1.0000 </r>
       <r>    3.0726    1.0000 </r>
       <r>    6.3540    1.0000 </r>
       <r>    6.4552    1.0000 </r>
       <r>   11.4072    0.0000 </r>
       <r>   13.5297    0.0000 </r>
       <r>   14.6606    0.0000 </r>
       <r>   15.0854    0.0000 </r>
      </set>
      <set comment="kpoint 35">
       <r>    2.3304    1.0000 </r>
       <r>    3.1029    1.0000 </r>
       <r>    4.1928    1.0000 </r>
       <r>    4.8884    1.0000 </r>
       <r>   12.3258    0.0000 </r>
       <r>   14.2167    0.0000 </r>
       <r>   14.7136    0.0000 </r>
       <r>   14.9967    0.0000 </r>
      </set>
      <set comment="kpoint 36">
       <r>   -3.6087    1.0000 </r>
       <r>    3.7075    1.0000 </r>
       <r>    4.8019    1.0000 </r>
       <r>   11.6705    0.0000 </r>
       <r>   12.5288    0.0000 </r>
       <r>   14.9039    0.0000 </r>
       <r>   16.6055    0.0000 </r>
       <r>   17.1534    0.0000 </r>
      </set>
      <set comment="kpoint 37">
       <r>    1.3704    1.0000 </r>
       <r>    1.3704    1.0000 </r>
       <r>    6.2227    1.0000 </r>
       <r>    6.2227    1.0000 </r>
       <r>   12.7349    0.0000 </r>
       <r>   12.7349    0.0000 </r>
       <r>   14.7894    0.0000 </r>
       <r>   14.7895    0.0000 </r>
      </set>
      <set comment="kpoint 38">
       <r>   -2.8079    1.0000 </r>
       <r>    1.8592    1.0000 </r>
       <r>    5.1404    1.0000 </r>
       <r>    9.5549    0.0734 </r>
       <r>   13.7383    0.0000 </r>
       <r>   15.8351    0.0000 </r>
       <r>   16.5875    0.0000 </r>
       <r>   17.8588    0.0000 </r>
      </set>
      <set comment="kpoint 39">
       <r>   -2.6012    1.0000 </r>
       <r>    3.1196    1.0000 </r>
       <r>    4.2942    1.0000 </r>
       <r>    9.6678    0.0122 </r>
       <r>   11.7122    0.0000 </r>
       <r>   15.3951    0.0000 </r>
       <r>   16.8808    0.0000 </r>
       <r>   17.0358    0.0000 </r>
      </set>
      <set comment="kpoint 40">
       <r>   -1.6157    1.0000 </r>
       <r>   -0.0470    1.0000 </r>
       <r>    6.2365    1.0000 </r>
       <r>    7.7229    1.0000 </r>
       <r>   14.5552    0.0000 </r>
       <r>   15.2031    0.0000 </r>
       <r>   16.7992    0.0000 </r>
       <r>   17.5909    0.0000 </r>
      </set>
      <set comment="kpoint 41">
       <r>   -1.6100    1.0000 </r>
       <r>    1.4724    1.0000 </r>
       <r>    4.7895    1.0000 </r>
       <r>    7.7198    1.0000 </r>
       <r>   11.2178    0.0000 </r>
       <r>   16.6294    0.0000 </r>
       <r>   17.1155    0.0000 </r>
       <r>   19.0923    0.0000 </r>
      </set>
      <set comment="kpoint 42">
       <r>   -0.8005    1.0000 </r>
       <r>    3.2906    1.0000 </r>
       <r>    4.5127    1.0000 </r>
       <r>    7.2729    1.0000 </r>
       <r>    8.6377    1.0000 </r>
       <r>   14.5495    0.0000 </r>
       <r>   15.6235    0.0000 </r>
       <r>   18.0371    0.0000 </r>
      </set>
      <set comment="kpoint 43">
       <r>   -0.2464    1.0000 </r>
       <r>   -0.2322    1.0000 </r>
       <r>    6.0503    1.0000 </r>
       <r>    6.0796    1.0000 </r>
       <r>   11.0449    0.0000 </r>
       <r>   16.7437    0.0000 </r>
       <r>   17.8856    0.0000 </r>
       <r>   18.4984    0.0000 </r>
      </set>
      <set comment="kpoint 44">
       <r>    0.3626    1.0000 </r>
       <r>    1.8653    1.0000 </r>
       <r>    5.1407    1.0000 </r>
       <r>    6.4291    1.0000 </r>
       <r>    7.3343    1.0000 </r>
       <r>   14.6234    0.0000 </r>
       <r>   17.4479    0.0000 </r>
       <r>   19.0881    0.0000 </r>
      </set>
      <set comment="kpoint 45">
       <r>    1.6739    1.0000 </r>
       <r>    3.3354    1.0000 </r>
       <r>    4.7380    1.0000 </r>
       <r>    5.4483    1.0000 </r>
       <r>    7.9297    1.0000 </r>
       <r>   12.6137    0.0000 </r>
       <r>   13.5777    0.0000 </r>
       <r>   17.8611    0.0000 </r>
      </set>
      <set comment="kpoint 46">
       <r>    2.4972    1.0000 </r>
       <r>    3.1086    1.0000 </r>
       <r>    3.9353    1.0000 </r>
       <r>    6.3036    1.0000 </r>
       <r>    6.4438    1.0000 </r>
       <r>   12.7723    0.0000 </r>
       <r>   15.1427    0.0000 </r>
       <r>   16.2863    0.0000 </r>
      </set>
      <set comment="kpoint 47">
       <r>    0.4278    1.0000 </r>
       <r>    5.1222    1.0000 </r>
       <r>    6.2448    1.0000 </r>
       <r>    6.9783    1.0000 </r>
       <r>    7.9797    1.0000 </r>
       <r>   11.4726    0.0000 </r>
       <r>   12.1748    0.0000 </r>
       <r>   14.1049    0.0000 </r>
      </set>
      <set comment="kpoint 48">
       <r>   -1.7528    1.0000 </r>
       <r>    8.3018    1.0000 </r>
       <r>    8.3018    1.0000 </r>
       <r>    8.5541    1.0000 </r>
       <r>    8.7808    1.0000 </r>
       <r>   10.7910    0.0000 </r>
       <r>   11.9117    0.0000 </r>
       <r>   11.9117    0.0000 </r>
      </set>
      <set comment="kpoint 49">
       <r>   -2.0150    1.0000 </r>
       <r>    2.1335    1.0000 </r>
       <r>    3.3774    1.0000 </r>
       <r>    7.3835    1.0000 </r>
       <r>   14.7698    0.0000 </r>
       <r>   15.2724    0.0000 </r>
       <r>   17.8985    0.0000 </r>
       <r>   19.1861    0.0000 </r>
      </set>
      <set comment="kpoint 50">
       <r>   -0.8393    1.0000 </r>
       <r>    0.6818    1.0000 </r>
       <r>    4.0470    1.0000 </r>
       <r>    5.5219    1.0000 </r>
       <r>   14.7743    0.0000 </r>
       <r>   14.8915    0.0000 </r>
       <r>   19.1726    0.0000 </r>
       <r>   20.3044    0.0000 </r>
      </set>
      <set comment="kpoint 51">
       <r>   -0.6358    1.0000 </r>
       <r>    1.9336    1.0000 </r>
       <r>    3.2063    1.0000 </r>
       <r>    5.7061    1.0000 </r>
       <r>   10.6956    0.0000 </r>
       <r>   18.1265    0.0000 </r>
       <r>   19.3000    0.0000 </r>
       <r>   19.6756    0.0000 </r>
      </set>
      <set comment="kpoint 52">
       <r>    0.6728    1.0000 </r>
       <r>    0.6975    1.0000 </r>
       <r>    4.0438    1.0000 </r>
       <r>    4.0638    1.0000 </r>
       <r>   10.5172    0.0000 </r>
       <r>   18.2592    0.0000 </r>
       <r>   20.0538    0.0000 </r>
       <r>   20.6098    0.0000 </r>
      </set>
      <set comment="kpoint 53">
       <r>    1.4708    1.0000 </r>
       <r>    2.5059    1.0000 </r>
       <r>    3.7907    1.0000 </r>
       <r>    4.7832    1.0000 </r>
       <r>    6.7732    1.0000 </r>
       <r>   16.5406    0.0000 </r>
       <r>   17.4670    0.0000 </r>
       <r>   19.0478    0.0000 </r>
      </set>
      <set comment="kpoint 54">
       <r>    2.6332    1.0000 </r>
       <r>    3.9946    1.0000 </r>
       <r>    4.5897    1.0000 </r>
       <r>    5.1041    1.0000 </r>
       <r>    5.1041    1.0000 </r>
       <r>   14.9471    0.0000 </r>
       <r>   14.9471    0.0000 </r>
       <r>   14.9942    0.0000 </r>
      </set>
      <set comment="kpoint 55">
       <r>    0.2858    1.0000 </r>
       <r>    1.3354    1.0000 </r>
       <r>    2.6402    1.0000 </r>
       <r>    3.6745    1.0000 </r>
       <r>   14.5600    0.0000 </r>
       <r>   14.5872    0.0000 </r>
       <r>   21.7001    0.0000 </r>
       <r>   22.3784    0.0000 </r>
      </set>
      <set comment="kpoint 56">
       <r>    1.5123    1.0000 </r>
       <r>    1.5566    1.0000 </r>
       <r>    2.8369    1.0000 </r>
       <r>    2.8369    1.0000 </r>
       <r>   10.3371    0.0000 </r>
       <r>   18.5696    0.0000 </r>
       <r>   21.2080    0.0000 </r>
       <r>   21.2117    0.0000 </r>
      </set>
     </set>
    </set>
   </array>
  </eigenvalues>
  <separator name="orbital magnetization" >
   <v name="MAGDIPOLOUT">      0.00000000      0.00000000      0.00000000</v>
  </separator>
  <dos>
   <i name="efermi">      9.34973648 </i>
   <total>
    <array>
     <dimension dim="1">gridpoints</dimension>
     <dimension dim="2">spin</dimension>
     <field>energy</field>
     <field>total</field>
     <field>integrated</field>
     <set>
      <set comment="spin 1">
       <r>    -6.4144     0.0000     0.0000 </r>
       <r>    -6.3117     0.0000     0.0000 </r>
       <r>    -6.2091     0.0000     0.0000 </r>
       <r>    -6.1064     0.0000     0.0000 </r>
       <r>    -6.0038     0.0000     0.0000 </r>
       <r>    -5.9011     0.0000     0.0000 </r>
       <r>    -5.7985     0.0000     0.0000 </r>
       <r>    -5.6959     0.0000     0.0000 </r>
       <r>    -5.5932     0.0000     0.0000 </r>
       <r>    -5.4906     0.0000     0.0000 </r>
       <r>    -5.3879     0.0000     0.0000 </r>
       <r>    -5.2853     0.0000     0.0000 </r>
       <r>    -5.1827     0.0000     0.0000 </r>
       <r>    -5.0800     0.0000     0.0000 </r>
       <r>    -4.9774     0.0000     0.0000 </r>
       <r>    -4.8747     0.0001     0.0000 </r>
       <r>    -4.7721     0.0008     0.0001 </r>
       <r>    -4.6694     0.0046     0.0006 </r>
       <r>    -4.5668     0.0164     0.0022 </r>
       <r>    -4.4642     0.0363     0.0060 </r>
       <r>    -4.3615     0.0542     0.0115 </r>
       <r>    -4.2589     0.0692     0.0186 </r>
       <r>    -4.1562     0.1048     0.0294 </r>
       <r>    -4.0536     0.1683     0.0467 </r>
       <r>    -3.9509     0.2153     0.0688 </r>
       <r>    -3.8483     0.2078     0.0901 </r>
       <r>    -3.7457     0.1670     0.1072 </r>
       <r>    -3.6430     0.1298     0.1206 </r>
       <r>    -3.5404     0.1195     0.1328 </r>
       <r>    -3.4377     0.1552     0.1488 </r>
       <r>    -3.3351     0.2462     0.1740 </r>
       <r>    -3.2324     0.3537     0.2103 </r>
       <r>    -3.1298     0.3769     0.2490 </r>
       <r>    -3.0272     0.2900     0.2788 </r>
       <r>    -2.9245     0.2244     0.3018 </r>
       <r>    -2.8219     0.2613     0.3286 </r>
       <r>    -2.7192     0.3091     0.3604 </r>
       <r>    -2.6166     0.2886     0.3900 </r>
       <r>    -2.5139     0.2524     0.4159 </r>
       <r>    -2.4113     0.2619     0.4428 </r>
       <r>    -2.3087     0.3001     0.4736 </r>
       <r>    -2.2060     0.3368     0.5081 </r>
       <r>    -2.1034     0.3741     0.5465 </r>
       <r>    -2.0007     0.3961     0.5872 </r>
       <r>    -1.8981     0.3612     0.6243 </r>
       <r>    -1.7954     0.3209     0.6572 </r>
       <r>    -1.6928     0.3956     0.6978 </r>
       <r>    -1.5902     0.5303     0.7523 </r>
       <r>    -1.4875     0.5259     0.8062 </r>
       <r>    -1.3849     0.3642     0.8436 </r>
       <r>    -1.2822     0.2012     0.8643 </r>
       <r>    -1.1796     0.1330     0.8779 </r>
       <r>    -1.0770     0.1885     0.8973 </r>
       <r>    -0.9743     0.3785     0.9361 </r>
       <r>    -0.8717     0.6447     1.0023 </r>
       <r>    -0.7690     0.8072     1.0851 </r>
       <r>    -0.6664     0.7180     1.1588 </r>
       <r>    -0.5637     0.5054     1.2107 </r>
       <r>    -0.4611     0.4003     1.2518 </r>
       <r>    -0.3585     0.4201     1.2949 </r>
       <r>    -0.2558     0.4467     1.3408 </r>
       <r>    -0.1532     0.4243     1.3843 </r>
       <r>    -0.0505     0.3708     1.4224 </r>
       <r>     0.0521     0.3302     1.4563 </r>
       <r>     0.1548     0.3392     1.4911 </r>
       <r>     0.2574     0.3923     1.5314 </r>
       <r>     0.3600     0.4276     1.5752 </r>
       <r>     0.4627     0.4134     1.6177 </r>
       <r>     0.5653     0.4500     1.6639 </r>
       <r>     0.6680     0.6505     1.7306 </r>
       <r>     0.7706     0.8816     1.8211 </r>
       <r>     0.8733     0.8860     1.9121 </r>
       <r>     0.9759     0.6809     1.9820 </r>
       <r>     1.0785     0.4969     2.0330 </r>
       <r>     1.1812     0.4297     2.0771 </r>
       <r>     1.2838     0.4620     2.1245 </r>
       <r>     1.3865     0.6268     2.1888 </r>
       <r>     1.4891     0.8598     2.2771 </r>
       <r>     1.5918     0.9240     2.3719 </r>
       <r>     1.6944     0.7548     2.4494 </r>
       <r>     1.7970     0.5761     2.5085 </r>
       <r>     1.8997     0.5131     2.5612 </r>
       <r>     2.0023     0.4600     2.6084 </r>
       <r>     2.1050     0.3613     2.6455 </r>
       <r>     2.2076     0.2834     2.6746 </r>
       <r>     2.3103     0.2692     2.7022 </r>
       <r>     2.4129     0.3198     2.7350 </r>
       <r>     2.5155     0.4044     2.7765 </r>
       <r>     2.6182     0.4594     2.8237 </r>
       <r>     2.7208     0.4647     2.8714 </r>
       <r>     2.8235     0.4899     2.9217 </r>
       <r>     2.9261     0.6294     2.9863 </r>
       <r>     3.0287     0.8638     3.0749 </r>
       <r>     3.1314     1.0358     3.1813 </r>
       <r>     3.2340     1.0375     3.2878 </r>
       <r>     3.3367     0.8909     3.3792 </r>
       <r>     3.4393     0.6696     3.4479 </r>
       <r>     3.5420     0.4717     3.4963 </r>
       <r>     3.6446     0.3698     3.5343 </r>
       <r>     3.7472     0.3674     3.5720 </r>
       <r>     3.8499     0.4361     3.6168 </r>
       <r>     3.9525     0.5633     3.6746 </r>
       <r>     4.0552     0.6852     3.7449 </r>
       <r>     4.1578     0.6734     3.8140 </r>
       <r>     4.2605     0.5364     3.8691 </r>
       <r>     4.3631     0.4332     3.9136 </r>
       <r>     4.4657     0.4449     3.9592 </r>
       <r>     4.5684     0.5298     4.0136 </r>
       <r>     4.6710     0.6773     4.0831 </r>
       <r>     4.7737     0.8950     4.1750 </r>
       <r>     4.8763     1.0820     4.2861 </r>
       <r>     4.9790     1.1654     4.4057 </r>
       <r>     5.0816     1.1689     4.5256 </r>
       <r>     5.1842     1.0533     4.6338 </r>
       <r>     5.2869     0.8012     4.7160 </r>
       <r>     5.3895     0.5683     4.7743 </r>
       <r>     5.4922     0.4639     4.8219 </r>
       <r>     5.5948     0.4039     4.8634 </r>
       <r>     5.6975     0.3488     4.8992 </r>
       <r>     5.8001     0.3869     4.9389 </r>
       <r>     5.9027     0.5468     4.9950 </r>
       <r>     6.0054     0.7525     5.0723 </r>
       <r>     6.1080     0.9705     5.1719 </r>
       <r>     6.2107     1.2135     5.2964 </r>
       <r>     6.3133     1.3611     5.4361 </r>
       <r>     6.4160     1.2467     5.5641 </r>
       <r>     6.5186     0.9089     5.6574 </r>
       <r>     6.6212     0.5847     5.7174 </r>
       <r>     6.7239     0.4810     5.7668 </r>
       <r>     6.8265     0.5996     5.8283 </r>
       <r>     6.9292     0.8288     5.9134 </r>
       <r>     7.0318     1.0282     6.0189 </r>
       <r>     7.1344     1.0297     6.1246 </r>
       <r>     7.2371     0.8677     6.2137 </r>
       <r>     7.3397     0.7587     6.2915 </r>
       <r>     7.4424     0.7815     6.3718 </r>
       <r>     7.5450     0.9357     6.4678 </r>
       <r>     7.6477     1.2267     6.5937 </r>
       <r>     7.7503     1.4874     6.7464 </r>
       <r>     7.8529     1.4810     6.8984 </r>
       <r>     7.9556     1.2379     7.0255 </r>
       <r>     8.0582     0.9709     7.1251 </r>
       <r>     8.1609     0.7863     7.2058 </r>
       <r>     8.2635     0.7024     7.2779 </r>
       <r>     8.3662     0.7014     7.3499 </r>
       <r>     8.4688     0.6817     7.4199 </r>
       <r>     8.5714     0.5802     7.4794 </r>
       <r>     8.6741     0.4763     7.5283 </r>
       <r>     8.7767     0.4621     7.5758 </r>
       <r>     8.8794     0.5308     7.6302 </r>
       <r>     8.9820     0.6135     7.6932 </r>
       <r>     9.0847     0.7011     7.7652 </r>
       <r>     9.1873     0.8346     7.8508 </r>
       <r>     9.2899     0.9315     7.9465 </r>
       <r>     9.3926     0.8629     8.0350 </r>
       <r>     9.4952     0.6909     8.1059 </r>
       <r>     9.5979     0.5906     8.1666 </r>
       <r>     9.7005     0.6206     8.2303 </r>
       <r>     9.8032     0.6970     8.3018 </r>
       <r>     9.9058     0.7133     8.3750 </r>
       <r>    10.0084     0.6168     8.4383 </r>
       <r>    10.1111     0.4591     8.4854 </r>
       <r>    10.2137     0.3682     8.5232 </r>
       <r>    10.3164     0.3984     8.5641 </r>
       <r>    10.4190     0.5093     8.6164 </r>
       <r>    10.5216     0.6694     8.6851 </r>
       <r>    10.6243     0.8380     8.7711 </r>
       <r>    10.7269     0.9508     8.8687 </r>
       <r>    10.8296     0.9586     8.9671 </r>
       <r>    10.9322     0.8486     9.0542 </r>
       <r>    11.0349     0.7138     9.1275 </r>
       <r>    11.1375     0.6963     9.1989 </r>
       <r>    11.2401     0.8236     9.2835 </r>
       <r>    11.3428     1.0251     9.3887 </r>
       <r>    11.4454     1.1767     9.5095 </r>
       <r>    11.5481     1.1223     9.6247 </r>
       <r>    11.6507     0.9061     9.7177 </r>
       <r>    11.7534     0.7877     9.7985 </r>
       <r>    11.8560     0.8552     9.8863 </r>
       <r>    11.9586     0.9322     9.9820 </r>
       <r>    12.0613     0.9343    10.0779 </r>
       <r>    12.1639     0.9877    10.1793 </r>
       <r>    12.2666     1.1237    10.2946 </r>
       <r>    12.3692     1.2256    10.4204 </r>
       <r>    12.4719     1.2832    10.5521 </r>
       <r>    12.5745     1.3623    10.6920 </r>
       <r>    12.6771     1.3774    10.8333 </r>
       <r>    12.7798     1.1701    10.9534 </r>
       <r>    12.8824     0.7782    11.0333 </r>
       <r>    12.9851     0.4263    11.0771 </r>
       <r>    13.0877     0.2692    11.1047 </r>
       <r>    13.1904     0.2713    11.1326 </r>
       <r>    13.2930     0.3587    11.1694 </r>
       <r>    13.3956     0.5638    11.2273 </r>
       <r>    13.4983     0.8939    11.3190 </r>
       <r>    13.6009     1.2064    11.4428 </r>
       <r>    13.7036     1.3591    11.5823 </r>
       <r>    13.8062     1.3135    11.7172 </r>
       <r>    13.9089     1.1048    11.8306 </r>
       <r>    14.0115     0.8840    11.9213 </r>
       <r>    14.1141     0.8211    12.0056 </r>
       <r>    14.2168     0.9329    12.1013 </r>
       <r>    14.3194     1.1232    12.2166 </r>
       <r>    14.4221     1.2837    12.3484 </r>
       <r>    14.5247     1.3795    12.4900 </r>
       <r>    14.6273     1.4036    12.6340 </r>
       <r>    14.7300     1.3020    12.7677 </r>
       <r>    14.8326     1.1110    12.8817 </r>
       <r>    14.9353     0.9954    12.9839 </r>
       <r>    15.0379     1.0578    13.0925 </r>
       <r>    15.1406     1.1967    13.2153 </r>
       <r>    15.2432     1.2481    13.3434 </r>
       <r>    15.3458     1.2093    13.4675 </r>
       <r>    15.4485     1.1183    13.5823 </r>
       <r>    15.5511     0.9628    13.6811 </r>
       <r>    15.6538     0.8386    13.7672 </r>
       <r>    15.7564     0.7809    13.8474 </r>
       <r>    15.8591     0.6612    13.9152 </r>
       <r>    15.9617     0.4976    13.9663 </r>
       <r>    16.0643     0.4599    14.0135 </r>
       <r>    16.1670     0.5597    14.0710 </r>
       <r>    16.2696     0.6724    14.1400 </r>
       <r>    16.3723     0.7928    14.2214 </r>
       <r>    16.4749     0.9989    14.3239 </r>
       <r>    16.5776     1.2156    14.4487 </r>
       <r>    16.6802     1.2273    14.5746 </r>
       <r>    16.7828     0.9957    14.6768 </r>
       <r>    16.8855     0.7478    14.7536 </r>
       <r>    16.9881     0.6616    14.8215 </r>
       <r>    17.0908     0.6722    14.8905 </r>
       <r>    17.1934     0.6243    14.9546 </r>
       <r>    17.2961     0.5200    15.0079 </r>
       <r>    17.3987     0.4887    15.0581 </r>
       <r>    17.5013     0.5487    15.1144 </r>
       <r>    17.6040     0.6218    15.1782 </r>
       <r>    17.7066     0.6768    15.2477 </r>
       <r>    17.8093     0.6955    15.3191 </r>
       <r>    17.9119     0.6418    15.3850 </r>
       <r>    18.0146     0.5227    15.4386 </r>
       <r>    18.1172     0.3959    15.4793 </r>
       <r>    18.2198     0.3014    15.5102 </r>
       <r>    18.3225     0.2406    15.5349 </r>
       <r>    18.4251     0.2026    15.5557 </r>
       <r>    18.5278     0.1684    15.5730 </r>
       <r>    18.6304     0.1189    15.5852 </r>
       <r>    18.7330     0.0698    15.5924 </r>
       <r>    18.8357     0.0766    15.6002 </r>
       <r>    18.9383     0.1980    15.6205 </r>
       <r>    19.0410     0.4155    15.6632 </r>
       <r>    19.1436     0.5669    15.7214 </r>
       <r>    19.2463     0.5116    15.7739 </r>
       <r>    19.3489     0.3231    15.8071 </r>
       <r>    19.4515     0.1602    15.8235 </r>
       <r>    19.5542     0.0912    15.8329 </r>
       <r>    19.6568     0.0889    15.8420 </r>
       <r>    19.7595     0.0908    15.8513 </r>
       <r>    19.8621     0.0771    15.8592 </r>
       <r>    19.9648     0.0784    15.8673 </r>
       <r>    20.0674     0.1006    15.8776 </r>
       <r>    20.1700     0.1168    15.8896 </r>
       <r>    20.2727     0.1196    15.9018 </r>
       <r>    20.3753     0.1127    15.9134 </r>
       <r>    20.4780     0.1021    15.9239 </r>
       <r>    20.5806     0.1000    15.9342 </r>
       <r>    20.6833     0.0919    15.9436 </r>
       <r>    20.7859     0.0606    15.9498 </r>
       <r>    20.8885     0.0267    15.9525 </r>
       <r>    20.9912     0.0139    15.9540 </r>
       <r>    21.0938     0.0230    15.9563 </r>
       <r>    21.1965     0.0391    15.9604 </r>
       <r>    21.2991     0.0420    15.9647 </r>
       <r>    21.4018     0.0292    15.9677 </r>
       <r>    21.5044     0.0205    15.9698 </r>
       <r>    21.6070     0.0286    15.9727 </r>
       <r>    21.7097     0.0417    15.9770 </r>
       <r>    21.8123     0.0395    15.9810 </r>
       <r>    21.9150     0.0228    15.9834 </r>
       <r>    22.0176     0.0086    15.9843 </r>
       <r>    22.1202     0.0060    15.9849 </r>
       <r>    22.2229     0.0157    15.9865 </r>
       <r>    22.3255     0.0333    15.9899 </r>
       <r>    22.4282     0.0431    15.9943 </r>
       <r>    22.5308     0.0338    15.9978 </r>
       <r>    22.6335     0.0160    15.9994 </r>
       <r>    22.7361     0.0046    15.9999 </r>
       <r>    22.8387     0.0008    16.0000 </r>
       <r>    22.9414     0.0001    16.0000 </r>
       <r>    23.0440     0.0000    16.0000 </r>
       <r>    23.1467     0.0000    16.0000 </r>
       <r>    23.2493     0.0000    16.0000 </r>
       <r>    23.3520     0.0000    16.0000 </r>
       <r>    23.4546     0.0000    16.0000 </r>
       <r>    23.5572     0.0000    16.0000 </r>
       <r>    23.6599     0.0000    16.0000 </r>
       <r>    23.7625     0.0000    16.0000 </r>
       <r>    23.8652     0.0000    16.0000 </r>
       <r>    23.9678     0.0000    16.0000 </r>
       <r>    24.0705     0.0000    16.0000 </r>
       <r>    24.1731     0.0000    16.0000 </r>
       <r>    24.2757     0.0000    16.0000 </r>
       <r>    24.3784     0.0000    16.0000 </r>
      </set>
     </set>
    </array>
   </total>
  </dos>
 </calculation>
 <structure name="finalpos" >
  <crystal>
   <varray name="basis" >
    <v>      -2.35813900       2.35813900       1.34564800 </v>
    <v>       2.35813900      -2.35813900       1.34564800 </v>
    <v>       2.35813900       2.35813900      -1.34564800 </v>
   </varray>
   <i name="volume">     29.93162279 </i>
   <varray name="rec_basis" >
    <v>      -0.00000000       0.21203161       0.37156820 </v>
    <v>       0.21203161      -0.00000000       0.37156820 </v>
    <v>       0.21203161       0.21203161      -0.00000000 </v>
   </varray>
  </crystal>
  <varray name="positions" >
   <v>       0.00000000       0.00000000       0.00000000 </v>
   <v>       0.25000000       0.75000000       0.50000000 </v>
  </varray>
 </structure>
</modeling>
