   2   2   0   0
  0.2001288E+02  0.3839590E-09  0.3839590E-09  0.3839590E-09  0.5000000E-15
  1.000000000000000E-004
  CAR 
 unknown system                          
     17.60888439     -8.13077105  301      6.13391724      1.00000000
     -8.131  0.0000E+00  0.0000E+00
     -8.045  0.0000E+00  0.0000E+00
     -7.959  0.0000E+00  0.0000E+00
     -7.873  0.0000E+00  0.0000E+00
     -7.788  0.0000E+00  0.0000E+00
     -7.702  0.0000E+00  0.0000E+00
     -7.616  0.0000E+00  0.0000E+00
     -7.530  0.0000E+00  0.0000E+00
     -7.444  0.0000E+00  0.0000E+00
     -7.359  0.0000E+00  0.0000E+00
     -7.273  0.3889E-18  0.3337E-19
     -7.187  0.4796E-16  0.4148E-17
     -7.101  0.4042E-14  0.3510E-15
     -7.015  0.2392E-12  0.2088E-13
     -6.930  0.9958E-11  0.8752E-12
     -6.844  0.2933E-09  0.2604E-10
     -6.758  0.6166E-08  0.5551E-09
     -6.672  0.9348E-07  0.8575E-08
     -6.586  0.1034E-05  0.9730E-07
     -6.501  0.8442E-05  0.8216E-06
     -6.415  0.5128E-04  0.5221E-05
     -6.329  0.2326E-03  0.2518E-04
     -6.243  0.7899E-03  0.9295E-04
     -6.157  0.2024E-02  0.2666E-03
     -6.072  0.4011E-02  0.6107E-03
     -5.986  0.6494E-02  0.1168E-02
     -5.900  0.9216E-02  0.1959E-02
     -5.814  0.1192E-01  0.2981E-02
     -5.728  0.1391E-01  0.4174E-02
     -5.643  0.1491E-01  0.5454E-02
     -5.557  0.1613E-01  0.6838E-02
     -5.471  0.1862E-01  0.8436E-02
     -5.385  0.2128E-01  0.1026E-01
     -5.299  0.2245E-01  0.1219E-01
     -5.214  0.2207E-01  0.1408E-01
     -5.128  0.2153E-01  0.1593E-01
     -5.042  0.2282E-01  0.1789E-01
     -4.956  0.2667E-01  0.2018E-01
     -4.870  0.3073E-01  0.2281E-01
     -4.785  0.3205E-01  0.2556E-01
     -4.699  0.3076E-01  0.2820E-01
     -4.613  0.2874E-01  0.3067E-01
     -4.527  0.2783E-01  0.3305E-01
     -4.441  0.3023E-01  0.3565E-01
     -4.356  0.3647E-01  0.3878E-01
     -4.270  0.4305E-01  0.4247E-01
     -4.184  0.4554E-01  0.4638E-01
     -4.098  0.4336E-01  0.5010E-01
     -4.012  0.3970E-01  0.5350E-01
     -3.927  0.3881E-01  0.5683E-01
     -3.841  0.4382E-01  0.6059E-01
     -3.755  0.5396E-01  0.6522E-01
     -3.669  0.6269E-01  0.7060E-01
     -3.583  0.6321E-01  0.7603E-01
     -3.498  0.5645E-01  0.8087E-01
     -3.412  0.4843E-01  0.8503E-01
     -3.326  0.4341E-01  0.8875E-01
     -3.240  0.4365E-01  0.9250E-01
     -3.154  0.4846E-01  0.9665E-01
     -3.069  0.5165E-01  0.1011E+00
     -2.983  0.4758E-01  0.1052E+00
     -2.897  0.3883E-01  0.1085E+00
     -2.811  0.3270E-01  0.1113E+00
     -2.725  0.3273E-01  0.1141E+00
     -2.640  0.3648E-01  0.1172E+00
     -2.554  0.3817E-01  0.1205E+00
     -2.468  0.3395E-01  0.1234E+00
     -2.382  0.2593E-01  0.1257E+00
     -2.296  0.1933E-01  0.1273E+00
     -2.211  0.1682E-01  0.1288E+00
     -2.125  0.1697E-01  0.1302E+00
     -2.039  0.1683E-01  0.1317E+00
     -1.953  0.1501E-01  0.1329E+00
     -1.867  0.1246E-01  0.1340E+00
     -1.782  0.1078E-01  0.1349E+00
     -1.696  0.1034E-01  0.1358E+00
     -1.610  0.1079E-01  0.1368E+00
     -1.524  0.1294E-01  0.1379E+00
     -1.438  0.1863E-01  0.1395E+00
     -1.353  0.2843E-01  0.1419E+00
     -1.267  0.3964E-01  0.1453E+00
     -1.181  0.4827E-01  0.1494E+00
     -1.095  0.5461E-01  0.1541E+00
     -1.009  0.6273E-01  0.1595E+00
     -0.924  0.7221E-01  0.1657E+00
     -0.838  0.7687E-01  0.1723E+00
     -0.752  0.7408E-01  0.1787E+00
     -0.666  0.6740E-01  0.1844E+00
     -0.580  0.5929E-01  0.1895E+00
     -0.495  0.4966E-01  0.1938E+00
     -0.409  0.4151E-01  0.1973E+00
     -0.323  0.3923E-01  0.2007E+00
     -0.237  0.4079E-01  0.2042E+00
     -0.151  0.3983E-01  0.2076E+00
     -0.066  0.3516E-01  0.2106E+00
      0.020  0.3116E-01  0.2133E+00
      0.106  0.2986E-01  0.2159E+00
      0.192  0.2867E-01  0.2183E+00
      0.278  0.2615E-01  0.2206E+00
      0.363  0.2492E-01  0.2227E+00
      0.449  0.2649E-01  0.2250E+00
      0.535  0.2771E-01  0.2274E+00
      0.621  0.2544E-01  0.2296E+00
      0.707  0.2106E-01  0.2314E+00
      0.792  0.1840E-01  0.2329E+00
      0.878  0.1932E-01  0.2346E+00
      0.964  0.2168E-01  0.2365E+00
      1.050  0.2114E-01  0.2383E+00
      1.136  0.1627E-01  0.2397E+00
      1.221  0.1122E-01  0.2406E+00
      1.307  0.1223E-01  0.2417E+00
      1.393  0.2231E-01  0.2436E+00
      1.479  0.3857E-01  0.2469E+00
      1.564  0.5365E-01  0.2515E+00
      1.650  0.6173E-01  0.2568E+00
      1.736  0.6298E-01  0.2622E+00
      1.822  0.6259E-01  0.2676E+00
      1.908  0.6642E-01  0.2733E+00
      1.993  0.7465E-01  0.2797E+00
      2.079  0.7979E-01  0.2865E+00
      2.165  0.7571E-01  0.2930E+00
      2.251  0.6650E-01  0.2987E+00
      2.337  0.6096E-01  0.3040E+00
      2.422  0.6185E-01  0.3093E+00
      2.508  0.6685E-01  0.3150E+00
      2.594  0.7440E-01  0.3214E+00
      2.680  0.8242E-01  0.3285E+00
      2.766  0.8637E-01  0.3359E+00
      2.851  0.8449E-01  0.3431E+00
      2.937  0.8285E-01  0.3502E+00
      3.023  0.8919E-01  0.3579E+00
      3.109  0.1014E+00  0.3666E+00
      3.195  0.1078E+00  0.3758E+00
      3.280  0.1013E+00  0.3845E+00
      3.366  0.8983E-01  0.3922E+00
      3.452  0.8609E-01  0.3996E+00
      3.538  0.9022E-01  0.4074E+00
      3.624  0.9164E-01  0.4152E+00
      3.709  0.8574E-01  0.4226E+00
      3.795  0.8041E-01  0.4295E+00
      3.881  0.8406E-01  0.4367E+00
      3.967  0.9316E-01  0.4447E+00
      4.053  0.9701E-01  0.4530E+00
      4.138  0.9166E-01  0.4609E+00
      4.224  0.8333E-01  0.4680E+00
      4.310  0.7844E-01  0.4747E+00
      4.396  0.7514E-01  0.4812E+00
      4.482  0.6886E-01  0.4871E+00
      4.567  0.6205E-01  0.4924E+00
      4.653  0.5996E-01  0.4976E+00
      4.739  0.6052E-01  0.5028E+00
      4.825  0.5754E-01  0.5077E+00
      4.911  0.5094E-01  0.5121E+00
      4.996  0.4505E-01  0.5159E+00
      5.082  0.4036E-01  0.5194E+00
      5.168  0.3431E-01  0.5223E+00
      5.254  0.2735E-01  0.5247E+00
      5.340  0.2201E-01  0.5266E+00
      5.425  0.1844E-01  0.5282E+00
      5.511  0.1521E-01  0.5295E+00
      5.597  0.1246E-01  0.5305E+00
      5.683  0.1078E-01  0.5315E+00
      5.769  0.9183E-02  0.5322E+00
      5.854  0.6620E-02  0.5328E+00
      5.940  0.3723E-02  0.5331E+00
      6.026  0.1619E-02  0.5333E+00
      6.112  0.6038E-03  0.5333E+00
      6.198  0.4343E-03  0.5334E+00
      6.283  0.1004E-02  0.5334E+00
      6.369  0.2443E-02  0.5337E+00
      6.455  0.4838E-02  0.5341E+00
      6.541  0.8112E-02  0.5348E+00
      6.627  0.1200E-01  0.5358E+00
      6.712  0.1582E-01  0.5372E+00
      6.798  0.1866E-01  0.5388E+00
      6.884  0.2019E-01  0.5405E+00
      6.970  0.2122E-01  0.5423E+00
      7.056  0.2371E-01  0.5443E+00
      7.141  0.2920E-01  0.5469E+00
      7.227  0.3642E-01  0.5500E+00
      7.313  0.4292E-01  0.5537E+00
      7.399  0.4931E-01  0.5579E+00
      7.485  0.5739E-01  0.5628E+00
      7.570  0.6488E-01  0.5684E+00
      7.656  0.6769E-01  0.5742E+00
      7.742  0.6648E-01  0.5799E+00
      7.828  0.6638E-01  0.5856E+00
      7.914  0.7149E-01  0.5917E+00
      7.999  0.8212E-01  0.5988E+00
      8.085  0.9401E-01  0.6068E+00
      8.171  0.9969E-01  0.6154E+00
      8.257  0.9534E-01  0.6236E+00
      8.343  0.8634E-01  0.6310E+00
      8.428  0.8185E-01  0.6380E+00
      8.514  0.8435E-01  0.6452E+00
      8.600  0.8770E-01  0.6528E+00
      8.686  0.8592E-01  0.6601E+00
      8.772  0.8026E-01  0.6670E+00
      8.857  0.7692E-01  0.6736E+00
      8.943  0.8187E-01  0.6806E+00
      9.029  0.9732E-01  0.6890E+00
      9.115  0.1186E+00  0.6992E+00
      9.201  0.1341E+00  0.7107E+00
      9.286  0.1351E+00  0.7223E+00
      9.372  0.1261E+00  0.7331E+00
      9.458  0.1187E+00  0.7433E+00
      9.544  0.1164E+00  0.7533E+00
      9.630  0.1129E+00  0.7629E+00
      9.715  0.1015E+00  0.7717E+00
      9.801  0.8444E-01  0.7789E+00
      9.887  0.7051E-01  0.7849E+00
      9.973  0.6554E-01  0.7906E+00
     10.059  0.6807E-01  0.7964E+00
     10.144  0.7294E-01  0.8027E+00
     10.230  0.7488E-01  0.8091E+00
     10.316  0.7370E-01  0.8154E+00
     10.402  0.7753E-01  0.8221E+00
     10.488  0.9344E-01  0.8301E+00
     10.573  0.1140E+00  0.8399E+00
     10.659  0.1229E+00  0.8504E+00
     10.745  0.1155E+00  0.8603E+00
     10.831  0.1018E+00  0.8691E+00
     10.917  0.9114E-01  0.8769E+00
     11.002  0.8255E-01  0.8840E+00
     11.088  0.7254E-01  0.8902E+00
     11.174  0.6190E-01  0.8955E+00
     11.260  0.5361E-01  0.9001E+00
     11.346  0.4980E-01  0.9044E+00
     11.431  0.5237E-01  0.9089E+00
     11.517  0.6143E-01  0.9141E+00
     11.603  0.7204E-01  0.9203E+00
     11.689  0.7604E-01  0.9268E+00
     11.775  0.7052E-01  0.9329E+00
     11.860  0.6277E-01  0.9383E+00
     11.946  0.6224E-01  0.9436E+00
     12.032  0.6992E-01  0.9496E+00
     12.118  0.7995E-01  0.9565E+00
     12.204  0.8684E-01  0.9639E+00
     12.289  0.8682E-01  0.9714E+00
     12.375  0.7799E-01  0.9781E+00
     12.461  0.6436E-01  0.9836E+00
     12.547  0.5432E-01  0.9882E+00
     12.633  0.5078E-01  0.9926E+00
     12.718  0.4882E-01  0.9968E+00
     12.804  0.4418E-01  0.1001E+01
     12.890  0.3818E-01  0.1004E+01
     12.976  0.3518E-01  0.1007E+01
     13.062  0.3805E-01  0.1010E+01
     13.147  0.4389E-01  0.1014E+01
     13.233  0.4573E-01  0.1018E+01
     13.319  0.4061E-01  0.1021E+01
     13.405  0.3347E-01  0.1024E+01
     13.491  0.3238E-01  0.1027E+01
     13.576  0.4009E-01  0.1030E+01
     13.662  0.5046E-01  0.1035E+01
     13.748  0.5504E-01  0.1039E+01
     13.834  0.5253E-01  0.1044E+01
     13.920  0.4826E-01  0.1048E+01
     14.005  0.4540E-01  0.1052E+01
     14.091  0.4088E-01  0.1056E+01
     14.177  0.3105E-01  0.1058E+01
     14.263  0.1817E-01  0.1060E+01
     14.349  0.7815E-02  0.1060E+01
     14.434  0.2413E-02  0.1061E+01
     14.520  0.5281E-03  0.1061E+01
     14.606  0.8148E-04  0.1061E+01
     14.692  0.9850E-05  0.1061E+01
     14.778  0.1149E-04  0.1061E+01
     14.863  0.7871E-04  0.1061E+01
     14.949  0.4031E-03  0.1061E+01
     15.035  0.1467E-02  0.1061E+01
     15.121  0.3831E-02  0.1061E+01
     15.207  0.7314E-02  0.1062E+01
     15.292  0.1050E-01  0.1063E+01
     15.378  0.1184E-01  0.1064E+01
     15.464  0.1106E-01  0.1065E+01
     15.550  0.9076E-02  0.1065E+01
     15.636  0.6696E-02  0.1066E+01
     15.721  0.4301E-02  0.1066E+01
     15.807  0.2248E-02  0.1067E+01
     15.893  0.8970E-03  0.1067E+01
     15.979  0.2623E-03  0.1067E+01
     16.065  0.5489E-04  0.1067E+01
     16.150  0.8122E-05  0.1067E+01
     16.236  0.8443E-06  0.1067E+01
     16.322  0.6143E-07  0.1067E+01
     16.408  0.3122E-08  0.1067E+01
     16.493  0.1107E-09  0.1067E+01
     16.579  0.2735E-11  0.1067E+01
     16.665  0.4706E-13  0.1067E+01
     16.751  0.5631E-15  0.1067E+01
     16.837  0.4667E-17  0.1067E+01
     16.922  0.0000E+00  0.1067E+01
     17.008  0.0000E+00  0.1067E+01
     17.094  0.0000E+00  0.1067E+01
     17.180  0.0000E+00  0.1067E+01
     17.266  0.0000E+00  0.1067E+01
     17.351  0.0000E+00  0.1067E+01
     17.437  0.0000E+00  0.1067E+01
     17.523  0.0000E+00  0.1067E+01
     17.609  0.0000E+00  0.1067E+01
