unknown system                          
   1.00000000000000     
    -2.430561    2.430561    1.338676
     2.430561   -2.430561    1.338676
     2.430561    2.430561   -1.338676
   Si
     2
Direct
  0.750000  0.250000  0.500000
  0.500000  0.500000  0.000000
 
   36   36   36
  9.7171      9.6475      9.4449      9.1269      8.7182      8.2465      7.7375      7.2125      6.6878      6.1760    
  5.6882      5.2354      4.8280      4.4753      4.1837      3.9568      3.7957      3.6998      3.6680      3.6998    
  3.7957      3.9568      4.1837      4.4753      4.8280      5.2354      5.6882      6.1760      6.6878      7.2125    
  7.7375      8.2465      8.7182      9.1269      9.4449      9.6475      9.6475      9.8022      9.8156      9.6908    
  9.4422      9.0921      8.6654      8.1861      7.6740      7.1454      6.6140      6.0933      5.5974      5.1403    
  4.7342      4.3883      4.1077      3.8945      3.7483      3.6678      3.6523      3.7016      3.8164      3.9975    
  4.2443      4.5545      4.9236      5.3454      5.8127      6.3178      6.8520      7.4036      7.9558      8.4857    
  8.9645      9.3613      9.4449      9.8156      10.052      10.141      10.083      9.8911      9.5860      9.1913    
  8.7294      8.2190      7.6759      7.1146      6.5505      6.0010      5.4837      5.0145      4.6056      4.2646    
  3.9947      3.7961      3.6674      3.6072      3.6148      3.6904      3.8342      4.0463      4.3251      4.6683    
  5.0723      5.5333      6.0464      6.6051      7.1980      7.8072      8.4068      8.9645      9.1269      9.6908    
  10.141      10.448      10.599      10.593      10.443      10.170      9.7953      9.3416      8.8254      8.2610    
  7.6626      7.0472      6.4353      5.8487      5.3079      4.8290      4.4224      4.0932      3.8419      3.6670    
  3.5662      3.5380      3.5818      3.6974      3.8848      4.1438      4.4738      4.8741      5.3439      5.8809    
  6.4797      7.1286      7.8072      8.4857      8.7182      9.4422      10.083      10.599      10.962      11.156    
  11.183      11.059      10.804      10.443      9.9927      9.4680      8.8797      8.2404      7.5683      6.8871    
  6.2239      5.6049      5.0509      4.5759      4.1867      3.8843      3.6667      3.5305      3.4732      3.4929    
  3.5892      3.7623      4.0130      4.3429      4.7541      5.2483      5.8253      6.4797      7.1980      7.9558    
  8.2465      9.0921      9.8911      10.593      11.156      11.549      11.757      11.785      11.662      11.419    
  11.078      10.646      10.120      9.5099      8.8289      8.0968      7.3415      6.5967      5.8952      5.2636    
  4.7197      4.2721      3.9221      3.6667      3.5012      3.4216      3.4252      3.5111      3.6800      3.9341    
  4.2772      4.7139      5.2483      5.8809      6.6051      7.4036      7.7375      8.6654      9.5860      10.443    
  11.183      11.757      12.121      12.274      12.254      12.113      11.893      11.604      11.230      10.743    
  10.129      9.4083      8.6148      7.7828      6.9537      6.1681      5.4593      4.8488      4.3467      3.9542    
  3.6670      3.4789      3.3843      3.3798      3.4641      3.6387      3.9077      4.2772      4.7541      5.3439    
  6.0464      6.8520      7.2125      8.1861      9.1913      10.170      11.059      11.785      12.274      12.508    
  12.532      12.426      12.270      12.106      11.926      11.674      11.282      10.706      9.9593      9.1045    
  8.1950      7.2815      6.4135      5.6306      4.9583      4.4078      3.9794      3.6675      3.4639      3.3618    
  3.3569      3.4483      3.6387      3.9341      4.3429      4.8741      5.5333      6.3178      6.6878      7.6740    
  8.7294      9.7953      10.804      11.662      12.254      12.532      12.534      12.366      12.158      12.015    
  11.972      11.979      11.928      11.696      11.207      10.462      9.5489      8.5632      7.5680      6.6220    
  5.7712      5.0443      4.4531      3.9969      3.6679      3.4564      3.3543      3.3569      3.4641      3.6800    
  4.0130      4.4738      5.0723      5.8127      6.1760      7.1454      8.2190      9.3416      10.443      11.419    
  12.113      12.426      12.366      12.045      11.646      11.353      11.285      11.451      11.742      11.976    
  11.969      11.609      10.894      9.9332      8.8741      7.8024      6.7856      5.8757      5.1036      4.4811    
  4.0058      3.6680      3.4564      3.3618      3.3798      3.5111      3.7623      4.1438      4.6683      5.3454    
  5.6882      6.6140      7.6759      8.8254      9.9927      11.078      11.893      12.270      12.158      11.646    
  10.941      10.310      9.9845      10.084      10.566      11.239      11.836      12.107      11.908      11.242    
  10.245      9.1169      7.9760      6.8982      5.9399      5.1338      4.4905      4.0058      3.6679      3.4639    
  3.3843      3.4252      3.5892      3.8848      4.3251      4.9236      5.2354      6.0933      7.1146      8.2610    
  9.4680      10.646      11.604      12.106      12.015      11.353      10.310      9.2021      8.3797      8.1121    
  8.4924      9.4003      10.543      11.560      12.138      12.113      11.500      10.474      9.2833      8.0827    
  6.9556      5.9617      5.1338      4.4811      3.9969      3.6675      3.4789      3.4216      3.4929      3.6974    
  4.0463      4.5545      4.8280      5.5974      6.5505      7.6626      8.8797      10.120      11.230      11.926    
  11.972      11.285      9.9845      8.3797      6.9009      5.9738      5.8810      6.6609      8.0908      9.7630    
  11.222      12.105      12.239      11.669      10.613      9.3678      8.1187      6.9556      5.9399      5.1036    
  4.4531      3.9794      3.6670      3.5012      3.4732      3.5818      3.8342      4.2443      4.4753      5.1403    
  6.0010      7.0472      8.2404      9.5099      10.743      11.674      11.979      11.451      10.084      8.1121    
  5.9738      4.2091      3.2998      3.5108      4.7955      6.8088      9.0240      10.903      12.050      12.305    
  11.752      10.660      9.3678      8.0827      6.8982      5.8757      5.0443      4.4078      3.9542      3.6667    
  3.5305      3.5380      3.6904      3.9975      4.1837      4.7342      5.4837      6.4353      7.5683      8.8290    
  10.129      11.282      11.928      11.742      10.566      8.4924      5.8810      3.2998      1.3813     0.63267    
  1.2669      3.1257      5.7320      8.4492      10.677      12.013      12.326      11.752      10.613      9.2833    
  7.9760      6.7856      5.7712      4.9583      4.3467      3.9221      3.6667      3.5662      3.6148      3.8164    
  3.9568      4.3883      5.0145      5.8487      6.8871      8.0968      9.4083      10.706      11.696      11.976    
  11.239      9.4003      6.6610      3.5108     0.63267     -1.2773     -1.7236     -.57910      1.8688      5.0153    
  8.1353      10.596      12.013      12.305      11.669      10.474      9.1169      7.8024      6.6220      5.6306    
  4.8488      4.2721      3.8843      3.6670      3.6072      3.7016      3.7957      4.1077      4.6056      5.3079    
  6.2240      7.3415      8.6148      9.9593      11.207      11.969      11.836      10.544      8.0908      4.7955    
  1.2669     -1.7237     -3.4549     -3.4829     -1.7929      1.1942      4.7641      8.1353      10.677      12.050    
  12.239      11.500      10.245      8.8741      7.5680      6.4135      5.4593      4.7197      4.1867      3.8419    
  3.6674      3.6523      3.6998      3.8945      4.2646      4.8290      5.6049      6.5967      7.7828      9.1045    
  10.462      11.609      12.107      11.560      9.7630      6.8088      3.1256     -.57912     -3.4829     -4.8829    
 -4.4230     -2.2161      1.1942      5.0153      8.4492      10.903      12.105      12.113      11.242      9.9332    
  8.5632      7.2815      6.1681      5.2636      4.5759      4.0932      3.7961      3.6678      3.6680      3.7483    
  3.9947      4.4225      5.0509      5.8952      6.9537      8.1950      9.5489      10.894      11.908      12.138    
  11.222      9.0240      5.7320      1.8688     -1.7929     -4.4230     -5.3802     -4.4230     -1.7929      1.8688    
  5.7320      9.0240      11.222      12.138      11.908      10.894      9.5489      8.1950      6.9537      5.8952    
  5.0509      4.4224      3.9947      3.7483      3.6998      3.6678      3.7961      4.0932      4.5759      5.2636    
  6.1681      7.2815      8.5632      9.9332      11.242      12.113      12.104      10.903      8.4492      5.0153    
  1.1942     -2.2162     -4.4230     -4.8829     -3.4829     -.57910      3.1257      6.8088      9.7630      11.560    
  12.107      11.609      10.462      9.1045      7.7828      6.5967      5.6049      4.8290      4.2646      3.8945    
  3.7957      3.6523      3.6674      3.8419      4.1867      4.7198      5.4593      6.4135      7.5680      8.8741    
  10.245      11.500      12.239      12.050      10.677      8.1352      4.7640      1.1942     -1.7929     -3.4829    
 -3.4549     -1.7236      1.2669      4.7955      8.0908      10.543      11.836      11.969      11.207      9.9593    
  8.6148      7.3415      6.2239      5.3079      4.6056      4.1077      3.9568      3.7016      3.6072      3.6670    
  3.8843      4.2722      4.8488      5.6306      6.6220      7.8024      9.1169      10.474      11.669      12.305    
  12.013      10.596      8.1352      5.0153      1.8688     -.57912     -1.7237     -1.2773     0.63267      3.5108    
  6.6609      9.4003      11.239      11.976      11.696      10.706      9.4083      8.0968      6.8871      5.8487    
  5.0145      4.3883      4.1837      3.8164      3.6148      3.5662      3.6667      3.9222      4.3467      4.9583    
  5.7712      6.7856      7.9760      9.2832      10.613      11.752      12.326      12.013      10.677      8.4492    
  5.7320      3.1256      1.2669     0.63267      1.3813      3.2998      5.8810      8.4924      10.566      11.742    
  11.928      11.282      10.129      8.8289      7.5683      6.4353      5.4837      4.7342      4.4753      3.9975    
  3.6904      3.5381      3.5306      3.6667      3.9542      4.4078      5.0443      5.8756      6.8982      8.0827    
  9.3678      10.660      11.752      12.305      12.050      10.903      9.0240      6.8088      4.7955      3.5108    
  3.2998      4.2091      5.9738      8.1121      10.084      11.451      11.979      11.674      10.743      9.5099    
  8.2404      7.0472      6.0010      5.1403      4.8280      4.2443      3.8342      3.5818      3.4732      3.5012    
  3.6670      3.9795      4.4532      5.1036      5.9399      6.9555      8.1187      9.3678      10.613      11.669    
  12.239      12.104      11.222      9.7630      8.0908      6.6610      5.8810      5.9738      6.9009      8.3797    
  9.9845      11.285      11.972      11.926      11.230      10.120      8.8797      7.6626      6.5505      5.5974    
  5.2354      4.5545      4.0463      3.6974      3.4929      3.4216      3.4789      3.6675      3.9969      4.4811    
  5.1338      5.9616      6.9555      8.0827      9.2832      10.474      11.500      12.113      12.138      11.560    
  10.544      9.4003      8.4924      8.1121      8.3797      9.2021      10.310      11.353      12.015      12.106    
  11.604      10.646      9.4680      8.2610      7.1146      6.0933      5.6882      4.9236      4.3251      3.8848    
  3.5892      3.4252      3.3843      3.4639      3.6679      4.0058      4.4905      5.1338      5.9399      6.8982    
  7.9760      9.1169      10.245      11.242      11.908      12.107      11.836      11.239      10.566      10.084    
  9.9845      10.310      10.941      11.646      12.158      12.270      11.893      11.078      9.9927      8.8254    
  7.6759      6.6140      6.1760      5.3454      4.6683      4.1438      3.7623      3.5111      3.3798      3.3618    
  3.4564      3.6680      4.0058      4.4811      5.1036      5.8756      6.7856      7.8024      8.8741      9.9332    
  10.894      11.609      11.969      11.976      11.742      11.451      11.285      11.353      11.646      12.045    
  12.366      12.426      12.113      11.419      10.443      9.3416      8.2190      7.1454      6.6878      5.8127    
  5.0723      4.4738      4.0130      3.6800      3.4641      3.3569      3.3543      3.4564      3.6679      3.9969    
  4.4532      5.0443      5.7712      6.6220      7.5680      8.5632      9.5489      10.462      11.207      11.696    
  11.928      11.979      11.972      12.015      12.158      12.366      12.534      12.532      12.254      11.662    
  10.804      9.7953      8.7294      7.6740      7.2125      6.3178      5.5332      4.8741      4.3429      3.9341    
  3.6387      3.4483      3.3569      3.3618      3.4639      3.6675      3.9795      4.4078      4.9583      5.6306    
  6.4135      7.2815      8.1950      9.1045      9.9593      10.706      11.282      11.674      11.926      12.106    
  12.270      12.426      12.532      12.508      12.274      11.785      11.059      10.170      9.1913      8.1861    
  7.7375      6.8520      6.0464      5.3439      4.7541      4.2771      3.9077      3.6387      3.4641      3.3798    
  3.3843      3.4789      3.6670      3.9542      4.3467      4.8488      5.4593      6.1681      6.9537      7.7828    
  8.6148      9.4083      10.129      10.743      11.230      11.604      11.893      12.113      12.254      12.274    
  12.121      11.757      11.183      10.443      9.5860      8.6654      8.2465      7.4036      6.6051      5.8809    
  5.2483      4.7139      4.2771      3.9341      3.6800      3.5111      3.4252      3.4216      3.5012      3.6667    
  3.9222      4.2722      4.7198      5.2636      5.8952      6.5967      7.3415      8.0968      8.8290      9.5099    
  10.120      10.646      11.078      11.419      11.662      11.785      11.757      11.549      11.156      10.593    
  9.8911      9.0921      8.7182      7.9558      7.1980      6.4797      5.8253      5.2483      4.7541      4.3429    
  4.0130      3.7623      3.5892      3.4929      3.4732      3.5306      3.6667      3.8843      4.1867      4.5759    
  5.0509      5.6049      6.2240      6.8871      7.5683      8.2404      8.8797      9.4680      9.9927      10.443    
  10.804      11.059      11.183      11.156      10.962      10.599      10.083      9.4422      9.1269      8.4857    
  7.8072      7.1286      6.4797      5.8809      5.3439      4.8741      4.4738      4.1438      3.8848      3.6974    
  3.5818      3.5381      3.5662      3.6670      3.8419      4.0932      4.4225      4.8290      5.3079      5.8487    
  6.4353      7.0472      7.6626      8.2610      8.8254      9.3416      9.7953      10.170      10.443      10.593    
  10.599      10.448      10.141      9.6908      9.4449      8.9645      8.4068      7.8072      7.1980      6.6051    
  6.0464      5.5332      5.0723      4.6683      4.3251      4.0463      3.8342      3.6904      3.6148      3.6072    
  3.6674      3.7961      3.9947      4.2646      4.6056      5.0145      5.4837      6.0010      6.5505      7.1146    
  7.6759      8.2190      8.7294      9.1913      9.5860      9.8911      10.083      10.141      10.052      9.8156    
  9.6475      9.3613      8.9645      8.4857      7.9558      7.4036      6.8520      6.3178      5.8127      5.3454    
  4.9236      4.5545      4.2443      3.9975      3.8164      3.7016      3.6523      3.6678      3.7483      3.8945    
  4.1077      4.3883      4.7342      5.1403      5.5974      6.0933      6.6140      7.1454      7.6740      8.1861    
  8.6654      9.0921      9.4422      9.6908      9.8156      9.8022      9.6475      9.5375      9.3076      8.9755    
  8.5655      8.1042      7.6162      7.1213      6.6342      6.1654      5.7237      5.3176      4.9557      4.6458    
  4.3936      4.2029      4.0748      4.0093      4.0058      4.0640      4.1847      4.3684      4.6150      4.9223    
  5.2852      5.6952      6.1413      6.6114      7.0936      7.5766      8.0488      8.4960      8.9001      9.2390    
  9.4893      9.6302      9.5375      9.6475      9.6302      9.4893      9.2390      8.9001      8.4960      8.0488    
  7.5766      7.0936      6.6114      6.1413      5.6952      5.2852      4.9223      4.6150      4.3684      4.1847    
  4.0641      4.0058      4.0093      4.0748      4.2029      4.3936      4.6458      4.9557      5.3176      5.7237    
  6.1654      6.6342      7.1213      7.6162      8.1042      8.5655      8.9755      9.3076      9.2915      9.6136    
  9.8156      9.8863      9.8266      9.6475      9.3675      9.0077      8.5881      8.1254      7.6334      7.1249    
  6.6134      6.1145      5.6441      5.2169      4.8444      4.5340      4.2890      4.1102      3.9969      3.9480    
  3.9632      4.0428      4.1869      4.3946      4.6638      4.9907      5.3706      5.7983      6.2685      6.7746    
  7.3066      7.8491      8.3798      8.8707      8.9288      9.4407      9.8529      10.141      10.289      10.298    
  10.177      9.9429      9.6149      9.2114      8.7474      8.2360      7.6905      7.1268      6.5638      6.0221    
  5.5206      5.0746      4.6941      4.3842      4.1463      3.9794      3.8822      3.8535      3.8928      4.0000    
  4.1746      4.4155      4.7211      5.0894      5.5186      6.0059      6.5465      7.1303      7.7400      8.3503    
  8.4766      9.1449      9.7445      10.239      10.599      10.811      10.873      10.794      10.593      10.286    
  9.8905      9.4182      8.8803      8.2901      7.6655      7.0293      6.4071      5.8232      5.2974      4.8429    
  4.4668      4.1709      3.9542      3.8142      3.7488      3.7565      3.8369      3.9897      4.2150      4.5130    
  4.8848      5.3312      5.8518      6.4423      7.0917      7.7798      7.9647      8.7504      9.5044      10.182    
  10.742      11.156      11.410      11.505      11.452      11.272      10.983      10.594      10.110      9.5429    
  8.9032      8.2114      7.4950      6.7855      6.1136      5.5043      4.9747      4.5337      4.1835      3.9221    
  3.7461      3.6519      3.6372      3.7008      3.8429      4.0649      4.3693      4.7595      5.2390      5.8085    
  6.4635      7.1905      7.4212      8.2845      9.1550      9.9828      10.719      11.321      11.757      12.010    
  12.095      12.043      11.885      11.630      11.271      10.794      10.199      9.5079      8.7451      7.9438    
  7.1430      6.3805      5.6874      5.0846      4.5826      4.1835      3.8843      3.6799      3.5653      3.5370    
  3.5937      3.7361      3.9669      4.2912      4.7146      5.2423      5.8756      6.6079      6.8694      7.7730    
  8.7218      9.6645      10.545      11.310      11.898      12.274      12.453      12.485      12.425      12.307    
  12.126      11.845      11.418      10.823      10.082      9.2467      8.3586      7.4655      6.6133      5.8393    
  5.1682      4.6115      4.1710      3.8419      3.6173      3.4908      3.4578      3.5171      3.6702      3.9219    
  4.2791      4.7499      5.3403      6.0503      6.3271      7.2381      8.2296      9.2518      10.245      11.143    
  11.855      12.317      12.532      12.569      12.521      12.466      12.433      12.388      12.250      11.929    
  11.376      10.605      9.6973      8.7232      7.7401      6.8025      5.9539      5.2221      4.6194      4.1463    
  3.7961      3.5600      3.4299      3.4010      3.4721      3.6462      3.9301      4.3330      4.8644      5.5302    
  5.8074      6.6974      7.6996      8.7686      9.8431      10.850      11.671      12.197      12.405      12.366    
  12.210      12.079      12.071      12.195      12.367      12.447      12.294      11.826      11.054      10.080    
  9.0234      7.9559      6.9406      6.0267      5.2445      4.6061      4.1102      3.7483      3.5093      3.3840    
  3.3675      3.4593      3.6643      3.9914      4.4519      5.0560      5.3210      6.1652      7.1494      8.2351    
  9.3630      10.458      11.386      11.985      12.180      12.017      11.646      11.275      11.095      11.204    
  11.575      12.056      12.432      12.504      12.159      11.409      10.382      9.2482      8.1048      7.0224    
  6.0551      5.2345      4.5719      4.0640      3.6998      3.4665      3.3543      3.3582      3.4794      3.7247    
  4.1053      4.6343      4.8775      5.6544      6.5942      7.6680      8.8225      9.9832      11.023      11.729    
  11.955      11.685      11.053      10.310      9.7411      9.5757      9.8985      10.618      11.495      12.232    
  12.570      12.372      11.659      10.592      9.3899      8.1816      7.0452      6.0381      5.1926      4.5183    
  4.0093      3.6523      3.4331      3.3416      3.3737      3.5324      3.8269      4.2708      4.4855      5.1776    
  6.0488      7.0825      8.2354      9.4376      10.582      11.440      11.779      11.492      10.650      9.4936    
  8.3797      7.6709      7.6159      8.2595      9.4235      10.768      11.906      12.526      12.479      11.805    
  10.705      9.4446      8.1842      7.0085      5.9769      5.1208      4.4473      3.9480      3.6072      3.4101    
  3.3466      3.4142      3.6181      3.9701      4.1523      4.7463      5.5284      6.4947      7.6157      8.8321    
  10.054      11.088      11.632      11.473      10.568      9.0914      7.4056      5.9738      5.2200      5.3883    
  6.4560      8.1385      9.9856      11.528      12.414      12.498      11.852      10.719      9.4116      8.1137    
  6.9145      5.8741      5.0218      4.3617      3.8822      3.5662      3.3984      3.3696      3.4793      3.7354    
  3.8825      4.3703      5.0478      5.9221      6.9799      8.1775      9.4382      10.628      11.440      11.559    
  10.806      9.2264      7.1120      4.9503      3.2999      2.6221      3.1269      4.6982      6.9320      9.2709    
  11.177      12.280      12.451      11.806      10.637      9.2937      7.9733      6.7672      5.7340      4.8997    
  4.2644      3.8142      3.5306      3.3984      3.4102      3.5680      3.6784      4.0564      4.6195      5.3830    
  6.3482      7.4905      8.7506      10.033      11.111      11.611      11.224      9.8329      7.5846      4.8945    
  2.3664     0.63270     0.16030      1.0943      3.2060      5.9704      8.7369      10.922      12.158      12.353    
  11.674      10.463      9.0961      7.7690      6.5726      5.5621      4.7588      4.1590      3.7461      3.5012    
  3.4101      3.4676      3.5402      3.8080      4.2530      4.8938      5.7431      6.7945      8.0109      9.3174    
  10.583      11.478      11.602      10.679      8.6674      5.8230      2.6807     -.59415E-01 -1.7236     -1.8745    
 -.45848      2.1745      5.3892      8.4663      10.806      12.067      12.211      11.462      10.204      8.8264    
  7.5086      6.3380      5.3646      4.6041      4.0487      3.6799      3.4789      3.4331      3.4666      3.6260    
  3.9534      4.4671      5.1856      6.1172      7.2470      8.5248      9.8613      11.063      11.726      11.453    
  10.018      7.4646      4.1584     0.73645     -2.0363     -3.4829     -3.2294     -1.3322      1.7419      5.2701    
  8.4972      10.839      12.006      12.022      11.170      9.8692      8.4944      7.2016      6.0722      5.1489    
  4.4410      3.9371      3.6173      3.4639      3.4564      3.5093      3.7226      4.1105      4.6925      5.4858    
  6.4935      7.6910      9.0159      10.362      11.460      11.872      11.226      9.3560      6.3972      2.8107    
 -.69077     -3.3155     -4.4230     -3.7314     -1.4127      1.9652      5.6256      8.8152      10.997      11.953    
  11.777      10.802      9.4688      8.1116      6.8592      5.7848      4.9223      4.2747      3.8273      3.5600    
  3.5093      3.4564      3.5600      3.8273      4.2747      4.9223      5.7848      6.8592      8.1116      9.4687    
  10.802      11.777      11.952      10.997      8.8151      5.6256      1.9652     -1.4128     -3.7314     -4.4230    
 -3.3155     -.69078      2.8107      6.3972      9.3560      11.226      11.872      11.460      10.362      9.0159    
  7.6910      6.4935      5.4858      4.6925      4.1105      3.7226      3.6260      3.4665      3.4639      3.6173    
  3.9371      4.4410      5.1489      6.0722      7.2016      8.4944      9.8691      11.170      12.022      12.006    
  10.839      8.4972      5.2701      1.7419     -1.3322     -3.2295     -3.4829     -2.0363     0.73643      4.1584    
  7.4646      10.018      11.453      11.726      11.063      9.8613      8.5248      7.2470      6.1172      5.1856    
  4.4671      3.9534      3.8080      3.5402      3.4331      3.4789      3.6799      4.0487      4.6041      5.3646    
  6.3380      7.5085      8.8264      10.204      11.462      12.211      12.067      10.806      8.4663      5.3892    
  2.1745     -.45852     -1.8745     -1.7237     -.59467E-01  2.6807      5.8229      8.6674      10.679      11.602    
  11.478      10.583      9.3175      8.0109      6.7945      5.7431      4.8938      4.2530      4.0563      3.6784    
  3.4676      3.4101      3.5012      3.7461      4.1590      4.7588      5.5620      6.5725      7.7689      9.0960    
  10.463      11.674      12.353      12.158      10.922      8.7368      5.9703      3.2059      1.0942     0.16025    
 0.63264      2.3664      4.8945      7.5846      9.8329      11.224      11.611      11.111      10.033      8.7506    
  7.4905      6.3482      5.3830      4.6195      4.3702      3.8825      3.5680      3.4102      3.3984      3.5306    
  3.8142      4.2645      4.8997      5.7340      6.7672      7.9733      9.2937      10.637      11.806      12.451    
  12.280      11.177      9.2709      6.9319      4.6982      3.1269      2.6220      3.2998      4.9502      7.1120    
  9.2264      10.806      11.559      11.440      10.628      9.4382      8.1775      6.9799      5.9221      5.0477    
  4.7462      4.1522      3.7354      3.4793      3.3696      3.3984      3.5663      3.8822      4.3617      5.0218    
  5.8741      6.9145      8.1136      9.4116      10.719      11.852      12.498      12.414      11.528      9.9856    
  8.1385      6.4560      5.3883      5.2199      5.9738      7.4056      9.0914      10.568      11.473      11.632    
  11.088      10.054      8.8321      7.6157      6.4947      5.5284      5.1775      4.4855      3.9701      3.6181    
  3.4142      3.3467      3.4102      3.6073      3.9480      4.4474      5.1208      5.9769      7.0085      8.1842    
  9.4446      10.705      11.805      12.479      12.526      11.906      10.768      9.4235      8.2594      7.6159    
  7.6709      8.3796      9.4935      10.650      11.492      11.779      11.440      10.582      9.4376      8.2354    
  7.0825      6.0488      5.6544      4.8775      4.2707      3.8269      3.5324      3.3738      3.3417      3.4332    
  3.6523      4.0094      4.5183      5.1926      6.0381      7.0451      8.1816      9.3899      10.592      11.659    
  12.372      12.570      12.232      11.495      10.618      9.8985      9.5757      9.7411      10.310      11.053    
  11.685      11.955      11.729      11.023      9.9832      8.8225      7.6680      6.5942      6.1652      5.3210    
  4.6342      4.1053      3.7246      3.4794      3.3582      3.3543      3.4666      3.6999      4.0641      4.5719    
  5.2344      6.0551      7.0224      8.1048      9.2482      10.382      11.409      12.159      12.504      12.432    
  12.056      11.575      11.204      11.095      11.275      11.646      12.017      12.180      11.985      11.386    
  10.458      9.3631      8.2351      7.1494      6.6974      5.8074      5.0560      4.4519      3.9914      3.6643    
  3.4593      3.3675      3.3841      3.5093      3.7483      4.1102      4.6061      5.2445      6.0268      6.9406    
  7.9559      9.0235      10.080      11.054      11.826      12.295      12.447      12.367      12.195      12.071    
  12.079      12.210      12.366      12.405      12.197      11.671      10.850      9.8431      8.7686      7.6996    
  7.2381      6.3271      5.5302      4.8644      4.3329      3.9300      3.6462      3.4721      3.4010      3.4299    
  3.5600      3.7961      4.1463      4.6194      5.2221      5.9539      6.8025      7.7401      8.7232      9.6973    
  10.605      11.376      11.929      12.250      12.388      12.433      12.466      12.521      12.569      12.532    
  12.317      11.856      11.143      10.245      9.2518      8.2296      7.7730      6.8694      6.0503      5.3403    
  4.7499      4.2791      3.9219      3.6702      3.5171      3.4578      3.4908      3.6173      3.8419      4.1709    
  4.6115      5.1682      5.8393      6.6133      7.4655      8.3587      9.2467      10.082      10.823      11.418    
  11.845      12.126      12.307      12.425      12.485      12.453      12.274      11.898      11.310      10.545    
  9.6645      8.7218      8.2845      7.4212      6.6079      5.8756      5.2423      4.7146      4.2911      3.9669    
  3.7361      3.5937      3.5370      3.5653      3.6799      3.8843      4.1835      4.5826      5.0846      5.6875    
  6.3806      7.1430      7.9439      8.7451      9.5079      10.199      10.794      11.271      11.630      11.885    
  12.043      12.095      12.010      11.757      11.321      10.719      9.9828      9.1550      8.7504      7.9647    