unknown system                          
   1.00000000000000     
    -2.430561    2.430561    1.338676
     2.430561   -2.430561    1.338676
     2.430561    2.430561   -1.338676
   Si
     2
Direct
  0.750000  0.250000  0.500000
  0.500000  0.500000  0.000000
 
   36   36   36
 0.97170763204E+01 0.96474779076E+01 0.94449442951E+01 0.91268831180E+01 0.87181976088E+01
 0.82464701965E+01 0.77374952778E+01 0.72125155735E+01 0.66877776991E+01 0.61759615863E+01
 0.56882083950E+01 0.52353955863E+01 0.48280484452E+01 0.44752774277E+01 0.41836649049E+01
 0.39568147816E+01 0.37957339976E+01 0.36998059960E+01 0.36679880148E+01 0.36998052870E+01
 0.37957340922E+01 0.39568176216E+01 0.41836703060E+01 0.44752820313E+01 0.48280497739E+01
 0.52353964596E+01 0.56882134505E+01 0.61759702237E+01 0.66877845301E+01 0.72125172472E+01
 0.77374932330E+01 0.82464673551E+01 0.87181959632E+01 0.91268843537E+01 0.94449487196E+01
 0.96474822749E+01 0.96474822749E+01 0.98021529676E+01 0.98155780381E+01 0.96907990537E+01
 0.94422454282E+01 0.90920787707E+01 0.86654251407E+01 0.81860782324E+01 0.76740368385E+01
 0.71453957958E+01 0.66139787394E+01 0.60932903704E+01 0.55974053728E+01 0.51403021639E+01
 0.47342409735E+01 0.43882844745E+01 0.41077204146E+01 0.38944859408E+01 0.37482624389E+01
 0.36678309001E+01 0.36522686776E+01 0.37015575371E+01 0.38164109984E+01 0.39974681081E+01
 0.42442712168E+01 0.45544739235E+01 0.49235901875E+01 0.53453935945E+01 0.58126953794E+01
 0.63178135711E+01 0.68519837693E+01 0.74035646589E+01 0.79558246211E+01 0.84856728049E+01
 0.89644787365E+01 0.93612563780E+01 0.94449487196E+01 0.98155810829E+01 0.10051681442E+02
 0.10140518622E+02 0.10082773517E+02 0.98910586630E+01 0.95860156917E+01 0.91913230654E+01
 0.87293626255E+01 0.82189943734E+01 0.76758841123E+01 0.71145603233E+01 0.65505415694E+01
 0.60010247194E+01 0.54837019736E+01 0.50145098454E+01 0.46056276956E+01 0.42646020032E+01
 0.39946995726E+01 0.37960972665E+01 0.36674292940E+01 0.36072354706E+01 0.36148313201E+01
 0.36903681459E+01 0.38342379415E+01 0.40462643008E+01 0.43251319660E+01 0.46682944699E+01
 0.50723158524E+01 0.55332522220E+01 0.60464264817E+01 0.66050748705E+01 0.71980020876E+01
 0.78072056490E+01 0.84068319669E+01 0.89644787365E+01 0.91268843537E+01 0.96908012998E+01
 0.10140519777E+02 0.10448177703E+02 0.10599142359E+02 0.10593328166E+02 0.10443270189E+02
 0.10169574175E+02 0.97953334501E+01 0.93415772371E+01 0.88253775378E+01 0.82609509101E+01
 0.76625737584E+01 0.70472391937E+01 0.64353001409E+01 0.58487036011E+01 0.53078876102E+01
 0.48289845567E+01 0.44224319351E+01 0.40931545990E+01 0.38418797149E+01 0.36669730183E+01
 0.35662236583E+01 0.35380366018E+01 0.35817656399E+01 0.36973649322E+01 0.38848267831E+01
 0.41438435259E+01 0.44738343819E+01 0.48741352132E+01 0.53438622712E+01 0.58808960462E+01
 0.64797337503E+01 0.71286393761E+01 0.78072056490E+01 0.84856728049E+01 0.87181959632E+01
 0.94422452418E+01 0.10082773768E+02 0.10599141917E+02 0.10961684518E+02 0.11155932629E+02
 0.11183444428E+02 0.11058735766E+02 0.10804136350E+02 0.10442678193E+02 0.99927084518E+01
 0.94680274640E+01 0.88796858605E+01 0.82404355099E+01 0.75682842726E+01 0.68870886319E+01
 0.62239493050E+01 0.56048864016E+01 0.50509100523E+01 0.45759145715E+01 0.41866569185E+01
 0.38842989268E+01 0.36666789370E+01 0.35305485939E+01 0.34731521043E+01 0.34928757935E+01
 0.35891778428E+01 0.37622818707E+01 0.40130325163E+01 0.43429423446E+01 0.47540838430E+01
 0.52482937008E+01 0.58252873261E+01 0.64797337503E+01 0.71980020876E+01 0.79558246211E+01
 0.82464673551E+01 0.90920769402E+01 0.98910582423E+01 0.10593327443E+02 0.11155931269E+02
 0.11549397102E+02 0.11757062894E+02 0.11785306752E+02 0.11662080746E+02 0.11419346175E+02
 0.11078422485E+02 0.10645668280E+02 0.10120436880E+02 0.95098946420E+01 0.88289476196E+01
 0.80967655235E+01 0.73415311653E+01 0.65967319379E+01 0.58951725281E+01 0.52635945363E+01
 0.47197285795E+01 0.42721338872E+01 0.39221310228E+01 0.36666860335E+01 0.35012152031E+01
 0.34216088614E+01 0.34252306822E+01 0.35111386606E+01 0.36800074885E+01 0.39340934898E+01
 0.42771580878E+01 0.47138879822E+01 0.52482937008E+01 0.58808960462E+01 0.66050748705E+01
 0.74035646589E+01 0.77374932330E+01 0.86654226045E+01 0.95860151118E+01 0.10443270763E+02
 0.11183443683E+02 0.11757061252E+02 0.12120892617E+02 0.12274123132E+02 0.12254207012E+02
 0.12113444957E+02 0.11892694051E+02 0.11603995336E+02 0.11230424690E+02 0.10743446663E+02
 0.10129193893E+02 0.94083360871E+01 0.86147885622E+01 0.77827986265E+01 0.69536772320E+01
 0.61681399331E+01 0.54592761280E+01 0.48487601299E+01 0.43467085704E+01 0.39542103813E+01
 0.36669912714E+01 0.34788807889E+01 0.33843255613E+01 0.33797524654E+01 0.34640637621E+01
 0.36387236364E+01 0.39077133005E+01 0.42771580878E+01 0.47540838430E+01 0.53438622712E+01
 0.60464264817E+01 0.68519837693E+01 0.72125172472E+01 0.81860766990E+01 0.91913218004E+01
 0.10169575665E+02 0.11058737858E+02 0.11785306580E+02 0.12274121860E+02 0.12508490335E+02
 0.12532433258E+02 0.12426265356E+02 0.12269529719E+02 0.12105981774E+02 0.11925880976E+02
 0.11674276797E+02 0.11282177573E+02 0.10706375870E+02 0.99593373326E+01 0.91044679665E+01
 0.81950147435E+01 0.72815440307E+01 0.64135264194E+01 0.56306472901E+01 0.49583195746E+01
 0.44077828166E+01 0.39794447375E+01 0.36674534893E+01 0.34638936628E+01 0.33618087298E+01
 0.33569187132E+01 0.34483360014E+01 0.36387236364E+01 0.39340934898E+01 0.43429423446E+01
 0.48741352132E+01 0.55332522220E+01 0.63178135711E+01 0.66877845301E+01 0.76740392561E+01
 0.87293617010E+01 0.97953338689E+01 0.10804140042E+02 0.11662084372E+02 0.12254207983E+02
 0.12532433250E+02 0.12534403632E+02 0.12365769221E+02 0.12157838851E+02 0.12014925909E+02
 0.11971723632E+02 0.11979436683E+02 0.11928147997E+02 0.11696426396E+02 0.11206585337E+02
 0.10461918297E+02 0.95489349117E+01 0.85632067498E+01 0.75680186919E+01 0.66219931814E+01
 0.57712233213E+01 0.50443456298E+01 0.44531442181E+01 0.39968794049E+01 0.36678590257E+01
 0.34563859331E+01 0.33542835489E+01 0.33569187132E+01 0.34640637621E+01 0.36800074885E+01
 0.40130325163E+01 0.44738343819E+01 0.50723158524E+01 0.58126953794E+01 0.61759702237E+01
 0.71454026579E+01 0.82189967713E+01 0.93415770238E+01 0.10442680767E+02 0.11419352118E+02
 0.12113450169E+02 0.12426268392E+02 0.12365771625E+02 0.12045282018E+02 0.11645897906E+02
 0.11352612345E+02 0.11285245019E+02 0.11451269795E+02 0.11741988611E+02 0.11975539632E+02
 0.11968938080E+02 0.11608955054E+02 0.10894071044E+02 0.99332059051E+01 0.88741367134E+01
 0.78023920702E+01 0.67856085807E+01 0.58756508559E+01 0.51035951252E+01 0.44810858344E+01
 0.40057931709E+01 0.36680190753E+01 0.34563859331E+01 0.33618087298E+01 0.33797524654E+01
 0.35111386606E+01 0.37622818707E+01 0.41438435259E+01 0.46682944699E+01 0.53453935945E+01
 0.56882134505E+01 0.66139854904E+01 0.76758903503E+01 0.88253797121E+01 0.99927098471E+01
 0.11078428132E+02 0.11892702391E+02 0.12269536752E+02 0.12157845129E+02 0.11645903814E+02
 0.10941490398E+02 0.10309675509E+02 0.99844823721E+01 0.10084388561E+02 0.10566202084E+02
 0.11239259871E+02 0.11835629745E+02 0.12106841460E+02 0.11908330581E+02 0.11241821075E+02
 0.10244776228E+02 0.91169037387E+01 0.79760493006E+01 0.68981965270E+01 0.59399457778E+01
 0.51338026843E+01 0.44905238937E+01 0.40057931709E+01 0.36678590257E+01 0.34638936628E+01
 0.33843255613E+01 0.34252306822E+01 0.35891778428E+01 0.38848267831E+01 0.43251319660E+01
 0.49235901875E+01 0.52353964596E+01 0.60932921721E+01 0.71145664055E+01 0.82609567096E+01
 0.94680301633E+01 0.10645672897E+02 0.11604005046E+02 0.12105992421E+02 0.12014934921E+02
 0.11352622679E+02 0.10309685330E+02 0.92020648049E+01 0.83796701302E+01 0.81120848843E+01
 0.84923896894E+01 0.94003407427E+01 0.10543499995E+02 0.11559741198E+02 0.12138220669E+02
 0.12112899006E+02 0.11499903453E+02 0.10473566005E+02 0.92832812615E+01 0.80827481989E+01
 0.69555524448E+01 0.59616537524E+01 0.51338026843E+01 0.44810858344E+01 0.39968794049E+01
 0.36674534893E+01 0.34788807889E+01 0.34216088614E+01 0.34928757935E+01 0.36973649322E+01
 0.40462643008E+01 0.45544739235E+01 0.48280497739E+01 0.55974035405E+01 0.65505437894E+01
 0.76625808602E+01 0.88796915752E+01 0.10120441196E+02 0.11230433974E+02 0.11925894968E+02
 0.11971735873E+02 0.11285255695E+02 0.99844964205E+01 0.83796829038E+01 0.69008517155E+01
 0.59737977356E+01 0.58810083514E+01 0.66609453042E+01 0.80908405494E+01 0.97629529944E+01
 0.11221574450E+02 0.12104505467E+02 0.12239149190E+02 0.11669012364E+02 0.10612927393E+02
 0.93678201811E+01 0.81187316706E+01 0.69555524448E+01 0.59399457778E+01 0.51035951252E+01
 0.44531442181E+01 0.39794447375E+01 0.36669912714E+01 0.35012152031E+01 0.34731521043E+01
 0.35817656399E+01 0.38342379415E+01 0.42442712168E+01 0.44752820313E+01 0.51403029547E+01
 0.60010244812E+01 0.70472450235E+01 0.82404441540E+01 0.95099001016E+01 0.10743453292E+02
 0.11674291066E+02 0.11979453762E+02 0.11451282181E+02 0.10084399795E+02 0.81121005576E+01
 0.59738107719E+01 0.42091449889E+01 0.32998272061E+01 0.35108318141E+01 0.47955041609E+01
 0.68087637243E+01 0.90240243672E+01 0.10902889157E+02 0.12050274080E+02 0.12305443766E+02
 0.11752314823E+02 0.10659681324E+02 0.93678201811E+01 0.80827481989E+01 0.68981965270E+01
 0.58756508559E+01 0.50443456298E+01 0.44077828166E+01 0.39542103813E+01 0.36666860335E+01
 0.35305485939E+01 0.35380366018E+01 0.36903681459E+01 0.39974681081E+01 0.41836703060E+01
 0.47342479789E+01 0.54837042850E+01 0.64353044103E+01 0.75682945553E+01 0.88289565188E+01
 0.10129198179E+02 0.11282186305E+02 0.11928165811E+02 0.11742006183E+02 0.10566212629E+02
 0.84923994543E+01 0.58810217123E+01 0.32998364477E+01 0.13812594921E+01 0.63266974719E+00
 0.12669234813E+01 0.31256621614E+01 0.57319777493E+01 0.84492416667E+01 0.10677402590E+02
 0.12012657687E+02 0.12325803982E+02 0.11752314823E+02 0.10612927393E+02 0.92832812615E+01
 0.79760493006E+01 0.67856085807E+01 0.57712233213E+01 0.49583195746E+01 0.43467085704E+01
 0.39221310228E+01 0.36666789370E+01 0.35662236583E+01 0.36148313201E+01 0.38164109984E+01
 0.39568176216E+01 0.43882952629E+01 0.50145180980E+01 0.58487083256E+01 0.68870982858E+01
 0.80967785839E+01 0.94083426273E+01 0.10706377623E+02 0.11696435854E+02 0.11975557755E+02
 0.11239274430E+02 0.94003472316E+01 0.66609507362E+01 0.35108377298E+01 0.63267087069E+00
 -.12773203421E+01 -.17236440905E+01 -.57910441650E+00 0.18688234347E+01 0.50153441436E+01
 0.81352563349E+01 0.10596164953E+02 0.12012657687E+02 0.12305443766E+02 0.11669012364E+02
 0.10473566005E+02 0.91169037387E+01 0.78023920702E+01 0.66219931814E+01 0.56306472901E+01
 0.48487601299E+01 0.42721338872E+01 0.38842989268E+01 0.36669730183E+01 0.36072354706E+01
 0.37015575371E+01 0.37957340922E+01 0.41077297395E+01 0.46056409564E+01 0.53078958067E+01
 0.62239568665E+01 0.73415448244E+01 0.86148006663E+01 0.99593385011E+01 0.11206583373E+02
 0.11968945970E+02 0.11835643821E+02 0.10543507778E+02 0.80908407068E+01 0.47955019276E+01
 0.12669172050E+01 -.17236540111E+01 -.34548638888E+01 -.34828675814E+01 -.17929032972E+01
 0.11941854240E+01 0.47640567119E+01 0.81352563349E+01 0.10677402590E+02 0.12050274080E+02
 0.12239149190E+02 0.11499903453E+02 0.10244776228E+02 0.88741367134E+01 0.75680186919E+01
 0.64135264194E+01 0.54592761280E+01 0.47197285795E+01 0.41866569185E+01 0.38418797149E+01
 0.36674292940E+01 0.36522686776E+01 0.36998052870E+01 0.38944900099E+01 0.42646158521E+01
 0.48289987569E+01 0.56048947810E+01 0.65967418061E+01 0.77828124497E+01 0.91044741621E+01
 0.10461912010E+02 0.11608949054E+02 0.12106845319E+02 0.11559746712E+02 0.97629505365E+01
 0.68087553393E+01 0.31256495737E+01 -.57912497238E+00 -.34828883219E+01 -.48828917260E+01
 -.44230004593E+01 -.22161342006E+01 0.11941854240E+01 0.50153441436E+01 0.84492416667E+01
 0.10902889157E+02 0.12104505467E+02 0.12112899006E+02 0.11241821075E+02 0.99332059051E+01
 0.85632067498E+01 0.72815440307E+01 0.61681399331E+01 0.52635945363E+01 0.45759145715E+01
 0.40931545990E+01 0.37960972665E+01 0.36678309001E+01 0.36679880148E+01 0.37482612283E+01
 0.39947083669E+01 0.44224504055E+01 0.50509252062E+01 0.58951809073E+01 0.69536864677E+01
 0.81950228550E+01 0.95489310799E+01 0.10894057519E+02 0.11908321473E+02 0.12138218324E+02
 0.11221567702E+02 0.90240093273E+01 0.57319596689E+01 0.18688003051E+01 -.17929356097E+01
 -.44230279508E+01 -.53802094866E+01 -.44230004593E+01 -.17929032972E+01 0.18688234347E+01
 0.57319777493E+01 0.90240243672E+01 0.11221574450E+02 0.12138220669E+02 0.11908330581E+02
 0.10894071044E+02 0.95489349117E+01 0.81950147435E+01 0.69536772320E+01 0.58951725281E+01
 0.50509100523E+01 0.44224319351E+01 0.39946995726E+01 0.37482624389E+01 0.36998059960E+01
 0.36678285931E+01 0.37960994709E+01 0.40931714002E+01 0.45759377817E+01 0.52636091651E+01
 0.61681456025E+01 0.72815472591E+01 0.85632035877E+01 0.99331907937E+01 0.11241802951E+02
 0.12112888201E+02 0.12104495382E+02 0.10902868651E+02 0.84492144303E+01 0.50153179292E+01
 0.11941554776E+01 -.22161710998E+01 -.44230279508E+01 -.48828917260E+01 -.34828675814E+01
 -.57910441650E+00 0.31256621614E+01 0.68087637243E+01 0.97629529944E+01 0.11559741198E+02
 0.12106841460E+02 0.11608955054E+02 0.10461918297E+02 0.91044679665E+01 0.77827986265E+01
 0.65967319379E+01 0.56048864016E+01 0.48289845567E+01 0.42646020032E+01 0.38944859408E+01
 0.37957339976E+01 0.36522703995E+01 0.36674307030E+01 0.38418918159E+01 0.41866829618E+01
 0.47197533448E+01 0.54592863322E+01 0.64135251015E+01 0.75680110973E+01 0.88741196643E+01
 0.10244751708E+02 0.11499883969E+02 0.12239137583E+02 0.12050256268E+02 0.10677370807E+02
 0.81352213458E+01 0.47640272701E+01 0.11941554776E+01 -.17929356097E+01 -.34828883219E+01
 -.34548638888E+01 -.17236440905E+01 0.12669234813E+01 0.47955041609E+01 0.80908405494E+01
 0.10543499995E+02 0.11835629745E+02 0.11968938080E+02 0.11206585337E+02 0.99593373326E+01
 0.86147885622E+01 0.73415311653E+01 0.62239493050E+01 0.53078876102E+01 0.46056276956E+01
 0.41077204146E+01 0.39568147816E+01 0.37015638656E+01 0.36072435900E+01 0.36669845525E+01
 0.38843225040E+01 0.42721645376E+01 0.48487800085E+01 0.56306485675E+01 0.66219820406E+01
 0.78023719398E+01 0.91168739203E+01 0.10473535341E+02 0.11668993477E+02 0.12305431599E+02
 0.12012634856E+02 0.10596128747E+02 0.81352213458E+01 0.50153179292E+01 0.18688003051E+01
 -.57912497238E+00 -.17236540111E+01 -.12773203421E+01 0.63266974719E+00 0.35108318141E+01
 0.66609453042E+01 0.94003407427E+01 0.11239259871E+02 0.11975539632E+02 0.11696426396E+02
 0.10706375870E+02 0.94083360871E+01 0.80967655235E+01 0.68870886319E+01 0.58487036011E+01
 0.50145098454E+01 0.43882844745E+01 0.41836649049E+01 0.38164168292E+01 0.36148461384E+01
 0.35662406383E+01 0.36667010285E+01 0.39221614269E+01 0.43467359064E+01 0.49583287430E+01
 0.57712137690E+01 0.67855877021E+01 0.79760183098E+01 0.92832421904E+01 0.10612893567E+02
 0.11752296709E+02 0.12325791550E+02 0.12012634856E+02 0.10677370807E+02 0.84492144303E+01
 0.57319596689E+01 0.31256495737E+01 0.12669172050E+01 0.63267087069E+00 0.13812594921E+01
 0.32998272061E+01 0.58810083514E+01 0.84923896894E+01 0.10566202084E+02 0.11741988611E+02
 0.11928147997E+02 0.11282177573E+02 0.10129193893E+02 0.88289476196E+01 0.75682842726E+01
 0.64353001409E+01 0.54837019736E+01 0.47342409735E+01 0.44752774277E+01 0.39974690534E+01
 0.36903817274E+01 0.35380578719E+01 0.35305723500E+01 0.36667146462E+01 0.39542408229E+01
 0.44078010413E+01 0.50443425805E+01 0.58756320615E+01 0.68981684174E+01 0.80827100821E+01
 0.93677763235E+01 0.10659646550E+02 0.11752296709E+02 0.12305431599E+02 0.12050256268E+02
 0.10902868651E+02 0.90240093273E+01 0.68087553393E+01 0.47955019276E+01 0.35108377298E+01
 0.32998364477E+01 0.42091449889E+01 0.59737977356E+01 0.81120848843E+01 0.10084388561E+02
 0.11451269795E+02 0.11979436683E+02 0.11674276797E+02 0.10743446663E+02 0.95098946420E+01
 0.82404355099E+01 0.70472391937E+01 0.60010247194E+01 0.51403021639E+01 0.48280484452E+01
 0.42442680071E+01 0.38342430403E+01 0.35817826362E+01 0.34731753700E+01 0.35012420567E+01
 0.36670219867E+01 0.39794709443E+01 0.44531522753E+01 0.51035824905E+01 0.59399212798E+01
 0.69555206274E+01 0.81186910799E+01 0.93677763235E+01 0.10612893567E+02 0.11668993477E+02
 0.12239137583E+02 0.12104495382E+02 0.11221567702E+02 0.97629505365E+01 0.80908407068E+01
 0.66609507362E+01 0.58810217123E+01 0.59738107719E+01 0.69008517155E+01 0.83796701302E+01
 0.99844823721E+01 0.11285245019E+02 0.11971723632E+02 0.11925880976E+02 0.11230424690E+02
 0.10120436880E+02 0.88796858605E+01 0.76625737584E+01 0.65505415694E+01 0.55974053728E+01
 0.52353955863E+01 0.45544689097E+01 0.40462600184E+01 0.36973704346E+01 0.34928917298E+01
 0.34216311540E+01 0.34789086684E+01 0.36674841344E+01 0.39969007768E+01 0.44810865358E+01
 0.51337850251E+01 0.59616273857E+01 0.69555206274E+01 0.80827100821E+01 0.92832421904E+01
 0.10473535341E+02 0.11499883969E+02 0.12112888201E+02 0.12138218324E+02 0.11559746712E+02
 0.10543507778E+02 0.94003472316E+01 0.84923994543E+01 0.81121005576E+01 0.83796829038E+01
 0.92020648049E+01 0.10309675509E+02 0.11352612345E+02 0.12014925909E+02 0.12105981774E+02
 0.11603995336E+02 0.10645668280E+02 0.94680274640E+01 0.82609509101E+01 0.71145603233E+01
 0.60932903704E+01 0.56882083950E+01 0.49235830674E+01 0.43251213526E+01 0.38848199795E+01
 0.35891815055E+01 0.34252440112E+01 0.33843465768E+01 0.34639221651E+01 0.36678892261E+01
 0.40058115967E+01 0.44905219678E+01 0.51337850251E+01 0.59399212798E+01 0.68981684174E+01
 0.79760183098E+01 0.91168739203E+01 0.10244751708E+02 0.11241802951E+02 0.11908321473E+02
 0.12106845319E+02 0.11835643821E+02 0.11239274430E+02 0.10566212629E+02 0.10084399795E+02
 0.99844964205E+01 0.10309685330E+02 0.10941490398E+02 0.11645897906E+02 0.12157838851E+02
 0.12269529719E+02 0.11892694051E+02 0.11078422485E+02 0.99927084518E+01 0.88253775378E+01
 0.76758841123E+01 0.66139787394E+01 0.61759615863E+01 0.53453834403E+01 0.46682803415E+01
 0.41438279679E+01 0.37622729453E+01 0.35111405839E+01 0.33797640234E+01 0.33618292852E+01
 0.34564149334E+01 0.36680490906E+01 0.40058115967E+01 0.44810865358E+01 0.51035824905E+01
 0.58756320615E+01 0.67855877021E+01 0.78023719398E+01 0.88741196643E+01 0.99331907937E+01
 0.10894057519E+02 0.11608949054E+02 0.11968945970E+02 0.11975557755E+02 0.11742006183E+02
 0.11451282181E+02 0.11285255695E+02 0.11352622679E+02 0.11645903814E+02 0.12045282018E+02
 0.12365769221E+02 0.12426265356E+02 0.12113444957E+02 0.11419346175E+02 0.10442678193E+02
 0.93415772371E+01 0.82189943734E+01 0.71453957958E+01 0.66877776991E+01 0.58126852074E+01
 0.50723013156E+01 0.44738151797E+01 0.40130142654E+01 0.36799977281E+01 0.34640649703E+01
 0.33569296447E+01 0.33543040750E+01 0.34564149334E+01 0.36678892261E+01 0.39969007768E+01
 0.44531522753E+01 0.50443425805E+01 0.57712137690E+01 0.66219820406E+01 0.75680110973E+01
 0.85632035877E+01 0.95489310799E+01 0.10461912010E+02 0.11206583373E+02 0.11696435854E+02
 0.11928165811E+02 0.11979453762E+02 0.11971735873E+02 0.12014934921E+02 0.12157845129E+02
 0.12365771625E+02 0.12534403632E+02 0.12532433258E+02 0.12254207012E+02 0.11662080746E+02
 0.10804136350E+02 0.97953334501E+01 0.87293626255E+01 0.76740368385E+01 0.72125155735E+01
 0.63178077931E+01 0.55332416862E+01 0.48741181832E+01 0.43429206524E+01 0.39340744260E+01
 0.36387138395E+01 0.34483370931E+01 0.33569296447E+01 0.33618292852E+01 0.34639221651E+01
 0.36674841344E+01 0.39794709443E+01 0.44078010413E+01 0.49583287430E+01 0.56306485675E+01
 0.64135251015E+01 0.72815472591E+01 0.81950228550E+01 0.91044741621E+01 0.99593385011E+01
 0.10706377623E+02 0.11282186305E+02 0.11674291066E+02 0.11925894968E+02 0.12105992421E+02
 0.12269536752E+02 0.12426268392E+02 0.12532433250E+02 0.12508490335E+02 0.12274123132E+02
 0.11785306752E+02 0.11058735766E+02 0.10169574175E+02 0.91913230654E+01 0.81860782324E+01
 0.77374952778E+01 0.68519831354E+01 0.60464221659E+01 0.53438521382E+01 0.47540658636E+01
 0.42771355921E+01 0.39076941425E+01 0.36387138395E+01 0.34640649703E+01 0.33797640234E+01
 0.33843465768E+01 0.34789086684E+01 0.36670219867E+01 0.39542408229E+01 0.43467359064E+01
 0.48487800085E+01 0.54592863322E+01 0.61681456025E+01 0.69536864677E+01 0.77828124497E+01
 0.86148006663E+01 0.94083426273E+01 0.10129198179E+02 0.10743453292E+02 0.11230433974E+02
 0.11604005046E+02 0.11892702391E+02 0.12113450169E+02 0.12254207983E+02 0.12274121860E+02
 0.12120892617E+02 0.11757062894E+02 0.11183444428E+02 0.10443270189E+02 0.95860156917E+01
 0.86654251407E+01 0.82464701965E+01 0.74035665289E+01 0.66050747671E+01 0.58808927265E+01
 0.52482839438E+01 0.47138697999E+01 0.42771355921E+01 0.39340744260E+01 0.36799977281E+01
 0.35111405839E+01 0.34252440112E+01 0.34216311540E+01 0.35012420567E+01 0.36667146462E+01
 0.39221614269E+01 0.42721645376E+01 0.47197533448E+01 0.52636091651E+01 0.58951809073E+01
 0.65967418061E+01 0.73415448244E+01 0.80967785839E+01 0.88289565188E+01 0.95099001016E+01
 0.10120441196E+02 0.10645672897E+02 0.11078428132E+02 0.11419352118E+02 0.11662084372E+02
 0.11785306580E+02 0.11757061252E+02 0.11549397102E+02 0.11155932629E+02 0.10593328166E+02
 0.98910586630E+01 0.90920787707E+01 0.87181976088E+01 0.79558266285E+01 0.71980031575E+01
 0.64797336618E+01 0.58252843076E+01 0.52482839438E+01 0.47540658636E+01 0.43429206524E+01
 0.40130142654E+01 0.37622729453E+01 0.35891815055E+01 0.34928917298E+01 0.34731753700E+01
 0.35305723500E+01 0.36667010285E+01 0.38843225040E+01 0.41866829618E+01 0.45759377817E+01
 0.50509252062E+01 0.56048947810E+01 0.62239568665E+01 0.68870982858E+01 0.75682945553E+01
 0.82404441540E+01 0.88796915752E+01 0.94680301633E+01 0.99927098471E+01 0.10442680767E+02
 0.10804140042E+02 0.11058737858E+02 0.11183443683E+02 0.11155931269E+02 0.10961684518E+02
 0.10599142359E+02 0.10082773517E+02 0.94422454282E+01 0.91268831180E+01 0.84856733314E+01
 0.78072066105E+01 0.71286399710E+01 0.64797336618E+01 0.58808927265E+01 0.53438521382E+01
 0.48741181832E+01 0.44738151797E+01 0.41438279679E+01 0.38848199795E+01 0.36973704346E+01
 0.35817826362E+01 0.35380578719E+01 0.35662406383E+01 0.36669845525E+01 0.38418918159E+01
 0.40931714002E+01 0.44224504055E+01 0.48289987569E+01 0.53078958067E+01 0.58487083256E+01
 0.64353044103E+01 0.70472450235E+01 0.76625808602E+01 0.82609567096E+01 0.88253797121E+01
 0.93415770238E+01 0.97953338689E+01 0.10169575665E+02 0.10443270763E+02 0.10593327443E+02
 0.10599141917E+02 0.10448177703E+02 0.10140518622E+02 0.96907990537E+01 0.94449442951E+01
 0.89644761222E+01 0.84068318615E+01 0.78072066105E+01 0.71980031575E+01 0.66050747671E+01
 0.60464221659E+01 0.55332416862E+01 0.50723013156E+01 0.46682803415E+01 0.43251213526E+01
 0.40462600184E+01 0.38342430403E+01 0.36903817274E+01 0.36148461384E+01 0.36072435900E+01
 0.36674307030E+01 0.37960994709E+01 0.39947083669E+01 0.42646158521E+01 0.46056409564E+01
 0.50145180980E+01 0.54837042850E+01 0.60010244812E+01 0.65505437894E+01 0.71145664055E+01
 0.76758903503E+01 0.82189967713E+01 0.87293617010E+01 0.91913218004E+01 0.95860151118E+01
 0.98910582423E+01 0.10082773768E+02 0.10140519777E+02 0.10051681442E+02 0.98155780381E+01
 0.96474779076E+01 0.93612509875E+01 0.89644761222E+01 0.84856733314E+01 0.79558266285E+01
 0.74035665289E+01 0.68519831354E+01 0.63178077931E+01 0.58126852074E+01 0.53453834403E+01
 0.49235830674E+01 0.45544689097E+01 0.42442680071E+01 0.39974690534E+01 0.38164168292E+01
 0.37015638656E+01 0.36522703995E+01 0.36678285931E+01 0.37482612283E+01 0.38944900099E+01
 0.41077297395E+01 0.43882952629E+01 0.47342479789E+01 0.51403029547E+01 0.55974035405E+01
 0.60932921721E+01 0.66139854904E+01 0.71454026579E+01 0.76740392561E+01 0.81860766990E+01
 0.86654226045E+01 0.90920769402E+01 0.94422452418E+01 0.96908012998E+01 0.98155810829E+01
 0.98021529676E+01 0.96474825726E+01 0.95374678367E+01 0.93076202293E+01 0.89755295099E+01
 0.85655262191E+01 0.81042096888E+01 0.76161881829E+01 0.71213245041E+01 0.66341790194E+01
 0.61653641914E+01 0.57236679455E+01 0.53176127701E+01 0.49557288185E+01 0.46457644273E+01
 0.43936442164E+01 0.42028991731E+01 0.40748375805E+01 0.40093158322E+01 0.40057682872E+01
 0.40640478307E+01 0.41846755703E+01 0.43683611306E+01 0.46149620367E+01 0.49222867603E+01
 0.52851647937E+01 0.56951766515E+01 0.61413182425E+01 0.66114299567E+01 0.70936160505E+01
 0.75766385311E+01 0.80488175802E+01 0.84960180109E+01 0.89000823778E+01 0.92390076964E+01
 0.94893339363E+01 0.96301591576E+01 0.95374712461E+01 0.96474820835E+01 0.96301552379E+01
 0.94893302338E+01 0.92390067035E+01 0.89000834000E+01 0.84960189826E+01 0.80488175484E+01
 0.75766380578E+01 0.70936168463E+01 0.66114351016E+01 0.61413308341E+01 0.56951956619E+01
 0.52851826417E+01 0.49222939181E+01 0.46149569228E+01 0.43683530181E+01 0.41846745792E+01
 0.40640539902E+01 0.40057739469E+01 0.40093173643E+01 0.40748388965E+01 0.42029032173E+01
 0.43936460663E+01 0.46457573609E+01 0.49557141985E+01 0.53175987926E+01 0.57236602148E+01
 0.61653618702E+01 0.66341788640E+01 0.71213247516E+01 0.76161880350E+01 0.81042084450E+01
 0.85655248419E+01 0.89755304886E+01 0.93076240542E+01 0.92914867520E+01 0.96136013312E+01
 0.98155808110E+01 0.98863470544E+01 0.98265831610E+01 0.96475122828E+01 0.93675181543E+01
 0.90077302321E+01 0.85881150553E+01 0.81254168048E+01 0.76334222174E+01 0.71248570671E+01
 0.66134087308E+01 0.61144547690E+01 0.56440517303E+01 0.52168887914E+01 0.48444146798E+01
 0.45339657860E+01 0.42890199740E+01 0.41102409187E+01 0.39968653432E+01 0.39479805891E+01
 0.39632428272E+01 0.40428457775E+01 0.41868997731E+01 0.43946278869E+01 0.46638058150E+01
 0.49907090953E+01 0.53705899758E+01 0.57983230568E+01 0.62685331236E+01 0.67746043389E+01
 0.73066140687E+01 0.78490714563E+01 0.83797687319E+01 0.88707436861E+01 0.89288478595E+01
 0.94406552520E+01 0.98529477856E+01 0.10140520207E+02 0.10289466769E+02 0.10298469280E+02
 0.10177280312E+02 0.99429145422E+01 0.96149018851E+01 0.92113781353E+01 0.87474325680E+01
 0.82360297281E+01 0.76904945123E+01 0.71267564477E+01 0.65638136037E+01 0.60220855310E+01
 0.55206168424E+01 0.50745866853E+01 0.46940707963E+01 0.43841925061E+01 0.41462711741E+01
 0.39794363442E+01 0.38821976994E+01 0.38534639777E+01 0.38927834975E+01 0.39999755022E+01
 0.41745727059E+01 0.44154840390E+01 0.47210531279E+01 0.50893934441E+01 0.55185552366E+01
 0.60059217861E+01 0.65464802645E+01 0.71302699463E+01 0.77400221704E+01 0.83502754567E+01
 0.84766072826E+01 0.91449005808E+01 0.97445288515E+01 0.10238595981E+02 0.10599145066E+02
 0.10811007514E+02 0.10872735931E+02 0.10794361050E+02 0.10592725503E+02 0.10286136638E+02
 0.98904634484E+01 0.94181738849E+01 0.88803443421E+01 0.82901318190E+01 0.76654699321E+01
 0.70292935278E+01 0.64071115007E+01 0.58232216649E+01 0.52973501215E+01 0.48428657198E+01
 0.44667593349E+01 0.41709442566E+01 0.39542119543E+01 0.38141934763E+01 0.37487515801E+01
 0.37565444945E+01 0.38369430209E+01 0.39897285481E+01 0.42149504289E+01 0.45130223087E+01
 0.48848111008E+01 0.53312238391E+01 0.58518167577E+01 0.64423340679E+01 0.70917245970E+01
 0.77797713808E+01 0.79646702695E+01 0.87504330201E+01 0.95044426589E+01 0.10181518202E+02
 0.10741611350E+02 0.11155938710E+02 0.11410494068E+02 0.11504699139E+02 0.11451688141E+02
 0.11272146721E+02 0.10983043082E+02 0.10593591562E+02 0.10110433876E+02 0.95428672198E+01
 0.89032203492E+01 0.82114199457E+01 0.74949845568E+01 0.67855199328E+01 0.61136149980E+01
 0.55043347105E+01 0.49747410314E+01 0.45337039120E+01 0.41834760915E+01 0.39221458717E+01
 0.37461104934E+01 0.36519136637E+01 0.36371749325E+01 0.37008062108E+01 0.38429398375E+01
 0.40649088807E+01 0.43692687779E+01 0.47595093838E+01 0.52389509361E+01 0.58085147732E+01
 0.64635489461E+01 0.71904961824E+01 0.74211652878E+01 0.82844745972E+01 0.91549707994E+01
 0.99828108853E+01 0.10718548752E+02 0.11320999162E+02 0.11757071493E+02 0.12009950582E+02
 0.12094720460E+02 0.12043481938E+02 0.11884893803E+02 0.11629930506E+02 0.11270848834E+02
 0.10793900802E+02 0.10199118294E+02 0.95079090892E+01 0.87450928813E+01 0.79438235103E+01
 0.71430062528E+01 0.63805387828E+01 0.56874371439E+01 0.50846012096E+01 0.45825564405E+01
 0.41834803206E+01 0.38843230638E+01 0.36799104052E+01 0.35652832826E+01 0.35370128550E+01
 0.35936970117E+01 0.37360590053E+01 0.39669480690E+01 0.42911512611E+01 0.47145778498E+01
 0.52423419236E+01 0.58756376012E+01 0.66078808462E+01 0.68694014334E+01 0.77730185174E+01
 0.87217754020E+01 0.96644757041E+01 0.10545076985E+02 0.11310024472E+02 0.11898236730E+02
 0.12274131482E+02 0.12453081084E+02 0.12484966446E+02 0.12425378736E+02 0.12307310748E+02
 0.12126052110E+02 0.11844640811E+02 0.11417726164E+02 0.10822635781E+02 0.10082237076E+02
 0.92466790354E+01 0.83586176408E+01 0.74654879140E+01 0.66133055385E+01 0.58393343895E+01
 0.51681506903E+01 0.46114947368E+01 0.41709521764E+01 0.38419032403E+01 0.36173436518E+01
 0.34907613639E+01 0.34578231059E+01 0.35170987219E+01 0.36702413199E+01 0.39218908726E+01
 0.42791202061E+01 0.47499199892E+01 0.53403230771E+01 0.60503245024E+01 0.63270734661E+01
 0.72381185005E+01 0.82295763662E+01 0.92517625360E+01 0.10244689212E+02 0.11143261396E+02
 0.11855499855E+02 0.12316614559E+02 0.12532439213E+02 0.12569198877E+02 0.12520766895E+02
 0.12466014395E+02 0.12433379774E+02 0.12388247672E+02 0.12249600718E+02 0.11929146633E+02
 0.11375686352E+02 0.10605195978E+02 0.96972933234E+01 0.87231830745E+01 0.77400645573E+01
 0.68025119980E+01 0.59539382820E+01 0.52221287901E+01 0.46194268951E+01 0.41462743617E+01
 0.37961126914E+01 0.35599773456E+01 0.34299072366E+01 0.34009551633E+01 0.34720563254E+01
 0.36461909798E+01 0.39300556307E+01 0.43329664924E+01 0.48644378652E+01 0.55301919126E+01
 0.58073963629E+01 0.66973757426E+01 0.76996136467E+01 0.87685932178E+01 0.98430718182E+01
 0.10850447388E+02 0.11671083235E+02 0.12196820547E+02 0.12405434743E+02 0.12365774095E+02