    2    2   15    1
  0.1581680E+02  0.3688808E-09  0.3688808E-09  0.3688808E-09  0.5000000E-15
  1.000000000000000E-004
  CAR 
 unknown system                          
      8     56      8
 
  0.6250000E-01  0.6250000E-01  0.6250000E-01  0.1562500E-01
    1       -4.228391   1.000000
    2        4.422178   1.000000
    3        6.687414   1.000000
    4        8.209099   0.999438
    5       11.843221   0.000000
    6       13.699411   0.000000
    7       14.266293   0.000000
    8       16.132349   0.000000
 
  0.1875000E+00  0.6250000E-01  0.6250000E-01  0.3125000E-01
    1       -3.012156   1.000000
    2        4.176955   1.000000
    3        6.986208   1.000000
    4        9.148873   0.000352
    5       10.804178   0.000000
    6       10.910299   0.000000
    7       13.670829   0.000000
    8       14.424458   0.000000
 
  0.3125000E+00  0.6250000E-01  0.6250000E-01  0.3125000E-01
    1       -1.015356   1.000000
    2        4.472550   1.000000
    3        5.550488   1.000000
    4        7.256289   1.000000
    5        8.605255   0.675862
    6       11.732918   0.000000
    7       13.179199   0.000000
    8       13.572848   0.000000
 
  0.4375000E+00  0.6250000E-01  0.6250000E-01  0.1562500E-01
    1        1.317263   1.000000
    2        2.234848   1.000000
    3        5.772929   1.000000
    4        6.165170   1.000000
    5        8.488162   0.900452
    6       10.569908   0.000000
    7       13.089790   0.000000
    8       14.034068   0.000000
 
 -0.6250000E-01  0.6250000E-01  0.6250000E-01  0.7812500E-02
    1       -4.636203   1.000000
    2        5.027483   1.000000
    3        5.882196   1.000000
    4        7.877423   1.000000
    5       10.976382   0.000000
    6       14.850786   0.000000
    7       17.322243   0.000000
    8       17.419522   0.000000
 
  0.1875000E+00  0.1875000E+00  0.6250000E-01  0.1562500E-01
    1       -1.198245   1.000000
    2        4.463420   1.000000
    3        6.432165   1.000000
    4        6.626547   1.000000
    5        9.574938   0.000000
    6       11.565700   0.000000
    7       12.866333   0.000000
    8       13.058416   0.000000
 
  0.3125000E+00  0.1875000E+00  0.6250000E-01  0.3125000E-01
    1        1.264278   1.000000
    2        2.962863   1.000000
    3        4.309253   1.000000
    4        5.784644   1.000000
    5        9.830156   0.000000
    6       11.566153   0.000000
    7       12.588597   0.000000
    8       14.625781   0.000000
 
  0.4375000E+00  0.1875000E+00  0.6250000E-01  0.3125000E-01
    1       -0.101274   1.000000
    2        2.731782   1.000000
    3        4.910332   1.000000
    4        7.259399   1.000000
    5        9.076214   0.002026
    6       11.734709   0.000000
    7       13.653554   0.000000
    8       14.534484   0.000000
 
 -0.4375000E+00  0.1875000E+00  0.6250000E-01  0.3125000E-01
    1       -2.264227   1.000000
    2        2.112502   1.000000
    3        7.530230   1.000000
    4        8.808786   0.162797
    5       10.335945   0.000000
    6       11.459325   0.000000
    7       12.669132   0.000000
    8       15.008219   0.000000
 
 -0.3125000E+00  0.1875000E+00  0.6250000E-01  0.1562500E-01
    1       -3.662445   1.000000
    2        2.201730   1.000000
    3        7.194161   1.000000
    4        9.133096   0.000526
    5       12.124225   0.000000
    6       13.636618   0.000000
    7       14.188345   0.000000
    8       14.811454   0.000000
 
 -0.1875000E+00  0.1875000E+00  0.6250000E-01  0.1562500E-01
    1       -4.257851   1.000000
    2        3.014296   1.000000
    3        5.998584   1.000000
    4        9.113036   0.000861
    5       12.778702   0.000000
    6       12.940482   0.000000
    7       15.858692   0.000000
    8       17.206792   0.000000
 
 -0.6250000E-01  0.1875000E+00  0.6250000E-01  0.1562500E-01
    1       -4.039693   1.000000
    2        4.139835   1.000000
    3        5.365867   1.000000
    4        9.693614   0.000000
    5       12.567604   0.000000
    6       12.688787   0.000000
    7       13.729558   0.000000
    8       15.706193   0.000000
 
  0.3125000E+00  0.3125000E+00  0.6250000E-01  0.1562500E-01
    1        1.126464   1.000000
    2        1.193649   1.000000
    3        4.718154   1.000000
    4        7.202008   1.000000
    5        9.815940   0.000000
    6       10.641556   0.000000
    7       14.679711   0.000000
    8       15.530631   0.000000
 
  0.4375000E+00  0.3125000E+00  0.6250000E-01  0.3125000E-01
    1       -1.150642   1.000000
    2        0.316313   1.000000
    3        8.056030   0.999993
    4        8.666161   0.510166
    5        9.987207   0.000000
    6       11.378582   0.000000
    7       12.476625   0.000000
    8       13.867661   0.000000
 
 -0.4375000E+00  0.3125000E+00  0.6250000E-01  0.1562500E-01
    1       -2.724130   1.000000
    2        0.229715   1.000000
    3        8.030213   0.999997
    4       10.097665   0.000000
    5       10.615548   0.000000
    6       12.700495   0.000000
    7       13.741060   0.000000
    8       13.830472   0.000000
 
 -0.3125000E+00  0.3125000E+00  0.6250000E-01  0.1562500E-01
    1       -3.504073   1.000000
    2        0.916091   1.000000
    3        6.682477   1.000000
    4       10.051563   0.000000
    5       10.805850   0.000000
    6       14.139146   0.000000
    7       15.841277   0.000000
    8       16.899482   0.000000
 
 -0.1875000E+00  0.3125000E+00  0.6250000E-01  0.3125000E-01
    1       -3.475101   1.000000
    2        2.325924   1.000000
    3        5.485817   1.000000
    4       10.647573   0.000000
    5       11.042185   0.000000
    6       12.948661   0.000000
    7       14.721707   0.000000
    8       15.623724   0.000000
 
 -0.6250000E-01  0.3125000E+00  0.6250000E-01  0.1562500E-01
    1       -2.638539   1.000000
    2        4.001774   1.000000
    3        5.372805   1.000000
    4        8.451391   0.938723
    5       11.081412   0.000000
    6       12.625961   0.000000
    7       13.286255   0.000000
    8       13.654702   0.000000
 
  0.4375000E+00  0.4375000E+00  0.6250000E-01  0.7812500E-02
    1       -1.421859   1.000000
    2       -1.421859   1.000000
    3        9.174539   0.000179
    4        9.174540   0.000179
    5       11.348266   0.000000
    6       11.348268   0.000000
    7       13.545671   0.000000
    8       13.545673   0.000000
 
 -0.4375000E+00  0.4375000E+00  0.6250000E-01  0.1562500E-01
    1       -2.381214   1.000000
    2       -0.900618   1.000000
    3        7.725501   1.000000
    4        9.107029   0.000994
    5       11.163368   0.000000
    6       12.535640   0.000000
    7       16.605204   0.000000
    8       16.703254   0.000000
 
 -0.3125000E+00  0.4375000E+00  0.6250000E-01  0.3125000E-01
    1       -2.539497   1.000000
    2        0.396999   1.000000
    3        6.318951   1.000000
    4        9.048638   0.003692
    5       11.398023   0.000000
    6       12.872145   0.000000
    7       14.811049   0.000000
    8       15.333512   0.000000
 
 -0.1875000E+00  0.4375000E+00  0.6250000E-01  0.3125000E-01
    1       -1.894892   1.000000
    2        2.396477   1.000000
    3        5.578433   1.000000
    4        7.812695   1.000000
    5        9.671916   0.000000
    6       12.485677   0.000000
    7       13.979638   0.000000
    8       15.318153   0.000000
 
 -0.6250000E-01  0.4375000E+00  0.6250000E-01  0.1562500E-01
    1       -0.469664   1.000000
    2        4.048033   1.000000
    3        5.200251   1.000000
    4        5.989607   1.000000
    5        9.136456   0.000483
    6       11.551289   0.000000
    7       11.864343   0.000000
    8       15.151246   0.000000
 
 -0.4375000E+00 -0.4375000E+00  0.6250000E-01  0.1562500E-01
    1       -1.245760   1.000000
    2       -1.239131   1.000000
    3        7.517051   1.000000
    4        7.530958   1.000000
    5       11.489106   0.000000
    6       13.379205   0.000000
    7       14.218341   0.000000
    8       14.819557   0.000000
 
 -0.3125000E+00 -0.4375000E+00  0.6250000E-01  0.3125000E-01
    1       -0.789744   1.000000
    2        0.659123   1.000000
    3        6.476119   1.000000
    4        7.392032   1.000000
    5        8.254001   0.998358
    6       12.138049   0.000000
    7       15.073456   0.000000
    8       16.377302   0.000000
 
 -0.1875000E+00 -0.4375000E+00  0.6250000E-01  0.3125000E-01
    1        0.427282   1.000000
    2        3.044540   1.000000
    3        4.211549   1.000000
    4        6.422185   1.000000
    5        8.648775   0.558995
    6       10.582642   0.000000
    7       13.085512   0.000000
    8       16.461855   0.000000
 
 -0.6250000E-01 -0.4375000E+00  0.6250000E-01  0.1562500E-01
    1        0.912878   1.000000
    2        2.640308   1.000000
    3        6.225749   1.000000
    4        6.957705   1.000000
    5        7.574170   1.000000
    6       10.186279   0.000000
    7       11.623831   0.000000
    8       15.367448   0.000000
 
 -0.3125000E+00 -0.3125000E+00  0.6250000E-01  0.1562500E-01
    1        1.560427   1.000000
    2        1.736532   1.000000
    3        3.912336   1.000000
    4        7.293182   1.000000
    5        7.700696   1.000000
    6       10.205655   0.000000
    7       14.935942   0.000000
    8       15.600925   0.000000
 
 -0.1875000E+00 -0.3125000E+00  0.6250000E-01  0.3125000E-01
    1        0.600106   1.000000
    2        3.637813   1.000000
    3        4.978344   1.000000
    4        7.152802   1.000000
    5        8.261280   0.998064
    6       10.069673   0.000000
    7       11.660185   0.000000
    8       14.060247   0.000000
 
 -0.6250000E-01 -0.3125000E+00  0.6250000E-01  0.1562500E-01
    1       -1.568277   1.000000
    2        5.818202   1.000000
    3        6.828086   1.000000
    4        7.198693   1.000000
    5        8.434217   0.952101
    6       10.915400   0.000000
    7       11.638947   0.000000
    8       13.313075   0.000000
 
 -0.1875000E+00 -0.1875000E+00  0.6250000E-01  0.1562500E-01
    1       -1.753258   1.000000
    2        6.448253   1.000000
    3        7.115684   1.000000
    4        7.412752   1.000000
    5        8.771309   0.236372
    6       10.424212   0.000000
    7       11.612507   0.000000
    8       11.835671   0.000000
 
 -0.6250000E-01 -0.1875000E+00  0.6250000E-01  0.1562500E-01
    1       -3.387622   1.000000
    2        6.136039   1.000000
    3        6.882315   1.000000
    4        8.732377   0.328981
    5       10.860374   0.000000
    6       11.290267   0.000000
    7       12.085948   0.000000
    8       13.825602   0.000000
 
 -0.6250000E-01 -0.6250000E-01  0.6250000E-01  0.3906250E-02
    1       -4.417527   1.000000
    2        6.517749   1.000000
    3        6.517749   1.000000
    4        6.788433   1.000000
    5       10.731343   0.000000
    6       14.494039   0.000000
    7       14.609888   0.000000
    8       16.488390   0.000000
 
  0.1875000E+00  0.1875000E+00  0.1875000E+00  0.1562500E-01
    1       -0.279650   1.000000
    2        2.590035   1.000000
    3        6.001485   1.000000
    4        6.091344   1.000000
    5       10.567433   0.000000
    6       12.408457   0.000000
    7       13.635062   0.000000
    8       14.075049   0.000000
 
  0.3125000E+00  0.1875000E+00  0.1875000E+00  0.1562500E-01
    1        2.023494   1.000000
    2        2.770959   1.000000
    3        3.800287   1.000000
    4        4.449836   1.000000
    5       11.491261   0.000000
    6       13.410257   0.000000
    7       13.717233   0.000000
    8       13.900874   0.000000
 
 -0.1875000E+00  0.1875000E+00  0.1875000E+00  0.7812500E-02
    1       -3.881299   1.000000
    2        2.836093   1.000000
    3        4.261228   1.000000
    4       10.657670   0.000000
    5       11.235063   0.000000
    6       14.014272   0.000000
    7       16.253497   0.000000
    8       16.769354   0.000000
 
  0.3125000E+00  0.3125000E+00  0.1875000E+00  0.7812500E-02
    1        0.990952   1.000000
    2        0.990952   1.000000
    3        5.881374   1.000000
    4        5.881375   1.000000
    5       11.817375   0.000000
    6       11.817377   0.000000
    7       13.620491   0.000000
    8       13.620496   0.000000
 
 -0.3125000E+00  0.3125000E+00  0.1875000E+00  0.1562500E-01
    1       -3.131593   1.000000
    2        1.205136   1.000000
    3        4.480671   1.000000
    4        8.629401   0.612339
    5       12.573810   0.000000
    6       15.484891   0.000000
    7       16.084807   0.000000
    8       16.864222   0.000000
 
 -0.1875000E+00  0.3125000E+00  0.1875000E+00  0.1562500E-01
    1       -2.915043   1.000000
    2        2.300697   1.000000
    3        3.816109   1.000000
    4        8.784818   0.207953
    5       11.382457   0.000000
    6       14.011256   0.000000
    7       16.029767   0.000000
    8       16.338606   0.000000
 
 -0.4375000E+00  0.4375000E+00  0.1875000E+00  0.1562500E-01
    1       -2.016709   1.000000
    2       -0.553773   1.000000
    3        5.488902   1.000000
    4        6.889480   1.000000
    5       13.620676   0.000000
    6       14.621346   0.000000
    7       16.177539   0.000000
    8       16.560220   0.000000
 
 -0.3125000E+00  0.4375000E+00  0.1875000E+00  0.3125000E-01
    1       -1.988862   1.000000
    2        0.861863   1.000000
    3        4.176680   1.000000
    4        6.913573   1.000000
    5       11.021120   0.000000
    6       15.326056   0.000000
    7       16.390494   0.000000
    8       17.838209   0.000000
 
 -0.1875000E+00  0.4375000E+00  0.1875000E+00  0.1562500E-01
    1       -1.161588   1.000000
    2        2.533284   1.000000
    3        4.091006   1.000000
    4        7.006613   1.000000
    5        7.916269   1.000000
    6       13.727282   0.000000
    7       15.141874   0.000000
    8       16.473446   0.000000
 
 -0.4375000E+00 -0.4375000E+00  0.1875000E+00  0.1562500E-01
    1       -0.719479   1.000000
    2       -0.705430   1.000000
    3        5.339992   1.000000
    4        5.362413   1.000000
    5       10.876434   0.000000
    6       15.994383   0.000000
    7       16.661959   0.000000
    8       16.974283   0.000000
 
 -0.3125000E+00 -0.4375000E+00  0.1875000E+00  0.3125000E-01
    1       -0.079858   1.000000
    2        1.298613   1.000000
    3        4.589234   1.000000
    4        5.852702   1.000000
    5        7.042225   1.000000
    6       13.911766   0.000000
    7       16.670780   0.000000
    8       17.710127   0.000000
 
 -0.1875000E+00 -0.4375000E+00  0.1875000E+00  0.1562500E-01
    1        1.272385   1.000000
    2        2.998516   1.000000
    3        4.164954   1.000000
    4        5.076491   1.000000
    5        7.264442   1.000000
    6       11.694454   0.000000
    7       13.025551   0.000000
    8       16.633695   0.000000
 
 -0.3125000E+00 -0.3125000E+00  0.1875000E+00  0.1562500E-01
    1        2.108490   1.000000
    2        2.579246   1.000000
    3        3.647327   1.000000
    4        5.766417   1.000000
    5        5.882608   1.000000
    6       11.942526   0.000000
    7       14.401828   0.000000
    8       15.207506   0.000000
 
 -0.1875000E+00 -0.3125000E+00  0.1875000E+00  0.1562500E-01
    1        0.253127   1.000000
    2        4.632261   1.000000
    3        5.560024   1.000000
    4        6.631761   1.000000
    5        7.430168   1.000000
    6       10.448092   0.000000
    7       11.513749   0.000000
    8       12.999873   0.000000
 
 -0.1875000E+00 -0.1875000E+00  0.1875000E+00  0.3906250E-02
    1       -1.938861   1.000000
    2        7.799477   1.000000
    3        7.799477   1.000000
    4        7.895451   1.000000
    5        8.112239   0.999960
    6        9.396755   0.000000
    7       11.332942   0.000000
    8       11.332945   0.000000
 
 -0.3125000E+00  0.3125000E+00  0.3125000E+00  0.7812500E-02
    1       -2.391719   1.000000
    2        1.346055   1.000000
    3        2.937630   1.000000
    4        6.566032   1.000000
    5       14.233261   0.000000
    6       15.114656   0.000000
    7       16.675489   0.000000
    8       18.102067   0.000000
 
 -0.4375000E+00  0.4375000E+00  0.3125000E+00  0.1562500E-01
    1       -1.299128   1.000000
    2        0.093972   1.000000
    3        3.457877   1.000000
    4        4.814905   1.000000
    5       14.564537   0.000000
    6       14.752059   0.000000
    7       17.655786   0.000000
    8       18.724996   0.000000
 
 -0.3125000E+00  0.4375000E+00  0.3125000E+00  0.1562500E-01
    1       -1.085485   1.000000
    2        1.179410   1.000000
    3        2.800936   1.000000
    4        5.012328   1.000000
    5       10.567211   0.000000
    6       17.484757   0.000000
    7       17.845138   0.000000
    8       18.859145   0.000000
 
 -0.4375000E+00 -0.4375000E+00  0.3125000E+00  0.1562500E-01
    1        0.106683   1.000000
    2        0.131073   1.000000
    3        3.480059   1.000000
    4        3.494999   1.000000
    5       10.406606   0.000000
    6       17.726830   0.000000
    7       19.010458   0.000000
    8       19.578887   0.000000
 
 -0.3125000E+00 -0.4375000E+00  0.3125000E+00  0.1562500E-01
    1        0.925968   1.000000
    2        1.791425   1.000000
    3        3.415779   1.000000
    4        4.250996   1.000000
    5        6.611176   1.000000
    6       15.579287   0.000000
    7       16.811065   0.000000
    8       17.986315   0.000000
 
 -0.3125000E+00 -0.3125000E+00  0.3125000E+00  0.3906250E-02
    1        2.323595   1.000000
    2        3.292688   1.000000
    3        4.043693   1.000000
    4        4.754505   1.000000
    5        4.754505   1.000000
    6       13.660229   0.000000
    7       14.220548   0.000000
    8       14.220553   0.000000
 
 -0.4375000E+00  0.4375000E+00  0.4375000E+00  0.7812500E-02
    1       -0.279656   1.000000
    2        0.592793   1.000000
    3        2.248178   1.000000
    4        3.108833   1.000000
    5       14.465415   0.000000
    6       14.503208   0.000000
    7       19.896203   0.000000
    8       20.662444   0.000000
 
 -0.4375000E+00 -0.4375000E+00  0.4375000E+00  0.3906250E-02
    1        0.783024   1.000000
    2        0.822535   1.000000
    3        2.455106   1.000000
    4        2.455106   1.000000
    5       10.243130   0.000000
    6       18.239769   0.000000
    7       20.177570   0.000000
    8       20.226709   0.000000
