       N       E                     dE             d eps       ncg     rms          rms(c)
DAV:   1     0.836866885246E+00    0.83687E+00   -0.26647E+03   912   0.594E+02
DAV:   2    -0.101490155966E+02   -0.10986E+02   -0.10428E+02  1288   0.615E+01
DAV:   3    -0.102673779744E+02   -0.11836E+00   -0.11784E+00  1288   0.814E+00
DAV:   4    -0.102676746635E+02   -0.29669E-03   -0.29668E-03  1320   0.384E-01
DAV:   5    -0.102676750411E+02   -0.37752E-06   -0.37749E-06  1280   0.845E-03    0.154E+00
DAV:   6    -0.102613784635E+02    0.62966E-02   -0.36328E-03  1064   0.402E-01    0.955E-01
DAV:   7    -0.102569467772E+02    0.44317E-02   -0.94996E-03  1144   0.676E-01    0.503E-02
DAV:   8    -0.102568956494E+02    0.51128E-04   -0.38086E-04   600   0.142E-01
   1 F= -.10256896E+02 E0= -.10246717E+02  d E =-.102569E+02
