unknown system                          
           1
    -2.430561    2.430561    1.338676
     2.430561   -2.430561    1.338676
     2.430561    2.430561   -1.338676
   Si
   2
Direct configuration=     1
   0.75000000  0.25000000  0.50000000
   0.50000000  0.50000000  0.00000000
