    2    2   15    1
  0.1529437E+02  0.3691622E-09  0.3691622E-09  0.3691622E-09  0.5000000E-15
  1.000000000000000E-004
  CAR 
 unknown system                          
      8     75      8
 
  0.0000000E+00  0.0000000E+00  0.0000000E+00  0.1371742E-02
    1       -4.614224   1.000000
    2        6.187038   1.000000
    3        6.300533   1.000000
    4        6.300556   1.000000
    5       10.542632   0.000000
    6       16.873530   0.000000
    7       17.371265   0.000000
    8       17.371289   0.000000
 
  0.1111111E+00 -0.9377698E-17  0.9377698E-17  0.1097394E-01
    1       -4.265786   1.000000
    2        5.309195   1.000000
    3        6.244338   1.000000
    4        7.786550   1.000000
    5       11.251082   0.000000
    6       15.187241   0.000000
    7       15.983997   0.000000
    8       17.325869   0.000000
 
  0.2222222E+00  0.6918512E-17 -0.6918512E-17  0.1097394E-01
    1       -3.224345   1.000000
    2        5.020426   1.000000
    3        6.321226   1.000000
    4        9.615001   0.000160
    5       12.141502   0.000000
    6       12.924220   0.000000
    7       13.035908   0.000000
    8       15.170482   0.000000
 
  0.3333333E+00 -0.3591853E-16  0.3591853E-16  0.1097394E-01
    1       -1.503388   1.000000
    2        5.359211   1.000000
    3        6.792877   1.000000
    4        7.469451   1.000000
    5       10.271526   0.000000
    6       12.670633   0.000000
    7       13.033992   0.000000
    8       14.015901   0.000000
 
  0.4444444E+00  0.1383702E-16 -0.1383702E-16  0.1097394E-01
    1        0.861367   1.000000
    2        3.899099   1.000000
    3        6.378461   1.000000
    4        7.570409   1.000000
    5        8.195867   1.000000
    6       10.750045   0.000000
    7       13.547014   0.000000
    8       14.522307   0.000000
 
  0.1111111E+00  0.1111111E+00  0.1875540E-16  0.1097394E-01
    1       -3.370322   1.000000
    2        5.337248   1.000000
    3        7.350897   1.000000
    4        8.542472   0.999966
    5       12.308093   0.000000
    6       12.592271   0.000000
    7       13.011812   0.000000
    8       15.655131   0.000000
 
  0.2222222E+00  0.1111111E+00 -0.2719765E-16  0.2194787E-01
    1       -1.792173   1.000000
    2        5.614518   1.000000
    3        7.895326   1.000000
    4        8.300600   1.000000
    5        9.751070   0.000003
    6       11.399153   0.000000
    7       13.031151   0.000000
    8       14.035527   0.000000
 
  0.3333333E+00  0.1111111E+00  0.2951719E-16  0.2194787E-01
    1        0.441014   1.000000
    2        4.706589   1.000000
    3        6.487236   1.000000
    4        6.930560   1.000000
    5        9.047401   0.661110
    6       11.119410   0.000000
    7       12.643901   0.000000
    8       14.534601   0.000000
 
  0.4444444E+00  0.1111111E+00  0.7517205E-17  0.2194787E-01
    1        1.550430   1.000000
    2        3.354015   1.000000
    3        5.230867   1.000000
    4        7.465398   1.000000
    5        8.685571   0.998530
    6       11.488228   0.000000
    7       12.418220   0.000000
    8       15.828711   0.000000
 
 -0.4444444E+00  0.1111111E+00  0.4279628E-16  0.2194787E-01
    1       -0.928337   1.000000
    2        3.997402   1.000000
    3        6.696602   1.000000
    4        7.002579   1.000000
    5       10.105553   0.000000
    6       12.398890   0.000000
    7       13.575165   0.000000
    8       14.494773   0.000000
 
 -0.3333333E+00  0.1111111E+00 -0.1456430E-16  0.2194787E-01
    1       -2.787314   1.000000
    2        3.476926   1.000000
    3        6.337992   1.000000
    4       10.143692   0.000000
    5       11.927853   0.000000
    6       12.042395   0.000000
    7       13.951195   0.000000
    8       15.150542   0.000000
 
 -0.2222222E+00  0.1111111E+00  0.1629621E-16  0.2194787E-01
    1       -3.972405   1.000000
    2        3.592577   1.000000
    3        6.301206   1.000000
    4        8.912612   0.914437
    5       12.774414   0.000000
    6       13.437896   0.000000
    7       15.322472   0.000000
    8       16.669664   0.000000
 
 -0.1111111E+00  0.1111111E+00  0.7914115E-18  0.5486968E-02
    1       -4.467396   1.000000
    2        4.321680   1.000000
    3        6.436858   1.000000
    4        7.648844   1.000000
    5       11.445583   0.000000
    6       14.894331   0.000000
    7       16.330757   0.000000
    8       19.519398   0.000000
 
  0.2222222E+00  0.2222222E+00 -0.4159260E-16  0.1097394E-01
    1        0.300249   1.000000
    2        5.716510   1.000000
    3        5.775891   1.000000
    4        6.435067   1.000000
    5        9.969884   0.000000
    6       11.612897   0.000000
    7       12.560111   0.000000
    8       12.830665   0.000000
 
  0.3333333E+00  0.2222222E+00  0.4287781E-16  0.2194787E-01
    1        2.441532   1.000000
    2        3.103752   1.000000
    3        3.885665   1.000000
    4        7.516630   1.000000
    5        9.260161   0.138088
    6       10.795488   0.000000
    7       13.585816   0.000000
    8       15.653135   0.000000
 
  0.4444444E+00  0.2222222E+00  0.2087783E-16  0.2194787E-01
    1       -0.072046   1.000000
    2        2.434036   1.000000
    3        6.400631   1.000000
    4        7.574886   1.000000
    5        9.481542   0.003973
    6       11.321369   0.000000
    7       14.770309   0.000000
    8       15.805125   0.000000
 
 -0.4444444E+00  0.2222222E+00  0.6918512E-17  0.2194787E-01
    1       -2.062141   1.000000
    2        1.754726   1.000000
    3        6.954606   1.000000
    4        9.938971   0.000000
    5       10.628195   0.000000
    6       12.507212   0.000000
    7       13.403042   0.000000
    8       15.829114   0.000000
 
 -0.3333333E+00  0.2222222E+00 -0.1251408E-16  0.2194787E-01
    1       -3.387467   1.000000
    2        1.732386   1.000000
    3        6.827329   1.000000
    4        9.743489   0.000003
    5       11.644972   0.000000
    6       14.197417   0.000000
    7       15.134237   0.000000
    8       15.855839   0.000000
 
 -0.2222222E+00  0.2222222E+00  0.1582823E-17  0.5486968E-02
    1       -4.027098   1.000000
    2        2.363013   1.000000
    3        6.845644   1.000000
    4        8.519602   0.999983
    5       12.916992   0.000000
    6       13.680244   0.000000
    7       14.687383   0.000000
    8       19.208803   0.000000
 
  0.3333333E+00  0.3333333E+00  0.7183707E-16  0.1097394E-01
    1        1.046384   1.000000
    2        1.064922   1.000000
    3        6.275166   1.000000
    4        8.238468   1.000000
    5        8.808073   0.982476
    6       10.953298   0.000000
    7       15.479289   0.000000
    8       16.515487   0.000000
 
  0.4444444E+00  0.3333333E+00  0.4983708E-16  0.2194787E-01
    1       -1.054985   1.000000
    2        0.224257   1.000000
    3        7.865189   1.000000
    4        8.997488   0.778884
    5       10.060044   0.000000
    6       13.036331   0.000000
    7       13.392876   0.000000
    8       14.699819   0.000000
 
 -0.4444444E+00  0.3333333E+00  0.6553460E-16  0.2194787E-01
    1       -2.514892   1.000000
    2        0.061994   1.000000
    3        7.640625   1.000000
    4       10.059225   0.000000
    5       10.652868   0.000000
    6       12.970968   0.000000
    7       15.158202   0.000000
    8       15.976312   0.000000
 
 -0.3333333E+00  0.3333333E+00  0.1438931E-16  0.5486968E-02
    1       -3.296106   1.000000
    2        0.570772   1.000000
    3        7.526263   1.000000
    4        9.364741   0.033742
    5       11.181300   0.000000
    6       13.078765   0.000000
    7       16.445993   0.000000
    8       18.930885   0.000000
 
  0.4444444E+00  0.4444444E+00 -0.8318520E-16  0.1097394E-01
    1       -1.361416   1.000000
    2       -1.360459   1.000000
    3        8.708006   0.997564
    4        8.738567   0.995329
    5       11.620722   0.000000
    6       11.840722   0.000000
    7       15.006445   0.000000
    8       15.907610   0.000000
 
 -0.4444444E+00  0.4444444E+00  0.3165646E-17  0.5486968E-02
    1       -2.279837   1.000000
    2       -0.985575   1.000000
    3        8.478021   0.999996
    4        9.697979   0.000014
    5       10.388236   0.000000
    6       11.629336   0.000000
    7       18.793332   0.000000
    8       18.838148   0.000000
 
  0.1111111E+00  0.1111111E+00  0.1111111E+00  0.1097394E-01
    1       -2.932416   1.000000
    2        3.408331   1.000000
    3        7.732873   1.000000
    4        9.343369   0.046740
    5       11.916492   0.000000
    6       12.075675   0.000000
    7       14.463336   0.000000
    8       15.119825   0.000000
 
  0.2222222E+00  0.1111111E+00  0.1111111E+00  0.2194787E-01
    1       -1.214369   1.000000
    2        3.818411   1.000000
    3        7.616498   1.000000
    4        8.217188   1.000000
    5        9.690543   0.000018
    6       12.044283   0.000000
    7       13.818970   0.000000
    8       14.686423   0.000000
 
  0.3333333E+00  0.1111111E+00  0.1111111E+00  0.2194787E-01
    1        1.145593   1.000000
    2        4.129456   1.000000
    3        4.939284   1.000000
    4        6.520221   1.000000
    5       10.002077   0.000000
    6       12.315333   0.000000
    7       13.866969   0.000000
    8       14.345636   0.000000
 
 -0.1111111E+00  0.1111111E+00  0.1111111E+00  0.5486968E-02
    1       -4.320578   1.000000
    2        3.995862   1.000000
    3        5.347214   1.000000
    4        8.972475   0.827747
    5       12.060930   0.000000
    6       13.348562   0.000000
    7       17.613056   0.000000
    8       18.108494   0.000000
 
  0.2222222E+00  0.2222222E+00  0.1111111E+00  0.1097394E-01
    1        1.008326   1.000000
    2        4.648867   1.000000
    3        5.274104   1.000000
    4        5.365489   1.000000
    5       11.109682   0.000000
    6       13.276101   0.000000
    7       13.526162   0.000000
    8       13.689869   0.000000
 
  0.3333333E+00  0.2222222E+00  0.1111111E+00  0.2194787E-01
    1        2.115898   1.000000
    2        3.304923   1.000000
    3        4.034621   1.000000
    4        6.299552   1.000000
    5       10.947713   0.000000
    6       12.430379   0.000000
    7       14.253181   0.000000
    8       15.198453   0.000000
 
  0.4444444E+00  0.2222222E+00  0.1111111E+00  0.2194787E-01
    1       -0.353064   1.000000
    2        2.184156   1.000000
    3        7.289965   1.000000
    4        8.192201   1.000000
    5       10.133986   0.000000
    6       12.426767   0.000000
    7       12.939543   0.000000
    8       14.908182   0.000000
 
 -0.4444444E+00  0.2222222E+00  0.1111111E+00  0.1097394E-01
    1       -2.205569   1.000000
    2        1.634748   1.000000
    3        8.352274   1.000000
    4        9.975353   0.000000
    5       11.285640   0.000000
    6       11.655335   0.000000
    7       13.253088   0.000000
    8       14.226207   0.000000
 
 -0.2222222E+00  0.2222222E+00  0.1111111E+00  0.1097394E-01
    1       -3.881055   1.000000
    2        2.431008   1.000000
    3        5.358797   1.000000
    4       10.149207   0.000000
    5       11.416889   0.000000
    6       13.987378   0.000000
    7       16.261194   0.000000
    8       18.940887   0.000000
 
 -0.1111111E+00  0.2222222E+00  0.1111111E+00  0.1097394E-01
    1       -3.680159   1.000000
    2        3.330351   1.000000
    3        4.868866   1.000000
    4       10.636638   0.000000
    5       11.583403   0.000000
    6       13.736656   0.000000
    7       14.858375   0.000000
    8       17.571411   0.000000
 
  0.3333333E+00  0.3333333E+00  0.1111111E+00  0.1097394E-01
    1        0.781246   1.000000
    2        0.787191   1.000000
    3        7.174260   1.000000
    4        8.150246   1.000000
    5       10.779425   0.000000
    6       11.512891   0.000000
    7       13.584941   0.000000
    8       14.269677   0.000000
 
  0.4444444E+00  0.3333333E+00  0.1111111E+00  0.1097394E-01
    1       -1.195287   1.000000
    2        0.089801   1.000000
    3        9.161254   0.348426
    4        9.965224   0.000000
    5       11.146272   0.000000
    6       11.398539   0.000000
    7       12.633010   0.000000
    8       13.110732   0.000000
 
 -0.3333333E+00  0.3333333E+00  0.1111111E+00  0.1097394E-01
    1       -3.151993   1.000000
    2        0.691170   1.000000
    3        5.993700   1.000000
    4        9.675346   0.000029
    5       11.074362   0.000000
    6       14.709727   0.000000
    7       16.639898   0.000000
    8       18.542646   0.000000
 
 -0.2222222E+00  0.3333333E+00  0.1111111E+00  0.2194787E-01
    1       -3.097861   1.000000
    2        1.917905   1.000000
    3        4.934713   1.000000
    4        9.744318   0.000003
    5       11.782847   0.000000
    6       14.302090   0.000000
    7       15.881060   0.000000
    8       17.219876   0.000000
 
 -0.1111111E+00  0.3333333E+00  0.1111111E+00  0.1097394E-01
    1       -2.353218   1.000000
    2        3.328376   1.000000
    3        4.949418   1.000000
    4        9.799920   0.000000
    5       10.469692   0.000000
    6       13.453676   0.000000
    7       14.817426   0.000000
    8       15.484943   0.000000
 
 -0.4444444E+00  0.4444444E+00  0.1111111E+00  0.1097394E-01
    1       -2.138577   1.000000
    2       -0.850571   1.000000
    3        6.946524   1.000000
    4        8.179264   1.000000
    5       12.099533   0.000000
    6       13.311348   0.000000
    7       18.221480   0.000000
    8       18.334889   0.000000
 
 -0.3333333E+00  0.4444444E+00  0.1111111E+00  0.2194787E-01
    1       -2.230029   1.000000
    2        0.316741   1.000000
    3        5.687177   1.000000
    4        8.131439   1.000000
    5       12.505429   0.000000
    6       14.105470   0.000000
    7       16.051116   0.000000
    8       17.178773   0.000000
 
 -0.2222222E+00  0.4444444E+00  0.1111111E+00  0.2194787E-01
    1       -1.633685   1.000000
    2        2.071413   1.000000
    3        5.112212   1.000000
    4        8.599887   0.999828
    5        9.579849   0.000405
    6       14.435275   0.000000
    7       14.954410   0.000000
    8       17.046915   0.000000
 
 -0.1111111E+00  0.4444444E+00  0.1111111E+00  0.1097394E-01
    1       -0.359571   1.000000
    2        3.966963   1.000000
    3        5.623048   1.000000
    4        6.196976   1.000000
    5        9.546072   0.000933
    6       12.284168   0.000000
    7       13.639267   0.000000
    8       16.180281   0.000000
 
 -0.4444444E+00 -0.4444444E+00  0.1111111E+00  0.1097394E-01
    1       -1.086696   1.000000
    2       -1.083826   1.000000
    3        6.765535   1.000000
    4        6.774307   1.000000
    5       12.786659   0.000000
    6       14.220804   0.000000
    7       15.375338   0.000000
    8       17.168470   0.000000
 
 -0.3333333E+00 -0.4444444E+00  0.1111111E+00  0.2194787E-01
    1       -0.637480   1.000000
    2        0.617565   1.000000
    3        5.981592   1.000000
    4        7.174305   1.000000
    5        9.309173   0.075570
    6       14.434659   0.000000
    7       15.784636   0.000000
    8       17.109508   0.000000
 
 -0.2222222E+00 -0.4444444E+00  0.1111111E+00  0.2194787E-01
    1        0.484140   1.000000
    2        2.878243   1.000000
    3        5.676221   1.000000
    4        6.007627   1.000000
    5        8.179070   1.000000
    6       12.238516   0.000000
    7       14.912774   0.000000
    8       17.263213   0.000000
 
 -0.1111111E+00 -0.4444444E+00  0.1111111E+00  0.1097394E-01
    1        2.159576   1.000000
    2        2.885317   1.000000
    3        5.363569   1.000000
    4        6.828554   1.000000
    5        8.832862   0.973352
    6       11.113296   0.000000
    7       11.703030   0.000000
    8       16.591709   0.000000
 
 -0.3333333E+00 -0.3333333E+00  0.1111111E+00  0.1097394E-01
    1        1.567605   1.000000
    2        1.601908   1.000000
    3        5.597562   1.000000
    4        6.840378   1.000000
    5        6.995560   1.000000
    6       12.154569   0.000000
    7       16.480030   0.000000
    8       16.749270   0.000000
 
 -0.2222222E+00 -0.3333333E+00  0.1111111E+00  0.2194787E-01
    1        2.375719   1.000000
    2        3.327231   1.000000
    3        4.429411   1.000000
    4        7.202501   1.000000
    5        8.173816   1.000000
    6       10.665573   0.000000
    7       13.050469   0.000000
    8       15.188464   0.000000
 
 -0.1111111E+00 -0.3333333E+00  0.1111111E+00  0.1097394E-01
    1        0.014974   1.000000
    2        5.497650   1.000000
    3        7.121665   1.000000
    4        8.062474   1.000000
    5        8.099050   1.000000
    6       10.895758   0.000000
    7       11.268505   0.000000
    8       13.564954   0.000000
 
 -0.2222222E+00 -0.2222222E+00  0.1111111E+00  0.1097394E-01
    1       -0.127361   1.000000
    2        6.444336   1.000000
    3        6.487000   1.000000
    4        7.811257   1.000000
    5        8.846066   0.967053
    6       10.501509   0.000000
    7       11.831865   0.000000
    8       12.200285   0.000000
 
 -0.1111111E+00 -0.2222222E+00  0.1111111E+00  0.1097394E-01
    1       -2.082144   1.000000
    2        7.206589   1.000000
    3        7.964289   1.000000
    4        8.650767   0.999359
    5        9.787534   0.000001
    6       10.720264   0.000000
    7       12.411053   0.000000
    8       13.074274   0.000000
 
 -0.1111111E+00 -0.1111111E+00  0.1111111E+00  0.2743484E-02
    1       -3.516535   1.000000
    2        7.182583   1.000000
    3        7.222273   1.000000
    4        7.222294   1.000000
    5       11.645489   0.000000
    6       12.880814   0.000000
    7       13.241045   0.000000
    8       15.444295   0.000000
 
  0.2222222E+00  0.2222222E+00  0.2222222E+00  0.1097394E-01
    1        1.988714   1.000000
    2        3.223483   1.000000
    3        5.025805   1.000000
    4        5.045376   1.000000
    5       12.286050   0.000000
    6       13.444009   0.000000
    7       14.589619   0.000000
    8       14.622421   0.000000
 
 -0.2222222E+00  0.2222222E+00  0.2222222E+00  0.5486968E-02
    1       -3.444494   1.000000
    2        2.276796   1.000000
    3        3.937616   1.000000
    4        9.470771   0.004966
    5       12.087893   0.000000
    6       15.155773   0.000000
    7       17.482921   0.000000
    8       18.480371   0.000000
 
 -0.3333333E+00  0.3333333E+00  0.2222222E+00  0.1097394E-01
    1       -2.721177   1.000000
    2        1.008275   1.000000
    3        4.098831   1.000000
    4        7.712627   1.000000
    5       13.405888   0.000000
    6       16.629961   0.000000
    7       17.297204   0.000000
    8       18.288200   0.000000
 
 -0.2222222E+00  0.3333333E+00  0.2222222E+00  0.1097394E-01
    1       -2.521542   1.000000
    2        1.890768   1.000000
    3        3.612718   1.000000
    4        7.891650   1.000000
    5       12.761324   0.000000
    6       14.926701   0.000000
    7       17.150863   0.000000
    8       18.435327   0.000000
 
 -0.4444444E+00  0.4444444E+00  0.2222222E+00  0.1097394E-01
    1       -1.718871   1.000000
    2       -0.455584   1.000000
    3        4.982293   1.000000
    4        6.206318   1.000000
    5       14.475065   0.000000
    6       15.559528   0.000000
    7       17.837631   0.000000
    8       17.982653   0.000000
 
 -0.3333333E+00  0.4444444E+00  0.2222222E+00  0.2194787E-01
    1       -1.665593   1.000000
    2        0.771688   1.000000
    3        3.890801   1.000000
    4        6.261618   1.000000
    5       12.698281   0.000000
    6       16.022413   0.000000
    7       18.337411   0.000000
    8       18.564657   0.000000
 
 -0.2222222E+00  0.4444444E+00  0.2222222E+00  0.1097394E-01
    1       -0.926527   1.000000
    2        2.180417   1.000000
    3        3.921126   1.000000
    4        6.925277   1.000000
    5        9.055158   0.640815
    6       15.651110   0.000000
    7       17.064550   0.000000
    8       17.235330   0.000000
 
 -0.4444444E+00 -0.4444444E+00  0.2222222E+00  0.1097394E-01
    1       -0.549983   1.000000
    2       -0.544864   1.000000
    3        4.905334   1.000000
    4        4.905708   1.000000
    5       12.628496   0.000000
    6       16.808289   0.000000
    7       17.590443   0.000000
    8       18.576720   0.000000
 
 -0.3333333E+00 -0.4444444E+00  0.2222222E+00  0.2194787E-01
    1        0.042462   1.000000
    2        1.212611   1.000000
    3        4.323619   1.000000
    4        5.461781   1.000000
    5        8.793618   0.986448
    6       16.007539   0.000000
    7       17.987274   0.000000
    8       18.639776   0.000000
 
 -0.2222222E+00 -0.4444444E+00  0.2222222E+00  0.1097394E-01
    1        1.298929   1.000000
    2        3.114652   1.000000
    3        4.859763   1.000000
    4        5.385013   1.000000
    5        6.675885   1.000000
    6       13.522462   0.000000
    7       15.015407   0.000000
    8       17.688190   0.000000
 
 -0.3333333E+00 -0.3333333E+00  0.2222222E+00  0.1097394E-01
    1        2.280057   1.000000
    2        2.340293   1.000000
    3        5.106414   1.000000
    4        5.386778   1.000000
    5        5.570807   1.000000
    6       13.836949   0.000000
    7       16.089910   0.000000
    8       16.663501   0.000000
 
 -0.2222222E+00 -0.3333333E+00  0.2222222E+00  0.1097394E-01
    1        2.145576   1.000000
    2        4.150842   1.000000
    3        4.827745   1.000000
    4        6.377572   1.000000
    5        7.018031   1.000000
    6       11.906489   0.000000
    7       13.018007   0.000000
    8       14.237429   0.000000
 
 -0.2222222E+00 -0.2222222E+00  0.2222222E+00  0.2743484E-02
    1       -0.270200   1.000000
    2        6.916167   1.000000
    3        7.066633   1.000000
    4        8.116031   1.000000
    5        8.116053   1.000000
    6       10.641733   0.000000
    7       11.594312   0.000000
    8       11.594361   0.000000
 
 -0.3333333E+00  0.3333333E+00  0.3333333E+00  0.5486968E-02
    1       -2.010160   1.000000
    2        1.113083   1.000000
    3        2.892275   1.000000
    4        5.946115   1.000000
    5       15.180532   0.000000
    6       16.762920   0.000000
    7       18.080400   0.000000
    8       18.959073   0.000000
 
 -0.4444444E+00  0.4444444E+00  0.3333333E+00  0.1097394E-01
    1       -1.035410   1.000000
    2        0.141246   1.000000
    3        3.296468   1.000000
    4        4.449464   1.000000
    5       16.023609   0.000000
    6       16.429163   0.000000
    7       18.485485   0.000000
    8       19.211830   0.000000
 
 -0.3333333E+00  0.4444444E+00  0.3333333E+00  0.1097394E-01
    1       -0.837611   1.000000
    2        1.017116   1.000000
    3        2.816454   1.000000
    4        4.638097   1.000000
    5       12.440457   0.000000
    6       18.072053   0.000000
    7       19.580992   0.000000
    8       19.963043   0.000000
 
 -0.4444444E+00 -0.4444444E+00  0.3333333E+00  0.1097394E-01
    1        0.188781   1.000000
    2        0.196549   1.000000
    3        3.350809   1.000000
    4        3.352382   1.000000
    5       12.339677   0.000000
    6       19.172623   0.000000
    7       19.817025   0.000000
    8       21.222238   0.000000
 
 -0.3333333E+00 -0.4444444E+00  0.3333333E+00  0.1097394E-01
    1        0.924248   1.000000
    2        1.601039   1.000000
    3        3.389397   1.000000
    4        4.055643   1.000000
    5        8.531152   0.999976
    6       17.316201   0.000000
    7       18.688528   0.000000
    8       19.261135   0.000000
 
 -0.3333333E+00 -0.3333333E+00  0.3333333E+00  0.2743484E-02
    1        2.779946   1.000000
    2        2.876552   1.000000
    3        4.598956   1.000000
    4        4.598963   1.000000
    5        5.174938   1.000000
    6       15.154622   0.000000
    7       15.951299   0.000000
    8       15.951390   0.000000
 
 -0.4444444E+00  0.4444444E+00  0.4444444E+00  0.5486968E-02
    1       -0.150098   1.000000
    2        0.527335   1.000000
    3        2.354549   1.000000
    4        3.024254   1.000000
    5       16.272379   0.000000
    6       16.349180   0.000000
    7       20.110427   0.000000
    8       20.795531   0.000000
 
 -0.4444444E+00 -0.4444444E+00  0.4444444E+00  0.2743484E-02
    1        0.719078   1.000000
    2        0.729548   1.000000
    3        2.546591   1.000000
    4        2.546592   1.000000
    5       12.228338   0.000000
    6       20.222970   0.000000
    7       20.670946   0.000000
    8       20.968794   0.000000
