unknown system                          
   1.00000000000000     
    -2.450000    2.450000    1.274000
     2.450000   -2.450000    1.274000
     2.450000    2.450000   -1.274000
   Si
     2
Direct
  0.250000  0.750000  0.500000
  0.000000  0.000000  0.000000
 
   28   28   28
 -.54643195876E+01 -.39304373942E+01 0.56974781557E-01 0.49729777494E+01 0.91322320382E+01
 0.11427459613E+02 0.11678333735E+02 0.10493925410E+02 0.88072778063E+01 0.71999296599E+01
 0.58462060750E+01 0.48118795377E+01 0.40995006930E+01 0.36861690231E+01 0.35508813745E+01
 0.36860881568E+01 0.40995463305E+01 0.48120444271E+01 0.58462635379E+01 0.71998544988E+01
 0.88072651858E+01 0.10493996684E+02 0.11678330163E+02 0.11427408325E+02 0.91322994410E+01
 0.49730842525E+01 0.56890764412E-01 -.39306323313E+01 -.39306323313E+01 -.47225316426E+01
 -.25731516720E+01 0.16524146682E+01 0.63557096849E+01 0.99778789098E+01 0.11652033172E+02
 0.11424167995E+02 0.10020940599E+02 0.83339439154E+01 0.67892589660E+01 0.55224667407E+01
 0.45790744725E+01 0.39513114343E+01 0.36145874038E+01 0.35507064461E+01 0.37558706998E+01
 0.42412198484E+01 0.50292125985E+01 0.61392702213E+01 0.75579567249E+01 0.92013281669E+01
 0.10850366667E+02 0.11811942108E+02 0.11187645334E+02 0.85209688161E+01 0.41998767203E+01
 -.51199110858E+00 0.56890764412E-01 -.25732920314E+01 -.26345869999E+01 -.11132532975E+00
 0.39683267527E+01 0.80622681620E+01 0.10848005252E+02 0.11748331363E+02 0.11020855756E+02
 0.94550741587E+01 0.78059026810E+01 0.63481798919E+01 0.51852023737E+01 0.43423800567E+01
 0.38036461953E+01 0.35445511957E+01 0.35503238736E+01 0.38206693485E+01 0.43694237061E+01
 0.52195193034E+01 0.63858941202E+01 0.78444268975E+01 0.94966323099E+01 0.11084068047E+02
 0.11867605618E+02 0.11036830730E+02 0.82982986246E+01 0.41998767203E+01 0.49730842525E+01
 0.16523748378E+01 -.11137869699E+00 0.42025159799E+00 0.30104146280E+01 0.65784536662E+01
 0.97573039161E+01 0.11534628064E+02 0.11630869492E+02 0.10470868313E+02 0.88334141653E+01
 0.72518304289E+01 0.59007091875E+01 0.48521064758E+01 0.41136446127E+01 0.36637631320E+01
 0.34796784159E+01 0.35500721553E+01 0.38775198711E+01 0.44776677848E+01 0.53727780885E+01
 0.65726964471E+01 0.80441819574E+01 0.96793207835E+01 0.11198661607E+02 0.11881483557E+02
 0.11036830730E+02 0.85209688161E+01 0.91322994410E+01 0.63557603553E+01 0.39683380637E+01
 0.30104480994E+01 0.39111926570E+01 0.62611115956E+01 0.90383290118E+01 0.11138211086E+02
 0.11886597106E+02 0.11270123259E+02 0.98158581551E+01 0.81910362855E+01 0.67024142329E+01
 0.54709325353E+01 0.45402820267E+01 0.39042442779E+01 0.35387159819E+01 0.34234842437E+01
 0.35502116730E+01 0.39235482594E+01 0.45600425290E+01 0.54803476328E+01 0.66892416715E+01
 0.81467494033E+01 0.97411312686E+01 0.11198661607E+02 0.11867605618E+02 0.11187645334E+02
 0.11427408325E+02 0.99778643497E+01 0.80622588861E+01 0.65785030512E+01 0.62612045812E+01
 0.72793136489E+01 0.91449864713E+01 0.10986176338E+02 0.12004543318E+02 0.11846628100E+02
 0.10703763657E+02 0.91270547801E+01 0.75642854302E+01 0.61876304569E+01 0.50810264610E+01
 0.42650536990E+01 0.37243755099E+01 0.34348188773E+01 0.33789548581E+01 0.35507149181E+01
 0.39560762787E+01 0.46116629775E+01 0.55358420206E+01 0.67288576184E+01 0.81467494033E+01
 0.96793207835E+01 0.11084068047E+02 0.11811942108E+02 0.11678330163E+02 0.11652003336E+02
 0.10847927628E+02 0.97572479997E+01 0.90383928705E+01 0.91451002776E+01 0.10060259962E+02
 0.11305618854E+02 0.12215350029E+02 0.12295852854E+02 0.11460535912E+02 0.10027682494E+02
 0.84591441130E+01 0.69883382144E+01 0.57340098686E+01 0.47495592630E+01 0.40390051639E+01
 0.35824101481E+01 0.33571328671E+01 0.33482400108E+01 0.35512725891E+01 0.39729495527E+01
 0.46292556147E+01 0.55358420206E+01 0.66892416715E+01 0.80441819574E+01 0.94966323099E+01
 0.10850366667E+02 0.10493996684E+02 0.11424246217E+02 0.11748331701E+02 0.11534524514E+02
 0.11138132213E+02 0.10986232597E+02 0.11305719745E+02 0.11973331885E+02 0.12586029411E+02
 0.12701132028E+02 0.12090345568E+02 0.10858154990E+02 0.93556056166E+01 0.78531845726E+01
 0.64938051870E+01 0.53626586586E+01 0.44905396569E+01 0.38714978092E+01 0.34845189177E+01
 0.33091878030E+01 0.33326078883E+01 0.35515130829E+01 0.39729495527E+01 0.46116629775E+01
 0.54803476328E+01 0.65726964471E+01 0.78444268975E+01 0.92013281669E+01 0.88072651858E+01
 0.10021020987E+02 0.11020980288E+02 0.11630900464E+02 0.11886504462E+02 0.12004465818E+02
 0.12215385865E+02 0.12586098055E+02 0.12956334765E+02 0.13033617743E+02 0.12580280071E+02
 0.11569301205E+02 0.10210089636E+02 0.87504184159E+01 0.73451001353E+01 0.61045318993E+01
 0.50885251868E+01 0.43133839950E+01 0.37687237483E+01 0.34346345294E+01 0.32929923270E+01
 0.33326078883E+01 0.35512725891E+01 0.39560762787E+01 0.45600425290E+01 0.53727780885E+01
 0.63858941202E+01 0.75579567249E+01 0.71998544988E+01 0.83338831333E+01 0.94551316100E+01
 0.10470996572E+02 0.11270175656E+02 0.11846569210E+02 0.12295793709E+02 0.12701145063E+02
 0.13033650312E+02 0.13144308670E+02 0.12856807568E+02 0.12095645423E+02 0.10959363584E+02
 0.96300017986E+01 0.82560287123E+01 0.69630234985E+01 0.58369910582E+01 0.49208843190E+01
 0.42235825975E+01 0.37341053587E+01 0.34346345294E+01 0.33091878030E+01 0.33482400108E+01
 0.35507149181E+01 0.39235482594E+01 0.44776677848E+01 0.52195193034E+01 0.61392702213E+01
 0.58462635379E+01 0.67891869036E+01 0.78058124360E+01 0.88334308527E+01 0.98159567117E+01
 0.10703822798E+02 0.11460515675E+02 0.12090311085E+02 0.12580275287E+02 0.12856811377E+02
 0.12806800563E+02 0.12352430041E+02 0.11522337802E+02 0.10421224382E+02 0.91735167592E+01
 0.79069523012E+01 0.67263896881E+01 0.57010005479E+01 0.48645235048E+01 0.42235825975E+01
 0.37687237483E+01 0.34845189177E+01 0.33571328671E+01 0.33789548581E+01 0.35502116730E+01
 0.38775198711E+01 0.43694237061E+01 0.50292125985E+01 0.48120444271E+01 0.55225563910E+01
 0.63481343181E+01 0.72517370265E+01 0.81910136129E+01 0.91271085618E+01 0.10027734555E+02
 0.10858164482E+02 0.11569288574E+02 0.12095631093E+02 0.12352417405E+02 0.12266150972E+02
 0.11816017316E+02 0.11039373464E+02 0.10023671184E+02 0.88822444623E+01 0.77265615684E+01
 0.66463173717E+01 0.57010005479E+01 0.49208843190E+01 0.43133839950E+01 0.38714978092E+01
 0.35824101481E+01 0.34348188773E+01 0.34234842437E+01 0.35500721553E+01 0.38206693485E+01
 0.42412198484E+01 0.40995463305E+01 0.45791959354E+01 0.51852977885E+01 0.59007000533E+01
 0.67023406492E+01 0.75642387683E+01 0.84591560430E+01 0.93556417802E+01 0.10210113665E+02
 0.10959365310E+02 0.11522322080E+02 0.11815999869E+02 0.11780826567E+02 0.11402659878E+02
 0.10719880859E+02 0.98128309836E+01 0.87822056101E+01 0.77265615684E+01 0.67263896881E+01
 0.58369910582E+01 0.50885251868E+01 0.44905396569E+01 0.40390051639E+01 0.37243755099E+01
 0.35387159819E+01 0.34796784159E+01 0.35503238736E+01 0.37558706998E+01 0.36860881568E+01
 0.39512620041E+01 0.43424228386E+01 0.48521820561E+01 0.54709544050E+01 0.61875884185E+01
 0.69882871049E+01 0.78531682256E+01 0.87504354276E+01 0.96300260284E+01 0.10421232844E+02
 0.11039361788E+02 0.11402644590E+02 0.11454073692E+02 0.11178647955E+02 0.10608271133E+02
 0.98128309836E+01 0.88822444623E+01 0.79069523012E+01 0.69630234985E+01 0.61045318993E+01
 0.53626586586E+01 0.47495592630E+01 0.42650536990E+01 0.39042442779E+01 0.36637631320E+01
 0.35445511957E+01 0.35507064461E+01 0.35508813745E+01 0.36144635206E+01 0.38035162573E+01
 0.41136077769E+01 0.45403231150E+01 0.50810643262E+01 0.57339990492E+01 0.64937650922E+01
 0.73450707224E+01 0.82560275080E+01 0.91735325659E+01 0.10023681397E+02 0.10719874376E+02
 0.11178635812E+02 0.11339023645E+02 0.11178647955E+02 0.10719880859E+02 0.10023671184E+02
 0.91735167592E+01 0.82560287123E+01 0.73451001353E+01 0.64938051870E+01 0.57340098686E+01
 0.50810264610E+01 0.45402820267E+01 0.41136446127E+01 0.38036461953E+01 0.36145874038E+01
 0.36861690231E+01 0.35506975948E+01 0.35444185168E+01 0.36635996133E+01 0.39041582466E+01
 0.42650607645E+01 0.47495976266E+01 0.53626715213E+01 0.61045102361E+01 0.69629916618E+01
 0.79069368176E+01 0.88822508647E+01 0.98128410938E+01 0.10608266940E+02 0.11178635812E+02
 0.11454073692E+02 0.11402659878E+02 0.11039373464E+02 0.10421224382E+02 0.96300017986E+01
 0.87504184159E+01 0.78531845726E+01 0.69883382144E+01 0.61876304569E+01 0.54709325353E+01
 0.48521064758E+01 0.43423800567E+01 0.39513114343E+01 0.40995006930E+01 0.37558917485E+01
 0.35503107192E+01 0.34795767694E+01 0.35385784602E+01 0.37242852249E+01 0.40389899819E+01
 0.44905692319E+01 0.50885527583E+01 0.58369869969E+01 0.67263596684E+01 0.77265381641E+01
 0.87822080440E+01 0.98128410938E+01 0.10719874376E+02 0.11402644590E+02 0.11780826567E+02
 0.11816017316E+02 0.11522337802E+02 0.10959363584E+02 0.10210089636E+02 0.93556056166E+01
 0.84591441130E+01 0.75642854302E+01 0.67024142329E+01 0.59007091875E+01 0.51852023737E+01
 0.45790744725E+01 0.48118795377E+01 0.42411034253E+01 0.38206373744E+01 0.35500640781E+01
 0.34234464869E+01 0.34347556571E+01 0.35823530904E+01 0.38714745865E+01 0.43134032542E+01
 0.49209193687E+01 0.57010069648E+01 0.66462885414E+01 0.77265381641E+01 0.88822508647E+01
 0.10023681397E+02 0.11039361788E+02 0.11815999869E+02 0.12266150972E+02 0.12352430041E+02
 0.12095645423E+02 0.11569301205E+02 0.10858154990E+02 0.10027682494E+02 0.91270547801E+01
 0.81910362855E+01 0.72518304289E+01 0.63481798919E+01 0.55224667407E+01 0.58462060750E+01
 0.50290609704E+01 0.43692888698E+01 0.38774611767E+01 0.35502206238E+01 0.33789966306E+01
 0.33571624964E+01 0.34845086022E+01 0.37687011098E+01 0.42235955008E+01 0.48645607919E+01
 0.57010069648E+01 0.67263596684E+01 0.79069368176E+01 0.91735325659E+01 0.10421232844E+02
 0.11522322080E+02 0.12352417405E+02 0.12806800563E+02 0.12856807568E+02 0.12580280071E+02
 0.12090345568E+02 0.11460535912E+02 0.10703763657E+02 0.98158581551E+01 0.88334141653E+01
 0.78059026810E+01 0.67892589660E+01 0.71999296599E+01 0.61392619522E+01 0.52194363386E+01
 0.44775709038E+01 0.39234942509E+01 0.35507492152E+01 0.33483540124E+01 0.33092926441E+01
 0.34346566565E+01 0.37340840984E+01 0.42235955008E+01 0.49209193687E+01 0.58369869969E+01
 0.69629916618E+01 0.82560275080E+01 0.96300260284E+01 0.10959365310E+02 0.12095631093E+02
 0.12856811377E+02 0.13144308670E+02 0.13033617743E+02 0.12701132028E+02 0.12295852854E+02
 0.11846628100E+02 0.11270123259E+02 0.10470868313E+02 0.94550741587E+01 0.83339439154E+01
 0.88072778063E+01 0.75580077283E+01 0.63859377849E+01 0.53727957558E+01 0.45600174125E+01
 0.39560458708E+01 0.35513301719E+01 0.33327648065E+01 0.32931258849E+01 0.34346566565E+01
 0.37687011098E+01 0.43134032542E+01 0.50885527583E+01 0.61045102361E+01 0.73450707224E+01
 0.87504354276E+01 0.10210113665E+02 0.11569288574E+02 0.12580275287E+02 0.13033650312E+02
 0.12956334765E+02 0.12586029411E+02 0.12215350029E+02 0.12004543318E+02 0.11886597106E+02
 0.11630869492E+02 0.11020855756E+02 0.10020940599E+02 0.10493925410E+02 0.92012885152E+01
 0.78444349382E+01 0.65727825223E+01 0.54804621131E+01 0.46117049537E+01 0.39729394496E+01
 0.35515801522E+01 0.33327648065E+01 0.33092926441E+01 0.34845086022E+01 0.38714745865E+01
 0.44905692319E+01 0.53626715213E+01 0.64937650922E+01 0.78531682256E+01 0.93556417802E+01
 0.10858164482E+02 0.12090311085E+02 0.12701145063E+02 0.12586098055E+02 0.11973331885E+02
 0.11305618854E+02 0.10986176338E+02 0.11138211086E+02 0.11534628064E+02 0.11748331363E+02
 0.11424167995E+02 0.11678333735E+02 0.10850335403E+02 0.94965498801E+01 0.80441453986E+01
 0.66893541523E+01 0.55360152016E+01 0.46293246924E+01 0.39729394496E+01 0.35513301719E+01
 0.33483540124E+01 0.33571624964E+01 0.35823530904E+01 0.40389899819E+01 0.47495976266E+01
 0.57339990492E+01 0.69882871049E+01 0.84591560430E+01 0.10027734555E+02 0.11460515675E+02
 0.12295793709E+02 0.12215385865E+02 0.11305719745E+02 0.10060259962E+02 0.91449864713E+01
 0.90383290118E+01 0.97573039161E+01 0.10848005252E+02 0.11652033172E+02 0.11427459613E+02
 0.11812039598E+02 0.11084088651E+02 0.96792121249E+01 0.81466848223E+01 0.67289788927E+01
 0.55360152016E+01 0.46117049537E+01 0.39560458708E+01 0.35507492152E+01 0.33789966306E+01
 0.34347556571E+01 0.37242852249E+01 0.42650607645E+01 0.50810643262E+01 0.61875884185E+01
 0.75642387683E+01 0.91271085618E+01 0.10703822798E+02 0.11846569210E+02 0.12004465818E+02
 0.10986232597E+02 0.91451002776E+01 0.72793136489E+01 0.62611115956E+01 0.65784536662E+01
 0.80622681620E+01 0.99778789098E+01 0.91322320382E+01 0.11187707176E+02 0.11867777632E+02
 0.11198718221E+02 0.97410140213E+01 0.81466848223E+01 0.66893541523E+01 0.54804621131E+01
 0.45600174125E+01 0.39234942509E+01 0.35502206238E+01 0.34234464869E+01 0.35385784602E+01
 0.39041582466E+01 0.45403231150E+01 0.54709544050E+01 0.67023406492E+01 0.81910136129E+01
 0.98159567117E+01 0.11270175656E+02 0.11886504462E+02 0.11138132213E+02 0.90383928705E+01
 0.62612045812E+01 0.39111926570E+01 0.30104146280E+01 0.39683267527E+01 0.63557096849E+01
 0.49729777494E+01 0.85208319398E+01 0.11036895754E+02 0.11881683906E+02 0.11198718221E+02
 0.96792121249E+01 0.80441453986E+01 0.65727825223E+01 0.53727957558E+01 0.44775709038E+01
 0.38774611767E+01 0.35500640781E+01 0.34795767694E+01 0.36635996133E+01 0.41136077769E+01
 0.48521820561E+01 0.59007000533E+01 0.72517370265E+01 0.88334308527E+01 0.10470996572E+02
 0.11630900464E+02 0.11534524514E+02 0.97572479997E+01 0.65785030512E+01 0.30104480994E+01
 0.42025159799E+00 -.11132532975E+00 0.16524146682E+01 0.56974781557E-01 0.41997365812E+01
 0.82981345239E+01 0.11036895754E+02 0.11867777632E+02 0.11084088651E+02 0.94965498801E+01
 0.78444349382E+01 0.63859377849E+01 0.52194363386E+01 0.43692888698E+01 0.38206373744E+01
 0.35503107192E+01 0.35444185168E+01 0.38035162573E+01 0.43424228386E+01 0.51852977885E+01
 0.63481343181E+01 0.78058124360E+01 0.94551316100E+01 0.11020980288E+02 0.11748331701E+02
 0.10847927628E+02 0.80622588861E+01 0.39683380637E+01 -.11137869699E+00 -.26345869999E+01
 -.25731516720E+01 -.39304373942E+01 -.51188961619E+00 0.41997365812E+01 0.85208319398E+01
 0.11187707176E+02 0.11812039598E+02 0.10850335403E+02 0.92012885152E+01 0.75580077283E+01
 0.61392619522E+01 0.50290609704E+01 0.42411034253E+01 0.37558917485E+01 0.35506975948E+01
 0.36144635206E+01 0.39512620041E+01 0.45791959354E+01 0.55225563910E+01 0.67891869036E+01
 0.83338831333E+01 0.10021020987E+02 0.11424246217E+02 0.11652003336E+02 0.99778643497E+01
 0.63557603553E+01 0.16523748378E+01 -.25732920314E+01 -.47225316426E+01 -.39301205827E+01
 -.28194089774E+01 0.65417206874E+00 0.51397288462E+01 0.90486863732E+01 0.11268074143E+02
 0.11543459057E+02 0.10399897939E+02 0.87236457714E+01 0.71081460189E+01 0.57362507797E+01
 0.46792079567E+01 0.39422409047E+01 0.35013835563E+01 0.33323500723E+01 0.34245005132E+01
 0.37841179475E+01 0.44325756966E+01 0.53960630247E+01 0.66801739347E+01 0.82327309190E+01
 0.99075124388E+01 0.11242087192E+02 0.11358037891E+02 0.96045365847E+01 0.60342692676E+01
 0.15775063526E+01 -.22341315018E+01 -.28195850846E+01 -.39301586808E+01 -.22340423517E+01
 0.15775240565E+01 0.60342300874E+01 0.96046171335E+01 0.11358205267E+02 0.11242158673E+02
 0.99075139425E+01 0.82328286597E+01 0.66803219297E+01 0.53960788325E+01 0.44324939551E+01
 0.37841180672E+01 0.34245615257E+01 0.33323207900E+01 0.35013063782E+01 0.39422608881E+01
 0.46792543856E+01 0.57361537903E+01 0.71079704782E+01 0.87235680626E+01 0.10399864599E+02
 0.11543317699E+02 0.11267918971E+02 0.90487037616E+01 0.51398177063E+01 0.65409879805E+00
 0.77312194045E+00 -.21036398047E+01 -.25729350661E+01 -.46113603564E+00 0.33548090871E+01
 0.73994815872E+01 0.10310644096E+02 0.11405444603E+02 0.10836777094E+02 0.93398193135E+01
 0.77007749236E+01 0.62342922265E+01 0.50549586709E+01 0.41952373998E+01 0.36404972546E+01
 0.33639577721E+01 0.33480386184E+01 0.35912627397E+01 0.41080951117E+01 0.49238468177E+01
 0.60584112571E+01 0.74959508709E+01 0.91493607512E+01 0.10798013352E+02 0.11769049376E+02
 0.11231938530E+02 0.88080068123E+01 0.49197762949E+01 0.54333297804E+01 0.19168158393E+01
 -.21972292639E+00 -.11118681807E+00 0.21655895836E+01 0.56378013156E+01 0.89402590380E+01
 0.10967993910E+02 0.11315835290E+02 0.10316359330E+02 0.87285859729E+01 0.71532217518E+01
 0.57920876910E+01 0.47291022717E+01 0.39779312951E+01 0.35173177506E+01 0.33220395442E+01
 0.33789205479E+01 0.36905146907E+01 0.42738688340E+01 0.51540485670E+01 0.63459034559E+01
 0.78236730833E+01 0.94886600070E+01 0.11092919790E+02 0.11946820205E+02 0.11316159438E+02
 0.89664522412E+01 0.95028020846E+01 0.65799726285E+01 0.38660299312E+01 0.24841746865E+01
 0.30104597748E+01 0.51730587229E+01 0.80043142877E+01 0.10345917277E+02 0.11400479537E+02
 0.11031912643E+02 0.97012751030E+01 0.81045943747E+01 0.66169374740E+01 0.53750993441E+01
 0.44334043706E+01 0.37898638159E+01 0.34196816635E+01 0.33006136485E+01 0.34236359508E+01
 0.37943182224E+01 0.44310251049E+01 0.53572954794E+01 0.65825128931E+01 0.80728133014E+01
 0.97229177611E+01 0.11277801388E+02 0.12086794367E+02 0.11532373686E+02 0.11832623648E+02
 0.10295973037E+02 0.81255461980E+01 0.62545209341E+01 0.55292869588E+01 0.62610568506E+01
 0.80609656974E+01 0.10059491237E+02 0.11367660946E+02 0.11502637566E+02 0.10554495291E+02
 0.90456253323E+01 0.74981925330E+01 0.61182235905E+01 0.50028692555E+01 0.41808223603E+01
 0.36389167592E+01 0.33517427671E+01 0.33006548189E+01 0.34799774035E+01 0.38971546248E+01
 0.45706996962E+01 0.55216536891E+01 0.67540717706E+01 0.82282874316E+01 0.98373848180E+01
 0.11342725165E+02 0.12173755704E+02 0.12170287644E+02 0.12123034158E+02 0.11157998568E+02
 0.97617901029E+01 0.86576613041E+01 0.84182452518E+01 0.91448477838E+01 0.10414369292E+02
 0.11523909924E+02 0.11874620500E+02 0.11265338167E+02 0.99457390511E+01 0.84055889455E+01
 0.69401270147E+01 0.56810155400E+01 0.46919130884E+01 0.39818604909E+01 0.35313434744E+01
 0.33165036381E+01 0.33221444471E+01 0.35449265776E+01 0.39931625470E+01 0.46845443630E+01
 0.56369550547E+01 0.68496372949E+01 0.82795027277E+01 0.98223997250E+01 0.11274013333E+02
 0.11058986732E+02 0.12030086336E+02 0.12292526721E+02 0.11884840150E+02 0.11182763300E+02
 0.10691302339E+02 0.10745027099E+02 0.11305436915E+02 0.11985963479E+02 0.12284769216E+02
 0.11874111519E+02 0.10772561163E+02 0.93096116566E+01 0.78185489410E+01 0.64587895414E+01
 0.53251496111E+01 0.44549427148E+01 0.38443238686E+01 0.34716259509E+01 0.33156669900E+01
 0.33640722456E+01 0.36149605484E+01 0.40767770737E+01 0.47656429684E+01 0.56958794458E+01
 0.68626019699E+01 0.82214817438E+01 0.96748169385E+01 0.93992372267E+01 0.10694346193E+02
 0.11716912226E+02 0.12247580062E+02 0.12310450392E+02 0.12157011275E+02 0.12094000497E+02
 0.12273428283E+02 0.12585854572E+02 0.12728387008E+02 0.12399782824E+02 0.11494004357E+02
 0.10172594305E+02 0.87227750952E+01 0.73188711583E+01 0.60777945092E+01 0.50653746770E+01
 0.43007333862E+01 0.37734051832E+01 0.34624700368E+01 0.33496235266E+01 0.34246077037E+01
 0.36864670289E+01 0.41433355060E+01 0.48092226130E+01 0.56946673088E+01 0.67913529712E+01
 0.80556142796E+01 0.77899363821E+01 0.90087251660E+01 0.10194833331E+02 0.11222658114E+02
 0.11942376052E+02 0.12348747606E+02 0.12576101975E+02 0.12771784437E+02 0.12966056036E+02
 0.13033487814E+02 0.12774347032E+02 0.12059071071E+02 0.10936783160E+02 0.96057981541E+01
 0.82294225041E+01 0.69357070123E+01 0.58146354700E+01 0.49113569883E+01 0.42345724521E+01
 0.37719796046E+01 0.35048731216E+01 0.34175080316E+01 0.35012911326E+01 0.37560554839E+01
 0.41894319430E+01 0.48129634479E+01 0.56333098874E+01 0.66393916156E+01 0.64150368770E+01
 0.74389363796E+01 0.85247144930E+01 0.95954103945E+01 0.10578053534E+02 0.11395107244E+02
 0.12012161437E+02 0.12468125545E+02 0.12797425419E+02 0.12962577911E+02 0.12856734380E+02
 0.12377923761E+02 0.11521388336E+02 0.10398810247E+02 0.91382152083E+01 0.78667666302E+01
 0.66909355703E+01 0.56806228255E+01 0.48684531681E+01 0.42589380717E+01 0.38408532520E+01
 0.35981068708E+01 0.35171663366E+01 0.35910716631E+01 0.38206315123E+01 0.42129558390E+01
 0.47769118116E+01 0.55153030099E+01 0.53472052440E+01 0.61308976088E+01 0.70228541850E+01
 0.79758286961E+01 0.89351667025E+01 0.98510272022E+01 0.10685655756E+02 0.11402993590E+02
 0.11976052908E+02 0.12370401722E+02 0.12520677285E+02 0.12352401947E+02 0.11837350593E+02
 0.11015697055E+02 0.99714438319E+01 0.88165465440E+01 0.76626033194E+01 0.65986348508E+01
 0.56816993516E+01 0.49386708375E+01 0.43739555657E+01 0.39787266040E+01 0.37394898353E+01
 0.36449476814E+01 0.36901647218E+01 0.38772838559E+01 0.42129281281E+01 0.47031789909E+01
 0.45956595088E+01 0.51382115348E+01 0.58031778732E+01 0.65663624728E+01 0.73955121602E+01
 0.82551594983E+01 0.91114175200E+01 0.99324012952E+01 0.10681995759E+02 0.11310816646E+02
 0.11753479522E+02 0.11939511879E+02 0.11816011869E+02 0.11370597104E+02 0.10641474484E+02
 0.97090388233E+01 0.86741021077E+01 0.76339138776E+01 0.66654879705E+01 0.58193479524E+01
 0.51211694465E+01 0.45773010227E+01 0.41817880279E+01 0.39239818949E+01 0.37954271322E+01
 0.37938951501E+01 0.39231769572E+01 0.41893411867E+01 0.41431618159E+01 0.44598975660E+01
 0.48997719795E+01 0.54507202477E+01 0.60965715433E+01 0.68187280274E+01 0.75968476687E+01
 0.84077561116E+01 0.92216404506E+01 0.99960695066E+01 0.10671739673E+02 0.11175875932E+02
 0.11436358239E+02 0.11402656964E+02 0.11063901021E+02 0.10454807560E+02 0.96466707357E+01
 0.87283993320E+01 0.77865150920E+01 0.68912512755E+01 0.60908271299E+01 0.54119000321E+01
 0.48634971087E+01 0.44430697316E+01 0.41438161545E+01 0.39613129224E+01 0.38967672749E+01
 0.39556406779E+01 0.39725024671E+01 0.40765004170E+01 0.43030379035E+01 0.46451025202E+01
 0.50936726736E+01 0.56405439351E+01 0.62783874696E+01 0.69977512238E+01 0.77821869528E+01
 0.86027544917E+01 0.94133594806E+01 0.10149708381E+02 0.10735369690E+02 0.11096090771E+02
 0.11178637364E+02 0.10966566588E+02 0.10485738079E+02 0.97970739755E+01 0.89801671399E+01
 0.81150392704E+01 0.72686024657E+01 0.64883961885E+01 0.58024314629E+01 0.52228611663E+01
 0.47518804132E+01 0.43884639797E+01 0.41337653807E+01 0.39928860332E+01 0.40766257800E+01
 0.39725223044E+01 0.39927858714E+01 0.41336516830E+01 0.43884038636E+01 0.47518392692E+01
 0.52228031044E+01 0.58023752300E+01 0.64883539605E+01 0.72685551806E+01 0.81149927257E+01
 0.89801553670E+01 0.97970936179E+01 0.10485748002E+02 0.10966556401E+02 0.11178630769E+02
 0.11096086998E+02 0.10735350645E+02 0.10149694503E+02 0.94133886762E+01 0.86028174397E+01
 0.77822491871E+01 0.69978163547E+01 0.62784681442E+01 0.56406046682E+01 0.50936867109E+01
 0.46451294940E+01 0.43031436137E+01 0.44599506249E+01 0.41432782658E+01 0.39556965276E+01
 0.38967253930E+01 0.39612440296E+01 0.41437653529E+01 0.44430176199E+01 0.48634411164E+01
 0.54118675097E+01 0.60908106294E+01 0.68912201250E+01 0.77864829558E+01 0.87284009306E+01
 0.96466886190E+01 0.10454798558E+02 0.11063872614E+02 0.11402643903E+02 0.11436353869E+02
 0.11175860996E+02 0.10671742864E+02 0.99961231839E+01 0.92217164016E+01 0.84078197185E+01
 0.75969240359E+01 0.68188324335E+01 0.60966366462E+01 0.54506939532E+01 0.48997313504E+01
 0.51381006417E+01 0.45956477559E+01 0.41894275275E+01 0.39232572249E+01 0.37939258584E+01
 0.37954334994E+01 0.39239641074E+01 0.41817349631E+01 0.45772519214E+01 0.51211631082E+01
 0.58193535530E+01 0.66654671740E+01 0.76338960596E+01 0.86741201534E+01 0.97090543291E+01
 0.10641446429E+02 0.11370559391E+02 0.11816006764E+02 0.11939517375E+02 0.11753476030E+02
 0.11310845807E+02 0.10682076977E+02 0.99324763707E+01 0.91114567495E+01 0.82552257550E+01
 0.73956300979E+01 0.65664282091E+01 0.58031099809E+01 0.61308011052E+01 0.53470578107E+01
 0.47031252726E+01 0.42129782326E+01 0.38773688505E+01 0.36902540934E+01 0.36450205523E+01
 0.37394980375E+01 0.39786746195E+01 0.43739241736E+01 0.49386946705E+01 0.56817184396E+01
 0.65986182663E+01 0.76626059158E+01 0.88165895037E+01 0.99714610692E+01 0.11015658761E+02
 0.11837319768E+02 0.12352414160E+02 0.12520688523E+02 0.12370404637E+02 0.11976108877E+02
 0.11403096313E+02 0.10685707884E+02 0.98510130970E+01 0.89351962879E+01 0.79759360058E+01
 0.70229069441E+01 0.74389548011E+01 0.64149333151E+01 0.55151717494E+01 0.47768546049E+01
 0.42129707573E+01 0.38206967949E+01 0.35911834612E+01 0.35172645898E+01 0.35981128206E+01
 0.38408025871E+01 0.42589381869E+01 0.48685072425E+01 0.56806435933E+01 0.66909218727E+01
 0.78668004981E+01 0.91382896466E+01 0.10398831860E+02 0.11521351373E+02 0.12377912779E+02
 0.12856758211E+02 0.12962573790E+02 0.12797418735E+02 0.12468199383E+02 0.12012270210E+02
 0.11395115507E+02 0.10577969221E+02 0.95953826482E+01 0.85247783765E+01 0.90087182893E+01
 0.77899010730E+01 0.66393027591E+01 0.56332394738E+01 0.48129304629E+01 0.41894112778E+01
 0.37560804658E+01 0.35013853612E+01 0.34175825961E+01 0.35048495962E+01 0.37719370327E+01
 0.42346158538E+01 0.49114334358E+01 0.58146465946E+01 0.69357018668E+01 0.82294970423E+01
 0.96059001203E+01 0.10936804508E+02 0.12059043262E+02 0.12774358908E+02 0.13033504337E+02
 0.12966009999E+02 0.12771751047E+02 0.12576177493E+02 0.12348841032E+02 0.11942331584E+02
 0.11222512538E+02 0.10194746412E+02 0.10694222861E+02 0.93991526679E+01 0.80555209016E+01
 0.67912958614E+01 0.56946749219E+01 0.48092158292E+01 0.41432769895E+01 0.36864459714E+01
 0.34246603279E+01 0.33496428846E+01 0.34624101581E+01 0.37733869712E+01 0.43008241512E+01
 0.50654578472E+01 0.60777901152E+01 0.73188857795E+01 0.87228903644E+01 0.10172704324E+02
 0.11494012519E+02 0.12399766725E+02 0.12728417401E+02 0.12585846065E+02 0.12273328664E+02
 0.12093935414E+02 0.12157070145E+02 0.12310506070E+02 0.12247491358E+02 0.11716742661E+02
 0.12029946104E+02 0.11058867053E+02 0.96746741592E+01 0.82213493922E+01 0.68625889792E+01
 0.56959526968E+01 0.47656433316E+01 0.40766845887E+01 0.36149091162E+01 0.33640843133E+01
 0.33156291654E+01 0.34715477817E+01 0.38443496472E+01 0.44550725247E+01 0.53252202912E+01
 0.64587725602E+01 0.78185945354E+01 0.93097524070E+01 0.10772646789E+02 0.11874091212E+02
 0.12284765993E+02 0.11986009047E+02 0.11305403949E+02 0.10744893763E+02 0.10691221146E+02
 0.11182790080E+02 0.11884839270E+02 0.12292416324E+02 0.12122930263E+02 0.12170224501E+02
 0.11273936554E+02 0.98222374421E+01 0.82793712864E+01 0.68496773116E+01 0.56370638861E+01
 0.46845295404E+01 0.39930544316E+01 0.35448775246E+01 0.33221354910E+01 0.33164303150E+01
 0.35312791912E+01 0.39819415550E+01 0.46920597495E+01 0.56810565322E+01 0.69401078757E+01
 0.84056688457E+01 0.99458747107E+01 0.11265364828E+02 0.11874563838E+02 0.11523923308E+02
 0.10414432550E+02 0.91448149755E+01 0.84181290163E+01 0.86575964517E+01 0.97617753465E+01
 0.11157930981E+02 0.10295843403E+02 0.11832552322E+02 0.12173792295E+02 0.11342711138E+02
 0.98372452257E+01 0.82282034571E+01 0.67541678658E+01 0.55217654970E+01 0.45706604787E+01
 0.38970622722E+01 0.34799644438E+01 0.33006457084E+01 0.33516630059E+01 0.36388950422E+01
 0.41809514819E+01 0.50029999451E+01 0.61182242951E+01 0.74981834510E+01 0.90457288835E+01
 0.10554587785E+02 0.11502584075E+02 0.11367575190E+02 0.10059525948E+02 0.80610492875E+01
 0.62610593109E+01 0.55292473346E+01 0.62545057381E+01 0.81254879683E+01 0.65798772473E+01
 0.95026347169E+01 0.11532354847E+02 0.12086920493E+02 0.11277842516E+02 0.97228312765E+01
 0.80728110394E+01 0.65826565076E+01 0.53573844369E+01 0.44309694200E+01 0.37942726233E+01
 0.34236739098E+01 0.33006109472E+01 0.34196168282E+01 0.37898958231E+01 0.44335535718E+01
 0.53751790223E+01 0.66168962699E+01 0.81046019193E+01 0.97013772604E+01 0.11031930532E+02
 0.11400351568E+02 0.10345825243E+02 0.80043681959E+01 0.51731521157E+01 0.30105173967E+01
 0.24842467048E+01 0.38660786887E+01 0.19169128570E+01 0.54332123746E+01 0.89662897134E+01
 0.11316204621E+02 0.11946998915E+02 0.11092987670E+02 0.94886379743E+01 0.78237599595E+01
 0.63460699698E+01 0.51540977946E+01 0.42738136178E+01 0.36905291757E+01 0.33789943217E+01
 0.33220319466E+01 0.35172759126E+01 0.39780068198E+01 0.47292305542E+01 0.57920902814E+01
 0.71531458430E+01 0.87286060809E+01 0.10316427544E+02 0.11315767985E+02 0.10967827312E+02
 0.89401908863E+01 0.56378583334E+01 0.21656611979E+01 -.11108869071E+00 -.21955242119E+00
 -.21034293047E+01 0.77322803640E+00 0.49196598769E+01 0.88078984147E+01 0.11232047244E+02
 0.11769231804E+02 0.10798074946E+02 0.91493970751E+01 0.74961041734E+01 0.60585628595E+01
 0.49238478507E+01 0.41080546513E+01 0.35913244141E+01 0.33481098728E+01 0.33639271754E+01
 0.36404774341E+01 0.41953308899E+01 0.50550264442E+01 0.62342108137E+01 0.77006786058E+01
 0.93398377106E+01 0.10836782547E+02 0.11405308522E+02 0.10310494069E+02 0.73994623243E+01
 0.33548414768E+01 -.46112971654E+00 -.25728421096E+01 0.57851101186E-01 0.77379558830E+00
 0.34444710967E+01 0.69858790585E+01 0.10061611142E+02 0.11706081919E+02 0.11684189468E+02
 0.10448583986E+02 0.87784282709E+01 0.71765871984E+01 0.58084339759E+01 0.47431929304E+01
 0.39872415031E+01 0.35175398761E+01 0.33092539174E+01 0.33497333433E+01 0.36422439063E+01
 0.42054145889E+01 0.50658113845E+01 0.62363392661E+01 0.76822134224E+01 0.92891660988E+01
 0.10764979037E+02 0.11392885474E+02 0.10522837871E+02 0.80601837198E+01 0.46671584885E+01
 0.15779918425E+01 0.65469469236E+00 -.51090864123E+00 0.65479593376E+00 0.36598102993E+01
 0.72855360566E+01 0.10197547444E+02 0.11548345237E+02 0.11259594348E+02 0.98968736923E+01
 0.82444919698E+01 0.67093458890E+01 0.54310394066E+01 0.44625579309E+01 0.38001234333E+01
 0.34177784858E+01 0.32929926527E+01 0.34176808607E+01 0.38000916197E+01 0.44625932243E+01
 0.54309864495E+01 0.67092221562E+01 0.82444772872E+01 0.98969673513E+01 0.11259613615E+02
 0.11548268765E+02 0.10197531148E+02 0.72855871639E+01 0.36597789034E+01 0.34444183652E+01
 0.77371761593E+00 0.57896835568E-01 0.15780825771E+01 0.46671467753E+01 0.80601432011E+01