   2   2   0   0
  0.1529437E+02  0.3691622E-09  0.3691622E-09  0.3691622E-09  0.5000000E-15
  1.000000000000000E-004
  CAR 
 unknown system                          
     23.49611774     -6.52331145  301      9.07027378      1.00000000
     -6.523  0.0000E+00  0.0000E+00
     -6.423  0.0000E+00  0.0000E+00
     -6.323  0.0000E+00  0.0000E+00
     -6.223  0.0000E+00  0.0000E+00
     -6.123  0.0000E+00  0.0000E+00
     -6.023  0.0000E+00  0.0000E+00
     -5.923  0.0000E+00  0.0000E+00
     -5.823  0.0000E+00  0.0000E+00
     -5.723  0.0000E+00  0.0000E+00
     -5.623  0.3929E-16  0.3932E-17
     -5.523  0.8232E-14  0.8276E-15
     -5.423  0.1049E-11  0.1058E-12
     -5.323  0.8180E-10  0.8291E-11
     -5.222  0.3905E-08  0.3990E-09
     -5.122  0.1143E-06  0.1184E-07
     -5.022  0.2056E-05  0.2176E-06
     -4.922  0.2275E-04  0.2494E-05
     -4.822  0.1552E-03  0.1802E-04
     -4.722  0.6554E-03  0.8360E-04
     -4.622  0.1731E-02  0.2568E-03
     -4.522  0.2977E-02  0.5547E-03
     -4.422  0.3877E-02  0.9427E-03
     -4.322  0.5369E-02  0.1480E-02
     -4.222  0.8782E-02  0.2359E-02
     -4.122  0.1277E-01  0.3637E-02
     -4.022  0.1443E-01  0.5080E-02
     -3.922  0.1342E-01  0.6423E-02
     -3.822  0.1131E-01  0.7555E-02
     -3.721  0.9325E-02  0.8488E-02
     -3.621  0.9448E-02  0.9434E-02
     -3.521  0.1340E-01  0.1077E-01
     -3.421  0.1919E-01  0.1269E-01
     -3.321  0.2209E-01  0.1491E-01
     -3.221  0.2046E-01  0.1695E-01
     -3.121  0.1737E-01  0.1869E-01
     -3.021  0.1542E-01  0.2023E-01
     -2.921  0.1568E-01  0.2180E-01
     -2.821  0.1893E-01  0.2370E-01
     -2.721  0.2226E-01  0.2592E-01
     -2.621  0.2273E-01  0.2820E-01
     -2.521  0.2345E-01  0.3054E-01
     -2.421  0.2652E-01  0.3320E-01
     -2.321  0.2711E-01  0.3591E-01
     -2.221  0.2287E-01  0.3820E-01
     -2.120  0.2022E-01  0.4022E-01
     -2.020  0.2362E-01  0.4259E-01
     -1.920  0.2787E-01  0.4538E-01
     -1.820  0.2704E-01  0.4808E-01
     -1.720  0.2265E-01  0.5035E-01
     -1.620  0.1825E-01  0.5218E-01
     -1.520  0.1528E-01  0.5370E-01
     -1.420  0.1643E-01  0.5535E-01
     -1.320  0.2319E-01  0.5767E-01
     -1.220  0.3157E-01  0.6083E-01
     -1.120  0.3706E-01  0.6454E-01
     -1.020  0.3953E-01  0.6849E-01
     -0.920  0.4016E-01  0.7251E-01
     -0.820  0.3943E-01  0.7646E-01
     -0.720  0.4076E-01  0.8054E-01
     -0.619  0.4471E-01  0.8501E-01
     -0.519  0.4236E-01  0.8925E-01
     -0.419  0.2950E-01  0.9220E-01
     -0.319  0.1560E-01  0.9376E-01
     -0.219  0.9414E-02  0.9470E-01
     -0.119  0.1165E-01  0.9587E-01
     -0.019  0.2124E-01  0.9799E-01
      0.081  0.3548E-01  0.1015E+00
      0.181  0.4651E-01  0.1062E+00
      0.281  0.4851E-01  0.1111E+00
      0.381  0.4484E-01  0.1155E+00
      0.481  0.3987E-01  0.1195E+00
      0.581  0.3365E-01  0.1229E+00
      0.681  0.3066E-01  0.1260E+00
      0.781  0.3786E-01  0.1298E+00
      0.881  0.4876E-01  0.1346E+00
      0.982  0.4961E-01  0.1396E+00
      1.082  0.4178E-01  0.1438E+00
      1.182  0.3702E-01  0.1475E+00
      1.282  0.3824E-01  0.1513E+00
      1.382  0.4048E-01  0.1554E+00
      1.482  0.4042E-01  0.1594E+00
      1.582  0.3697E-01  0.1631E+00
      1.682  0.3027E-01  0.1661E+00
      1.782  0.2412E-01  0.1685E+00
      1.882  0.2446E-01  0.1710E+00
      1.982  0.3162E-01  0.1742E+00
      2.082  0.3961E-01  0.1781E+00
      2.182  0.4500E-01  0.1826E+00
      2.282  0.4743E-01  0.1874E+00
      2.382  0.4478E-01  0.1918E+00
      2.483  0.3905E-01  0.1958E+00
      2.583  0.3641E-01  0.1994E+00
      2.683  0.3737E-01  0.2031E+00
      2.783  0.3892E-01  0.2070E+00
      2.883  0.4080E-01  0.2111E+00
      2.983  0.4283E-01  0.2154E+00
      3.083  0.4253E-01  0.2197E+00
      3.183  0.3808E-01  0.2235E+00
      3.283  0.3236E-01  0.2267E+00
      3.383  0.3310E-01  0.2300E+00
      3.483  0.4258E-01  0.2343E+00
      3.583  0.4988E-01  0.2393E+00
      3.683  0.4401E-01  0.2437E+00
      3.783  0.2963E-01  0.2466E+00
      3.883  0.2005E-01  0.2486E+00
      3.983  0.2252E-01  0.2509E+00
      4.084  0.3515E-01  0.2544E+00
      4.184  0.5151E-01  0.2596E+00
      4.284  0.6344E-01  0.2659E+00
      4.384  0.6421E-01  0.2723E+00
      4.484  0.5494E-01  0.2778E+00
      4.584  0.4615E-01  0.2825E+00
      4.684  0.4972E-01  0.2874E+00
      4.784  0.6488E-01  0.2939E+00
      4.884  0.7383E-01  0.3013E+00
      4.984  0.6333E-01  0.3077E+00
      5.084  0.4279E-01  0.3119E+00
      5.184  0.2848E-01  0.3148E+00
      5.284  0.2858E-01  0.3176E+00
      5.384  0.4432E-01  0.3221E+00
      5.484  0.6485E-01  0.3286E+00
      5.585  0.7185E-01  0.3358E+00
      5.685  0.6141E-01  0.3419E+00
      5.785  0.4619E-01  0.3465E+00
      5.885  0.3779E-01  0.3503E+00
      5.985  0.4074E-01  0.3544E+00
      6.085  0.5310E-01  0.3597E+00
      6.185  0.6400E-01  0.3661E+00
      6.285  0.6452E-01  0.3726E+00
      6.385  0.5989E-01  0.3785E+00
      6.485  0.5732E-01  0.3843E+00
      6.585  0.5808E-01  0.3901E+00
      6.685  0.6366E-01  0.3965E+00
      6.785  0.6964E-01  0.4034E+00
      6.885  0.6640E-01  0.4101E+00
      6.985  0.5528E-01  0.4156E+00
      7.085  0.4699E-01  0.4203E+00
      7.186  0.4539E-01  0.4249E+00
      7.286  0.4404E-01  0.4293E+00
      7.386  0.4030E-01  0.4333E+00
      7.486  0.4444E-01  0.4377E+00
      7.586  0.6385E-01  0.4441E+00
      7.686  0.8750E-01  0.4529E+00
      7.786  0.1001E+00  0.4629E+00
      7.886  0.9953E-01  0.4729E+00
      7.986  0.9010E-01  0.4819E+00
      8.086  0.7154E-01  0.4890E+00
      8.186  0.4612E-01  0.4936E+00
      8.286  0.2484E-01  0.4961E+00
      8.386  0.1581E-01  0.4977E+00
      8.486  0.1752E-01  0.4995E+00
      8.586  0.2781E-01  0.5023E+00
      8.687  0.4554E-01  0.5068E+00
      8.787  0.6251E-01  0.5131E+00
      8.887  0.7010E-01  0.5201E+00
      8.987  0.7162E-01  0.5272E+00
      9.087  0.7285E-01  0.5345E+00
      9.187  0.7034E-01  0.5416E+00
      9.287  0.6249E-01  0.5478E+00
      9.387  0.5612E-01  0.5534E+00
      9.487  0.5513E-01  0.5590E+00
      9.587  0.5539E-01  0.5645E+00
      9.687  0.5149E-01  0.5697E+00
      9.787  0.4416E-01  0.5741E+00
      9.887  0.3832E-01  0.5779E+00
      9.987  0.3409E-01  0.5813E+00
     10.087  0.2884E-01  0.5842E+00
     10.188  0.2479E-01  0.5867E+00
     10.288  0.2473E-01  0.5892E+00
     10.388  0.2589E-01  0.5918E+00
     10.488  0.2651E-01  0.5944E+00
     10.588  0.3082E-01  0.5975E+00
     10.688  0.4134E-01  0.6016E+00
     10.788  0.5538E-01  0.6072E+00
     10.888  0.6870E-01  0.6140E+00
     10.988  0.7716E-01  0.6218E+00
     11.088  0.7641E-01  0.6294E+00
     11.188  0.6433E-01  0.6358E+00
     11.288  0.4724E-01  0.6406E+00
     11.388  0.3493E-01  0.6441E+00
     11.488  0.3051E-01  0.6471E+00
     11.588  0.3339E-01  0.6505E+00
     11.688  0.4441E-01  0.6549E+00
     11.789  0.6351E-01  0.6613E+00
     11.889  0.8679E-01  0.6699E+00
     11.989  0.1049E+00  0.6804E+00
     12.089  0.1090E+00  0.6914E+00
     12.189  0.1035E+00  0.7017E+00
     12.289  0.1013E+00  0.7118E+00
     12.389  0.1004E+00  0.7219E+00
     12.489  0.9034E-01  0.7309E+00
     12.589  0.7540E-01  0.7385E+00
     12.689  0.6329E-01  0.7448E+00
     12.789  0.5236E-01  0.7501E+00
     12.889  0.4542E-01  0.7546E+00
     12.989  0.4620E-01  0.7592E+00
     13.089  0.4714E-01  0.7639E+00
     13.189  0.4278E-01  0.7682E+00
     13.290  0.3855E-01  0.7721E+00
     13.390  0.3911E-01  0.7760E+00
     13.490  0.4617E-01  0.7806E+00
     13.590  0.6003E-01  0.7866E+00
     13.690  0.7293E-01  0.7939E+00
     13.790  0.7821E-01  0.8017E+00
     13.890  0.8153E-01  0.8099E+00
     13.990  0.8928E-01  0.8188E+00
     14.090  0.9594E-01  0.8284E+00
     14.190  0.8971E-01  0.8374E+00
     14.290  0.7289E-01  0.8447E+00
     14.390  0.6088E-01  0.8508E+00
     14.490  0.5734E-01  0.8565E+00
     14.590  0.5474E-01  0.8620E+00
     14.690  0.5352E-01  0.8674E+00
     14.790  0.6088E-01  0.8735E+00
     14.891  0.7785E-01  0.8813E+00
     14.991  0.9522E-01  0.8908E+00
     15.091  0.9944E-01  0.9007E+00
     15.191  0.8643E-01  0.9094E+00
     15.291  0.6771E-01  0.9162E+00
     15.391  0.5363E-01  0.9215E+00
     15.491  0.4366E-01  0.9259E+00
     15.591  0.3731E-01  0.9296E+00
     15.691  0.3601E-01  0.9332E+00
     15.791  0.3765E-01  0.9370E+00
     15.891  0.3837E-01  0.9408E+00
     15.991  0.3800E-01  0.9446E+00
     16.091  0.4211E-01  0.9488E+00
     16.191  0.5420E-01  0.9543E+00
     16.291  0.6619E-01  0.9609E+00
     16.392  0.6782E-01  0.9677E+00
     16.492  0.6204E-01  0.9739E+00
     16.592  0.5568E-01  0.9795E+00
     16.692  0.4863E-01  0.9843E+00
     16.792  0.4139E-01  0.9885E+00
     16.892  0.3599E-01  0.9921E+00
     16.992  0.3092E-01  0.9952E+00
     17.092  0.2440E-01  0.9976E+00
     17.192  0.1797E-01  0.9994E+00
     17.292  0.1496E-01  0.1001E+01
     17.392  0.1634E-01  0.1003E+01
     17.492  0.1939E-01  0.1004E+01
     17.592  0.2402E-01  0.1007E+01
     17.692  0.3355E-01  0.1010E+01
     17.792  0.4461E-01  0.1015E+01
     17.892  0.5010E-01  0.1020E+01
     17.993  0.4996E-01  0.1025E+01
     18.093  0.4656E-01  0.1029E+01
     18.193  0.3923E-01  0.1033E+01
     18.293  0.2945E-01  0.1036E+01
     18.393  0.2176E-01  0.1038E+01
     18.493  0.1803E-01  0.1040E+01
     18.593  0.1731E-01  0.1042E+01
     18.693  0.1927E-01  0.1044E+01
     18.793  0.2304E-01  0.1046E+01
     18.893  0.2555E-01  0.1049E+01
     18.993  0.2434E-01  0.1051E+01
     19.093  0.2075E-01  0.1053E+01
     19.193  0.1752E-01  0.1055E+01
     19.293  0.1496E-01  0.1057E+01
     19.393  0.1218E-01  0.1058E+01
     19.494  0.9514E-02  0.1059E+01
     19.594  0.8016E-02  0.1059E+01
     19.694  0.7254E-02  0.1060E+01
     19.794  0.6073E-02  0.1061E+01
     19.894  0.4909E-02  0.1061E+01
     19.994  0.4251E-02  0.1062E+01
     20.094  0.3491E-02  0.1062E+01
     20.194  0.2357E-02  0.1062E+01
     20.294  0.1223E-02  0.1062E+01
     20.394  0.5376E-03  0.1062E+01
     20.494  0.5904E-03  0.1063E+01
     20.594  0.1567E-02  0.1063E+01
     20.694  0.3279E-02  0.1063E+01
     20.794  0.4735E-02  0.1064E+01
     20.894  0.4818E-02  0.1064E+01
     20.994  0.3461E-02  0.1064E+01
     21.095  0.1745E-02  0.1065E+01
     21.195  0.8509E-03  0.1065E+01
     21.295  0.1379E-02  0.1065E+01
     21.395  0.3338E-02  0.1065E+01
     21.495  0.5406E-02  0.1066E+01
     21.595  0.5438E-02  0.1066E+01
     21.695  0.3385E-02  0.1067E+01
     21.795  0.1303E-02  0.1067E+01
     21.895  0.3099E-03  0.1067E+01
     21.995  0.4547E-04  0.1067E+01
     22.095  0.4111E-05  0.1067E+01
     22.195  0.2286E-06  0.1067E+01
     22.295  0.7810E-08  0.1067E+01
     22.395  0.1636E-09  0.1067E+01
     22.495  0.2098E-11  0.1067E+01
     22.596  0.1646E-13  0.1067E+01
     22.696  0.7859E-16  0.1067E+01
     22.796  0.0000E+00  0.1067E+01
     22.896  0.0000E+00  0.1067E+01
     22.996  0.0000E+00  0.1067E+01
     23.096  0.0000E+00  0.1067E+01
     23.196  0.0000E+00  0.1067E+01
     23.296  0.0000E+00  0.1067E+01
     23.396  0.0000E+00  0.1067E+01
     23.496  0.0000E+00  0.1067E+01
