   2   2   0   0
  0.1529437E+02  0.3691622E-09  0.3691622E-09  0.3691622E-09  0.5000000E-15
  1.000000000000000E-004
  CAR 
 unknown system                          
     23.24450340     -6.61445077  301      8.95994589      1.00000000
     -6.614  0.0000E+00  0.0000E+00
     -6.515  0.0000E+00  0.0000E+00
     -6.415  0.0000E+00  0.0000E+00
     -6.316  0.0000E+00  0.0000E+00
     -6.216  0.0000E+00  0.0000E+00
     -6.117  0.0000E+00  0.0000E+00
     -6.017  0.0000E+00  0.0000E+00
     -5.918  0.0000E+00  0.0000E+00
     -5.818  0.0000E+00  0.0000E+00
     -5.719  0.1127E-16  0.1122E-17
     -5.619  0.2350E-14  0.2350E-15
     -5.520  0.3000E-12  0.3010E-13
     -5.420  0.2354E-10  0.2374E-11
     -5.321  0.1137E-08  0.1156E-09
     -5.221  0.3387E-07  0.3487E-08
     -5.122  0.6228E-06  0.6548E-07
     -5.022  0.7093E-05  0.7714E-06
     -4.922  0.5029E-04  0.5777E-05
     -4.823  0.2251E-03  0.2818E-04
     -4.723  0.6624E-03  0.9411E-04
     -4.624  0.1413E-02  0.2347E-03
     -4.524  0.2546E-02  0.4882E-03
     -4.425  0.4196E-02  0.9058E-03
     -4.325  0.6250E-02  0.1528E-02
     -4.226  0.8942E-02  0.2418E-02
     -4.126  0.1224E-01  0.3636E-02
     -4.027  0.1341E-01  0.4971E-02
     -3.927  0.1043E-01  0.6009E-02
     -3.828  0.7239E-02  0.6730E-02
     -3.728  0.9601E-02  0.7685E-02
     -3.629  0.1756E-01  0.9433E-02
     -3.529  0.2412E-01  0.1183E-01
     -3.429  0.2351E-01  0.1417E-01
     -3.330  0.1807E-01  0.1597E-01
     -3.230  0.1312E-01  0.1728E-01
     -3.131  0.1134E-01  0.1841E-01
     -3.031  0.1149E-01  0.1955E-01
     -2.932  0.1106E-01  0.2065E-01
     -2.832  0.1175E-01  0.2182E-01
     -2.733  0.1783E-01  0.2360E-01
     -2.633  0.2809E-01  0.2639E-01
     -2.534  0.3466E-01  0.2984E-01
     -2.434  0.3242E-01  0.3307E-01
     -2.335  0.2550E-01  0.3561E-01
     -2.235  0.2262E-01  0.3786E-01
     -2.136  0.2723E-01  0.4057E-01
     -2.036  0.3235E-01  0.4379E-01
     -1.937  0.3042E-01  0.4681E-01
     -1.837  0.2478E-01  0.4928E-01
     -1.737  0.2202E-01  0.5147E-01
     -1.638  0.2066E-01  0.5353E-01
     -1.538  0.1714E-01  0.5524E-01
     -1.439  0.1382E-01  0.5661E-01
     -1.339  0.1362E-01  0.5797E-01
     -1.240  0.1766E-01  0.5972E-01
     -1.140  0.2614E-01  0.6233E-01
     -1.041  0.3326E-01  0.6564E-01
     -0.941  0.3290E-01  0.6891E-01
     -0.842  0.3039E-01  0.7194E-01
     -0.742  0.3464E-01  0.7538E-01
     -0.643  0.4371E-01  0.7973E-01
     -0.543  0.4951E-01  0.8466E-01
     -0.444  0.4935E-01  0.8957E-01
     -0.344  0.4517E-01  0.9407E-01
     -0.245  0.3756E-01  0.9781E-01
     -0.145  0.2621E-01  0.1004E+00
     -0.045  0.1575E-01  0.1020E+00
      0.054  0.1545E-01  0.1035E+00
      0.154  0.2941E-01  0.1064E+00
      0.253  0.4684E-01  0.1111E+00
      0.353  0.4895E-01  0.1160E+00
      0.452  0.3416E-01  0.1194E+00
      0.552  0.2089E-01  0.1215E+00
      0.651  0.2137E-01  0.1236E+00
      0.751  0.3055E-01  0.1266E+00
      0.850  0.3818E-01  0.1304E+00
      0.950  0.4085E-01  0.1345E+00
      1.049  0.4412E-01  0.1389E+00
      1.149  0.5312E-01  0.1442E+00
      1.248  0.6063E-01  0.1502E+00
      1.348  0.5536E-01  0.1557E+00
      1.447  0.4020E-01  0.1597E+00
      1.547  0.2852E-01  0.1626E+00
      1.647  0.2767E-01  0.1653E+00
      1.746  0.3526E-01  0.1688E+00
      1.846  0.4484E-01  0.1733E+00
      1.945  0.4963E-01  0.1782E+00
      2.045  0.4730E-01  0.1829E+00
      2.144  0.4091E-01  0.1870E+00
      2.244  0.3302E-01  0.1903E+00
      2.343  0.2590E-01  0.1929E+00
      2.443  0.2253E-01  0.1951E+00
      2.542  0.2298E-01  0.1974E+00
      2.642  0.2477E-01  0.1999E+00
      2.741  0.2461E-01  0.2023E+00
      2.841  0.2056E-01  0.2044E+00
      2.940  0.1845E-01  0.2062E+00
      3.040  0.2950E-01  0.2091E+00
      3.139  0.5432E-01  0.2145E+00
      3.239  0.7562E-01  0.2221E+00
      3.339  0.7763E-01  0.2298E+00
      3.438  0.6465E-01  0.2362E+00
      3.538  0.4875E-01  0.2411E+00
      3.637  0.3701E-01  0.2448E+00
      3.737  0.3573E-01  0.2483E+00
      3.836  0.4689E-01  0.2530E+00
      3.936  0.6055E-01  0.2590E+00
      4.035  0.6310E-01  0.2653E+00
      4.135  0.5049E-01  0.2703E+00
      4.234  0.3231E-01  0.2735E+00
      4.334  0.2192E-01  0.2757E+00
      4.433  0.2314E-01  0.2780E+00
      4.533  0.3225E-01  0.2812E+00
      4.632  0.4321E-01  0.2855E+00
      4.732  0.4863E-01  0.2904E+00
      4.831  0.4962E-01  0.2953E+00
      4.931  0.5538E-01  0.3008E+00
      5.031  0.6275E-01  0.3071E+00
      5.130  0.5820E-01  0.3129E+00
      5.230  0.4440E-01  0.3173E+00
      5.329  0.3817E-01  0.3211E+00
      5.429  0.4369E-01  0.3254E+00
      5.528  0.4965E-01  0.3304E+00
      5.628  0.4720E-01  0.3351E+00
      5.727  0.3912E-01  0.3390E+00
      5.827  0.3403E-01  0.3423E+00
      5.926  0.3578E-01  0.3459E+00
      6.026  0.4410E-01  0.3503E+00
      6.125  0.5922E-01  0.3562E+00
      6.225  0.7846E-01  0.3640E+00
      6.324  0.9341E-01  0.3733E+00
      6.424  0.9499E-01  0.3827E+00
      6.523  0.8541E-01  0.3912E+00
      6.623  0.7656E-01  0.3989E+00
      6.723  0.7224E-01  0.4061E+00
      6.822  0.6510E-01  0.4125E+00
      6.922  0.5388E-01  0.4179E+00
      7.021  0.4837E-01  0.4227E+00
      7.121  0.5285E-01  0.4280E+00
      7.220  0.6126E-01  0.4341E+00
      7.320  0.6789E-01  0.4408E+00
      7.419  0.6949E-01  0.4477E+00
      7.519  0.6323E-01  0.4540E+00
      7.618  0.5233E-01  0.4592E+00
      7.718  0.4696E-01  0.4639E+00
      7.817  0.5050E-01  0.4689E+00
      7.917  0.5620E-01  0.4745E+00
      8.016  0.6077E-01  0.4806E+00
      8.116  0.6578E-01  0.4871E+00
      8.215  0.6845E-01  0.4939E+00
      8.315  0.6452E-01  0.5004E+00
      8.415  0.5671E-01  0.5060E+00
      8.514  0.5058E-01  0.5110E+00
      8.614  0.4866E-01  0.5159E+00
      8.713  0.5185E-01  0.5211E+00
      8.813  0.5531E-01  0.5266E+00
      8.912  0.4928E-01  0.5315E+00
      9.012  0.3611E-01  0.5351E+00
      9.111  0.3121E-01  0.5382E+00
      9.211  0.4047E-01  0.5422E+00
      9.310  0.5208E-01  0.5474E+00
      9.410  0.5155E-01  0.5525E+00
      9.509  0.3714E-01  0.5562E+00
      9.609  0.1913E-01  0.5581E+00
      9.708  0.7109E-02  0.5588E+00
      9.808  0.3269E-02  0.5591E+00
      9.908  0.7324E-02  0.5599E+00
     10.007  0.2040E-01  0.5619E+00
     10.107  0.3927E-01  0.5658E+00
     10.206  0.5499E-01  0.5713E+00
     10.306  0.6545E-01  0.5778E+00
     10.405  0.7725E-01  0.5855E+00
     10.505  0.9093E-01  0.5945E+00
     10.604  0.9629E-01  0.6041E+00
     10.704  0.8586E-01  0.6127E+00
     10.803  0.6787E-01  0.6194E+00
     10.903  0.5827E-01  0.6252E+00
     11.002  0.6441E-01  0.6316E+00
     11.102  0.7769E-01  0.6394E+00
     11.201  0.8228E-01  0.6475E+00
     11.301  0.7713E-01  0.6552E+00
     11.400  0.7402E-01  0.6626E+00
     11.500  0.7230E-01  0.6698E+00
     11.600  0.6376E-01  0.6761E+00
     11.699  0.5211E-01  0.6813E+00
     11.799  0.4360E-01  0.6857E+00
     11.898  0.3777E-01  0.6894E+00
     11.998  0.3544E-01  0.6929E+00
     12.097  0.3907E-01  0.6968E+00
     12.197  0.4656E-01  0.7015E+00
     12.296  0.5412E-01  0.7069E+00
     12.396  0.6338E-01  0.7132E+00
     12.495  0.7592E-01  0.7207E+00
     12.595  0.8301E-01  0.7290E+00
     12.694  0.7735E-01  0.7367E+00
     12.794  0.6511E-01  0.7432E+00
     12.893  0.5587E-01  0.7487E+00
     12.993  0.5692E-01  0.7544E+00
     13.092  0.6705E-01  0.7611E+00
     13.192  0.7005E-01  0.7680E+00
     13.292  0.5892E-01  0.7739E+00
     13.391  0.5107E-01  0.7790E+00
     13.491  0.5696E-01  0.7846E+00
     13.590  0.6356E-01  0.7910E+00
     13.690  0.6219E-01  0.7972E+00
     13.789  0.6229E-01  0.8034E+00
     13.889  0.6964E-01  0.8103E+00
     13.988  0.7618E-01  0.8179E+00
     14.088  0.7706E-01  0.8255E+00
     14.187  0.7845E-01  0.8334E+00
     14.287  0.8465E-01  0.8418E+00
     14.386  0.9301E-01  0.8510E+00
     14.486  0.9817E-01  0.8608E+00
     14.585  0.9382E-01  0.8701E+00
     14.685  0.8232E-01  0.8783E+00
     14.784  0.7709E-01  0.8860E+00
     14.884  0.8295E-01  0.8943E+00
     14.984  0.8597E-01  0.9028E+00
     15.083  0.7386E-01  0.9102E+00
     15.183  0.5424E-01  0.9156E+00
     15.282  0.4317E-01  0.9199E+00
     15.382  0.4626E-01  0.9245E+00
     15.481  0.5293E-01  0.9297E+00
     15.581  0.4912E-01  0.9346E+00
     15.680  0.3631E-01  0.9382E+00
     15.780  0.2765E-01  0.9410E+00
     15.879  0.2992E-01  0.9440E+00
     15.979  0.4245E-01  0.9482E+00
     16.078  0.6342E-01  0.9545E+00
     16.178  0.8478E-01  0.9630E+00
     16.277  0.9269E-01  0.9722E+00
     16.377  0.8179E-01  0.9803E+00
     16.476  0.6208E-01  0.9865E+00
     16.576  0.4564E-01  0.9910E+00
     16.676  0.3467E-01  0.9945E+00
     16.775  0.2653E-01  0.9971E+00
     16.875  0.2095E-01  0.9992E+00
     16.974  0.1877E-01  0.1001E+01
     17.074  0.1876E-01  0.1003E+01
     17.173  0.1843E-01  0.1005E+01
     17.273  0.1791E-01  0.1007E+01
     17.372  0.1997E-01  0.1009E+01
     17.472  0.2552E-01  0.1011E+01
     17.571  0.3511E-01  0.1015E+01
     17.671  0.5034E-01  0.1020E+01
     17.770  0.6679E-01  0.1026E+01
     17.870  0.7250E-01  0.1033E+01
     17.969  0.6126E-01  0.1040E+01
     18.069  0.4141E-01  0.1044E+01
     18.168  0.2468E-01  0.1046E+01
     18.268  0.1438E-01  0.1048E+01
     18.368  0.7807E-02  0.1048E+01
     18.467  0.3553E-02  0.1049E+01
     18.567  0.2501E-02  0.1049E+01
     18.666  0.5711E-02  0.1050E+01
     18.766  0.1237E-01  0.1051E+01
     18.865  0.1751E-01  0.1052E+01
     18.965  0.1679E-01  0.1054E+01
     19.064  0.1355E-01  0.1056E+01
     19.164  0.1223E-01  0.1057E+01
     19.263  0.1082E-01  0.1058E+01
     19.363  0.7018E-02  0.1059E+01
     19.462  0.2983E-02  0.1059E+01
     19.562  0.9854E-03  0.1059E+01
     19.661  0.1169E-02  0.1059E+01
     19.761  0.3395E-02  0.1059E+01
     19.860  0.6862E-02  0.1060E+01
     19.960  0.8781E-02  0.1061E+01
     20.060  0.7554E-02  0.1062E+01
     20.159  0.5625E-02  0.1062E+01
     20.259  0.5341E-02  0.1063E+01
     20.358  0.5881E-02  0.1063E+01
     20.458  0.6033E-02  0.1064E+01
     20.557  0.5427E-02  0.1064E+01
     20.657  0.3808E-02  0.1065E+01
     20.756  0.1843E-02  0.1065E+01
     20.856  0.6144E-03  0.1065E+01
     20.955  0.3842E-03  0.1065E+01
     21.055  0.1100E-02  0.1065E+01
     21.154  0.2688E-02  0.1066E+01
     21.254  0.4133E-02  0.1066E+01
     21.353  0.3951E-02  0.1066E+01
     21.453  0.2349E-02  0.1067E+01
     21.552  0.8674E-03  0.1067E+01
     21.652  0.1989E-03  0.1067E+01
     21.752  0.2828E-04  0.1067E+01
     21.851  0.2489E-05  0.1067E+01
     21.951  0.1354E-06  0.1067E+01
     22.050  0.4549E-08  0.1067E+01
     22.150  0.9418E-10  0.1067E+01
     22.249  0.1200E-11  0.1067E+01
     22.349  0.9401E-14  0.1067E+01
     22.448  0.4510E-16  0.1067E+01
     22.548  0.0000E+00  0.1067E+01
     22.647  0.0000E+00  0.1067E+01
     22.747  0.0000E+00  0.1067E+01
     22.846  0.0000E+00  0.1067E+01
     22.946  0.0000E+00  0.1067E+01
     23.045  0.0000E+00  0.1067E+01
     23.145  0.0000E+00  0.1067E+01
     23.245  0.0000E+00  0.1067E+01
