    2    2   15    1
  0.1529437E+02  0.3691622E-09  0.3691622E-09  0.3691622E-09  0.5000000E-15
  1.000000000000000E-004
  CAR 
 unknown system                          
      8     40      8
 
  0.0000000E+00  0.0000000E+00  0.0000000E+00  0.2915452E-02
    1       -4.614451   1.000000
    2        6.546521   1.000000
    3        6.546526   1.000000
    4        6.894203   1.000000
    5       10.660220   0.000000
    6       16.655295   0.000000
    7       17.823780   0.000000
    8       17.823787   0.000000
 
  0.1428571E+00 -0.1404355E-16  0.1404355E-16  0.2332362E-01
    1       -4.067308   1.000000
    2        5.547921   1.000000
    3        6.402671   1.000000
    4        8.807279   0.859822
    5       11.798124   0.000000
    6       14.007302   0.000000
    7       14.510604   0.000000
    8       16.517607   0.000000
 
  0.2857143E+00 -0.2600542E-16  0.2600542E-16  0.2332362E-01
    1       -2.437977   1.000000
    2        5.373607   1.000000
    3        6.528681   1.000000
    4        8.533705   0.998711
    5       11.008573   0.000000
    6       12.324041   0.000000
    7       13.022925   0.000000
    8       14.578901   0.000000
 
  0.4285714E+00 -0.1733103E-16  0.1733103E-16  0.2332362E-01
    1        0.218284   1.000000
    2        3.938586   1.000000
    3        6.404946   1.000000
    4        7.195641   1.000000
    5        8.318419   0.999997
    6       10.689589   0.000000
    7       13.611532   0.000000
    8       14.475815   0.000000
 
  0.1428571E+00  0.1428571E+00  0.2808709E-16  0.2332362E-01
    1       -2.686653   1.000000
    2        5.611016   1.000000
    3        7.923642   1.000000
    4        9.217477   0.034302
    5       10.342599   0.000000
    6       10.839769   0.000000
    7       13.419563   0.000000
    8       14.020192   0.000000
 
  0.2857143E+00  0.1428571E+00  0.4508661E-16  0.4664723E-01
    1       -0.261105   1.000000
    2        5.062387   1.000000
    3        6.287808   1.000000
    4        6.747058   1.000000
    5        9.293080   0.009246
    6       11.408772   0.000000
    7       12.215069   0.000000
    8       13.878432   0.000000
 
  0.4285714E+00  0.1428571E+00  0.7177282E-16  0.4664723E-01
    1        1.155778   1.000000
    2        3.211344   1.000000
    3        4.645300   1.000000
    4        7.394684   1.000000
    5        8.734804   0.944307
    6       11.478308   0.000000
    7       12.552892   0.000000
    8       16.143866   0.000000
 
 -0.4285714E+00  0.1428571E+00 -0.1801182E-16  0.4664723E-01
    1       -1.695025   1.000000
    2        3.322666   1.000000
    3        6.730049   1.000000
    4        7.773953   1.000000
    5       10.537158   0.000000
    6       12.545389   0.000000
    7       13.527140   0.000000
    8       14.934152   0.000000
 
 -0.2857143E+00  0.1428571E+00 -0.1576439E-16  0.4664723E-01
    1       -3.565773   1.000000
    2        3.208256   1.000000
    3        6.601707   1.000000
    4       10.106823   0.000000
    5       12.469017   0.000000
    6       13.497278   0.000000
    7       14.241101   0.000000
    8       15.516212   0.000000
 
 -0.1428571E+00  0.1428571E+00 -0.3929902E-17  0.1166181E-01
    1       -4.362643   1.000000
    2        4.082187   1.000000
    3        6.775963   1.000000
    4        8.448096   0.999852
    5       12.210541   0.000000
    6       14.557266   0.000000
    7       16.453901   0.000000
    8       18.181110   0.000000
 
  0.2857143E+00  0.2857143E+00  0.5201085E-16  0.2332362E-01
    1        2.252884   1.000000
    2        2.656370   1.000000
    3        3.456615   1.000000
    4        7.515274   1.000000
    5        9.314123   0.006133
    6       10.409670   0.000000
    7       14.539968   0.000000
    8       15.354650   0.000000
 
  0.4285714E+00  0.2857143E+00  0.7869706E-16  0.4664723E-01
    1       -0.467152   1.000000
    2        1.224737   1.000000
    3        7.081565   1.000000
    4        7.986820   1.000000
    5        9.401458   0.000898
    6       11.446120   0.000000
    7       14.737797   0.000000
    8       16.233684   0.000000
 
 -0.4285714E+00  0.2857143E+00 -0.2288370E-16  0.4664723E-01
    1       -2.567762   1.000000
    2        0.859586   1.000000
    3        7.501069   1.000000
    4       10.519028   0.000000
    5       11.145157   0.000000
    6       12.831661   0.000000
    7       14.423581   0.000000
    8       14.940861   0.000000
 
 -0.2857143E+00  0.2857143E+00 -0.7859804E-17  0.1166181E-01
    1       -3.609552   1.000000
    2        1.535387   1.000000
    3        7.463393   1.000000
    4        9.485091   0.000102
    5       12.194705   0.000000
    6       14.341345   0.000000
    7       15.548412   0.000000
    8       17.751112   0.000000
 
  0.4285714E+00  0.4285714E+00  0.1053833E-15  0.2332362E-01
    1       -1.086550   1.000000
    2       -1.083106   1.000000
    3        8.835564   0.810438
    4        8.854262   0.772559
    5       11.674604   0.000000
    6       12.781533   0.000000
    7       13.839977   0.000000
    8       14.230090   0.000000
 
 -0.4285714E+00  0.4285714E+00  0.4248060E-17  0.1166181E-01
    1       -2.363063   1.000000
    2       -0.638015   1.000000
    3        8.604374   0.994036
    4       10.188676   0.000000
    5       10.744557   0.000000
    6       12.376496   0.000000
    7       17.514060   0.000000
    8       17.605048   0.000000
 
  0.1428571E+00  0.1428571E+00  0.1428571E+00  0.2332362E-01
    1       -1.941187   1.000000
    2        3.134086   1.000000
    3        8.153119   1.000000
    4        8.850474   0.780560
    5       10.116744   0.000000
    6       11.306362   0.000000
    7       14.384880   0.000000
    8       14.887882   0.000000
 
  0.2857143E+00  0.1428571E+00  0.1428571E+00  0.4664723E-01
    1        0.703836   1.000000
    2        3.847609   1.000000
    3        4.695624   1.000000
    4        6.097286   1.000000
    5       10.589127   0.000000
    6       13.141673   0.000000
    7       14.005715   0.000000
    8       14.187611   0.000000
 
 -0.1428571E+00  0.1428571E+00  0.1428571E+00  0.1166181E-01
    1       -4.111487   1.000000
    2        3.837525   1.000000
    3        5.081999   1.000000
    4       10.391568   0.000000
    5       12.591332   0.000000
    6       13.070898   0.000000
    7       17.348400   0.000000
    8       18.235737   0.000000
 
  0.2857143E+00  0.2857143E+00  0.1428571E+00  0.2332362E-01
    1        2.083239   1.000000
    2        2.156304   1.000000
    3        4.350873   1.000000
    4        5.877999   1.000000
    5       11.727609   0.000000
    6       12.550248   0.000000
    7       14.593615   0.000000
    8       15.498878   0.000000
 
  0.4285714E+00  0.2857143E+00  0.1428571E+00  0.2332362E-01
    1       -0.708057   1.000000
    2        0.995683   1.000000
    3        8.239886   1.000000
    4        8.415433   0.999941
    5       10.798164   0.000000
    6       12.011854   0.000000
    7       12.744157   0.000000
    8       13.895126   0.000000
 
 -0.2857143E+00  0.2857143E+00  0.1428571E+00  0.2332362E-01
    1       -3.360729   1.000000
    2        1.729594   1.000000
    3        5.346337   1.000000
    4       10.176998   0.000000
    5       11.850115   0.000000
    6       15.900403   0.000000
    7       16.077771   0.000000
    8       17.405402   0.000000
 
 -0.1428571E+00  0.2857143E+00  0.1428571E+00  0.2332362E-01
    1       -3.067232   1.000000
    2        3.138043   1.000000
    3        4.527080   1.000000
    4       10.325926   0.000000
    5       11.576698   0.000000
    6       13.662998   0.000000
    7       15.399324   0.000000
    8       16.262080   0.000000
 
 -0.4285714E+00  0.4285714E+00  0.1428571E+00  0.2332362E-01
    1       -2.119052   1.000000
    2       -0.405229   1.000000
    3        6.486465   1.000000
    4        8.114032   1.000000
    5       13.094533   0.000000
    6       14.545433   0.000000
    7       16.904575   0.000000
    8       17.106650   0.000000
 
 -0.2857143E+00  0.4285714E+00  0.1428571E+00  0.4664723E-01
    1       -2.076407   1.000000
    2        1.283198   1.000000
    3        4.960146   1.000000
    4        8.153125   1.000000
    5       11.175149   0.000000
    6       14.934892   0.000000
    7       16.089989   0.000000
    8       17.836169   0.000000
 
 -0.1428571E+00  0.4285714E+00  0.1428571E+00  0.2332362E-01
    1       -0.960625   1.000000
    2        3.455490   1.000000
    3        4.906652   1.000000
    4        6.825275   1.000000
    5        9.155983   0.082844
    6       13.127693   0.000000
    7       14.406276   0.000000
    8       16.460611   0.000000
 
 -0.4285714E+00 -0.4285714E+00  0.1428571E+00  0.2332362E-01
    1       -0.615153   1.000000
    2       -0.604430   1.000000
    3        6.311673   1.000000
    4        6.327029   1.000000
    5       10.988459   0.000000
    6       15.776357   0.000000
    7       16.227231   0.000000
    8       16.713835   0.000000
 
 -0.2857143E+00 -0.4285714E+00  0.1428571E+00  0.4664723E-01
    1        0.247109   1.000000
    2        1.878215   1.000000
    3        5.470270   1.000000
    4        6.349255   1.000000
    5        7.277295   1.000000
    6       13.142615   0.000000
    7       16.303815   0.000000
    8       17.803186   0.000000
 
 -0.1428571E+00 -0.4285714E+00  0.1428571E+00  0.2332362E-01
    1        1.891182   1.000000
    2        2.750969   1.000000
    3        5.053374   1.000000
    4        6.191933   1.000000
    5        8.530595   0.998801
    6       11.098409   0.000000
    7       12.073426   0.000000
    8       16.623764   0.000000
 
 -0.2857143E+00 -0.2857143E+00  0.1428571E+00  0.2332362E-01
    1        2.046085   1.000000
    2        3.573904   1.000000
    3        3.838869   1.000000
    4        6.984757   1.000000
    5        7.151654   1.000000
    6       11.081681   0.000000
    7       13.784984   0.000000
    8       14.787186   0.000000
 
 -0.1428571E+00 -0.2857143E+00  0.1428571E+00  0.2332362E-01
    1       -0.747973   1.000000
    2        6.209528   1.000000
    3        7.331523   1.000000
    4        7.844403   1.000000
    5        8.264164   1.000000
    6       10.628235   0.000000
    7       11.109393   0.000000
    8       12.681184   0.000000
 
 -0.1428571E+00 -0.1428571E+00  0.1428571E+00  0.5830904E-02
    1       -2.935992   1.000000
    2        7.794580   1.000000
    3        7.794585   1.000000
    4        8.377827   0.999981
    5       10.739562   0.000000
    6       10.976224   0.000000
    7       12.346193   0.000000
    8       13.227227   0.000000
 
 -0.2857143E+00  0.2857143E+00  0.2857143E+00  0.1166181E-01
    1       -2.617984   1.000000
    2        1.871235   1.000000
    3        3.366466   1.000000
    4        7.706642   1.000000
    5       14.270776   0.000000
    6       15.929369   0.000000
    7       17.107512   0.000000
    8       17.580116   0.000000
 
 -0.4285714E+00  0.4285714E+00  0.2857143E+00  0.2332362E-01
    1       -1.394760   1.000000
    2        0.260386   1.000000
    3        4.006652   1.000000
    4        5.612797   1.000000
    5       15.073521   0.000000
    6       15.427933   0.000000
    7       17.677482   0.000000
    8       18.823559   0.000000
 
 -0.2857143E+00  0.4285714E+00  0.2857143E+00  0.2332362E-01
    1       -1.105082   1.000000
    2        1.656922   1.000000
    3        3.190718   1.000000
    4        5.877915   1.000000
    5       10.579613   0.000000
    6       17.711752   0.000000
    7       17.855475   0.000000
    8       18.844830   0.000000
 
 -0.4285714E+00 -0.4285714E+00  0.2857143E+00  0.2332362E-01
    1        0.289607   1.000000
    2        0.309881   1.000000
    3        4.043618   1.000000
    4        4.057999   1.000000
    5       10.365479   0.000000
    6       17.984905   0.000000
    7       19.191573   0.000000
    8       19.908453   0.000000
 
 -0.2857143E+00 -0.4285714E+00  0.2857143E+00  0.2332362E-01
    1        1.387178   1.000000
    2        2.476557   1.000000
    3        4.018970   1.000000
    4        5.033766   1.000000
    5        6.070360   1.000000
    6       15.157758   0.000000
    7       16.321795   0.000000
    8       17.986724   0.000000
 
 -0.2857143E+00 -0.2857143E+00  0.2857143E+00  0.5830904E-02
    1        1.873918   1.000000
    2        4.459697   1.000000
    3        4.695233   1.000000
    4        5.791989   1.000000
    5        5.791990   1.000000
    6       13.180797   0.000000
    7       13.530612   0.000000
    8       13.530614   0.000000
 
 -0.4285714E+00  0.4285714E+00  0.4285714E+00  0.1166181E-01
    1       -0.235082   1.000000
    2        0.873024   1.000000
    3        2.451769   1.000000
    4        3.543587   1.000000
    5       15.074268   0.000000
    6       15.131482   0.000000
    7       20.271904   0.000000
    8       21.244503   0.000000
 
 -0.4285714E+00 -0.4285714E+00  0.4285714E+00  0.5830904E-02
    1        1.140001   1.000000
    2        1.175935   1.000000
    3        2.731317   1.000000
    4        2.731317   1.000000
    5       10.147631   0.000000
    6       19.124265   0.000000
    7       20.515583   0.000000
    8       20.515587   0.000000
