unknown system                          
   1.00000000000000     
    -2.384747    2.384747    1.366448
     2.384747   -2.384747    1.366448
     2.384747    2.384747   -1.366448
   Si
     2
Direct
  0.250000  0.750000  0.500000
  0.000000  0.000000  0.000000
 
   28   28   28
 -5.4795     -3.9375     0.69082E-01  5.0035      9.1715      11.465      11.707      10.510      8.8098      7.1872    
  5.8186      4.7722      4.0517      3.6340      3.4974      3.6339      4.0517      4.7724      5.8187      7.1871    
  8.8098      10.510      11.707      11.465      9.1715      5.0036     0.68956E-01 -3.9377     -3.9377     -4.7420    
 -2.5885      1.6527      6.3724      10.004      11.679      11.446      10.034      8.3348      6.7758      5.4950    
  4.5401      3.9043      3.5629      3.4970      3.7029      4.1924      4.9889      6.1116      7.5457      9.2051    
  10.870      11.846      11.233      8.5699      4.2385     -.49548     0.68956E-01 -2.5887     -2.6653     -.14041    
  3.9530      8.0630      10.860      11.765      11.036      9.4639      7.8042      6.3333      5.1573      4.3036    
  3.7570      3.4928      3.4961      3.7669      4.3199      5.1789      6.3584      7.8326      9.5014      11.105    
  11.905      11.087      8.3508      4.2385      5.0036      1.6526     -.14046     0.37507      2.9664      6.5476    
  9.7430      11.534      11.637      10.479      8.8369      7.2463      5.8836      4.8233      4.0748      3.6172    
  3.4278      3.4954      3.8233      4.4281      5.3325      6.5457      8.0329      9.6848      11.221      11.921    
  11.087      8.5699      9.1715      6.3724      3.9530      2.9664      3.8524      6.2041      8.9945      11.111    
  11.874      11.266      9.8150      8.1879      6.6922      5.4510      4.5102      3.8651      3.4922      3.3717    
  3.4956      3.8695      4.5109      5.4407      6.6629      8.1359      9.7469      11.221      11.905      11.233    
  11.465      10.004      8.0630      6.5477      6.2042      7.2100      9.0782      10.932      11.966      11.822    
  10.689      9.1169      7.5538      6.1724      5.0583      4.2339      3.6852      3.3887      3.3276      3.4965    
  3.9025      4.5631      5.4967      6.7027      8.1359      9.6848      11.105      11.846      11.707      11.679    
  10.860      9.7430      8.9946      9.0783      9.9832      11.231      12.152      12.246      11.424      10.002    
  8.4396      6.9708      5.7143      4.7246      4.0074      3.5436      3.3117      3.2975      3.4976      3.9198    
  4.5810      5.4967      6.6629      8.0329      9.5014      10.870      10.510      11.446      11.765      11.534    
  11.111      10.932      11.231      11.889      12.503      12.627      12.029      10.809      9.3188      7.8252    
  6.4704      5.3396      4.4644      3.8399      3.4464      3.2644      3.2824      3.4981      3.9198      4.5631    
  5.4407      6.5457      7.8326      9.2051      8.8098      10.034      11.036      11.637      11.874      11.966    
  12.152      12.503      12.864      12.941      12.494      11.495      10.150      8.7043      7.3103      6.0769    
  5.0635      4.2868      3.7375      3.3970      3.2485      3.2824      3.4976      3.9025      4.5109      5.3325    
  6.3584      7.5457      7.1871      8.3348      9.4640      10.479      11.266      11.822      12.246      12.627    
  12.941      13.041      12.751      11.997      10.873      9.5603      8.2028      6.9235      5.8068      4.8949    
  4.1969      3.7030      3.3970      3.2644      3.2975      3.4965      3.8695      4.4281      5.1789      6.1116    
  5.8187      6.7757      7.8041      8.8369      9.8151      10.689      11.424      12.029      12.494      12.751    
  12.690      12.234      11.411      10.325      9.0965      7.8489      6.6842      5.6697      4.8383      4.1969    
  3.7375      3.4464      3.3117      3.3276      3.4956      3.8233      4.3199      4.9889      4.7724      5.4951    
  6.3333      7.2463      8.1878      9.1170      10.002      10.809      11.495      11.997      12.234      12.136    
  11.685      10.919      9.9208      8.8008      7.6661      6.6032      5.6697      4.8949      4.2868      3.8399    
  3.5436      3.3887      3.3717      3.4954      3.7669      4.1924      4.0517      4.5402      5.1574      5.8836    
  6.6921      7.5538      8.4396      9.3188      10.150      10.873      11.411      11.685      11.640      11.263    
  10.593      9.7063      8.6993      7.6661      6.6842      5.8068      5.0635      4.4644      4.0074      3.6852    
  3.4922      3.4278      3.4961      3.7029      3.6339      3.9043      4.3037      4.8233      5.4510      6.1723    
  6.9708      7.8252      8.7044      9.5603      10.325      10.919      11.263      11.306      11.035      10.479    
  9.7063      8.8008      7.8489      6.9235      6.0769      5.3396      4.7246      4.2339      3.8651      3.6172    
  3.4928      3.4970      3.4974      3.5627      3.7569      4.0747      4.5102      5.0583      5.7142      6.4703    
  7.3103      8.2028      9.0966      9.9208      10.593      11.034      11.189      11.035      10.593      9.9208    
  9.0965      8.2028      7.3103      6.4704      5.7143      5.0583      4.5102      4.0748      3.7570      3.5629    
  3.6340      3.4970      3.4927      3.6170      3.8650      4.2339      4.7246      5.3396      6.0769      6.9235    
  7.8489      8.8008      9.7063      10.479      11.034      11.306      11.263      10.919      10.325      9.5603    
  8.7043      7.8252      6.9708      6.1724      5.4510      4.8233      4.3036      3.9043      4.0517      3.7029    
  3.4961      3.4277      3.4921      3.6851      4.0073      4.4644      5.0635      5.8068      6.6842      7.6661    
  8.6993      9.7063      10.593      11.263      11.640      11.685      11.411      10.873      10.150      9.3188    
  8.4396      7.5538      6.6922      5.8836      5.1573      4.5401      4.7722      4.1923      3.7668      3.4954    
  3.3716      3.3886      3.5435      3.8399      4.2868      4.8949      5.6697      6.6032      7.6661      8.8008    
  9.9208      10.919      11.685      12.136      12.234      11.997      11.495      10.809      10.002      9.1169    
  8.1879      7.2463      6.3333      5.4950      5.8186      4.9887      4.3198      3.8232      3.4955      3.3276    
  3.3117      3.4463      3.7374      4.1969      4.8383      5.6697      6.6842      7.8489      9.0966      10.325    
  11.411      12.234      12.690      12.751      12.494      12.029      11.424      10.689      9.8150      8.8369    
  7.8042      6.7758      7.1872      6.1116      5.1788      4.4279      3.8694      3.4965      3.2976      3.2645    
  3.3969      3.7029      4.1969      4.8949      5.8068      6.9235      8.2028      9.5603      10.873      11.997    
  12.751      13.041      12.941      12.627      12.246      11.822      11.266      10.479      9.4639      8.3348    
  8.8098      7.5457      6.3584      5.3324      4.5108      3.9024      3.4976      3.2824      3.2486      3.3969    
  3.7374      4.2868      5.0635      6.0769      7.3103      8.7044      10.150      11.495      12.494      12.941    
  12.864      12.503      12.152      11.966      11.874      11.637      11.036      10.034      10.510      9.2050    
  7.8326      6.5457      5.4407      4.5630      3.9197      3.4981      3.2824      3.2645      3.4463      3.8399    
  4.4644      5.3396      6.4703      7.8252      9.3188      10.809      12.029      12.627      12.503      11.889    
  11.231      10.932      11.111      11.534      11.765      11.446      11.707      10.870      9.5012      8.0328    
  6.6629      5.4968      4.5809      3.9197      3.4976      3.2976      3.3117      3.5435      4.0073      4.7246    
  5.7142      6.9708      8.4396      10.002      11.424      12.246      12.152      11.231      9.9832      9.0782    
  8.9945      9.7430      10.860      11.679      11.465      11.846      11.105      9.6846      8.1357      6.7027    
  5.4968      4.5630      3.9024      3.4965      3.3276      3.3886      3.6851      4.2339      5.0583      6.1723    
  7.5538      9.1170      10.689      11.822      11.966      10.932      9.0783      7.2100      6.2041      6.5476    
  8.0630      10.004      9.1715      11.233      11.906      11.221      9.7467      8.1357      6.6629      5.4407    
  4.5108      3.8694      3.4955      3.3716      3.4921      3.8650      4.5102      5.4510      6.6921      8.1878    
  9.8151      11.266      11.874      11.111      8.9946      6.2042      3.8524      2.9664      3.9530      6.3724    
  5.0035      8.5698      11.087      11.921      11.221      9.6846      8.0328      6.5457      5.3324      4.4279    
  3.8232      3.4954      3.4277      3.6170      4.0747      4.8233      5.8836      7.2463      8.8369      10.479    
  11.637      11.534      9.7430      6.5477      2.9664     0.37507     -.14041      1.6527     0.69082E-01  4.2385    
  8.3508      11.087      11.906      11.105      9.5012      7.8326      6.3584      5.1788      4.3198      3.7668    
  3.4961      3.4927      3.7569      4.3037      5.1574      6.3333      7.8041      9.4640      11.036      11.765    
  10.860      8.0630      3.9530     -.14046     -2.6653     -2.5885     -3.9375     -.49533      4.2385      8.5698    
  11.233      11.846      10.870      9.2050      7.5457      6.1116      4.9887      4.1923      3.7029      3.4970    
  3.5627      3.9043      4.5402      5.4951      6.7757      8.3348      10.034      11.446      11.679      10.004    
  6.3724      1.6526     -2.5887     -4.7420     -3.9372     -2.8161     0.67854      5.1834      9.1003      11.315    
  11.579      10.422      8.7302      7.0988      5.7117      4.6423      3.8970      3.4520      3.2820      3.3758    
  3.7399      4.3964      5.3717      6.6703      8.2377      9.9257      11.271      11.395      9.6436      6.0658    
  1.5930     -2.2353     -2.8163     -3.9372     -2.2352      1.5930      6.0659      9.6437      11.395      11.271    
  9.9258      8.2378      6.6704      5.3717      4.3963      3.7399      3.3759      3.2820      3.4520      3.8971    
  4.6423      5.7117      7.0987      8.7302      10.421      11.579      11.315      9.1003      5.1834     0.67842    
 0.79764     -2.1047     -2.5883     -.47413      3.3556      7.4152      10.335      11.431      10.859      9.3540    
  7.7034      6.2232      5.0304      4.1596      3.5969      3.3155      3.2973      3.5410      4.0619      4.8864    
  6.0339      7.4872      9.1573      10.823      11.810      11.287      8.8671      4.9681      5.4777      1.9328    
 -.23251     -.14029      2.1373      5.6220      8.9395      10.978      11.331      10.331      8.7378      7.1526    
  5.7791      4.7038      3.9423      3.4740      3.2734      3.3276      3.6394      4.2271      5.1165      6.3218    
  7.8155      9.4977      11.120      11.991      11.374      9.0261      9.5558      6.6129      3.8676      2.4561    
  2.9664      5.1298      7.9734      10.330      11.397      11.036      9.7077      8.1076      6.6120      5.3595    
  4.4070      3.7540      3.3763      3.2518      3.3719      3.7429      4.3843      5.3201      6.5589      8.0652    
  9.7326      11.305      12.132      11.588      11.882      10.337      8.1429      6.2397      5.4864      6.2041    
  8.0056      10.016      11.339      11.487      10.548      9.0430      7.4942      6.1083      4.9844      4.1532    
  3.6028      3.3084      3.2519      3.4282      3.8458      4.5243      5.4849      6.7307      8.2207      9.8470    
  11.370      12.216      12.208      12.163      11.185      9.7630      8.6279      8.3634      9.0781      10.349    
  11.470      11.835      11.238      9.9282      8.3937      6.9290      5.6663      4.6709      3.9533      3.4952    
  3.2734      3.2736      3.4933      3.9420      4.6383      5.6002      6.8261      8.2716      9.8314      11.299    
  11.082      12.061      12.321      11.898      11.169      10.649      10.681      11.231      11.913      12.220    
  11.822      10.733      9.2812      7.7978      6.4412      5.3066      4.4322      3.8154      3.4358      3.2729    
  3.3157      3.5633      4.0255      4.7191      5.6587      6.8384      8.2129      9.6829      9.4061      10.714    
  11.741      12.266      12.310      12.131      12.042      12.201      12.503      12.645      12.324      11.430    
  10.121      8.6846      7.2906      6.0552      5.0441      4.2771      3.7446      3.4269      3.3070      3.3760    
  3.6344      4.0914      4.7619      5.6566      6.7664      8.0464      7.7802      9.0141      10.210      11.240    
  11.950      12.336      12.539      12.709      12.884      12.941      12.680      11.970      10.860      9.5444    
  8.1832      6.9018      5.7888      4.8887      4.2106      3.7431      3.4691      3.3744      3.4520      3.7031    
  4.1366      4.7649      5.5946      6.6140      6.3896      7.4286      8.5279      9.6060      10.587      11.391    
  11.988      12.419      12.723      12.869      12.751      12.270      11.420      10.312      9.0686      7.8148    
  6.6535      5.6530      4.8451      4.2347      3.8118      3.5618      3.4732      3.5408      3.7668      4.1595    
  4.7285      5.4765      5.3088      6.1056      7.0115      7.9757      8.9395      9.8503      10.670      11.366    
  11.914      12.284      12.414      12.234      11.717      10.904      9.8762      8.7414      7.6072      6.5595    
  5.6535      4.9152      4.3496      3.9491      3.7023      3.6000      3.6390      3.8230      4.1595      4.6551    
  4.5484      5.1005      5.7777      6.5531      7.3909      8.2522      9.1010      9.9059      10.633      11.236    
  11.654      11.820      11.685      11.240      10.522      9.6088      8.5963      7.5775      6.6264      5.7917    
  5.0982      4.5531      4.1518      3.8861      3.7497      3.7424      3.8690      4.1365      4.0912      4.4135    
  4.8624      5.4244      6.0806      6.8090      7.5864      8.3881      9.1848      9.9363      10.586      11.065    
  11.306      11.263      10.927      10.332      9.5450      8.6508      7.7314      6.8540      6.0649      5.3904    
  4.8400      4.4132      4.1057      3.9154      3.8453      3.9020      3.9193      4.0251      4.2571      4.6077    
  5.0661      5.6215      6.2636      6.9805      7.7546      8.5575      9.3449      10.056      10.617      10.959    
  11.035      10.828      10.363      9.6974      8.9057      8.0636      7.2351      6.4660      5.7836      5.2011    
  4.7229      4.3506      4.0879      3.9416      4.0253      3.9193      3.9415      4.0878      4.3506      4.7229    
  5.2011      5.7835      6.4659      7.2351      8.0636      8.9057      9.6974      10.363      10.828      11.034    
  10.959      10.617      10.056      9.3450      8.5576      7.7547      6.9806      6.2637      5.6216      5.0660    
  4.6077      4.2572      4.4136      4.0913      3.9021      3.8453      3.9154      4.1057      4.4132      4.8400    
  5.3903      6.0649      6.8540      7.7314      8.6508      9.5450      10.332      10.927      11.263      11.306    
  11.065      10.586      9.9363      9.1849      8.3881      7.5865      6.8091      6.0807      5.4244      4.8624    
  5.1004      4.5484      4.1367      3.8692      3.7424      3.7498      3.8861      4.1517      4.5530      5.0982    
  5.7917      6.6264      7.5775      8.5963      9.6089      10.522      11.240      11.685      11.820      11.654    
  11.236      10.633      9.9059      9.1010      8.2522      7.3911      6.5532      5.7776      6.1055      5.3087    
  4.6551      4.1596      3.8232      3.6391      3.6000      3.7023      3.9490      4.3495      4.9152      5.6535    
  6.5595      7.6072      8.7415      9.8762      10.904      11.717      12.234      12.414      12.284      11.914    
  11.366      10.670      9.8503      8.9395      7.9758      7.0116      7.4287      6.3895      5.4764      4.7285    
  4.1596      3.7669      3.5409      3.4733      3.5618      3.8117      4.2347      4.8451      5.6530      6.6535    
  7.8148      9.0687      10.312      11.420      12.270      12.751      12.869      12.723      12.419      11.988    
  11.391      10.587      9.6059      8.5279      9.0140      7.7802      6.6139      5.5945      4.7649      4.1366    
  3.7031      3.4520      3.3745      3.4691      3.7431      4.2106      4.8887      5.7888      6.9018      8.1833    
  9.5445      10.860      11.970      12.680      12.941      12.884      12.709      12.539      12.337      11.950    
  11.239      10.210      10.714      9.4060      8.0463      6.7664      5.6566      4.7619      4.0913      3.6343    
  3.3760      3.3070      3.4268      3.7445      4.2771      5.0442      6.0552      7.2906      8.6847      10.122    
  11.430      12.324      12.645      12.503      12.201      12.042      12.131      12.310      12.265      11.741    
  12.061      11.082      9.6827      8.2128      6.8384      5.6587      4.7191      4.0253      3.5632      3.3156    
  3.2729      3.4356      3.8154      4.4323      5.3066      6.4412      7.7978      9.2813      10.733      11.822    
  12.220      11.913      11.231      10.681      10.649      11.169      11.898      12.321      12.162      12.208    
  11.299      9.8312      8.2714      6.8261      5.6003      4.6382      3.9418      3.4932      3.2735      3.2733    
  3.4951      3.9533      4.6710      5.6664      6.9290      8.3938      9.9283      11.238      11.834      11.470    
  10.349      9.0780      8.3632      8.6277      9.7629      11.185      10.337      11.882      12.216      11.370    
  9.8469      8.2206      6.7307      5.4849      4.5242      3.8456      3.4281      3.2518      3.3082      3.6027    
  4.1532      4.9845      6.1084      7.4942      9.0431      10.548      11.487      11.339      10.016      8.0056    
  6.2041      5.4863      6.2396      8.1427      6.6127      9.5556      11.588      12.132      11.305      9.7324    
  8.0651      6.5589      5.3201      4.3842      3.7427      3.3718      3.2517      3.3761      3.7539      4.4071    
  5.3596      6.6120      8.1076      9.7077      11.036      11.397      10.330      7.9733      5.1299      2.9664    
  2.4562      3.8675      1.9329      5.4775      9.0259      11.374      11.991      11.120      9.4976      7.8155    
  6.3218      5.1165      4.2270      3.6393      3.3275      3.2734      3.4739      3.9423      4.7039      5.7792    
  7.1526      8.7378      10.331      11.331      10.978      8.9393      5.6220      2.1373     -.14018     -.23236    
 -2.1045     0.79775      4.9680      8.8671      11.287      11.810      10.823      9.1573      7.4873      6.0340    
  4.8863      4.0618      3.5409      3.2973      3.3154      3.5969      4.1596      5.0305      6.2232      7.7034    
  9.3540      10.859      11.431      10.335      7.4150      3.3555     -.47414     -2.5882     0.69947E-01 0.79831    
  3.4917      7.0530      10.136      11.773      11.736      10.483      8.7950      7.1757      5.7912      4.7127    
  3.9477      3.4735      3.2644      3.3071      3.6046      4.1761      5.0484      6.2334      7.6942      9.3144    
  10.801      11.437      10.570      8.1025      4.6963      1.5935     0.67905     -.49437     0.67914      3.7019    
  7.3433      10.260      11.605      11.304      9.9268      8.2589      6.7075      5.4138      4.4327      3.7617    
  3.3747      3.2485      3.3746      3.7617      4.4327      5.4138      6.7075      8.2589      9.9268      11.304    
  11.605      10.260      7.3433      3.7019      3.4916     0.79824     0.69964E-01  1.5936      4.6964      8.1025    
  10.570      11.437      10.801      9.3144      7.6942      6.2334      5.0484      4.1761      3.6046      3.3071    
  3.2644      3.4735      3.9478      4.7127      5.7912      7.1757      8.7950      10.483      11.736      11.773    
  10.136      7.0531      7.3255      4.1230      1.9333      1.6533      3.3559      6.2562      9.1303      10.924    
  11.202      10.223      8.6756      7.1265      5.7751      4.7109      3.9528      3.4820      3.2730      3.3117    
  3.6003      4.1558      5.0039      6.1627      7.6146      9.2757      10.957      12.105      11.994      10.284    
  10.712      8.1226      5.4784      3.8678      3.9533      5.6221      8.0561      10.174      11.169      10.843    
  9.5819      8.0373      6.5803      5.3523      4.4146      3.7708      3.3977      3.2733      3.3887      3.7501    
  4.3762      5.2915      6.5083      7.9999      9.6738      11.329      12.412      12.281      12.601      11.340    
  9.2849      7.2945      6.2397      6.5476      7.9732      9.7463      10.996      11.190      10.343      8.9174    
  7.4253      6.0791      4.9822      4.1709      3.6364      3.3548      3.3082      3.4923      3.9156      4.5973    
  5.5591      6.8072      8.3076      9.9635      11.576      12.636      12.741      12.880      12.023      10.572    
  9.2275      8.6277      8.9942      10.016      11.038      11.438      10.944      9.7371      8.2756      6.8661    
  5.6440      4.6798      3.9886      3.5544      3.3547      3.3761      3.6172      4.0879      4.8062      5.7900    
  7.0400      8.5169      10.123      11.675      11.607      12.685      13.025      12.594      11.723      10.935    
  10.649      10.931      11.470      11.769      11.454      10.473      9.1049      7.6881      6.3850      5.2935    
  4.4564      3.8742      3.5276      3.3975      3.4737      3.7570      4.2571      4.9899      5.9694      7.1910    
  8.6120      10.137      9.9998      11.360      12.433      12.954      12.904      12.521      12.155      12.041    
  12.151      12.220      11.929      11.116      9.8875      8.5180      7.1855      6.0040      5.0415      4.3200    
  3.8316      3.5574      3.4816      3.5967      3.9043      4.4134      5.1373      6.0858      7.2496      8.5845    
  8.4342      9.7166      10.945      11.974      12.624      12.865      12.843      12.757      12.709      12.627    
  12.324      11.641      10.581      9.3190      8.0172      6.7955      5.7406      4.8973      4.2751      3.8626    
  3.6433      3.6041      3.7397      4.0517      4.5483      5.2400      6.1322      7.2118      7.0792      8.1688    
  9.3027      10.389      11.335      12.042      12.471      12.682      12.761      12.723      12.494      11.970    
  11.120      10.035      8.8361      7.6384      6.5401      5.6062      4.8663      4.3236      3.9672      3.7832    
  3.7611      3.8967      4.1923      4.6550      5.2927      6.1062      6.0094      6.8595      7.8040      8.7839    
  9.7294      10.576      11.277      11.800      12.143      12.314      12.284      11.997      11.420      10.590    
  9.5784      8.4851      7.4104      6.4345      5.6074      4.9504      4.4653      4.1435      3.9737      3.9472    
  4.0615      4.3197      4.7285      5.2929      5.2405      5.8471      6.5656      7.3626      8.1938      9.0107    
  9.7697      10.438      10.992      11.404      11.639      11.654      11.411      10.904      10.166      9.2685    
  8.3019      7.3527      6.4872      5.7464      5.1490      4.6981      4.3876      4.2088      4.1553      4.2267    
  4.4278      4.7650      4.7622      5.1379      5.6284      6.2150      6.8723      7.5708      8.2800      8.9716    
  9.6195      10.195      10.660      10.967      11.065      10.919      10.522      9.9096      9.1456      8.3094    
  7.4753      6.7005      6.0221      5.4590      5.0167      4.6922      4.4796      4.3759      4.3839      4.5107    
  4.5630      4.7193      4.9905      5.3657      5.8291      6.3639      6.9538      7.5821      8.2307      8.8763    
  9.4867      10.017      10.412      10.617      10.593      10.332      9.8596      9.2317      8.5160      7.7783    
  7.0707      6.4289      5.8731      5.4117      5.0456      4.7735      4.5974      4.5242      4.6385      4.5809    
  4.6384      4.8066      5.0749      5.4315      5.8680      6.3783      6.9555      7.5872      8.2520      8.9154    
  9.5283      10.031      10.363      10.479      10.363      10.031      9.5283      8.9154      8.2521      7.5872    
  6.9554      6.3783      5.8680      5.4314      5.0747      4.8066      4.9905      4.7195      4.5631      4.5242    
  4.5975      4.7736      5.0457      5.4118      5.8732      6.4290      7.0708      7.7783      8.5160      9.2317    
  9.8596      10.332      10.593      10.617      10.412      10.017      9.4867      8.8764      8.2307      7.5821    
  6.9538      6.3639      5.8290      5.3656      5.6283      5.1380      4.7624      4.5109      4.3841      4.3760    
  4.4797      4.6922      5.0167      5.4590      6.0222      6.7006      7.4753      8.3094      9.1456      9.9095    
  10.522      10.919      11.065      10.967      10.660      10.195      9.6195      8.9716      8.2800      7.5708    
  6.8723      6.2149      6.5656      5.8472      5.2406      4.7653      4.4280      4.2268      4.1554      4.2089    
  4.3876      4.6981      5.1491      5.7465      6.4872      7.3527      8.3019      9.2685      10.166      10.904    
  11.411      11.654      11.639      11.404      10.992      10.438      9.7697      9.0107      8.1939      7.3627    
  7.8042      6.8596      6.0095      5.2930      4.7287      4.3198      4.0615      3.9473      3.9738      4.1435    
  4.4653      4.9504      5.6074      6.4345      7.4103      8.4851      9.5784      10.590      11.420      11.997    
  12.284      12.314      12.143      11.800      11.277      10.576      9.7294      8.7840      9.3028      8.1689    
  7.0793      6.1063      5.2929      4.6551      4.1923      3.8967      3.7612      3.7832      3.9672      4.3236    
  4.8664      5.6062      6.5400      7.6384      8.8362      10.035      11.120      11.970      12.494      12.723    
  12.761      12.682      12.471      12.042      11.335      10.389      10.945      9.7167      8.4343      7.2119    
  6.1324      5.2401      4.5482      4.0516      3.7397      3.6042      3.6432      3.8626      4.2751      4.8974    
  5.7405      6.7954      8.0173      9.3191      10.581      11.641      12.324      12.627      12.709      12.757    
  12.843      12.865      12.624      11.974      12.432      11.360      9.9999      8.5846      7.2497      6.0859    
  5.1374      4.4133      3.9042      3.5967      3.4816      3.5574      3.8316      4.3200      5.0415      6.0040    
  7.1855      8.5181      9.8875      11.116      11.929      12.220      12.151      12.041      12.155      12.521    
  12.904      12.954      13.025      12.685      11.607      10.137      8.6120      7.1910      5.9695      4.9899    
  4.2570      3.7570      3.4738      3.3974      3.5276      3.8742      4.4565      5.2935      6.3849      7.6881    
  9.1050      10.473      11.454      11.769      11.469      10.931      10.649      10.935      11.723      12.594    
  12.023      12.879      12.741      11.675      10.123      8.5168      7.0400      5.7901      4.8061      4.0878    
  3.6172      3.3761      3.3547      3.5543      3.9886      4.6799      5.6440      6.8661      8.2756      9.7371    
  10.944      11.438      11.038      10.016      8.9941      8.6275      9.2274      10.572      9.2848      11.339    
  12.601      12.636      11.576      9.9634      8.3076      6.8072      5.5591      4.5972      3.9155      3.4923    
  3.3083      3.3547      3.6363      4.1709      4.9823      6.0790      7.4253      8.9174      10.343      11.190    
  10.996      9.7462      7.9732      6.5475      6.2396      7.2944      5.4783      8.1225      10.712      12.281    
  12.412      11.329      9.6737      7.9999      6.5083      5.2914      4.3761      3.7500      3.3888      3.2734    
  3.3977      3.7707      4.4147      5.3523      6.5803      8.0372      9.5819      10.843      11.169      10.174    
  8.0560      5.6220      3.9532      3.8677      1.9333      4.1230      7.3254      10.284      11.994      12.106    
  10.957      9.2757      7.6146      6.1628      5.0038      4.1557      3.6003      3.3118      3.2729      3.4819    
  3.9528      4.7109      5.7751      7.1264      8.6756      10.223      11.202      10.924      9.1302      6.2561    
  3.3559      1.6533      5.0043      5.4780      7.3252      9.7446      11.723      12.536      12.044      10.652    
  8.9934      7.4170      6.0609      4.9887      4.2090      3.7025      3.4463      3.4268      3.6435      4.1101    
  4.8497      5.8787      7.1781      8.6651      10.171      11.250      11.314      10.142      8.1026      6.0663    
  5.1840      4.2395      4.9686      7.0529      9.5698      11.480      12.126      11.477      10.024      8.3982    
  6.8913      5.6267      4.6546      3.9740      3.5620      3.3969      3.4692      3.7836      4.3582      5.2173    
  6.3706      7.7835      9.3509      10.848      11.706      11.367      9.7345      7.3433      7.0530      4.9686    
  4.2395      5.1840      7.3433      9.7344      11.367      11.706      10.848      9.3507      7.7834      6.3706    
  5.2172      4.3581      3.7836      3.4693      3.3969      3.5619      3.9741      4.6547      5.6267      6.8913    
  8.3983      10.024      11.477      12.126      11.480      9.5699      9.7446      7.3253      5.4780      5.0044    
  6.0664      8.1025      10.142      11.314      11.250      10.171      8.6649      7.1781      5.8788      4.8497    