 running on    8 total cores
 distrk:  each k-point on    8 cores,    1 groups
 distr:  one band on    1 cores,    8 groups
 using from now: INCAR     
 vasp.5.4.4.18Apr17-6-g9f103f2a35 (build Dec 09 2018 21:25:21) complex          
  
 POSCAR found type information on POSCAR  Si
 POSCAR found :  1 types and       2 ions
 scaLAPACK will be used

 ----------------------------------------------------------------------------- 
|                                                                             |
|           W    W    AA    RRRRR   N    N  II  N    N   GGGG   !!!           |
|           W    W   A  A   R    R  NN   N  II  NN   N  G    G  !!!           |
|           W    W  A    A  R    R  N N  N  II  N N  N  G       !!!           |
|           W WW W  AAAAAA  RRRRR   N  N N  II  N  N N  G  GGG   !            |
|           WW  WW  A    A  R   R   N   NN  II  N   NN  G    G                |
|           W    W  A    A  R    R  N    N  II  N    N   GGGG   !!!           |
|                                                                             |
|      For optimal performance we recommend to set                            |
|        NCORE= 4 - approx SQRT( number of cores)                             |
|      NCORE specifies how many cores store one orbital (NPAR=cpu/NCORE).     |
|      This setting can  greatly improve the performance of VASP for DFT.     |
|      The default,   NCORE=1            might be grossly inefficient         |
|      on modern multi-core architectures or massively parallel machines.     |
|      Do your own testing !!!!                                               |
|      Unfortunately you need to use the default for GW and RPA calculations. |
|      (for HF NCORE is supported but not extensively tested yet)             |
|                                                                             |
 ----------------------------------------------------------------------------- 

 LDA part: xc-table for Pade appr. of Perdew
 POSCAR, INCAR and KPOINTS ok, starting setup
 FFT: planning ...
 WAVECAR not read
 entering main loop
       N       E                     dE             d eps       ncg     rms          rms(c)
DAV:   1    -0.212603468601E+01   -0.21260E+01   -0.25039E+03   192   0.462E+02
DAV:   2    -0.993031693445E+01   -0.78043E+01   -0.75591E+01   296   0.529E+01
DAV:   3    -0.998612068964E+01   -0.55804E-01   -0.55768E-01   216   0.533E+00
DAV:   4    -0.998622305871E+01   -0.10237E-03   -0.10237E-03   256   0.223E-01
DAV:   5    -0.998622308666E+01   -0.27950E-07   -0.28623E-07   200   0.318E-03    0.150E+00
DAV:   6    -0.998153433051E+01    0.46888E-02   -0.17203E-03   192   0.319E-01    0.937E-01
DAV:   7    -0.997766162373E+01    0.38727E-02   -0.51932E-03   192   0.561E-01    0.342E-02
DAV:   8    -0.997764294058E+01    0.18683E-04   -0.99954E-05   120   0.746E-02
   1 F= -.99776429E+01 E0= -.99705793E+01  d E =-.997764E+01
 curvature:   0.00 expect dE= 0.000E+00 dE for cont linesearch  0.000E+00
 trial: gam= 0.00000 g(F)=  0.756E-44 g(S)=  0.277E+00 ort = 0.000E+00 (trialstep = 0.100E+01)
 search vector abs. value=  0.277E+00
 bond charge predicted
       N       E                     dE             d eps       ncg     rms          rms(c)
DAV:   1    -0.103105565360E+02   -0.33289E+00   -0.63894E+00   240   0.146E+01    0.147E+00
DAV:   2    -0.102483388631E+02    0.62218E-01   -0.14147E-01   200   0.287E+00    0.829E-01
DAV:   3    -0.102178115104E+02    0.30527E-01   -0.83496E-02   224   0.155E+00    0.856E-02
DAV:   4    -0.102180151631E+02   -0.20365E-03   -0.27075E-03   200   0.419E-01
   2 F= -.10218015E+02 E0= -.10210743E+02  d E =-.240372E+00
 trial-energy change:   -0.240372  1 .order   -0.230692   -0.277115   -0.184270
 step:   1.9055(harm=  2.9847)  dis= 0.00000  next Energy=   -10.308624 (dE=-0.331E+00)
 bond charge predicted
       N       E                     dE             d eps       ncg     rms          rms(c)
DAV:   1    -0.103998410941E+02   -0.18203E+00   -0.47596E+00   264   0.123E+01    0.122E+00
DAV:   2    -0.103566377256E+02    0.43203E-01   -0.99073E-02   184   0.243E+00    0.697E-01
DAV:   3    -0.103345031922E+02    0.22135E-01   -0.60719E-02   240   0.132E+00    0.707E-02
DAV:   4    -0.103346221181E+02   -0.11893E-03   -0.17580E-03   176   0.336E-01
   3 F= -.10334622E+02 E0= -.10327181E+02  d E =-.356979E+00
 curvature:  -1.05 expect dE=-0.180E-01 dE for cont linesearch -0.106E-01
 ZBRENT: extrapolating
 opt :   2.2700  next Energy=   -10.344262 (dE=-0.367E+00)
 bond charge predicted
       N       E                     dE             d eps       ncg     rms          rms(c)
DAV:   1    -0.103486401038E+02   -0.14137E-01   -0.68381E-01   240   0.471E+00    0.428E-01
DAV:   2    -0.103436668032E+02    0.49733E-02   -0.13564E-02   208   0.898E-01    0.247E-01
DAV:   3    -0.103409831464E+02    0.26837E-02   -0.75252E-03   240   0.464E-01    0.276E-02
DAV:   4    -0.103409934354E+02   -0.10289E-04   -0.19829E-04   104   0.116E-01
   4 F= -.10340993E+02 E0= -.10329898E+02  d E =-.363350E+00
 curvature:  -0.95 expect dE=-0.727E-03 dE for cont linesearch -0.538E-03
 ZBRENT: bracketing found
 ZBRENT: interpolating
 opt :   2.2003  next Energy=   -10.341429 (dE=-0.364E+00)
 bond charge predicted
       N       E                     dE             d eps       ncg     rms          rms(c)
DAV:   1    -0.103416687446E+02   -0.68560E-03   -0.23444E-02   248   0.872E-01    0.827E-02
DAV:   2    -0.103414880625E+02    0.18068E-03   -0.45472E-04   152   0.165E-01
   5 F= -.10341488E+02 E0= -.10330909E+02  d E =-.363845E+00
 curvature:  -0.77 expect dE=-0.782E-03 dE for cont linesearch -0.219E-03
 ZBRENT: interpolating
 opt :   2.0544  next Energy=   -10.342228 (dE=-0.365E+00)
 bond charge predicted
       N       E                     dE             d eps       ncg     rms          rms(c)
DAV:   1    -0.103413148192E+02    0.35393E-03   -0.99366E-02   248   0.180E+00    0.171E-01
DAV:   2    -0.103405513562E+02    0.76346E-03   -0.19371E-03   192   0.337E-01    0.984E-02
DAV:   3    -0.103401387725E+02    0.41258E-03   -0.11362E-03   192   0.183E-01    0.106E-02
DAV:   4    -0.103401424392E+02   -0.36667E-05   -0.44319E-05    88   0.543E-02
   6 F= -.10340142E+02 E0= -.10331360E+02  d E =-.362499E+00
 curvature:  -2.61 expect dE=-0.104E-01 dE for cont linesearch -0.409E-02
 ZBRENT: interpolating
 opt :   2.1568  next Energy=   -10.341681 (dE=-0.364E+00)
 bond charge predicted
       N       E                     dE             d eps       ncg     rms          rms(c)
DAV:   1    -0.103419670339E+02   -0.18283E-02   -0.52845E-02   248   0.131E+00    0.123E-01
DAV:   2    -0.103415646763E+02    0.40236E-03   -0.10494E-03   184   0.249E-01    0.707E-02
DAV:   3    -0.103413466895E+02    0.21799E-03   -0.59063E-04   104   0.133E-01
   7 F= -.10341347E+02 E0= -.10331255E+02  d E =-.363704E+00
 curvature:  -0.12 expect dE=-0.130E-03 dE for cont linesearch -0.184E-05
 ZBRENT: interpolating
 opt :   2.1649  next Energy=   -10.341355 (dE=-0.364E+00)
 bond charge predicted
       N       E                     dE             d eps       ncg     rms          rms(c)
DAV:   1    -0.103413771895E+02    0.18749E-03   -0.38978E-04   152   0.124E-01    0.105E-02
DAV:   2    -0.103413765433E+02    0.64622E-06   -0.79871E-06    88   0.229E-02
   8 F= -.10341377E+02 E0= -.10331191E+02  d E =-.363734E+00
 curvature:  -0.55 expect dE=-0.494E-03 dE for cont linesearch -0.764E-05
 ZBRENT: bisectioning
 opt :   2.1826  next Energy=   -10.341410 (dE=-0.364E+00)
 bond charge predicted
       N       E                     dE             d eps       ncg     rms          rms(c)
DAV:   1    -0.103414199984E+02   -0.42809E-04   -0.14942E-03   240   0.221E-01    0.206E-02
DAV:   2    -0.103414093875E+02    0.10611E-04   -0.28527E-05    96   0.416E-02
   9 F= -.10341409E+02 E0= -.10331025E+02  d E =-.363766E+00
 curvature:  -2.40 expect dE=-0.161E-02 dE for cont linesearch -0.267E-05
 ZBRENT: interpolating
 opt :   2.1885  next Energy=   -10.341411 (dE=-0.364E+00)
 bond charge predicted
       N       E                     dE             d eps       ncg     rms          rms(c)
DAV:   1    -0.103414054030E+02    0.14595E-04   -0.11214E-04   104   0.628E-02    0.675E-03
DAV:   2    -0.103414046498E+02    0.75319E-06   -0.45562E-06    88   0.164E-02
  10 F= -.10341405E+02 E0= -.10330955E+02  d E =-.363762E+00
 curvature:  -1.71 expect dE=-0.112E-02 dE for cont linesearch -0.102E-04
 ZBRENT: interpolating
 opt :   2.1844  next Energy=   -10.341410 (dE=-0.364E+00)
 bond charge predicted
       N       E                     dE             d eps       ncg     rms          rms(c)
DAV:   1    -0.103414054228E+02   -0.19842E-07   -0.98532E-05    88   0.569E-02    0.463E-03
DAV:   2    -0.103414049066E+02    0.51620E-06   -0.33352E-06    88   0.148E-02
  11 F= -.10341405E+02 E0= -.10330998E+02  d E =-.363762E+00
 curvature:  -0.08 expect dE=-0.596E-04 dE for cont linesearch -0.545E-06
 ZBRENT: interpolating
 opt :   2.1831  next Energy=   -10.341410 (dE=-0.364E+00)
 bond charge predicted
       N       E                     dE             d eps       ncg     rms          rms(c)
DAV:   1    -0.103414041940E+02    0.12289E-05   -0.53569E-06    88   0.132E-02    0.145E-03
DAV:   2    -0.103414041399E+02    0.54073E-07   -0.26987E-07    88   0.383E-03
  12 F= -.10341404E+02 E0= -.10331012E+02  d E =-.363761E+00
 curvature:  -0.02 expect dE=-0.159E-04 dE for cont linesearch -0.744E-07
 ZBRENT: interpolating
 opt :   2.1828  next Energy=   -10.341409 (dE=-0.364E+00)
 bond charge predicted
       N       E                     dE             d eps       ncg     rms          rms(c)
DAV:   1    -0.103414039963E+02    0.19766E-06   -0.41610E-07    88   0.374E-03    0.438E-04
DAV:   2    -0.103414039898E+02    0.65023E-08   -0.33037E-08    88   0.116E-03
  13 F= -.10341404E+02 E0= -.10331015E+02  d E =-.363761E+00
 curvature:  -0.02 expect dE=-0.113E-04 dE for cont linesearch -0.431E-07
 ZBRENT: interpolating
 opt :   2.1827  next Energy=   -10.341409 (dE=-0.364E+00)
 bond charge predicted
       N       E                     dE             d eps       ncg     rms          rms(c)
DAV:   1    -0.103414039426E+02    0.53706E-07   -0.59882E-08    88   0.141E-03    0.179E-04
DAV:   2    -0.103414039408E+02    0.18436E-08   -0.51268E-09    88   0.425E-04
  14 F= -.10341404E+02 E0= -.10331017E+02  d E =-.363761E+00
 curvature:  -0.01 expect dE=-0.545E-05 dE for cont linesearch -0.195E-07
 ZBRENT: interpolating
 opt :   2.1826  next Energy=   -10.341409 (dE=-0.364E+00)
 bond charge predicted
       N       E                     dE             d eps       ncg     rms          rms(c)
DAV:   1    -0.103414039219E+02    0.20716E-07   -0.91970E-09    88   0.545E-04    0.104E-04
DAV:   2    -0.103414039212E+02    0.66174E-09   -0.83960E-10    88   0.161E-04
  15 F= -.10341404E+02 E0= -.10331017E+02  d E =-.363761E+00
 curvature:  -0.00 expect dE=-0.230E-05 dE for cont linesearch -0.804E-08
 ZBRENT: interpolating
 opt :   2.1826  next Energy=   -10.341409 (dE=-0.364E+00)
 writing wavefunctions
