unknown system                          
   1.00000000000000     
     0.000000    2.746980    2.746980
     2.746980    0.000000    2.746980
     2.746980    2.746980    0.000000
   Si
     2
Direct
  0.500000  0.500000  0.500000
  0.750000  0.750000  0.750000
 
   36   36   36
 0.88078     0.89713     0.94723      1.0341      1.1624      1.3380      1.5673      1.8567      2.2116      2.6351    
  3.1261      3.6762      4.2681      4.8739      5.4567      5.9737      6.3815      6.6430      6.7331      6.6430    
  6.3814      5.9737      5.4568      4.8740      4.2681      3.6763      3.1261      2.6351      2.2115      1.8566    
  1.5673      1.3380      1.1624      1.0341     0.94723     0.89713     0.89713     0.92564     0.98441      1.0767    
  1.2070      1.3805      1.6022      1.8768      2.2074      2.5940      3.0322      3.5110      4.0115      4.5071    
  4.9649      5.3495      5.6276      5.7737      5.7737      5.6276      5.3495      4.9649      4.5071      4.0115    
  3.5110      3.0322      2.5940      2.2074      1.8768      1.6022      1.3805      1.2070      1.0767     0.98441    
 0.92564     0.89713     0.94723     0.98441      1.0488      1.1436      1.2730      1.4412      1.6521      1.9087    
  2.2116      2.5587      2.9429      3.3517      3.7663      4.1621      4.5113      4.7857      4.9613      5.0218    
  4.9613      4.7857      4.5113      4.1622      3.7663      3.3517      2.9429      2.5586      2.2116      1.9086    
  1.6521      1.4412      1.2730      1.1436      1.0488     0.98440     0.94722     0.93508      1.0341      1.0767    
  1.1436      1.2380      1.3633      1.5229      1.7197      1.9548      2.2273      2.5329      2.8633      3.2053    
  3.5412      3.8495      4.1072      4.2931      4.3905      4.3905      4.2931      4.1072      3.8495      3.5412    
  3.2053      2.8632      2.5328      2.2272      1.9548      1.7197      1.5230      1.3633      1.2380      1.1436    
  1.0767      1.0341      1.0134      1.0134      1.1624      1.2070      1.2730      1.3633      1.4808      1.6282    
  1.8070      2.0172      2.2565      2.5193      2.7969      3.0763      3.3416      3.5747      3.7574      3.8740    
  3.9142      3.8740      3.7574      3.5747      3.3416      3.0763      2.7968      2.5193      2.2564      2.0172    
  1.8071      1.6282      1.4808      1.3633      1.2730      1.2070      1.1624      1.1368      1.1284      1.1368    
  1.3380      1.3805      1.4412      1.5229      1.6282      1.7588      1.9154      2.0969      2.3002      2.5193    
  2.7455      2.9670      3.1699      3.3394      3.4616      3.5257      3.5257      3.4616      3.3394      3.1699    
  2.9670      2.7455      2.5193      2.3002      2.0969      1.9154      1.7588      1.6282      1.5230      1.4412    
  1.3805      1.3380      1.3114      1.2986      1.2986      1.3114      1.5673      1.6022      1.6521      1.7197    
  1.8070      1.9154      2.0447      2.1935      2.3582      2.5329      2.7095      2.8777      3.0260      3.1425    
  3.2171      3.2428      3.2171      3.1425      3.0260      2.8777      2.7095      2.5329      2.3582      2.1935    
  2.0448      1.9154      1.8071      1.7197      1.6521      1.6022      1.5673      1.5448      1.5324      1.5284    
  1.5324      1.5448      1.8567      1.8768      1.9087      1.9548      2.0172      2.0969      2.1935      2.3053    
  2.4288      2.5587      2.6877      2.8074      2.9083      2.9815      3.0201      3.0201      2.9815      2.9083    
  2.8074      2.6878      2.5587      2.4288      2.3053      2.1935      2.0969      2.0172      1.9548      1.9086    
  1.8768      1.8566      1.8451      1.8394      1.8372      1.8372      1.8394      1.8451      2.2116      2.2074    
  2.2116      2.2273      2.2565      2.3002      2.3582      2.4288      2.5090      2.5940      2.6780      2.7540    
  2.8148      2.8542      2.8679      2.8542      2.8148      2.7540      2.6780      2.5940      2.5090      2.4288    
  2.3582      2.3002      2.2564      2.2272      2.2116      2.2074      2.2115      2.2204      2.2303      2.2378    
  2.2405      2.2378      2.2303      2.2204      2.6351      2.5940      2.5587      2.5329      2.5193      2.5193    
  2.5329      2.5587      2.5940      2.6351      2.6772      2.7150      2.7437      2.7591      2.7591      2.7437    
  2.7151      2.6772      2.6351      2.5940      2.5586      2.5328      2.5193      2.5193      2.5328      2.5586    
  2.5940      2.6351      2.6772      2.7151      2.7437      2.7591      2.7591      2.7437      2.7150      2.6772    
  3.1261      3.0322      2.9429      2.8633      2.7969      2.7455      2.7095      2.6877      2.6780      2.6772    
  2.6818      2.6883      2.6935      2.6955      2.6935      2.6883      2.6818      2.6772      2.6780      2.6877    
  2.7094      2.7454      2.7968      2.8633      2.9429      3.0322      3.1261      3.2181      3.3007      3.3666    
  3.4090      3.4237      3.4090      3.3665      3.3007      3.2181      3.6762      3.5110      3.3517      3.2053    
  3.0763      2.9670      2.8777      2.8074      2.7540      2.7150      2.6883      2.6716      2.6637      2.6637    
  2.6716      2.6883      2.7150      2.7539      2.8073      2.8776      2.9669      3.0763      3.2053      3.3517    
  3.5110      3.6763      3.8386      3.9876      4.1121      4.2019      4.2490      4.2490      4.2019      4.1121    
  3.9875      3.8386      4.2681      4.0115      3.7663      3.5412      3.3416      3.1699      3.0260      2.9083    
  2.8148      2.7437      2.6935      2.6637      2.6537      2.6637      2.6935      2.7436      2.8147      2.9082    
  3.0259      3.1698      3.3416      3.5412      3.7663      4.0115      4.2681      4.5241      4.7650      4.9750    
  5.1385      5.2426      5.2784      5.2426      5.1386      4.9750      4.7650      4.5241      4.8739      4.5071    
  4.1621      3.8495      3.5747      3.3394      3.1425      2.9815      2.8542      2.7591      2.6955      2.6637    
  2.6637      2.6955      2.7590      2.8541      2.9814      3.1424      3.3393      3.5747      3.8495      4.1622    
  4.5072      4.8740      5.2473      5.6080      5.9340      6.2032      6.3956      6.4960      6.4960      6.3957    
  6.2033      5.9340      5.6080      5.2473      5.4567      4.9649      4.5113      4.1072      3.7574      3.4616    
  3.2171      3.0201      2.8679      2.7591      2.6935      2.6716      2.6935      2.7590      2.8678      3.0200    
  3.2170      3.4616      3.7574      4.1073      4.5114      4.9649      5.4567      5.9685      6.4758      6.9498    
  7.3600      7.6776      7.8788      7.9478      7.8788      7.6776      7.3600      6.9498      6.4758      5.9685    
  5.9737      5.3495      4.7857      4.2931      3.8740      3.5257      3.2428      3.0201      2.8542      2.7437    
  2.6883      2.6883      2.7436      2.8541      3.0200      3.2426      3.5256      3.8740      4.2931      4.7858    
  5.3495      5.9736      6.6382      7.3141      7.9652      8.5519      9.0348      9.3791      9.5583      9.5583    
  9.3791      9.0348      8.5519      7.9653      7.3141      6.6383      6.3815      5.6276      4.9613      4.3905    
  3.9142      3.5257      3.2171      2.9815      2.8148      2.7151      2.6818      2.7150      2.8147      2.9814    
  3.2170      3.5256      3.9142      4.3906      4.9614      5.6276      6.3814      7.2028      8.0598      8.9100    
  9.7044      10.392      10.925      11.263      11.379      11.263      10.925      10.392      9.7044      8.9100    
  8.0599      7.2029      6.6430      5.7737      5.0218      4.3905      3.8740      3.4616      3.1425      2.9083    
  2.7540      2.6772      2.6772      2.7539      2.9082      3.1424      3.4616      3.8740      4.3906      5.0218    
  5.7737      6.6429      7.6123      8.6494      9.7081      10.732      11.658      12.425      12.975      13.262    
  13.262      12.975      12.425      11.658      10.732      9.7081      8.6495      7.6123      6.7331      5.7737    
  4.9613      4.2931      3.7574      3.3394      3.0260      2.8074      2.6780      2.6351      2.6780      2.8073    
  3.0259      3.3393      3.7574      4.2931      4.9614      5.7737      6.7330      7.8276      9.0281      10.288    
  11.546      12.732      13.771      14.584      15.104      15.282      15.104      14.584      13.770      12.732    
  11.546      10.288      9.0282      7.8277      6.6430      5.6276      4.7857      4.1072      3.5747      3.1699    
  2.8777      2.6878      2.5940      2.5940      2.6877      2.8776      3.1698      3.5747      4.1073      4.7858    
  5.6276      6.6429      7.8276      9.1588      10.593      12.071      13.517      14.846      15.960      16.763    
  17.182      17.182      16.762      15.960      14.845      13.517      12.071      10.593      9.1588      7.8277    
  6.3814      5.3495      4.5113      3.8495      3.3416      2.9670      2.7095      2.5587      2.5090      2.5586    
  2.7094      2.9669      3.3416      3.8495      4.5114      5.3495      6.3814      7.6123      9.0281      10.593    
  12.252      13.931      15.542      16.967      18.083      18.794      19.038      18.794      18.083      16.967    
  15.542      13.931      12.252      10.593      9.0281      7.6123      5.9737      4.9649      4.1622      3.5412    
  3.0763      2.7455      2.5329      2.4288      2.4288      2.5328      2.7454      3.0763      3.5412      4.1622    
  4.9649      5.9736      7.2028      8.6494      10.288      12.071      13.931      15.784      17.499      18.935    
  19.969      20.512      20.512      19.969      18.935      17.499      15.783      13.931      12.071      10.288    
  8.6494      7.2029      5.4568      4.5071      3.7663      3.2053      2.7968      2.5193      2.3582      2.3053    
  2.3582      2.5193      2.7968      3.2053      3.7663      4.5072      5.4567      6.6382      8.0598      9.7081    
  11.546      13.517      15.542      17.499      19.230      20.590      21.463      21.763      21.463      20.590    
  19.230      17.499      15.542      13.517      11.546      9.7080      8.0598      6.6382      4.8740      4.0115    
  3.3517      2.8632      2.5193      2.3002      2.1935      2.1935      2.3002      2.5193      2.8633      3.3517    
  4.0115      4.8740      5.9685      7.3141      8.9100      10.732      12.732      14.846      16.967      18.935    
  20.590      21.792      22.425      22.425      21.792      20.590      18.935      16.967      14.845      12.732    
  10.732      8.9099      7.3141      5.9686      4.2681      3.5110      2.9429      2.5328      2.2564      2.0969    
  2.0448      2.0969      2.2564      2.5328      2.9429      3.5110      4.2681      5.2473      6.4758      7.9652    
  9.7044      11.658      13.771      15.960      18.083      19.969      21.463      22.425      22.758      22.425    
  21.463      19.969      18.083      15.960      13.770      11.658      9.7044      7.9652      6.4759      5.2474    
  3.6763      3.0322      2.5586      2.2272      2.0172      1.9154      1.9154      2.0172      2.2272      2.5586    
  3.0322      3.6763      4.5241      5.6080      6.9498      8.5519      10.392      12.425      14.584      16.763    
  18.794      20.512      21.763      22.425      22.425      21.763      20.512      18.794      16.762      14.584    
  12.425      10.392      8.5519      6.9498      5.6080      4.5242      3.1261      2.5940      2.2116      1.9548    
  1.8071      1.7588      1.8071      1.9548      2.2116      2.5940      3.1261      3.8386      4.7650      5.9340    
  7.3600      9.0348      10.925      12.975      15.104      17.182      19.038      20.512      21.463      21.792    
  21.463      20.512      19.038      17.182      15.104      12.975      10.925      9.0348      7.3600      5.9341    
  4.7651      3.8387      2.6351      2.2074      1.9086      1.7197      1.6282      1.6282      1.7197      1.9086    
  2.2074      2.6351      3.2181      3.9876      4.9750      6.2032      7.6776      9.3791      11.263      13.262    
  15.282      17.182      18.794      19.969      20.590      20.590      19.969      18.794      17.182      15.283    
  13.262      11.263      9.3790      7.6776      6.2033      4.9751      3.9877      3.2181      2.2115      1.8768    
  1.6521      1.5230      1.4808      1.5230      1.6521      1.8768      2.2115      2.6772      3.3007      4.1121    
  5.1385      6.3956      7.8788      9.5583      11.379      13.262      15.104      16.762      18.083      18.935    
  19.230      18.935      18.083      16.762      15.104      13.262      11.379      9.5583      7.8788      6.3957    
  5.1387      4.1122      3.3008      2.6772      1.8566      1.6022      1.4412      1.3633      1.3633      1.4412    
  1.6022      1.8566      2.2204      2.7151      3.3666      4.2019      5.2426      6.4960      7.9478      9.5583    
  11.263      12.975      14.584      15.960      16.967      17.499      17.499      16.967      15.960      14.584    
  12.975      11.263      9.5583      7.9478      6.4961      5.2427      4.2020      3.3666      2.7151      2.2204    
  1.5673      1.3805      1.2730      1.2380      1.2730      1.3805      1.5673      1.8451      2.2303      2.7437    
  3.4090      4.2490      5.2784      6.4960      7.8788      9.3791      10.925      12.425      13.770      14.845    
  15.542      15.783      15.542      14.845      13.770      12.425      10.925      9.3790      7.8788      6.4961    
  5.2785      4.2491      3.4091      2.7437      2.2303      1.8451      1.3380      1.2070      1.1436      1.1436    
  1.2070      1.3380      1.5448      1.8394      2.2378      2.7591      3.4237      4.2490      5.2426      6.3957    
  7.6776      9.0348      10.392      11.658      12.732      13.517      13.931      13.931      13.517      12.732    
  11.658      10.392      9.0348      7.6776      6.3957      5.2427      4.2491      3.4238      2.7591      2.2377    
  1.8394      1.5448      1.1624      1.0767      1.0488      1.0767      1.1624      1.3114      1.5324      1.8372    
  2.2405      2.7591      3.4090      4.2019      5.1386      6.2033      7.3600      8.5519      9.7044      10.732    
  11.546      12.071      12.252      12.071      11.546      10.732      9.7044      8.5519      7.3600      6.2033    
  5.1387      4.2020      3.4091      2.7591      2.2405      1.8371      1.5323      1.3114      1.0341     0.98441    
 0.98440      1.0341      1.1368      1.2986      1.5284      1.8372      2.2378      2.7437      3.3665      4.1121    
  4.9750      5.9340      6.9498      7.9653      8.9100      9.7081      10.288      10.593      10.593      10.288    
  9.7080      8.9099      7.9652      6.9498      5.9341      4.9751      4.1122      3.3666      2.7437      2.2377    
  1.8371      1.5284      1.2986      1.1368     0.94723     0.92564     0.94722      1.0134      1.1284      1.2986    
  1.5324      1.8394      2.2303      2.7150      3.3007      3.9875      4.7650      5.6080      6.4758      7.3141    
  8.0599      8.6495      9.0282      9.1588      9.0281      8.6494      8.0598      7.3141      6.4759      5.6080    
  4.7651      3.9877      3.3008      2.7151      2.2303      1.8394      1.5323      1.2986      1.1284      1.0134    
 0.89713     0.89713     0.93508      1.0134      1.1368      1.3114      1.5448      1.8451      2.2204      2.6772    
  3.2181      3.8386      4.5241      5.2473      5.9685      6.6383      7.2029      7.6123      7.8277      7.8277    
  7.6123      7.2029      6.6382      5.9686      5.2474      4.5242      3.8387      3.2181      2.6772      2.2204    
  1.8451      1.5448      1.3114      1.1368      1.0134     0.93509     0.89713     0.92564     0.98441      1.0767    
  1.2070      1.3805      1.6022      1.8768      2.2074      2.5940      3.0322      3.5110      4.0115      4.5071    
  4.9649      5.3495      5.6276      5.7737      5.7737      5.6276      5.3495      4.9649      4.5071      4.0115    
  3.5110      3.0322      2.5940      2.2074      1.8768      1.6022      1.3805      1.2070      1.0767     0.98441    
 0.92564     0.89713     0.92564     0.96221      1.0254      1.1186      1.2455      1.4105      1.6176      1.8696    
  2.1675      2.5090      2.8872      3.2897      3.6977      4.0870      4.4303      4.6999      4.8723      4.9317    
  4.8723      4.6999      4.4303      4.0871      3.6977      3.2897      2.8872      2.5089      2.1674      1.8695    
  1.6175      1.4105      1.2455      1.1186      1.0254     0.96220     0.92563     0.91369     0.98441      1.0254    
  1.0897      1.1803      1.3005      1.4539      1.6432      1.8699      2.1331      2.4288      2.7487      3.0798    
  3.4046      3.7024      3.9510      4.1301      4.2239      4.2239      4.1301      3.9510      3.7024      3.4046    
  3.0798      2.7487      2.4288      2.1331      1.8698      1.6432      1.4539      1.3005      1.1803      1.0898    
  1.0254     0.98440     0.96445     0.96446      1.0767      1.1186      1.1803      1.2647      1.3748      1.5132    
  1.6818      1.8808      2.1080      2.3582      2.6224      2.8883      3.1402      3.3610      3.5337      3.6439    
  3.6818      3.6439      3.5337      3.3610      3.1402      2.8882      2.6224      2.3581      2.1080      1.8808    
  1.6818      1.5132      1.3748      1.2647      1.1803      1.1186      1.0767      1.0526      1.0447      1.0526    
  1.2070      1.2455      1.3005      1.3748      1.4709      1.5909      1.7357      1.9047      2.0948      2.3002    
  2.5121      2.7193      2.9086      3.0663      3.1796      3.2390      3.2390      3.1796      3.0663      2.9086    
  2.7193      2.5121      2.3002      2.0948      1.9047      1.7357      1.5909      1.4709      1.3748      1.3005    
  1.2455      1.2070      1.1828      1.1712      1.1712      1.1828      1.3805      1.4105      1.4539      1.5132    
  1.5909      1.6884      1.8062      1.9428      2.0948      2.2565      2.4197      2.5749      2.7112      2.8179    
  2.8861      2.9095      2.8861      2.8179      2.7112      2.5749      2.4197      2.2564      2.0948      1.9428    
  1.8062      1.6884      1.5909      1.5132      1.4539      1.4105      1.3805      1.3612      1.3505      1.3472    
  1.3505      1.3612      1.6022      1.6176      1.6432      1.6818      1.7357      1.8062      1.8931      1.9949    
  2.1080      2.2273      2.3457      2.4552      2.5473      2.6139      2.6489      2.6489      2.6139      2.5473    
  2.4552      2.3457      2.2273      2.1080      1.9949      1.8931      1.8062      1.7357      1.6818      1.6432    
  1.6176      1.6022      1.5941      1.5905      1.5892      1.5892      1.5905      1.5941      1.8768      1.8696    
  1.8699      1.8808      1.9047      1.9428      1.9949      2.0594      2.1331      2.2116      2.2892      2.3592    
  2.4151      2.4513      2.4638      2.4513      2.4151      2.3592      2.2892      2.2116      2.1331      2.0594    
  1.9949      1.9428      1.9047      1.8808      1.8698      1.8696      1.8768      1.8879      1.8992      1.9075    
  1.9105      1.9075      1.8992      1.8880      2.2074      2.1675      2.1331      2.1080      2.0948      2.0948    
  2.1080      2.1331      2.1675      2.2074      2.2482      2.2849      2.3126      2.3275      2.3275      2.3126    
  2.2849      2.2482      2.2074      2.1675      2.1331      2.1080      2.0948      2.0948      2.1080      2.1331    
  2.1675      2.2074      2.2482      2.2849      2.3126      2.3275      2.3275      2.3126      2.2849      2.2482    
  2.5940      2.5090      2.4288      2.3582      2.3002      2.2565      2.2273      2.2116      2.2074      2.2116    
  2.2204      2.2303      2.2378      2.2405      2.2378      2.2303      2.2204      2.2115      2.2074      2.2116    
  2.2272      2.2564      2.3002      2.3582      2.4288      2.5090      2.5940      2.6780      2.7540      2.8148    
  2.8542      2.8679      2.8542      2.8148      2.7540      2.6780      3.0322      2.8872      2.7487      2.6224    
  2.5121      2.4197      2.3457      2.2892      2.2482      2.2204      2.2030      2.1932      2.1888      2.1888    
  2.1932      2.2030      2.2204      2.2482      2.2891      2.3457      2.4197      2.5121      2.6224      2.7487    
  2.8872      3.0322      3.1760      3.3090      3.4211      3.5025      3.5454      3.5454      3.5025      3.4211    
  3.3090      3.1760      3.5110      3.2897      3.0798      2.8883      2.7193      2.5749      2.4552      2.3592    
  2.2849      2.2303      2.1932      2.1717      2.1647      2.1717      2.1931      2.2303      2.2849      2.3591    
  2.4552      2.5749      2.7193      2.8883      3.0798      3.2897      3.5110      3.7338      3.9457      4.1322    
  4.2788      4.3727      4.4050      4.3727      4.2788      4.1322      3.9457      3.7338      4.0115      3.6977    
  3.4046      3.1402      2.9086      2.7112      2.5473      2.4151      2.3126      2.2378      2.1888      2.1647    
  2.1647      2.1888      2.2377      2.3126      2.4150      2.5472      2.7112      2.9086      3.1403      3.4047    
  3.6977      4.0115      4.3341      4.6492      4.9376      5.1785      5.3522      5.4433      5.4433      5.3522    
  5.1785      4.9376      4.6492      4.3340      4.5071      4.0870      3.7024      3.3610      3.0663      2.8179    
  2.6139      2.4513      2.3275      2.2405      2.1888      2.1717      2.1888      2.2405      2.3275      2.4512    
  2.6138      2.8179      3.0663      3.3611      3.7024      4.0871      4.5071      4.9488      5.3922      5.8124    
  6.1810      6.4698      6.6543      6.7178      6.6543      6.4698      6.1810      5.8124      5.3922      4.9487    
  4.9649      4.4303      3.9510      3.5337      3.1796      2.8861      2.6489      2.4638      2.3275      2.2378    
  2.1932      2.1931      2.2377      2.3275      2.4637      2.6488      2.8861      3.1797      3.5338      3.9510    
  4.4303      4.9649      5.5404      6.1340      6.7149      7.2465      7.6901      8.0097      8.1773      8.1773    
  8.0097      7.6901      7.2465      6.7149      6.1340      5.5404      5.3495      4.6999      4.1301      3.6439    
  3.2390      2.9095      2.6489      2.4513      2.3126      2.2303      2.2030      2.2303      2.3126      2.4512    
  2.6488      2.9095      3.2390      3.6440      4.1301      4.6999      5.3495      6.0655      6.8238      7.5887    
  8.3155      8.9544      9.4554      9.7756      9.8858      9.7756      9.4554      8.9544      8.3155      7.5887    
  6.8237      6.0655      5.6276      4.8723      4.2239      3.6818      3.2390      2.8861      2.6139      2.4151    
  2.2849      2.2204      2.2204      2.2849      2.4150      2.6138      2.8861      3.2390      3.6818      4.2239    
  4.8723      5.6276      6.4800      7.4060      8.3677      9.3138      10.183      10.912      11.438      11.714    
  11.714      11.438      10.912      10.183      9.3137      8.3677      7.4060      6.4800      5.7737      4.9317    
  4.2239      3.6439      3.1796      2.8179      2.5473      2.3592      2.2482      2.2115      2.2482      2.3591    
  2.5472      2.8179      3.1797      3.6440      4.2239      4.9317      5.7737      6.7459      7.8286      8.9848    
  10.160      11.284      12.278      13.063      13.567      13.741      13.567      13.063      12.278      11.283    
  10.159      8.9847      7.8286      6.7459      5.7737      4.8723      4.1301      3.5337      3.0663      2.7112    
  2.4552      2.2892      2.2074      2.2074      2.2891      2.4552      2.7112      3.0663      3.5338      4.1301    
  4.8723      5.7737      6.8375      8.0511      9.3817      10.775      12.159      13.442      14.528      15.319    
  15.737      15.736      15.319      14.528      13.442      12.159      10.775      9.3816      8.0510      6.8375    
  5.6276      4.6999      3.9510      3.3610      2.9086      2.5749      2.3457      2.2116      2.1675      2.2116    
  2.3457      2.5749      2.9086      3.3611      3.9510      4.6999      5.6276      6.7459      8.0511      9.5186    
  11.100      12.724      14.295      15.702      16.826      17.554      17.807      17.554      16.826      15.702    
  14.295      12.723      11.100      9.5185      8.0510      6.7459      5.3495      4.4303      3.7024      3.1402    
  2.7193      2.4197      2.2273      2.1331      2.1331      2.2272      2.4197      2.7193      3.1403      3.7024    
  4.4303      5.3495      6.4800      7.8286      9.3817      11.100      12.919      14.746      16.465      17.939    
  19.023      19.597      19.597      19.023      17.939      16.465      14.746      12.919      11.100      9.3816    
  7.8286      6.4800      4.9649      4.0871      3.4046      2.8882      2.5121      2.2564      2.1080      2.0594    
  2.1080      2.2564      2.5121      2.8883      3.4047      4.0871      4.9649      6.0655      7.4060      8.9848    
  10.775      12.724      14.746      16.730      18.531      19.979      20.920      21.246      20.920      19.979    
  18.531      16.730      14.746      12.723      10.775      8.9847      7.4060      6.0655      4.5071      3.6977    
  3.0798      2.6224      2.3002      2.0948      1.9949      1.9949      2.0948      2.3002      2.6224      3.0798    
  3.6977      4.5071      5.5404      6.8238      8.3677      10.160      12.159      14.295      16.465      18.531    
  20.312      21.623      22.321      22.321      21.624      20.312      18.531      16.465      14.295      12.159    
  10.159      8.3676      6.8237      5.5405      4.0115      3.2897      2.7487      2.3581      2.0948      1.9428    
  1.8931      1.9428      2.0948      2.3582      2.7487      3.2897      4.0115      4.9488      6.1340      7.5887    
  9.3138      11.284      13.442      15.702      17.939      19.979      21.623      22.694      23.066      22.694    
  21.624      19.979      17.939      15.702      13.442      11.283      9.3137      7.5887      6.1340      4.9488    
  3.5110      2.8872      2.4288      2.1080      1.9047      1.8062      1.8062      1.9047      2.1080      2.4288    
  2.8872      3.5110      4.3341      5.3922      6.7149      8.3155      10.183      12.278      14.528      16.826    
  19.023      20.920      22.321      23.066      23.066      22.321      20.920      19.023      16.826      14.528    
  12.278      10.183      8.3155      6.7149      5.3923      4.3341      3.0322      2.5089      2.1331      1.8808    
  1.7357      1.6884      1.7357      1.8808      2.1331      2.5090      3.0322      3.7338      4.6492      5.8124    
  7.2465      8.9544      10.912      13.063      15.319      17.554      19.597      21.246      22.321      22.694    
  22.321      21.246      19.597      17.554      15.319      13.063      10.912      8.9544      7.2465      5.8125    
  4.6493      3.7339      2.5940      2.1674      1.8698      1.6818      1.5909      1.5909      1.6818      1.8698    
  2.1675      2.5940      3.1760      3.9457      4.9376      6.1810      7.6901      9.4554      11.438      13.567    
  15.737      17.807      19.597      20.920      21.624      21.624      20.920      19.597      17.807      15.737    
  13.567      11.438      9.4554      7.6902      6.1811      4.9378      3.9457      3.1760      2.2074      1.8695    
  1.6432      1.5132      1.4709      1.5132      1.6432      1.8696      2.2074      2.6780      3.3090      4.1322    
  5.1785      6.4698      8.0097      9.7756      11.714      13.741      15.736      17.554      19.023      19.979    
  20.312      19.979      19.023      17.554      15.737      13.741      11.714      9.7756      8.0098      6.4700    
  5.1786      4.1323      3.3090      2.6780      1.8768      1.6175      1.4539      1.3748      1.3748      1.4539    
  1.6176      1.8768      2.2482      2.7540      3.4211      4.2788      5.3522      6.6543      8.1773      9.8858    
  11.714      13.567      15.319      16.826      17.939      18.531      18.531      17.939      16.826      15.319    
  13.567      11.714      9.8858      8.1773      6.6544      5.3523      4.2789      3.4212      2.7539      2.2482    
  1.6022      1.4105      1.3005      1.2647      1.3005      1.4105      1.6022      1.8879      2.2849      2.8148    
  3.5025      4.3727      5.4433      6.7178      8.1773      9.7756      11.438      13.063      14.528      15.702    
  16.465      16.730      16.465      15.702      14.528      13.063      11.438      9.7756      8.1773      6.7179    
  5.4435      4.3728      3.5025      2.8148      2.2849      1.8879      1.3805      1.2455      1.1803      1.1803    
  1.2455      1.3805      1.5941      1.8992      2.3126      2.8542      3.5454      4.4050      5.4433      6.6543    
  8.0097      9.4554      10.912      12.278      13.442      14.295      14.746      14.746      14.295      13.442    
  12.278      10.912      9.4554      8.0098      6.6544      5.4435      4.4051      3.5454      2.8542      2.3126    
  1.8992      1.5941      1.2070      1.1186      1.0898      1.1186      1.2070      1.3612      1.5905      1.9075    
  2.3275      2.8679      3.5454      4.3727      5.3522      6.4698      7.6901      8.9544      10.183      11.283    
  12.159      12.723      12.919      12.723      12.159      11.283      10.183      8.9544      7.6902      6.4700    
  5.3523      4.3728      3.5454      2.8678      2.3275      1.9074      1.5904      1.3612      1.0767      1.0254    