    2    2   15    1
  0.2001288E+02  0.3839590E-09  0.3839590E-09  0.3839590E-09  0.5000000E-15
  1.000000000000000E-004
  CAR 
 unknown system                          
      8     35      8
 
  0.0000000E+00  0.0000000E+00  0.0000000E+00  0.1371742E-02
    1       -6.198217   1.000000
    2        5.617727   0.980953
    3        5.617730   0.980952
    4        5.617730   0.980952
    5        8.174864   0.000000
    6        8.174868   0.000000
    7        8.174868   0.000000
    8        8.751627   0.000000
 
  0.1111111E+00  0.2174102E-18  0.2072965E-17  0.1097394E-01
    1       -6.039612   1.000000
    2        4.278569   1.000000
    3        5.385482   0.999899
    4        5.385484   0.999899
    5        8.108042   0.000000
    6        8.517811   0.000000
    7        8.517813   0.000000
    8        9.909842   0.000000
 
  0.2222222E+00 -0.4325414E-18  0.5013291E-17  0.1097394E-01
    1       -5.573820   1.000000
    2        2.228529   1.000000
    3        4.968422   1.000000
    4        4.968424   1.000000
    5        7.683590   0.000000
    6        9.042449   0.000000
    7        9.042450   0.000000
    8       11.891563   0.000000
 
  0.3333333E+00  0.6723763E-17  0.1473614E-18  0.1097394E-01
    1       -4.848101   1.000000
    2        0.347459   1.000000
    3        4.634631   1.000000
    4        4.634633   1.000000
    5        7.311262   0.000000
    6        9.123000   0.000000
    7        9.123005   0.000000
    8       13.403154   0.000000
 
  0.4444444E+00 -0.8650829E-18  0.1002658E-16  0.1097394E-01
    1       -4.076897   1.000000
    2       -1.019193   1.000000
    3        4.460525   1.000000
    4        4.460527   1.000000
    5        7.111154   0.000000
    6        8.993034   0.000000
    7        8.993040   0.000000
    8       13.358857   0.000000
 
  0.1111111E+00  0.1111111E+00  0.5723364E-17  0.8230453E-02
    1       -5.986284   1.000000
    2        4.488956   1.000000
    3        4.957006   1.000000
    4        4.957008   1.000000
    5        7.730330   0.000000
    6        9.096625   0.000000
    7        9.096628   0.000000
    8        9.723110   0.000000
 
  0.2222222E+00  0.1111111E+00  0.7521076E-17  0.3292181E-01
    1       -5.620851   1.000000
    2        2.833170   1.000000
    3        4.491996   1.000000
    4        4.617600   1.000000
    5        7.816002   0.000000
    6        9.082341   0.000000
    7        9.800751   0.000000
    8       10.490852   0.000000
 
  0.3333333E+00  0.1111111E+00  0.1455535E-16  0.3292181E-01
    1       -4.972750   1.000000
    2        0.958347   1.000000
    3        4.118397   1.000000
    4        4.190804   1.000000
    5        7.918365   0.000000
    6        9.073571   0.000000
    7        9.978449   0.000000
    8       10.940536   0.000000
 
  0.4444444E+00  0.1111111E+00  0.5595473E-17  0.3292181E-01
    1       -4.165147   1.000000
    2       -0.600845   1.000000
    3        3.689727   1.000000
    4        4.108189   1.000000
    5        7.786939   0.000000
    6        9.000656   0.000000
    7        9.712190   0.000000
    8       12.355441   0.000000
 
 -0.4444444E+00  0.1111111E+00  0.1329788E-16  0.3292181E-01
    1       -3.797664   1.000000
    2       -1.158701   1.000000
    3        3.436797   1.000000
    4        4.243956   1.000000
    5        7.783582   0.000000
    6        9.031214   0.000000
    7        9.455135   0.000000
    8       13.733798   0.000000
 
 -0.3333333E+00  0.1111111E+00 -0.1536845E-16  0.3292181E-01
    1       -4.436794   1.000000
    2       -0.134450   1.000000
    3        3.406561   1.000000
    4        4.567367   1.000000
    5        7.961972   0.000000
    6        9.255652   0.000000
    7        9.330365   0.000000
    8       12.940036   0.000000
 
 -0.2222222E+00  0.1111111E+00  0.4433388E-17  0.3292181E-01
    1       -5.218808   1.000000
    2        1.562842   1.000000
    3        3.640020   1.000000
    4        5.008688   1.000000
    5        8.282029   0.000000
    6        9.111239   0.000000
    7        9.387175   0.000000
    8       11.626770   0.000000
 
 -0.1111111E+00  0.1111111E+00 -0.5393851E-17  0.1646091E-01
    1       -5.777748   1.000000
    2        3.300591   1.000000
    3        4.284963   1.000000
    4        5.395565   0.999866
    5        8.558187   0.000000
    6        8.612201   0.000000
    7        8.812239   0.000000
    8       10.873111   0.000000
 
  0.2222222E+00  0.2222222E+00  0.1144673E-16  0.8230453E-02
    1       -5.356454   1.000000
    2        2.591065   1.000000
    3        3.980848   1.000000
    4        3.980850   1.000000
    5        6.944781   0.000000
    6        9.162537   0.000000
    7       10.833560   0.000000
    8       10.833564   0.000000
 
  0.3333333E+00  0.2222222E+00  0.1123446E-16  0.3292181E-01
    1       -4.797591   1.000000
    2        1.282002   1.000000
    3        3.364225   1.000000
    4        3.643975   1.000000
    5        7.097941   0.000000
    6        8.792889   0.000000
    7       11.064887   0.000000
    8       11.407133   0.000000
 
  0.4444444E+00  0.2222222E+00  0.1417479E-16  0.3292181E-01
    1       -4.014926   1.000000
    2       -0.158628   1.000000
    3        2.634544   1.000000
    4        3.546615   1.000000
    5        7.283501   0.000000
    6        9.798422   0.000000
    7       10.814953   0.000000
    8       11.231373   0.000000
 
 -0.4444444E+00  0.2222222E+00  0.1691589E-16  0.3292181E-01
    1       -3.377559   1.000000
    2       -1.076547   1.000000
    3        2.124027   1.000000
    4        3.697842   1.000000
    5        7.429408   0.000000
    6       10.584434   0.000000
    7       10.856842   0.000000
    8       11.745886   0.000000
 
 -0.3333333E+00  0.2222222E+00  0.1787863E-16  0.3292181E-01
    1       -3.779027   1.000000
    2       -0.513274   1.000000
    3        1.950165   1.000000
    4        4.070826   1.000000
    5        7.803546   0.000000
    6       10.517535   0.000000
    7       10.528853   0.000000
    8       12.734008   0.000000
 
 -0.2222222E+00  0.2222222E+00 -0.1078770E-16  0.1646091E-01
    1       -4.583684   1.000000
    2        0.708964   1.000000
    3        2.333761   1.000000
    4        4.581991   1.000000
    5        8.312190   0.000000
    6        9.912191   0.000000
    7       10.233256   0.000000
    8       11.403263   0.000000
 
  0.3333333E+00  0.3333333E+00  0.1717009E-16  0.8230453E-02
    1       -4.328276   1.000000
    2        0.626903   1.000000
    3        3.249956   1.000000
    4        3.249957   1.000000
    5        6.377807   0.000482
    6        7.641786   0.000000
    7       12.793874   0.000000
    8       12.793878   0.000000
 
  0.4444444E+00  0.3333333E+00  0.1668257E-16  0.3292181E-01
    1       -3.603522   1.000000
    2       -0.406595   1.000000
    3        2.542851   1.000000
    4        3.094950   1.000000
    5        6.620348   0.000000
    6        7.681061   0.000000
    7       13.083536   0.000000
    8       13.148453   0.000000
 
 -0.4444444E+00  0.3333333E+00 -0.5348174E-17  0.3292181E-01
    1       -2.827978   1.000000
    2       -1.286402   1.000000
    3        1.660879   1.000000
    4        3.199734   1.000000
    5        6.816873   0.000000
    6        9.255593   0.000000
    7       12.781519   0.000000
    8       12.874368   0.000000
 
 -0.3333333E+00  0.3333333E+00  0.1344753E-16  0.1646091E-01
    1       -3.001318   1.000000
    2       -1.096558   1.000000
    3        1.306467   1.000000
    4        3.547995   1.000000
    5        7.207303   0.000000
    6       11.398985   0.000000
    7       12.027799   0.000000
    8       12.591275   0.000000
 
  0.4444444E+00  0.4444444E+00  0.2289345E-16  0.8230453E-02
    1       -2.939851   1.000000
    2       -1.255834   1.000000
    3        2.870515   1.000000
    4        2.870516   1.000000
    5        6.242739   0.009497
    6        6.643464   0.000000
    7       14.839136   0.000000
    8       14.839141   0.000000
 
 -0.4444444E+00  0.4444444E+00 -0.2157540E-16  0.1646091E-01
    1       -2.183995   1.000000
    2       -2.014156   1.000000
    3        2.273519   1.000000
    4        2.907192   1.000000
    5        6.468541   0.000040
    6        7.282962   0.000000
    7       14.713563   0.000000
    8       15.014800   0.000000
 
  0.3333333E+00  0.2222222E+00  0.1111111E+00  0.3292181E-01
    1       -5.159765   1.000000
    2        1.843853   1.000000
    3        3.301540   1.000000
    4        4.471910   1.000000
    5        7.995016   0.000000
    6        9.365059   0.000000
    7       10.023143   0.000000
    8       10.594398   0.000000
 
  0.4444444E+00  0.2222222E+00  0.1111111E+00  0.6584362E-01
    1       -4.438980   1.000000
    2        0.382199   1.000000
    3        2.699049   1.000000
    4        4.045572   1.000000
    5        8.373494   0.000000
    6        9.193752   0.000000
    7       10.379248   0.000000
    8       11.039940   0.000000
 
 -0.4444444E+00  0.2222222E+00  0.1111111E+00  0.6584362E-01
    1       -3.661861   1.000000
    2       -0.876636   1.000000
    3        2.503703   1.000000
    4        3.730875   1.000000
    5        8.456046   0.000000
    6        8.817916   0.000000
    7       10.978507   0.000000
    8       12.100722   0.000000
 
  0.4444444E+00  0.3333333E+00  0.1111111E+00  0.3292181E-01
    1       -4.158102   1.000000
    2        0.330479   1.000000
    3        2.603247   1.000000
    4        3.279516   1.000000
    5        7.452987   0.000000
    6        8.460619   0.000000
    7       11.004380   0.000000
    8       12.706392   0.000000
 
 -0.4444444E+00  0.3333333E+00  0.1111111E+00  0.6584362E-01
    1       -3.349052   1.000000
    2       -0.732911   1.000000
    3        1.951890   1.000000
    4        2.981676   1.000000
    5        7.855707   0.000000
    6        9.539629   0.000000
    7       10.570406   0.000000
    8       13.101721   0.000000
 
 -0.3333333E+00  0.3333333E+00  0.1111111E+00  0.6584362E-01
    1       -2.994421   1.000000
    2       -1.146834   1.000000
    3        1.574070   1.000000
    4        3.091092   1.000000
    5        8.141863   0.000000
    6       10.111053   0.000000
    7       11.637303   0.000000
    8       12.165210   0.000000
 
 -0.2222222E+00  0.3333333E+00  0.1111111E+00  0.3292181E-01
    1       -3.678678   1.000000
    2       -0.362064   1.000000
    3        1.720393   1.000000
    4        3.517700   1.000000
    5        8.640897   0.000000
    6        9.618987   0.000000
    7       10.466023   0.000000
    8       12.473947   0.000000
 
 -0.4444444E+00  0.4444444E+00  0.1111111E+00  0.3292181E-01
    1       -2.827408   1.000000
    2       -1.273570   1.000000
    3        2.322249   1.000000
    4        2.528965   1.000000
    5        7.285820   0.000000
    6        7.598530   0.000000
    7       12.761336   0.000000
    8       14.595268   0.000000
 
 -0.3333333E+00  0.4444444E+00  0.1111111E+00  0.3292181E-01
    1       -2.319453   1.000000
    2       -1.724782   1.000000
    3        1.619494   1.000000
    4        2.614797   1.000000
    5        7.653163   0.000000
    6        9.272719   0.000000
    7       12.220849   0.000000
    8       12.477224   0.000000
 
 -0.3333333E+00  0.4444444E+00  0.2222222E+00  0.3292181E-01
    1       -2.559970   1.000000
    2       -1.418454   1.000000
    3        1.656318   1.000000
    4        2.285596   1.000000
    5        9.457032   0.000000
    6        9.569098   0.000000
    7       10.191471   0.000000
    8       11.931575   0.000000
