<?xml version="1.0" encoding="ISO-8859-1"?>
<modeling>
 <generator>
  <i name="program" type="string">vasp </i>
  <i name="version" type="string">5.4.4.18Apr17-6-g9f103f2a35  </i>
  <i name="subversion" type="string">(build Dec 09 2018 21:25:21) complex            parallel </i>
  <i name="platform" type="string">IFC18.0.1.163_CrayMPICH7.7.0_MKL18.0.1.163 </i>
  <i name="date" type="string">2019 03 20 </i>
  <i name="time" type="string">10:08:19 </i>
 </generator>
 <incar>
  <i type="string" name="PREC">normal</i>
  <i type="int" name="IBRION">     2</i>
  <i name="EDIFF">      0.00040000</i>
  <i name="EDIFFG">     -0.01000000</i>
  <i type="int" name="NSW">    15</i>
  <i type="int" name="ISIF">     3</i>
  <i name="ENCUT">    350.00000000</i>
  <i type="int" name="NBANDS">     8</i>
  <i type="logical" name="LREAL"> F  </i>
  <i type="int" name="ISMEAR">     0</i>
  <i name="SIGMA">      0.20000000</i>
  <v type="int" name="KPOINT_BSE">    -1     0     0     0</v>
 </incar>
 <structure name="primitive_cell" >
  <crystal>
   <varray name="basis" >
    <v>       0.00000000       2.71500000       2.71500000 </v>
    <v>       2.71500000       0.00000000       2.71500000 </v>
    <v>       2.71500000       2.71500000       0.00000000 </v>
   </varray>
   <i name="volume">     40.02575175 </i>
   <varray name="rec_basis" >
    <v>      -0.18416206       0.18416206       0.18416206 </v>
    <v>       0.18416206      -0.18416206       0.18416206 </v>
    <v>       0.18416206       0.18416206      -0.18416206 </v>
   </varray>
  </crystal>
  <varray name="positions" >
   <v>      -0.50000000      -0.50000000      -0.50000000 </v>
   <v>      -0.25000000      -0.25000000      -0.25000000 </v>
  </varray>
 </structure>
 <varray name="primitive_index" >
  <v type="int" >        1 </v>
  <v type="int" >        2 </v>
 </varray>
 <kpoints>
  <generation param="Monkhorst-Pack">
   <v type="int" name="divisions">       9        9        9 </v>
   <v name="usershift">      0.00000000       0.00000000       0.00000000 </v>
   <v name="genvec1">      0.11111111      -0.00000000       0.00000000 </v>
   <v name="genvec2">     -0.00000000       0.11111111      -0.00000000 </v>
   <v name="genvec3">      0.00000000       0.00000000       0.11111111 </v>
   <v name="shift">      0.00000000       0.00000000       0.00000000 </v>
  </generation>
  <varray name="kpointlist" >
   <v>       0.00000000       0.00000000       0.00000000 </v>
   <v>       0.11111111       0.00000000       0.00000000 </v>
   <v>       0.22222222      -0.00000000       0.00000000 </v>
   <v>       0.33333333       0.00000000       0.00000000 </v>
   <v>       0.44444444      -0.00000000       0.00000000 </v>
   <v>       0.11111111       0.11111111       0.00000000 </v>
   <v>       0.22222222       0.11111111       0.00000000 </v>
   <v>       0.33333333       0.11111111       0.00000000 </v>
   <v>       0.44444444       0.11111111       0.00000000 </v>
   <v>      -0.44444444       0.11111111       0.00000000 </v>
   <v>      -0.33333333       0.11111111      -0.00000000 </v>
   <v>      -0.22222222       0.11111111       0.00000000 </v>
   <v>      -0.11111111       0.11111111      -0.00000000 </v>
   <v>       0.22222222       0.22222222       0.00000000 </v>
   <v>       0.33333333       0.22222222       0.00000000 </v>
   <v>       0.44444444       0.22222222       0.00000000 </v>
   <v>      -0.44444444       0.22222222       0.00000000 </v>
   <v>      -0.33333333       0.22222222       0.00000000 </v>
   <v>      -0.22222222       0.22222222      -0.00000000 </v>
   <v>       0.33333333       0.33333333       0.00000000 </v>
   <v>       0.44444444       0.33333333       0.00000000 </v>
   <v>      -0.44444444       0.33333333      -0.00000000 </v>
   <v>      -0.33333333       0.33333333       0.00000000 </v>
   <v>       0.44444444       0.44444444       0.00000000 </v>
   <v>      -0.44444444       0.44444444      -0.00000000 </v>
   <v>       0.33333333       0.22222222       0.11111111 </v>
   <v>       0.44444444       0.22222222       0.11111111 </v>
   <v>      -0.44444444       0.22222222       0.11111111 </v>
   <v>       0.44444444       0.33333333       0.11111111 </v>
   <v>      -0.44444444       0.33333333       0.11111111 </v>
   <v>      -0.33333333       0.33333333       0.11111111 </v>
   <v>      -0.22222222       0.33333333       0.11111111 </v>
   <v>      -0.44444444       0.44444444       0.11111111 </v>
   <v>      -0.33333333       0.44444444       0.11111111 </v>
   <v>      -0.33333333       0.44444444       0.22222222 </v>
  </varray>
  <varray name="weights" >
   <v>       0.00137174 </v>
   <v>       0.01097394 </v>
   <v>       0.01097394 </v>
   <v>       0.01097394 </v>
   <v>       0.01097394 </v>
   <v>       0.00823045 </v>
   <v>       0.03292181 </v>
   <v>       0.03292181 </v>
   <v>       0.03292181 </v>
   <v>       0.03292181 </v>
   <v>       0.03292181 </v>
   <v>       0.03292181 </v>
   <v>       0.01646091 </v>
   <v>       0.00823045 </v>
   <v>       0.03292181 </v>
   <v>       0.03292181 </v>
   <v>       0.03292181 </v>
   <v>       0.03292181 </v>
   <v>       0.01646091 </v>
   <v>       0.00823045 </v>
   <v>       0.03292181 </v>
   <v>       0.03292181 </v>
   <v>       0.01646091 </v>
   <v>       0.00823045 </v>
   <v>       0.01646091 </v>
   <v>       0.03292181 </v>
   <v>       0.06584362 </v>
   <v>       0.06584362 </v>
   <v>       0.03292181 </v>
   <v>       0.06584362 </v>
   <v>       0.06584362 </v>
   <v>       0.03292181 </v>
   <v>       0.03292181 </v>
   <v>       0.03292181 </v>
   <v>       0.03292181 </v>
  </varray>
 </kpoints>
 <parameters>
  <separator name="general" >
   <i type="string" name="SYSTEM">unknown system</i>
   <i type="logical" name="LCOMPAT"> F  </i>
  </separator>
  <separator name="electronic" >
   <i type="string" name="PREC">normal</i>
   <i name="ENMAX">    350.00000000</i>
   <i name="ENAUG">    322.06900000</i>
   <i name="EDIFF">      0.00040000</i>
   <i type="int" name="IALGO">    38</i>
   <i type="int" name="IWAVPR">    11</i>
   <i type="int" name="NBANDS">     8</i>
   <i name="NELECT">      8.00000000</i>
   <i type="int" name="TURBO">     0</i>
   <i type="int" name="IRESTART">     0</i>
   <i type="int" name="NREBOOT">     0</i>
   <i type="int" name="NMIN">     0</i>
   <i name="EREF">      0.00000000</i>
   <separator name="electronic smearing" >
    <i type="int" name="ISMEAR">     0</i>
    <i name="SIGMA">      0.20000000</i>
    <i name="KSPACING">      0.50000000</i>
    <i type="logical" name="KGAMMA"> T  </i>
   </separator>
   <separator name="electronic projectors" >
    <i type="logical" name="LREAL"> F  </i>
    <v name="ROPT">      0.00000000</v>
    <i type="int" name="LMAXPAW">  -100</i>
    <i type="int" name="LMAXMIX">     2</i>
    <i type="logical" name="NLSPLINE"> F  </i>
   </separator>
   <separator name="electronic startup" >
    <i type="int" name="ISTART">     0</i>
    <i type="int" name="ICHARG">     2</i>
    <i type="int" name="INIWAV">     1</i>
   </separator>
   <separator name="electronic spin" >
    <i type="int" name="ISPIN">     1</i>
    <i type="logical" name="LNONCOLLINEAR"> F  </i>
    <v name="MAGMOM">      1.00000000      1.00000000</v>
    <i name="NUPDOWN">     -1.00000000</i>
    <i type="logical" name="LSORBIT"> F  </i>
    <v name="SAXIS">      0.00000000      0.00000000      1.00000000</v>
    <i type="logical" name="LSPIRAL"> F  </i>
    <v name="QSPIRAL">      0.00000000      0.00000000      0.00000000</v>
    <i type="logical" name="LZEROZ"> F  </i>
   </separator>
   <separator name="electronic exchange-correlation" >
    <i type="logical" name="LASPH"> F  </i>
    <i type="logical" name="LMETAGGA"> F  </i>
   </separator>
   <separator name="electronic convergence" >
    <i type="int" name="NELM">    60</i>
    <i type="int" name="NELMDL">    -5</i>
    <i type="int" name="NELMIN">     2</i>
    <i name="ENINI">    350.00000000</i>
    <separator name="electronic convergence detail" >
     <i type="logical" name="LDIAG"> T  </i>
     <i type="logical" name="LSUBROT"> F  </i>
     <i name="WEIMIN">      0.00100000</i>
     <i name="EBREAK">      0.00001250</i>
     <i name="DEPER">      0.30000000</i>
     <i type="int" name="NRMM">     4</i>
     <i name="TIME">      0.40000000</i>
    </separator>
   </separator>
   <separator name="electronic mixer" >
    <i name="AMIX">      0.40000000</i>
    <i name="BMIX">      1.00000000</i>
    <i name="AMIN">      0.10000000</i>
    <i name="AMIX_MAG">      1.60000000</i>
    <i name="BMIX_MAG">      1.00000000</i>
    <separator name="electronic mixer details" >
     <i type="int" name="IMIX">     4</i>
     <i type="logical" name="MIXFIRST"> F  </i>
     <i type="int" name="MAXMIX">   -45</i>
     <i name="WC">    100.00000000</i>
     <i type="int" name="INIMIX">     1</i>
     <i type="int" name="MIXPRE">     1</i>
     <i type="int" name="MREMOVE">     5</i>
    </separator>
   </separator>
   <separator name="electronic dipolcorrection" >
    <i type="logical" name="LDIPOL"> F  </i>
    <i type="logical" name="LMONO"> F  </i>
    <i type="int" name="IDIPOL">     0</i>
    <i name="EPSILON">      1.00000000</i>
    <v name="DIPOL">   -100.00000000   -100.00000000   -100.00000000</v>
    <i name="EFIELD">      0.00000000</i>
   </separator>
  </separator>
  <separator name="grids" >
   <i type="int" name="NGX">    18</i>
   <i type="int" name="NGY">    18</i>
   <i type="int" name="NGZ">    18</i>
   <i type="int" name="NGXF">    36</i>
   <i type="int" name="NGYF">    36</i>
   <i type="int" name="NGZF">    36</i>
   <i type="logical" name="ADDGRID"> F  </i>
  </separator>
  <separator name="ionic" >
   <i type="int" name="NSW">    15</i>
   <i type="int" name="IBRION">     2</i>
   <i type="int" name="MDALGO">     0</i>
   <i type="int" name="ISIF">     3</i>
   <i name="PSTRESS">      0.00000000</i>
   <i name="EDIFFG">     -0.01000000</i>
   <i type="int" name="NFREE">     1</i>
   <i name="POTIM">      0.50000000</i>
   <i name="SMASS">     -3.00000000</i>
   <i name="SCALEE">      1.00000000</i>
  </separator>
  <separator name="ionic md" >
   <i name="TEBEG">      0.00010000</i>
   <i name="TEEND">      0.00010000</i>
   <i type="int" name="NBLOCK">     1</i>
   <i type="int" name="KBLOCK">    15</i>
   <i type="int" name="NPACO">   256</i>
   <i name="APACO">     16.00000000</i>
  </separator>
  <separator name="symmetry" >
   <i type="int" name="ISYM">     2</i>
   <i name="SYMPREC">      0.00001000</i>
  </separator>
  <separator name="dos" >
   <i type="int" name="LORBIT">     0</i>
   <v name="RWIGS">     -1.00000000</v>
   <i type="int" name="NEDOS">   301</i>
   <i name="EMIN">     10.00000000</i>
   <i name="EMAX">    -10.00000000</i>
   <i name="EFERMI">      0.00000000</i>
  </separator>
  <separator name="writing" >
   <i type="int" name="NWRITE">     2</i>
   <i type="logical" name="LWAVE"> T  </i>
   <i type="logical" name="LDOWNSAMPLE"> F  </i>
   <i type="logical" name="LCHARG"> T  </i>
   <i type="logical" name="LPARD"> F  </i>
   <i type="logical" name="LVTOT"> F  </i>
   <i type="logical" name="LVHAR"> F  </i>
   <i type="logical" name="LELF"> F  </i>
   <i type="logical" name="LOPTICS"> F  </i>
   <v name="STM">      0.00000000      0.00000000      0.00000000      0.00000000      0.00000000      0.00000000      0.00000000</v>
  </separator>
  <separator name="performance" >
   <i type="int" name="NPAR">     8</i>
   <i type="int" name="NSIM">     4</i>
   <i type="int" name="NBLK">    -1</i>
   <i type="logical" name="LPLANE"> T  </i>
   <i type="logical" name="LSCALAPACK"> T  </i>
   <i type="logical" name="LSCAAWARE"> F  </i>
   <i type="logical" name="LSCALU"> F  </i>
   <i type="logical" name="LASYNC"> F  </i>
   <i type="logical" name="LORBITALREAL"> F  </i>
  </separator>
  <separator name="miscellaneous" >
   <i type="int" name="IDIOT">     3</i>
   <i type="int" name="ISPECIAL">     0</i>
   <i type="logical" name="LMUSIC"> F  </i>
   <v name="POMASS">     28.08500000</v>
   <v name="DARWINR">      0.00000000</v>
   <v name="DARWINV">      1.00000000</v>
   <i type="logical" name="LCORR"> T  </i>
  </separator>
  <i type="logical" name="GGA_COMPAT"> T  </i>
  <i type="logical" name="LBERRY"> F  </i>
  <i type="int" name="ICORELEVEL">     0</i>
  <i type="logical" name="LDAU"> F  </i>
  <i type="int" name="I_CONSTRAINED_M">     0</i>
  <separator name="electronic exchange-correlation" >
   <i type="string" name="GGA">--</i>
   <i type="int" name="VOSKOWN">     0</i>
   <i type="logical" name="LHFCALC"> F  </i>
   <i type="string" name="PRECFOCK"></i>
   <i type="logical" name="LSYMGRAD"> F  </i>
   <i type="logical" name="LHFONE"> F  </i>
   <i type="logical" name="LRHFCALC"> F  </i>
   <i type="logical" name="LTHOMAS"> F  </i>
   <i type="logical" name="LMODELHF"> F  </i>
   <i name="ENCUT4O">     -1.00000000</i>
   <i type="int" name="EXXOEP">     0</i>
   <i type="int" name="FOURORBIT">     0</i>
   <i name="AEXX">      0.00000000</i>
   <i name="HFALPHA">      0.00000000</i>
   <i name="MCALPHA">      0.00000000</i>
   <i name="ALDAX">      1.00000000</i>
   <i name="AGGAX">      1.00000000</i>
   <i name="ALDAC">      1.00000000</i>
   <i name="AGGAC">      1.00000000</i>
   <i type="int" name="NKREDX">     1</i>
   <i type="int" name="NKREDY">     1</i>
   <i type="int" name="NKREDZ">     1</i>
   <i type="logical" name="SHIFTRED"> F  </i>
   <i type="logical" name="ODDONLY"> F  </i>
   <i type="logical" name="EVENONLY"> F  </i>
   <i type="int" name="LMAXFOCK">     0</i>
   <i type="int" name="NMAXFOCKAE">     0</i>
   <i type="logical" name="LFOCKAEDFT"> F  </i>
   <i name="HFSCREEN">      0.00000000</i>
   <i name="HFSCREENC">      0.00000000</i>
   <i type="int" name="NBANDSGWLOW">     0</i>
  </separator>
  <separator name="vdW DFT" >
   <i type="logical" name="LUSE_VDW"> F  </i>
   <i name="Zab_VDW">     -0.84910000</i>
   <i name="PARAM1">      0.12340000</i>
   <i name="PARAM2">      1.00000000</i>
   <i name="PARAM3">      0.00000000</i>
  </separator>
  <separator name="model GW" >
   <i type="int" name="MODEL_GW">     0</i>
   <i name="MODEL_EPS0">     12.00772552</i>
   <i name="MODEL_ALPHA">      1.00000000</i>
  </separator>
  <separator name="linear response parameters" >
   <i type="logical" name="LEPSILON"> F  </i>
   <i type="logical" name="LRPA"> F  </i>
   <i type="logical" name="LNABLA"> F  </i>
   <i type="logical" name="LVEL"> F  </i>
   <i type="int" name="KINTER">     0</i>
   <i name="CSHIFT">      0.10000000</i>
   <i name="OMEGAMAX">     -1.00000000</i>
   <i name="DEG_THRESHOLD">      0.00200000</i>
   <i name="RTIME">     -0.10000000</i>
   <i name="WPLASMAI">      0.00000000</i>
   <v name="DFIELD">      0.00000000      0.00000000      0.00000000</v>
   <v name="WPLASMA">      0.00000000      0.00000000      0.00000000      0.00000000      0.00000000      0.00000000      0.00000000      0.00000000      0.00000000</v>
  </separator>
  <separator name="orbital magnetization" >
   <i type="logical" name="NUCIND"> F  </i>
   <v name="MAGPOS">      0.00000000      0.00000000      0.00000000</v>
   <i type="logical" name="LNICSALL"> T  </i>
   <i type="logical" name="ORBITALMAG"> F  </i>
   <i type="logical" name="LMAGBLOCH"> F  </i>
   <i type="logical" name="LCHIMAG"> F  </i>
   <i type="logical" name="LGAUGE"> T  </i>
   <i type="int" name="MAGATOM">     0</i>
   <v name="MAGDIPOL">      0.00000000      0.00000000      0.00000000</v>
   <v name="AVECCONST">      0.00000000      0.00000000      0.00000000</v>
  </separator>
  <separator name="response functions" >
   <i type="logical" name="LADDER"> F  </i>
   <i type="logical" name="LRPAFORCE"> F  </i>
   <i type="logical" name="LFXC"> F  </i>
   <i type="logical" name="LHARTREE"> T  </i>
   <i type="int" name="IBSE">     0</i>
   <v type="int" name="KPOINT">    -1     0     0     0</v>
   <i type="logical" name="LTCTE"> F  </i>
   <i type="logical" name="LTETE"> F  </i>
   <i type="logical" name="LTRIPLET"> F  </i>
   <i type="logical" name="LFXCEPS"> F  </i>
   <i type="logical" name="LFXHEG"> F  </i>
   <i type="int" name="NATURALO">     2</i>
   <i type="logical" name="L2ORDER"> F  </i>
   <i type="logical" name="LMP2LT"> F  </i>
   <i type="logical" name="LUSEW"> F  </i>
   <i name="ENCUTGW">     -2.00000000</i>
   <i name="ENCUTGWSOFT">     -2.00000000</i>
   <i name="ENCUTLF">     -1.00000000</i>
   <i type="int" name="LMAXMP2">    -1</i>
   <i name="SCISSOR">      0.00000000</i>
   <i type="int" name="NOMEGA">     0</i>
   <i type="int" name="NOMEGAR">     0</i>
   <i type="int" name="NBANDSGW">    -1</i>
   <i type="int" name="NBANDSO">    -1</i>
   <i type="int" name="NBANDSV">    -1</i>
   <i type="int" name="NELM">     1</i>
   <i type="int" name="NELMHF">     1</i>
   <i type="int" name="DIM">     3</i>
   <i type="int" name="ANTIRES">     0</i>
   <i name="OMEGAMAX">    -30.00000000</i>
   <i name="OMEGAMIN">    -30.00000000</i>
   <i name="OMEGATL">   -200.00000000</i>
   <i type="int" name="OMEGAGRID">   140</i>
   <i name="CSHIFT">     -0.10000000</i>
   <i type="logical" name="SELFENERGY"> F  </i>
   <i type="logical" name="LSPECTRAL"> F  </i>
   <i type="logical" name="LSPECTRALGW"> F  </i>
   <i type="logical" name="LSINGLES"> F  </i>
   <i type="logical" name="LFERMIGW"> F  </i>
   <i type="logical" name="ODDONLYGW"> F  </i>
   <i type="logical" name="EVENONLYGW"> F  </i>
   <i type="int" name="NKREDLFX">     1</i>
   <i type="int" name="NKREDLFY">     1</i>
   <i type="int" name="NKREDLFZ">     1</i>
   <i type="int" name="MAXMEM">  2800</i>
   <i type="int" name="TELESCOPE">     0</i>
   <i type="int" name="TAUPAR">     1</i>
   <i type="int" name="OMEGAPAR">    -1</i>
   <i name="LAMBDA">      1.00000000</i>
  </separator>
  <separator name="External order field" >
   <i name="OFIELD_KAPPA">      0.00000000</i>
   <v name="OFIELD_K">      0.00000000      0.00000000      0.00000000</v>
   <i name="OFIELD_Q6_NEAR">      0.00000000</i>
   <i name="OFIELD_Q6_FAR">      0.00000000</i>
   <i name="OFIELD_A">      0.00000000</i>
  </separator>
 </parameters>
 <atominfo>
  <atoms>       2 </atoms>
  <types>       1 </types>
  <array name="atoms" >
   <dimension dim="1">ion</dimension>
   <field type="string">element</field>
   <field type="int">atomtype</field>
   <set>
    <rc><c>Si</c><c>   1</c></rc>
    <rc><c>Si</c><c>   1</c></rc>
   </set>
  </array>
  <array name="atomtypes" >
   <dimension dim="1">type</dimension>
   <field type="int">atomspertype</field>
   <field type="string">element</field>
   <field>mass</field>
   <field>valence</field>
   <field type="string">pseudopotential</field>
   <set>
    <rc><c>   2</c><c>Si</c><c>     28.08500000</c><c>      4.00000000</c><c> PAW_PBE Si 05Jan2001                   </c></rc>
   </set>
  </array>
 </atominfo>
 <structure name="initialpos" >
  <crystal>
   <varray name="basis" >
    <v>       0.00000000       2.71500000       2.71500000 </v>
    <v>       2.71500000       0.00000000       2.71500000 </v>
    <v>       2.71500000       2.71500000       0.00000000 </v>
   </varray>
   <i name="volume">     40.02575175 </i>
   <varray name="rec_basis" >
    <v>      -0.18416206       0.18416206       0.18416206 </v>
    <v>       0.18416206      -0.18416206       0.18416206 </v>
    <v>       0.18416206       0.18416206      -0.18416206 </v>
   </varray>
  </crystal>
  <varray name="positions" >
   <v>       0.50000000       0.50000000       0.50000000 </v>
   <v>       0.75000000       0.75000000       0.75000000 </v>
  </varray>
 </structure>
 <calculation>
  <scstep>
   <time name="dav">    0.18    0.19</time>
   <time name="total">    0.23    0.25</time>
   <energy>
    <i name="alphaZ">      3.36414203 </i>
    <i name="ewald">   -228.56352493 </i>
    <i name="hartreedc">    -11.00108243 </i>
    <i name="XCdc">    -18.60185131 </i>
    <i name="pawpsdc">     65.95520812 </i>
    <i name="pawaedc">    -30.76852678 </i>
    <i name="eentropy">     -0.00835111 </i>
    <i name="bandstr">     18.94652945 </i>
    <i name="atom">    206.13125414 </i>
    <i name="e_fr_energy">      5.45379718 </i>
    <i name="e_wo_entrp">      5.46214829 </i>
    <i name="e_0_energy">      5.45797273 </i>
   </energy>
  </scstep>
  <scstep>
   <time name="dav">    0.28    0.29</time>
   <time name="total">    0.28    0.29</time>
   <energy>
    <i name="e_fr_energy">    -10.82530398 </i>
    <i name="e_wo_entrp">    -10.82529206 </i>
    <i name="e_0_energy">    -10.82529802 </i>
   </energy>
  </scstep>
  <scstep>
   <time name="dav">    0.20    0.21</time>
   <time name="total">    0.20    0.22</time>
   <energy>
    <i name="e_fr_energy">    -11.02038388 </i>
    <i name="e_wo_entrp">    -11.02037512 </i>
    <i name="e_0_energy">    -11.02037950 </i>
   </energy>
  </scstep>
  <scstep>
   <time name="dav">    0.32    0.33</time>
   <time name="total">    0.32    0.33</time>
   <energy>
    <i name="e_fr_energy">    -11.02147987 </i>
    <i name="e_wo_entrp">    -11.02147113 </i>
    <i name="e_0_energy">    -11.02147550 </i>
   </energy>
  </scstep>
  <scstep>
   <time name="dav">    0.20    0.21</time>
   <time name="total">    0.22    0.23</time>
   <energy>
    <i name="e_fr_energy">    -11.02148021 </i>
    <i name="e_wo_entrp">    -11.02147147 </i>
    <i name="e_0_energy">    -11.02147584 </i>
   </energy>
  </scstep>
  <scstep>
   <time name="dav">    0.21    0.21</time>
   <time name="total">    0.24    0.26</time>
   <energy>
    <i name="e_fr_energy">    -10.89649738 </i>
    <i name="e_wo_entrp">    -10.89645625 </i>
    <i name="e_0_energy">    -10.89647682 </i>
   </energy>
  </scstep>
  <scstep>
   <time name="dav">    0.22    0.22</time>
   <time name="total">    0.26    0.28</time>
   <energy>
    <i name="e_fr_energy">    -10.83949902 </i>
    <i name="e_wo_entrp">    -10.83929385 </i>
    <i name="e_0_energy">    -10.83939643 </i>
   </energy>
  </scstep>
  <scstep>
   <time name="dav">    0.19    0.19</time>
   <time name="total">    0.22    0.24</time>
   <energy>
    <i name="e_fr_energy">    -10.84082918 </i>
    <i name="e_wo_entrp">    -10.84065860 </i>
    <i name="e_0_energy">    -10.84074389 </i>
   </energy>
  </scstep>
  <scstep>
   <time name="dav">    0.15    0.15</time>
   <time name="total">    0.16    0.18</time>
   <energy>
    <i name="alphaZ">      3.36414203 </i>
    <i name="ewald">   -228.56352493 </i>
    <i name="hartreedc">    -14.91224126 </i>
    <i name="XCdc">    -17.96021532 </i>
    <i name="pawpsdc">     74.37182524 </i>
    <i name="pawaedc">    -39.40977761 </i>
    <i name="eentropy">     -0.00016985 </i>
    <i name="bandstr">      6.13778712 </i>
    <i name="atom">    206.13125414 </i>
    <i name="e_fr_energy">    -10.84092045 </i>
    <i name="e_wo_entrp">    -10.84075059 </i>
    <i name="e_0_energy">    -10.84083552 </i>
   </energy>
  </scstep>
  <structure>
   <crystal>
    <varray name="basis" >
     <v>       0.00000000       2.71500000       2.71500000 </v>
     <v>       2.71500000       0.00000000       2.71500000 </v>
     <v>       2.71500000       2.71500000       0.00000000 </v>
    </varray>
    <i name="volume">     40.02575175 </i>
    <varray name="rec_basis" >
     <v>      -0.18416206       0.18416206       0.18416206 </v>
     <v>       0.18416206      -0.18416206       0.18416206 </v>
     <v>       0.18416206       0.18416206      -0.18416206 </v>
    </varray>
   </crystal>
   <varray name="positions" >
    <v>       0.50000000       0.50000000       0.50000000 </v>
    <v>       0.75000000       0.75000000       0.75000000 </v>
   </varray>
  </structure>
  <varray name="forces" >
   <v>       0.00000000       0.00000000       0.00000000 </v>
   <v>      -0.00000000      -0.00000000      -0.00000000 </v>
  </varray>
  <varray name="stress" >
   <v>      19.54700812      -0.00000000       0.00000000 </v>
   <v>      -0.00000000      19.54700812       0.00000000 </v>
   <v>       0.00000000       0.00000000      19.54700812 </v>
  </varray>
  <energy>
   <i name="e_fr_energy">    -10.84092045 </i>
   <i name="e_wo_entrp">    -10.84083552 </i>
   <i name="e_0_energy">     -0.00016985 </i>
  </energy>
  <time name="totalsc">    2.83    4.35</time>
 </calculation>
 <calculation>
  <scstep>
   <time name="dav">    0.22    0.22</time>
   <time name="total">    0.25    0.27</time>
   <energy>
    <i name="alphaZ">      3.24800934 </i>
    <i name="ewald">   -225.90260598 </i>
    <i name="hartreedc">    -14.75055557 </i>
    <i name="XCdc">    -18.13196914 </i>
    <i name="pawpsdc">     74.36762285 </i>
    <i name="pawaedc">    -39.40649452 </i>
    <i name="eentropy">     -0.00006277 </i>
    <i name="bandstr">      3.59450831 </i>
    <i name="atom">    206.13125414 </i>
    <i name="e_fr_energy">    -10.85029334 </i>
    <i name="e_wo_entrp">    -10.85023056 </i>
    <i name="e_0_energy">    -10.85026195 </i>
   </energy>
  </scstep>
  <scstep>
   <time name="dav">    0.24    0.24</time>
   <time name="total">    0.28    0.32</time>
   <energy>
    <i name="e_fr_energy">    -10.84585394 </i>
    <i name="e_wo_entrp">    -10.84577532 </i>
    <i name="e_0_energy">    -10.84581463 </i>
   </energy>
  </scstep>
  <scstep>
   <time name="dav">    0.22    0.22</time>
   <time name="total">    0.25    0.28</time>
   <energy>
    <i name="e_fr_energy">    -10.84351356 </i>
    <i name="e_wo_entrp">    -10.84341022 </i>
    <i name="e_0_energy">    -10.84346189 </i>
   </energy>
  </scstep>
  <scstep>
   <time name="dav">    0.13    0.13</time>
   <time name="total">    0.16    0.18</time>
   <energy>
    <i name="alphaZ">      3.24800934 </i>
    <i name="ewald">   -225.90260598 </i>
    <i name="hartreedc">    -15.33866511 </i>
    <i name="XCdc">    -18.11987723 </i>
    <i name="pawpsdc">     73.28945562 </i>
    <i name="pawaedc">    -38.29903583 </i>
    <i name="eentropy">     -0.00010177 </i>
    <i name="bandstr">      4.14806359 </i>
    <i name="atom">    206.13125414 </i>
    <i name="e_fr_energy">    -10.84350322 </i>
    <i name="e_wo_entrp">    -10.84340144 </i>
    <i name="e_0_energy">    -10.84345233 </i>
   </energy>
  </scstep>
  <structure>
   <crystal>
    <varray name="basis" >
     <v>       0.00000000       2.74698013       2.74698013 </v>
     <v>       2.74698013       0.00000000       2.74698013 </v>
     <v>       2.74698013       2.74698013       0.00000000 </v>
    </varray>
    <i name="volume">     41.45687387 </i>
    <varray name="rec_basis" >
     <v>      -0.18201806       0.18201806       0.18201806 </v>
     <v>       0.18201806      -0.18201806       0.18201806 </v>
     <v>       0.18201806       0.18201806      -0.18201806 </v>
    </varray>
   </crystal>
   <varray name="positions" >
    <v>       0.50000000       0.50000000       0.50000000 </v>
    <v>       0.75000000       0.75000000       0.75000000 </v>
   </varray>
  </structure>
  <varray name="forces" >
   <v>       0.00000000       0.00000000      -0.00000000 </v>
   <v>      -0.00000000      -0.00000000       0.00000000 </v>
  </varray>
  <varray name="stress" >
   <v>     -12.39848303      -0.00000000       0.00000000 </v>
   <v>       0.00000000     -12.39848303       0.00000000 </v>
   <v>       0.00000000      -0.00000000     -12.39848303 </v>
  </varray>
  <energy>
   <i name="e_fr_energy">    -10.84350322 </i>
   <i name="e_wo_entrp">    -10.84345233 </i>
   <i name="e_0_energy">     -0.00010177 </i>
  </energy>
  <time name="totalsc">    1.13    1.58</time>
 </calculation>
 <calculation>
  <scstep>
   <time name="dav">    0.22    0.22</time>
   <time name="total">    0.26    0.27</time>
   <energy>
    <i name="alphaZ">      3.29340514 </i>
    <i name="ewald">   -226.95018312 </i>
    <i name="hartreedc">    -15.41278544 </i>
    <i name="XCdc">    -18.05334370 </i>
    <i name="pawpsdc">     73.24611919 </i>
    <i name="pawaedc">    -38.25382508 </i>
    <i name="eentropy">     -0.00014797 </i>
    <i name="bandstr">      5.15257275 </i>
    <i name="atom">    206.13125414 </i>
    <i name="e_fr_energy">    -10.84693409 </i>
    <i name="e_wo_entrp">    -10.84678611 </i>
    <i name="e_0_energy">    -10.84686010 </i>
   </energy>
  </scstep>
  <scstep>
   <time name="dav">    0.23    0.23</time>
   <time name="total">    0.26    0.28</time>
   <energy>
    <i name="e_fr_energy">    -10.84622599 </i>
    <i name="e_wo_entrp">    -10.84608947 </i>
    <i name="e_0_energy">    -10.84615773 </i>
   </energy>
  </scstep>
  <scstep>
   <time name="dav">    0.17    0.17</time>
   <time name="total">    0.18    0.21</time>
   <energy>
    <i name="alphaZ">      3.29340514 </i>
    <i name="ewald">   -226.95018312 </i>
    <i name="hartreedc">    -15.17367175 </i>
    <i name="XCdc">    -18.05902223 </i>
    <i name="pawpsdc">     73.61371819 </i>
    <i name="pawaedc">    -38.63050933 </i>
    <i name="eentropy">     -0.00012308 </i>
    <i name="bandstr">      4.92927113 </i>
    <i name="atom">    206.13125414 </i>
    <i name="e_fr_energy">    -10.84586091 </i>
    <i name="e_wo_entrp">    -10.84573783 </i>
    <i name="e_0_energy">    -10.84579937 </i>
   </energy>
  </scstep>
  <structure>
   <crystal>
    <varray name="basis" >
     <v>       0.00000000       2.73430037       2.73430037 </v>
     <v>       2.73430037       0.00000000       2.73430037 </v>
     <v>       2.73430037       2.73430037       0.00000000 </v>
    </varray>
    <i name="volume">     40.88543854 </i>
    <varray name="rec_basis" >
     <v>      -0.18286213       0.18286213       0.18286213 </v>
     <v>       0.18286213      -0.18286213       0.18286213 </v>
     <v>       0.18286213       0.18286213      -0.18286213 </v>
    </varray>
   </crystal>
   <varray name="positions" >
    <v>       0.50000000       0.50000000       0.50000000 </v>
    <v>       0.75000000       0.75000000       0.75000000 </v>
   </varray>
  </structure>
  <varray name="forces" >
   <v>       0.00000000       0.00000000       0.00000000 </v>
   <v>      -0.00000000      -0.00000000      -0.00000000 </v>
  </varray>
  <varray name="stress" >
   <v>      -0.54464884       0.00000000      -0.00000000 </v>
   <v>      -0.00000000      -0.54464884       0.00000000 </v>
   <v>       0.00000000      -0.00000000      -0.54464884 </v>
  </varray>
  <energy>
   <i name="e_fr_energy">    -10.84586091 </i>
   <i name="e_wo_entrp">    -10.84579937 </i>
   <i name="e_0_energy">     -0.00012308 </i>
  </energy>
  <time name="totalsc">    0.92    1.38</time>
  <eigenvalues>
   <array>
    <dimension dim="1">band</dimension>
    <dimension dim="2">kpoint</dimension>
    <dimension dim="3">spin</dimension>
    <field>eigene</field>
    <field>occ</field>
    <set>
     <set comment="spin 1">
      <set comment="kpoint 1">
       <r>   -6.1982    1.0000 </r>
       <r>    5.6177    0.9810 </r>
       <r>    5.6177    0.9810 </r>
       <r>    5.6177    0.9810 </r>
       <r>    8.1749    0.0000 </r>
       <r>    8.1749    0.0000 </r>
       <r>    8.1749    0.0000 </r>
       <r>    8.7516    0.0000 </r>
      </set>
      <set comment="kpoint 2">
       <r>   -6.0396    1.0000 </r>
       <r>    4.2786    1.0000 </r>
       <r>    5.3855    0.9999 </r>
       <r>    5.3855    0.9999 </r>
       <r>    8.1080    0.0000 </r>
       <r>    8.5178    0.0000 </r>
       <r>    8.5178    0.0000 </r>
       <r>    9.9098    0.0000 </r>
      </set>
      <set comment="kpoint 3">
       <r>   -5.5738    1.0000 </r>
       <r>    2.2285    1.0000 </r>
       <r>    4.9684    1.0000 </r>
       <r>    4.9684    1.0000 </r>
       <r>    7.6836    0.0000 </r>
       <r>    9.0424    0.0000 </r>
       <r>    9.0425    0.0000 </r>
       <r>   11.8916    0.0000 </r>
      </set>
      <set comment="kpoint 4">
       <r>   -4.8481    1.0000 </r>
       <r>    0.3475    1.0000 </r>
       <r>    4.6346    1.0000 </r>
       <r>    4.6346    1.0000 </r>
       <r>    7.3113    0.0000 </r>
       <r>    9.1230    0.0000 </r>
       <r>    9.1230    0.0000 </r>
       <r>   13.4032    0.0000 </r>
      </set>
      <set comment="kpoint 5">
       <r>   -4.0769    1.0000 </r>
       <r>   -1.0192    1.0000 </r>
       <r>    4.4605    1.0000 </r>
       <r>    4.4605    1.0000 </r>
       <r>    7.1112    0.0000 </r>
       <r>    8.9930    0.0000 </r>
       <r>    8.9930    0.0000 </r>
       <r>   13.3589    0.0000 </r>
      </set>
      <set comment="kpoint 6">
       <r>   -5.9863    1.0000 </r>
       <r>    4.4890    1.0000 </r>
       <r>    4.9570    1.0000 </r>
       <r>    4.9570    1.0000 </r>
       <r>    7.7303    0.0000 </r>
       <r>    9.0966    0.0000 </r>
       <r>    9.0966    0.0000 </r>
       <r>    9.7231    0.0000 </r>
      </set>
      <set comment="kpoint 7">
       <r>   -5.6209    1.0000 </r>
       <r>    2.8332    1.0000 </r>
       <r>    4.4920    1.0000 </r>
       <r>    4.6176    1.0000 </r>
       <r>    7.8160    0.0000 </r>
       <r>    9.0823    0.0000 </r>
       <r>    9.8008    0.0000 </r>
       <r>   10.4909    0.0000 </r>
      </set>
      <set comment="kpoint 8">
       <r>   -4.9728    1.0000 </r>
       <r>    0.9583    1.0000 </r>
       <r>    4.1184    1.0000 </r>
       <r>    4.1908    1.0000 </r>
       <r>    7.9184    0.0000 </r>
       <r>    9.0736    0.0000 </r>
       <r>    9.9784    0.0000 </r>
       <r>   10.9405    0.0000 </r>
      </set>
      <set comment="kpoint 9">
       <r>   -4.1651    1.0000 </r>
       <r>   -0.6008    1.0000 </r>
       <r>    3.6897    1.0000 </r>
       <r>    4.1082    1.0000 </r>
       <r>    7.7869    0.0000 </r>
       <r>    9.0007    0.0000 </r>
       <r>    9.7122    0.0000 </r>
       <r>   12.3554    0.0000 </r>
      </set>
      <set comment="kpoint 10">
       <r>   -3.7977    1.0000 </r>
       <r>   -1.1587    1.0000 </r>
       <r>    3.4368    1.0000 </r>
       <r>    4.2440    1.0000 </r>
       <r>    7.7836    0.0000 </r>
       <r>    9.0312    0.0000 </r>
       <r>    9.4551    0.0000 </r>
       <r>   13.7338    0.0000 </r>
      </set>
      <set comment="kpoint 11">
       <r>   -4.4368    1.0000 </r>
       <r>   -0.1344    1.0000 </r>
       <r>    3.4066    1.0000 </r>
       <r>    4.5674    1.0000 </r>
       <r>    7.9620    0.0000 </r>
       <r>    9.2557    0.0000 </r>
       <r>    9.3304    0.0000 </r>
       <r>   12.9400    0.0000 </r>
      </set>
      <set comment="kpoint 12">
       <r>   -5.2188    1.0000 </r>
       <r>    1.5628    1.0000 </r>
       <r>    3.6400    1.0000 </r>
       <r>    5.0087    1.0000 </r>
       <r>    8.2820    0.0000 </r>
       <r>    9.1112    0.0000 </r>
       <r>    9.3872    0.0000 </r>
       <r>   11.6268    0.0000 </r>
      </set>
      <set comment="kpoint 13">
       <r>   -5.7777    1.0000 </r>
       <r>    3.3006    1.0000 </r>
       <r>    4.2850    1.0000 </r>
       <r>    5.3956    0.9999 </r>
       <r>    8.5582    0.0000 </r>
       <r>    8.6122    0.0000 </r>
       <r>    8.8122    0.0000 </r>
       <r>   10.8731    0.0000 </r>
      </set>
      <set comment="kpoint 14">
       <r>   -5.3565    1.0000 </r>
       <r>    2.5911    1.0000 </r>
       <r>    3.9808    1.0000 </r>
       <r>    3.9808    1.0000 </r>
       <r>    6.9448    0.0000 </r>
       <r>    9.1625    0.0000 </r>
       <r>   10.8336    0.0000 </r>
       <r>   10.8336    0.0000 </r>
      </set>
      <set comment="kpoint 15">
       <r>   -4.7976    1.0000 </r>
       <r>    1.2820    1.0000 </r>
       <r>    3.3642    1.0000 </r>
       <r>    3.6440    1.0000 </r>
       <r>    7.0979    0.0000 </r>
       <r>    8.7929    0.0000 </r>
       <r>   11.0649    0.0000 </r>
       <r>   11.4071    0.0000 </r>
      </set>
      <set comment="kpoint 16">
       <r>   -4.0149    1.0000 </r>
       <r>   -0.1586    1.0000 </r>
       <r>    2.6345    1.0000 </r>
       <r>    3.5466    1.0000 </r>
       <r>    7.2835    0.0000 </r>
       <r>    9.7984    0.0000 </r>
       <r>   10.8150    0.0000 </r>
       <r>   11.2314    0.0000 </r>
      </set>
      <set comment="kpoint 17">
       <r>   -3.3776    1.0000 </r>
       <r>   -1.0765    1.0000 </r>
       <r>    2.1240    1.0000 </r>
       <r>    3.6978    1.0000 </r>
       <r>    7.4294    0.0000 </r>
       <r>   10.5844    0.0000 </r>
       <r>   10.8568    0.0000 </r>
       <r>   11.7459    0.0000 </r>
      </set>
      <set comment="kpoint 18">
       <r>   -3.7790    1.0000 </r>
       <r>   -0.5133    1.0000 </r>
       <r>    1.9502    1.0000 </r>
       <r>    4.0708    1.0000 </r>
       <r>    7.8035    0.0000 </r>
       <r>   10.5175    0.0000 </r>
       <r>   10.5289    0.0000 </r>
       <r>   12.7340    0.0000 </r>
      </set>
      <set comment="kpoint 19">
       <r>   -4.5837    1.0000 </r>
       <r>    0.7090    1.0000 </r>
       <r>    2.3338    1.0000 </r>
       <r>    4.5820    1.0000 </r>
       <r>    8.3122    0.0000 </r>
       <r>    9.9122    0.0000 </r>
       <r>   10.2333    0.0000 </r>
       <r>   11.4033    0.0000 </r>
      </set>
      <set comment="kpoint 20">
       <r>   -4.3283    1.0000 </r>
       <r>    0.6269    1.0000 </r>
       <r>    3.2500    1.0000 </r>
       <r>    3.2500    1.0000 </r>
       <r>    6.3778    0.0005 </r>
       <r>    7.6418    0.0000 </r>
       <r>   12.7939    0.0000 </r>
       <r>   12.7939    0.0000 </r>
      </set>
      <set comment="kpoint 21">
       <r>   -3.6035    1.0000 </r>
       <r>   -0.4066    1.0000 </r>
       <r>    2.5429    1.0000 </r>
       <r>    3.0949    1.0000 </r>
       <r>    6.6203    0.0000 </r>
       <r>    7.6811    0.0000 </r>
       <r>   13.0835    0.0000 </r>
       <r>   13.1485    0.0000 </r>
      </set>
      <set comment="kpoint 22">
       <r>   -2.8280    1.0000 </r>
       <r>   -1.2864    1.0000 </r>
       <r>    1.6609    1.0000 </r>
       <r>    3.1997    1.0000 </r>
       <r>    6.8169    0.0000 </r>
       <r>    9.2556    0.0000 </r>
       <r>   12.7815    0.0000 </r>
       <r>   12.8744    0.0000 </r>
      </set>
      <set comment="kpoint 23">
       <r>   -3.0013    1.0000 </r>
       <r>   -1.0966    1.0000 </r>
       <r>    1.3065    1.0000 </r>
       <r>    3.5480    1.0000 </r>
       <r>    7.2073    0.0000 </r>
       <r>   11.3990    0.0000 </r>
       <r>   12.0278    0.0000 </r>
       <r>   12.5913    0.0000 </r>
      </set>
      <set comment="kpoint 24">
       <r>   -2.9399    1.0000 </r>
       <r>   -1.2558    1.0000 </r>
       <r>    2.8705    1.0000 </r>
       <r>    2.8705    1.0000 </r>
       <r>    6.2427    0.0095 </r>
       <r>    6.6435    0.0000 </r>
       <r>   14.8391    0.0000 </r>
       <r>   14.8391    0.0000 </r>
      </set>
      <set comment="kpoint 25">
       <r>   -2.1840    1.0000 </r>
       <r>   -2.0142    1.0000 </r>
       <r>    2.2735    1.0000 </r>
       <r>    2.9072    1.0000 </r>
       <r>    6.4685    0.0000 </r>
       <r>    7.2830    0.0000 </r>
       <r>   14.7136    0.0000 </r>
       <r>   15.0148    0.0000 </r>
      </set>
      <set comment="kpoint 26">
       <r>   -5.1598    1.0000 </r>
       <r>    1.8439    1.0000 </r>
       <r>    3.3015    1.0000 </r>
       <r>    4.4719    1.0000 </r>
       <r>    7.9950    0.0000 </r>
       <r>    9.3651    0.0000 </r>
       <r>   10.0231    0.0000 </r>
       <r>   10.5944    0.0000 </r>
      </set>
      <set comment="kpoint 27">
       <r>   -4.4390    1.0000 </r>
       <r>    0.3822    1.0000 </r>
       <r>    2.6990    1.0000 </r>
       <r>    4.0456    1.0000 </r>
       <r>    8.3735    0.0000 </r>
       <r>    9.1938    0.0000 </r>
       <r>   10.3792    0.0000 </r>
       <r>   11.0399    0.0000 </r>
      </set>
      <set comment="kpoint 28">
       <r>   -3.6619    1.0000 </r>
       <r>   -0.8766    1.0000 </r>
       <r>    2.5037    1.0000 </r>
       <r>    3.7309    1.0000 </r>
       <r>    8.4560    0.0000 </r>
       <r>    8.8179    0.0000 </r>
       <r>   10.9785    0.0000 </r>
       <r>   12.1007    0.0000 </r>
      </set>
      <set comment="kpoint 29">
       <r>   -4.1581    1.0000 </r>
       <r>    0.3305    1.0000 </r>
       <r>    2.6032    1.0000 </r>
       <r>    3.2795    1.0000 </r>
       <r>    7.4530    0.0000 </r>
       <r>    8.4606    0.0000 </r>
       <r>   11.0044    0.0000 </r>
       <r>   12.7064    0.0000 </r>
      </set>
      <set comment="kpoint 30">
       <r>   -3.3491    1.0000 </r>
       <r>   -0.7329    1.0000 </r>
       <r>    1.9519    1.0000 </r>
       <r>    2.9817    1.0000 </r>
       <r>    7.8557    0.0000 </r>
       <r>    9.5396    0.0000 </r>
       <r>   10.5704    0.0000 </r>
       <r>   13.1017    0.0000 </r>
      </set>
      <set comment="kpoint 31">
       <r>   -2.9944    1.0000 </r>
       <r>   -1.1468    1.0000 </r>
       <r>    1.5741    1.0000 </r>
       <r>    3.0911    1.0000 </r>
       <r>    8.1419    0.0000 </r>
       <r>   10.1111    0.0000 </r>
       <r>   11.6373    0.0000 </r>
       <r>   12.1652    0.0000 </r>
      </set>
      <set comment="kpoint 32">
       <r>   -3.6787    1.0000 </r>
       <r>   -0.3621    1.0000 </r>
       <r>    1.7204    1.0000 </r>
       <r>    3.5177    1.0000 </r>
       <r>    8.6409    0.0000 </r>
       <r>    9.6190    0.0000 </r>
       <r>   10.4660    0.0000 </r>
       <r>   12.4739    0.0000 </r>
      </set>
      <set comment="kpoint 33">
       <r>   -2.8274    1.0000 </r>
       <r>   -1.2736    1.0000 </r>
       <r>    2.3222    1.0000 </r>
       <r>    2.5290    1.0000 </r>
       <r>    7.2858    0.0000 </r>
       <r>    7.5985    0.0000 </r>
       <r>   12.7613    0.0000 </r>
       <r>   14.5953    0.0000 </r>
      </set>
      <set comment="kpoint 34">
       <r>   -2.3195    1.0000 </r>
       <r>   -1.7248    1.0000 </r>
       <r>    1.6195    1.0000 </r>
       <r>    2.6148    1.0000 </r>
       <r>    7.6532    0.0000 </r>
       <r>    9.2727    0.0000 </r>
       <r>   12.2208    0.0000 </r>
       <r>   12.4772    0.0000 </r>
      </set>
      <set comment="kpoint 35">
       <r>   -2.5600    1.0000 </r>
       <r>   -1.4185    1.0000 </r>
       <r>    1.6563    1.0000 </r>
       <r>    2.2856    1.0000 </r>
       <r>    9.4570    0.0000 </r>
       <r>    9.5691    0.0000 </r>
       <r>   10.1915    0.0000 </r>
       <r>   11.9316    0.0000 </r>
      </set>
     </set>
    </set>
   </array>
  </eigenvalues>
  <separator name="orbital magnetization" >
   <v name="MAGDIPOLOUT">      0.00000000      0.00000000      0.00000000</v>
  </separator>
  <dos>
   <i name="efermi">      5.91101375 </i>
   <total>
    <array>
     <dimension dim="1">gridpoints</dimension>
     <dimension dim="2">spin</dimension>
     <field>energy</field>
     <field>total</field>
     <field>integrated</field>
     <set>
      <set comment="spin 1">
       <r>    -8.1982     0.0000     0.0000 </r>
       <r>    -8.1142     0.0000     0.0000 </r>
       <r>    -8.0301     0.0000     0.0000 </r>
       <r>    -7.9461     0.0000     0.0000 </r>
       <r>    -7.8620     0.0000     0.0000 </r>
       <r>    -7.7780     0.0000     0.0000 </r>
       <r>    -7.6940     0.0000     0.0000 </r>
       <r>    -7.6099     0.0000     0.0000 </r>
       <r>    -7.5259     0.0000     0.0000 </r>
       <r>    -7.4418     0.0000     0.0000 </r>
       <r>    -7.3578     0.0000     0.0000 </r>
       <r>    -7.2737     0.0000     0.0000 </r>
       <r>    -7.1897     0.0000     0.0000 </r>
       <r>    -7.1057     0.0000     0.0000 </r>
       <r>    -7.0216     0.0000     0.0000 </r>
       <r>    -6.9376     0.0000     0.0000 </r>
       <r>    -6.8535     0.0000     0.0000 </r>
       <r>    -6.7695     0.0000     0.0000 </r>
       <r>    -6.6854     0.0000     0.0000 </r>
       <r>    -6.6014     0.0001     0.0000 </r>
       <r>    -6.5173     0.0004     0.0000 </r>
       <r>    -6.4333     0.0019     0.0002 </r>
       <r>    -6.3493     0.0070     0.0008 </r>
       <r>    -6.2652     0.0203     0.0025 </r>
       <r>    -6.1812     0.0469     0.0064 </r>
       <r>    -6.0971     0.0851     0.0136 </r>
       <r>    -6.0131     0.1223     0.0239 </r>
       <r>    -5.9290     0.1497     0.0364 </r>
       <r>    -5.8450     0.1784     0.0514 </r>
       <r>    -5.7610     0.2255     0.0704 </r>
       <r>    -5.6769     0.2812     0.0940 </r>
       <r>    -5.5929     0.3076     0.1199 </r>
       <r>    -5.5088     0.2850     0.1438 </r>
       <r>    -5.4248     0.2521     0.1650 </r>
       <r>    -5.3407     0.2717     0.1878 </r>
       <r>    -5.2567     0.3530     0.2175 </r>
       <r>    -5.1727     0.4364     0.2542 </r>
       <r>    -5.0886     0.4664     0.2934 </r>
       <r>    -5.0046     0.4528     0.3314 </r>
       <r>    -4.9205     0.4345     0.3680 </r>
       <r>    -4.8365     0.4174     0.4030 </r>
       <r>    -4.7524     0.3906     0.4359 </r>
       <r>    -4.6684     0.3813     0.4679 </r>
       <r>    -4.5844     0.4459     0.5054 </r>
       <r>    -4.5003     0.5824     0.5543 </r>
       <r>    -4.4163     0.6962     0.6128 </r>
       <r>    -4.3322     0.7122     0.6727 </r>
       <r>    -4.2482     0.6736     0.7293 </r>
       <r>    -4.1641     0.6539     0.7843 </r>
       <r>    -4.0801     0.6429     0.8383 </r>
       <r>    -3.9960     0.6119     0.8897 </r>
       <r>    -3.9120     0.6142     0.9413 </r>
       <r>    -3.8280     0.7263     1.0024 </r>
       <r>    -3.7439     0.9150     1.0793 </r>
       <r>    -3.6599     1.0356     1.1663 </r>
       <r>    -3.5758     0.9927     1.2498 </r>
       <r>    -3.4918     0.8570     1.3218 </r>
       <r>    -3.4077     0.7508     1.3849 </r>
       <r>    -3.3237     0.6752     1.4416 </r>
       <r>    -3.2397     0.5728     1.4898 </r>
       <r>    -3.1556     0.4918     1.5311 </r>
       <r>    -3.0716     0.5290     1.5756 </r>
       <r>    -2.9875     0.6601     1.6310 </r>
       <r>    -2.9035     0.7513     1.6942 </r>
       <r>    -2.8194     0.7125     1.7541 </r>
       <r>    -2.7354     0.5716     1.8021 </r>
       <r>    -2.6514     0.4216     1.8375 </r>
       <r>    -2.5673     0.3279     1.8651 </r>
       <r>    -2.4833     0.2913     1.8896 </r>
       <r>    -2.3992     0.2872     1.9137 </r>
       <r>    -2.3152     0.2955     1.9386 </r>
       <r>    -2.2311     0.2923     1.9631 </r>
       <r>    -2.1471     0.2637     1.9853 </r>
       <r>    -2.0630     0.2202     2.0038 </r>
       <r>    -1.9790     0.1824     2.0191 </r>
       <r>    -1.8950     0.1669     2.0331 </r>
       <r>    -1.8109     0.1809     2.0483 </r>
       <r>    -1.7269     0.2079     2.0658 </r>
       <r>    -1.6428     0.2236     2.0846 </r>
       <r>    -1.5588     0.2464     2.1053 </r>
       <r>    -1.4747     0.3362     2.1336 </r>
       <r>    -1.3907     0.5298     2.1781 </r>
       <r>    -1.3067     0.8001     2.2453 </r>
       <r>    -1.2226     1.0619     2.3346 </r>
       <r>    -1.1386     1.2033     2.4357 </r>
       <r>    -1.0545     1.1663     2.5337 </r>
       <r>    -0.9705     1.0199     2.6194 </r>
       <r>    -0.8864     0.8956     2.6947 </r>
       <r>    -0.8024     0.8451     2.7657 </r>
       <r>    -0.7184     0.8244     2.8350 </r>
       <r>    -0.6343     0.7916     2.9015 </r>
       <r>    -0.5503     0.7526     2.9648 </r>
       <r>    -0.4662     0.7198     3.0253 </r>
       <r>    -0.3822     0.6807     3.0825 </r>
       <r>    -0.2981     0.6257     3.1351 </r>
       <r>    -0.2141     0.5667     3.1827 </r>
       <r>    -0.1301     0.4973     3.2245 </r>
       <r>    -0.0460     0.3885     3.2572 </r>
       <r>     0.0380     0.2605     3.2791 </r>
       <r>     0.1221     0.1986     3.2958 </r>
       <r>     0.2061     0.2720     3.3186 </r>
       <r>     0.2902     0.4504     3.3565 </r>
       <r>     0.3742     0.5982     3.4067 </r>
       <r>     0.4583     0.5908     3.4564 </r>
       <r>     0.5423     0.4504     3.4942 </r>
       <r>     0.6263     0.3024     3.5197 </r>
       <r>     0.7104     0.2222     3.5383 </r>
       <r>     0.7944     0.2010     3.5552 </r>
       <r>     0.8785     0.2099     3.5729 </r>
       <r>     0.9625     0.2238     3.5917 </r>
       <r>     1.0466     0.2247     3.6106 </r>
       <r>     1.1306     0.2293     3.6298 </r>
       <r>     1.2146     0.2713     3.6526 </r>
       <r>     1.2987     0.3538     3.6824 </r>
       <r>     1.3827     0.4806     3.7228 </r>
       <r>     1.4668     0.7011     3.7817 </r>
       <r>     1.5508     1.0139     3.8669 </r>
       <r>     1.6349     1.2690     3.9735 </r>
       <r>     1.7189     1.3138     4.0840 </r>
       <r>     1.8029     1.1921     4.1841 </r>
       <r>     1.8870     1.0581     4.2731 </r>
       <r>     1.9710     0.9631     4.3540 </r>
       <r>     2.0551     0.8715     4.4273 </r>
       <r>     2.1391     0.8052     4.4949 </r>
       <r>     2.2232     0.8256     4.5643 </r>
       <r>     2.3072     0.9369     4.6431 </r>
       <r>     2.3913     1.1143     4.7367 </r>
       <r>     2.4753     1.3523     4.8504 </r>
       <r>     2.5593     1.5828     4.9834 </r>
       <r>     2.6434     1.6565     5.1226 </r>
       <r>     2.7274     1.5145     5.2499 </r>
       <r>     2.8115     1.2905     5.3584 </r>
       <r>     2.8955     1.1651     5.4563 </r>
       <r>     2.9796     1.1886     5.5562 </r>
       <r>     3.0636     1.2844     5.6641 </r>
       <r>     3.1476     1.3709     5.7793 </r>
       <r>     3.2317     1.4315     5.8996 </r>
       <r>     3.3157     1.4775     6.0238 </r>
       <r>     3.3998     1.5069     6.1505 </r>
       <r>     3.4838     1.5314     6.2792 </r>
       <r>     3.5679     1.5706     6.4112 </r>
       <r>     3.6519     1.5751     6.5435 </r>
       <r>     3.7359     1.4390     6.6645 </r>
       <r>     3.8200     1.1701     6.7628 </r>
       <r>     3.9040     0.9673     6.8441 </r>
       <r>     3.9881     1.0066     6.9287 </r>
       <r>     4.0721     1.2065     7.0301 </r>
       <r>     4.1562     1.3252     7.1415 </r>
       <r>     4.2402     1.2497     7.2465 </r>
       <r>     4.3242     1.0936     7.3384 </r>
       <r>     4.4083     1.0280     7.4248 </r>
       <r>     4.4923     1.0742     7.5151 </r>
       <r>     4.5764     1.0844     7.6062 </r>
       <r>     4.6604     0.9303     7.6844 </r>
       <r>     4.7445     0.6655     7.7403 </r>
       <r>     4.8285     0.4605     7.7790 </r>
       <r>     4.9126     0.4035     7.8130 </r>
       <r>     4.9966     0.4175     7.8481 </r>
       <r>     5.0806     0.3824     7.8802 </r>
       <r>     5.1647     0.2879     7.9044 </r>
       <r>     5.2487     0.2167     7.9226 </r>
       <r>     5.3328     0.2124     7.9404 </r>
       <r>     5.4168     0.2283     7.9596 </r>
       <r>     5.5009     0.2044     7.9768 </r>
       <r>     5.5849     0.1411     7.9887 </r>
       <r>     5.6689     0.0775     7.9952 </r>
       <r>     5.7530     0.0361     7.9982 </r>
       <r>     5.8370     0.0150     7.9995 </r>
       <r>     5.9211     0.0070     8.0001 </r>
       <r>     6.0051     0.0091     8.0008 </r>
       <r>     6.0892     0.0229     8.0027 </r>
       <r>     6.1732     0.0507     8.0070 </r>
       <r>     6.2572     0.0922     8.0148 </r>
       <r>     6.3413     0.1452     8.0270 </r>
       <r>     6.4253     0.2083     8.0445 </r>
       <r>     6.5094     0.2775     8.0678 </r>
       <r>     6.5934     0.3387     8.0963 </r>
       <r>     6.6775     0.3726     8.1276 </r>
       <r>     6.7615     0.3730     8.1589 </r>
       <r>     6.8456     0.3546     8.1887 </r>
       <r>     6.9296     0.3482     8.2180 </r>
       <r>     7.0136     0.3942     8.2511 </r>
       <r>     7.0977     0.5181     8.2947 </r>
       <r>     7.1817     0.6981     8.3533 </r>
       <r>     7.2658     0.8672     8.4262 </r>
       <r>     7.3498     0.9588     8.5068 </r>
       <r>     7.4339     0.9742     8.5887 </r>
       <r>     7.5179     1.0043     8.6731 </r>
       <r>     7.6019     1.1529     8.7700 </r>
       <r>     7.6860     1.4290     8.8901 </r>
       <r>     7.7700     1.7125     9.0340 </r>
       <r>     7.8541     1.8336     9.1881 </r>
       <r>     7.9381     1.7158     9.3323 </r>
       <r>     8.0222     1.4501     9.4542 </r>
       <r>     8.1062     1.2076     9.5557 </r>
       <r>     8.1902     1.0999     9.6481 </r>
       <r>     8.2743     1.1438     9.7442 </r>
       <r>     8.3583     1.2815     9.8519 </r>
       <r>     8.4424     1.3903     9.9688 </r>
       <r>     8.5264     1.3628    10.0833 </r>
       <r>     8.6105     1.2221    10.1860 </r>
       <r>     8.6945     1.0993    10.2784 </r>
       <r>     8.7785     1.0903    10.3700 </r>
       <r>     8.8626     1.2023    10.4711 </r>
       <r>     8.9466     1.4292    10.5912 </r>
       <r>     9.0307     1.7491    10.7382 </r>
       <r>     9.1147     2.0469    10.9102 </r>
       <r>     9.1988     2.1847    11.0938 </r>
       <r>     9.2828     2.1417    11.2738 </r>
       <r>     9.3669     2.0003    11.4419 </r>
       <r>     9.4509     1.8369    11.5963 </r>
       <r>     9.5349     1.6684    11.7365 </r>
       <r>     9.6190     1.4822    11.8611 </r>
       <r>     9.7030     1.2935    11.9698 </r>
       <r>     9.7871     1.1438    12.0660 </r>
       <r>     9.8711     1.0584    12.1549 </r>
       <r>     9.9552     1.0363    12.2420 </r>
       <r>    10.0392     1.0509    12.3303 </r>
       <r>    10.1232     1.0519    12.4187 </r>
       <r>    10.2073     1.0238    12.5048 </r>
       <r>    10.2913     1.0435    12.5925 </r>
       <r>    10.3754     1.2126    12.6944 </r>
       <r>    10.4594     1.4966    12.8202 </r>
       <r>    10.5435     1.6885    12.9621 </r>
       <r>    10.6275     1.6175    13.0980 </r>
       <r>    10.7115     1.3845    13.2144 </r>
       <r>    10.7956     1.2695    13.3211 </r>
       <r>    10.8796     1.3940    13.4382 </r>
       <r>    10.9637     1.5871    13.5716 </r>
       <r>    11.0477     1.5904    13.7053 </r>
       <r>    11.1318     1.3300    13.8170 </r>
       <r>    11.2158     0.9724    13.8988 </r>
       <r>    11.2998     0.7242    13.9596 </r>
       <r>    11.3839     0.6421    14.0136 </r>
       <r>    11.4679     0.6668    14.0696 </r>
       <r>    11.5520     0.7410    14.1319 </r>
       <r>    11.6360     0.8137    14.2003 </r>
       <r>    11.7201     0.8172    14.2690 </r>
       <r>    11.8041     0.7457    14.3316 </r>
       <r>    11.8882     0.6961    14.3901 </r>
       <r>    11.9722     0.7629    14.4543 </r>
       <r>    12.0562     0.9305    14.5325 </r>
       <r>    12.1403     1.0779    14.6231 </r>
       <r>    12.2243     1.0884    14.7145 </r>
       <r>    12.3084     0.9730    14.7963 </r>
       <r>    12.3924     0.8471    14.8675 </r>
       <r>    12.4765     0.7897    14.9339 </r>
       <r>    12.5605     0.8115    15.0021 </r>
       <r>    12.6445     0.9158    15.0790 </r>
       <r>    12.7286     1.0695    15.1689 </r>
       <r>    12.8126     1.1678    15.2670 </r>
       <r>    12.8967     1.1489    15.3636 </r>
       <r>    12.9807     1.0780    15.4542 </r>
       <r>    13.0648     1.0214    15.5400 </r>
       <r>    13.1488     0.9276    15.6180 </r>
       <r>    13.2328     0.7317    15.6795 </r>
       <r>    13.3169     0.4868    15.7204 </r>
       <r>    13.4009     0.2935    15.7451 </r>
       <r>    13.4850     0.1859    15.7607 </r>
       <r>    13.5690     0.1493    15.7733 </r>
       <r>    13.6531     0.1633    15.7870 </r>
       <r>    13.7371     0.1883    15.8028 </r>
       <r>    13.8212     0.1770    15.8177 </r>
       <r>    13.9052     0.1224    15.8280 </r>
       <r>    13.9892     0.0606    15.8331 </r>
       <r>    14.0733     0.0214    15.8349 </r>
       <r>    14.1573     0.0060    15.8354 </r>
       <r>    14.2414     0.0052    15.8358 </r>
       <r>    14.3254     0.0184    15.8374 </r>
       <r>    14.4095     0.0573    15.8422 </r>
       <r>    14.4935     0.1305    15.8531 </r>
       <r>    14.5775     0.2203    15.8717 </r>
       <r>    14.6616     0.2847    15.8956 </r>
       <r>    14.7456     0.2963    15.9205 </r>
       <r>    14.8297     0.2666    15.9429 </r>
       <r>    14.9137     0.2234    15.9617 </r>
       <r>    14.9978     0.1797    15.9768 </r>
       <r>    15.0818     0.1330    15.9879 </r>
       <r>    15.1658     0.0831    15.9949 </r>
       <r>    15.2499     0.0407    15.9983 </r>
       <r>    15.3339     0.0148    15.9996 </r>
       <r>    15.4180     0.0039    15.9999 </r>
       <r>    15.5020     0.0008    16.0000 </r>
       <r>    15.5861     0.0001    16.0000 </r>
       <r>    15.6701     0.0000    16.0000 </r>
       <r>    15.7541     0.0000    16.0000 </r>
       <r>    15.8382     0.0000    16.0000 </r>
       <r>    15.9222     0.0000    16.0000 </r>
       <r>    16.0063     0.0000    16.0000 </r>
       <r>    16.0903     0.0000    16.0000 </r>
       <r>    16.1744     0.0000    16.0000 </r>
       <r>    16.2584     0.0000    16.0000 </r>
       <r>    16.3425     0.0000    16.0000 </r>
       <r>    16.4265     0.0000    16.0000 </r>
       <r>    16.5105     0.0000    16.0000 </r>
       <r>    16.5946     0.0000    16.0000 </r>
       <r>    16.6786     0.0000    16.0000 </r>
       <r>    16.7627     0.0000    16.0000 </r>
       <r>    16.8467     0.0000    16.0000 </r>
       <r>    16.9308     0.0000    16.0000 </r>
       <r>    17.0148     0.0000    16.0000 </r>
      </set>
     </set>
    </array>
   </total>
  </dos>
 </calculation>
 <structure name="finalpos" >
  <crystal>
   <varray name="basis" >
    <v>       0.00000000       2.73430037       2.73430037 </v>
    <v>       2.73430037       0.00000000       2.73430037 </v>
    <v>       2.73430037       2.73430037       0.00000000 </v>
   </varray>
   <i name="volume">     40.88543854 </i>
   <varray name="rec_basis" >
    <v>      -0.18286213       0.18286213       0.18286213 </v>
    <v>       0.18286213      -0.18286213       0.18286213 </v>
    <v>       0.18286213       0.18286213      -0.18286213 </v>
   </varray>
  </crystal>
  <varray name="positions" >
   <v>       0.50000000       0.50000000       0.50000000 </v>
   <v>       0.75000000       0.75000000       0.75000000 </v>
  </varray>
 </structure>
</modeling>
