    2    2   15    1
  0.1529437E+02  0.3691622E-09  0.3691622E-09  0.3691622E-09  0.5000000E-15
  1.000000000000000E-004
  CAR 
 unknown system                          
      8     11      8
 
  0.1250000E+00  0.1250000E+00  0.1250000E+00  0.1250000E+00
    1       -2.905891   1.000000
    2        3.528410   1.000000
    3        7.469482   1.000000
    4        8.429999   0.667961
    5       10.150061   0.000000
    6       11.542064   0.000000
    7       14.590721   0.000000
    8       14.845688   0.000000
 
  0.3750000E+00  0.1250000E+00  0.1250000E+00  0.1250000E+00
    1        0.572999   1.000000
    2        1.946886   1.000000
    3        4.223282   1.000000
    4        5.477665   1.000000
    5       10.163022   0.000000
    6       12.292250   0.000000
    7       13.999443   0.000000
    8       14.534089   0.000000
 
 -0.1250000E+00  0.1250000E+00  0.1250000E+00  0.6250000E-01
    1       -4.320621   1.000000
    2        5.054489   1.000000
    3        5.698253   1.000000
    4       11.343772   0.000000
    5       12.902475   0.000000
    6       13.111269   0.000000
    7       14.699302   0.000000
    8       16.120574   0.000000
 
  0.3750000E+00  0.3750000E+00  0.1250000E+00  0.6250000E-01
    1       -0.433246   1.000000
    2       -0.433246   1.000000
    3        7.413009   1.000000
    4        7.413010   1.000000
    5       11.945110   0.000000
    6       11.945112   0.000000
    7       13.839003   0.000000
    8       13.839006   0.000000
 
 -0.3750000E+00  0.3750000E+00  0.1250000E+00  0.1250000E+00
    1       -2.641698   1.000000
    2        0.653089   1.000000
    3        6.927411   1.000000
    4        9.738783   0.000000
    5       12.645345   0.000000
    6       13.482670   0.000000
    7       14.589955   0.000000
    8       16.436083   0.000000
 
 -0.1250000E+00  0.3750000E+00  0.1250000E+00  0.1250000E+00
    1       -2.080155   1.000000
    2        3.742718   1.000000
    3        4.798368   1.000000
    4        6.501576   1.000000
    5       10.363892   0.000000
    6       12.861261   0.000000
    7       13.192089   0.000000
    8       16.245561   0.000000
 
 -0.3750000E+00 -0.3750000E+00  0.1250000E+00  0.1250000E+00
    1        0.276846   1.000000
    2        0.426204   1.000000
    3        5.032799   1.000000
    4        6.794693   1.000000
    5        7.500077   1.000000
    6       12.041169   0.000000
    7       17.367913   0.000000
    8       17.633625   0.000000
 
 -0.1250000E+00 -0.3750000E+00  0.1250000E+00  0.1250000E+00
    1       -0.484938   1.000000
    2        3.121563   1.000000
    3        6.104961   1.000000
    4        6.136601   1.000000
    5        8.355334   0.832039
    6       10.725123   0.000000
    7       10.842160   0.000000
    8       15.721507   0.000000
 
 -0.1250000E+00 -0.1250000E+00  0.1250000E+00  0.3125000E-01
    1       -3.740994   1.000000
    2        7.505757   1.000000
    3        7.505757   1.000000
    4        9.771140   0.000000
    5       10.174263   0.000000
    6       10.508809   0.000000
    7       12.032117   0.000000
    8       12.713874   0.000000
 
 -0.3750000E+00  0.3750000E+00  0.3750000E+00  0.6250000E-01
    1       -0.994484   1.000000
    2        1.825160   1.000000
    3        2.794552   1.000000
    4        5.508582   1.000000
    5       11.758193   0.000000
    6       11.848252   0.000000
    7       20.311382   0.000000
    8       20.317505   0.000000
 
 -0.3750000E+00 -0.3750000E+00  0.3750000E+00  0.3125000E-01
    1        1.819206   1.000000
    2        2.503477   1.000000
    3        3.333707   1.000000
    4        3.333707   1.000000
    5        5.340180   1.000000
    6       16.122632   0.000000
    7       16.634984   0.000000
    8       16.634988   0.000000
