 running on    8 total cores
 distrk:  each k-point on    8 cores,    1 groups
 distr:  one band on    1 cores,    8 groups
 using from now: INCAR     
 vasp.5.4.4.18Apr17-6-g9f103f2a35 (build Dec 09 2018 21:25:21) complex          
  
 POSCAR found type information on POSCAR  Si
 POSCAR found :  1 types and       2 ions
 scaLAPACK will be used

 ----------------------------------------------------------------------------- 
|                                                                             |
|           W    W    AA    RRRRR   N    N  II  N    N   GGGG   !!!           |
|           W    W   A  A   R    R  NN   N  II  NN   N  G    G  !!!           |
|           W    W  A    A  R    R  N N  N  II  N N  N  G       !!!           |
|           W WW W  AAAAAA  RRRRR   N  N N  II  N  N N  G  GGG   !            |
|           WW  WW  A    A  R   R   N   NN  II  N   NN  G    G                |
|           W    W  A    A  R    R  N    N  II  N    N   GGGG   !!!           |
|                                                                             |
|      For optimal performance we recommend to set                            |
|        NCORE= 4 - approx SQRT( number of cores)                             |
|      NCORE specifies how many cores store one orbital (NPAR=cpu/NCORE).     |
|      This setting can  greatly improve the performance of VASP for DFT.     |
|      The default,   NCORE=1            might be grossly inefficient         |
|      on modern multi-core architectures or massively parallel machines.     |
|      Do your own testing !!!!                                               |
|      Unfortunately you need to use the default for GW and RPA calculations. |
|      (for HF NCORE is supported but not extensively tested yet)             |
|                                                                             |
 ----------------------------------------------------------------------------- 

 LDA part: xc-table for Pade appr. of Perdew
 POSCAR, INCAR and KPOINTS ok, starting setup
 FFT: planning ...
 WAVECAR not read
 entering main loop
       N       E                     dE             d eps       ncg     rms          rms(c)
DAV:   1     0.605826720975E+00    0.60583E+00   -0.28476E+03   176   0.584E+02
DAV:   2    -0.979809390518E+01   -0.10404E+02   -0.99939E+01   232   0.630E+01
DAV:   3    -0.100060382939E+02   -0.20794E+00   -0.20779E+00   248   0.978E+00
DAV:   4    -0.100066624729E+02   -0.62418E-03   -0.62418E-03   224   0.519E-01
DAV:   5    -0.100066638476E+02   -0.13747E-05   -0.13757E-05   264   0.153E-02    0.150E+00
DAV:   6    -0.100026103574E+02    0.40535E-02   -0.17003E-03   240   0.324E-01    0.938E-01
DAV:   7    -0.999915845957E+01    0.34519E-02   -0.51332E-03   224   0.575E-01    0.339E-02
DAV:   8    -0.999914091770E+01    0.17542E-04   -0.10019E-04   120   0.794E-02
   1 F= -.99991409E+01 E0= -.99920541E+01  d E =-.999914E+01
 curvature:   0.00 expect dE= 0.000E+00 dE for cont linesearch  0.000E+00
 trial: gam= 0.00000 g(F)=  0.150E-47 g(S)=  0.278E+00 ort = 0.000E+00 (trialstep = 0.100E+01)
 search vector abs. value=  0.278E+00
 bond charge predicted
       N       E                     dE             d eps       ncg     rms          rms(c)
DAV:   1    -0.103327913524E+02   -0.33363E+00   -0.64051E+00   240   0.147E+01    0.147E+00
DAV:   2    -0.102704035545E+02    0.62388E-01   -0.14639E-01   200   0.298E+00    0.829E-01
DAV:   3    -0.102395975507E+02    0.30806E-01   -0.84490E-02   224   0.157E+00    0.867E-02
DAV:   4    -0.102398141357E+02   -0.21659E-03   -0.29096E-03   200   0.441E-01
   2 F= -.10239814E+02 E0= -.10232541E+02  d E =-.240673E+00
 trial-energy change:   -0.240673  1 .order   -0.231892   -0.277686   -0.186098
 step:   1.9561(harm=  3.0319)  dis= 0.00000  next Energy=   -10.336450 (dE=-0.337E+00)
 bond charge predicted
       N       E                     dE             d eps       ncg     rms          rms(c)
DAV:   1    -0.104331947089E+02   -0.19360E+00   -0.52943E+00   264   0.131E+01    0.128E+00
DAV:   2    -0.103851621024E+02    0.48033E-01   -0.11441E-01   184   0.265E+00    0.732E-01
DAV:   3    -0.103603939865E+02    0.24768E-01   -0.68703E-02   240   0.141E+00    0.767E-02
DAV:   4    -0.103605306975E+02   -0.13671E-03   -0.20640E-03   176   0.370E-01
   3 F= -.10360531E+02 E0= -.10352769E+02  d E =-.361390E+00
 curvature:  -1.09 expect dE=-0.175E-01 dE for cont linesearch -0.732E-02
 ZBRENT: extrapolating
 opt :   2.2448  next Energy=   -10.366761 (dE=-0.368E+00)
 bond charge predicted
       N       E                     dE             d eps       ncg     rms          rms(c)
DAV:   1    -0.103709230073E+02   -0.10529E-01   -0.42997E-01   248   0.375E+00    0.336E-01
DAV:   2    -0.103678785734E+02    0.30444E-02   -0.87252E-03   208   0.735E-01    0.194E-01
DAV:   3    -0.103662172591E+02    0.16613E-02   -0.47290E-03   240   0.369E-01    0.224E-02
DAV:   4    -0.103662240856E+02   -0.68265E-05   -0.13123E-04    96   0.964E-02
   4 F= -.10366224E+02 E0= -.10355300E+02  d E =-.367083E+00
 curvature:  -0.93 expect dE=-0.187E-02 dE for cont linesearch -0.542E-04
 ZBRENT: bracketing found
 ZBRENT: interpolating
 opt :   2.2201  next Energy=   -10.366274 (dE=-0.367E+00)
 bond charge predicted
       N       E                     dE             d eps       ncg     rms          rms(c)
DAV:   1    -0.103662471084E+02   -0.29849E-04   -0.28497E-03   248   0.305E-01    0.301E-02
DAV:   2    -0.103662225098E+02    0.24599E-04   -0.58355E-05   104   0.607E-02
   5 F= -.10366223E+02 E0= -.10355492E+02  d E =-.367082E+00
 curvature:  -0.85 expect dE=-0.193E-02 dE for cont linesearch -0.145E-04
 ZBRENT: interpolating
 opt :   2.1925  next Energy=   -10.366254 (dE=-0.367E+00)
 bond charge predicted
       N       E                     dE             d eps       ncg     rms          rms(c)
DAV:   1    -0.103661545805E+02    0.92528E-04   -0.32939E-03   256   0.331E-01    0.319E-02
DAV:   2    -0.103661275663E+02    0.27014E-04   -0.65247E-05    96   0.641E-02
   6 F= -.10366128E+02 E0= -.10355661E+02  d E =-.366987E+00
 curvature:  -1.85 expect dE=-0.498E-02 dE for cont linesearch -0.781E-05
 ZBRENT: interpolating
 opt :   2.2017  next Energy=   -10.366133 (dE=-0.367E+00)
 bond charge predicted
       N       E                     dE             d eps       ncg     rms          rms(c)
DAV:   1    -0.103661598647E+02   -0.52842E-05   -0.64590E-04   168   0.145E-01    0.112E-02
DAV:   2    -0.103661574430E+02    0.24217E-05   -0.17891E-05    88   0.348E-02
   7 F= -.10366157E+02 E0= -.10355603E+02  d E =-.367017E+00
 curvature:  -1.18 expect dE=-0.283E-02 dE for cont linesearch -0.356E-04
 ZBRENT: interpolating
 opt :   2.2122  next Energy=   -10.366231 (dE=-0.367E+00)
 bond charge predicted
       N       E                     dE             d eps       ncg     rms          rms(c)
DAV:   1    -0.103661963979E+02   -0.36533E-04   -0.47538E-04   184   0.126E-01    0.120E-02
DAV:   2    -0.103661931446E+02    0.32533E-05   -0.13241E-05    96   0.285E-02
   8 F= -.10366193E+02 E0= -.10355538E+02  d E =-.367052E+00
 curvature:  -0.29 expect dE=-0.635E-03 dE for cont linesearch -0.246E-05
 ZBRENT: interpolating
 opt :   2.2155  next Energy=   -10.366196 (dE=-0.367E+00)
 bond charge predicted
       N       E                     dE             d eps       ncg     rms          rms(c)
DAV:   1    -0.103662001311E+02   -0.37333E-05   -0.36181E-05    88   0.358E-02    0.383E-03
DAV:   2    -0.103661999565E+02    0.17467E-06   -0.20995E-06    88   0.104E-02
   9 F= -.10366200E+02 E0= -.10355514E+02  d E =-.367059E+00
 curvature:  -0.30 expect dE=-0.651E-03 dE for cont linesearch -0.373E-06
 ZBRENT: interpolating
 opt :   2.2171  next Energy=   -10.366201 (dE=-0.367E+00)
 bond charge predicted
       N       E                     dE             d eps       ncg     rms          rms(c)
DAV:   1    -0.103662036265E+02   -0.34953E-05   -0.10797E-05    88   0.194E-02    0.199E-03
DAV:   2    -0.103662035973E+02    0.29136E-07   -0.60406E-07    88   0.551E-03
  10 F= -.10366204E+02 E0= -.10355503E+02  d E =-.367063E+00
 curvature:  -0.46 expect dE=-0.998E-03 dE for cont linesearch -0.178E-06
 trial: gam= 0.00669 g(F)=  0.622E-50 g(S)=  0.219E-02 ort = 0.329E-03 (trialstep = 0.124E+01)
 search vector abs. value=  0.220E-02
 bond charge predicted
       N       E                     dE             d eps       ncg     rms          rms(c)
DAV:   1    -0.103668130398E+02   -0.60941E-03   -0.46426E-02   264   0.129E+00    0.137E-01
DAV:   2    -0.103662966812E+02    0.51636E-03   -0.38449E-04   160   0.156E-01    0.812E-02
DAV:   3    -0.103659955261E+02    0.30116E-03   -0.34358E-04   112   0.112E-01
  11 F= -.10365996E+02 E0= -.10354971E+02  d E =0.208071E-03
 trial-energy change:    0.000208  1 .order    0.000235   -0.002721    0.003192
 step:   0.5722(harm=  0.5722)  dis= 0.00000  next Energy=   -10.366830 (dE=-0.626E-03)
 bond charge predicted
       N       E                     dE             d eps       ncg     rms          rms(c)
DAV:   1    -0.103670939708E+02   -0.79729E-03   -0.13458E-02   272   0.693E-01    0.734E-02
DAV:   2    -0.103669411893E+02    0.15278E-03   -0.11179E-04   120   0.853E-02
  12 F= -.10366941E+02 E0= -.10356084E+02  d E =-.737592E-03
 curvature:  -0.29 expect dE=-0.396E-04 dE for cont linesearch -0.383E-04
 ZBRENT: interpolating
 opt :   0.4588  next Energy=   -10.366972 (dE=-0.768E-03)
 bond charge predicted
       N       E                     dE             d eps       ncg     rms          rms(c)
DAV:   1    -0.103668290039E+02    0.26497E-03   -0.14219E-04   112   0.807E-02    0.134E-02
DAV:   2    -0.103668229068E+02    0.60971E-05   -0.82704E-06    96   0.234E-02
  13 F= -.10366823E+02 E0= -.10355990E+02  d E =-.619309E-03
 curvature:  -0.23 expect dE=-0.191E-04 dE for cont linesearch -0.143E-04
 ZBRENT: interpolating
 opt :   0.5048  next Energy=   -10.366831 (dE=-0.628E-03)
 bond charge predicted
       N       E                     dE             d eps       ncg     rms          rms(c)
DAV:   1    -0.103668358074E+02   -0.68035E-05   -0.81330E-05    88   0.545E-02    0.442E-03
DAV:   2    -0.103668355458E+02    0.26162E-06   -0.21730E-06    88   0.138E-02
  14 F= -.10366836E+02 E0= -.10355988E+02  d E =-.631948E-03
 curvature:  -0.14 expect dE=-0.981E-05 dE for cont linesearch -0.589E-05
 ZBRENT: bisectioning
 opt :   0.5385  next Energy=   -10.366845 (dE=-0.642E-03)
 bond charge predicted
       N       E                     dE             d eps       ncg     rms          rms(c)
DAV:   1    -0.103668434190E+02   -0.76116E-05   -0.30209E-05    88   0.334E-02    0.406E-03
DAV:   2    -0.103668431770E+02    0.24199E-06   -0.10413E-06    88   0.872E-03
  15 F= -.10366843E+02 E0= -.10355987E+02  d E =-.639580E-03
 curvature:  -0.22 expect dE=-0.979E-05 dE for cont linesearch -0.322E-05
 ZBRENT: bisectioning
 opt :   0.5553  next Energy=   -10.366846 (dE=-0.642E-03)
 writing wavefunctions
