unknown system                          
   1.00000000000000     
    -0.000000    2.732966    2.732966
     2.732966   -0.000000    2.732966
     2.732966    2.732966    0.000000
   Si
     2
Direct
  0.500000  0.500000  0.500000
  0.750000  0.750000  0.750000
 
   32   32   32
 0.85222325774E+00 0.87351160172E+00 0.93859651139E+00 0.10511289919E+01 0.12171519955E+01
 0.14448729045E+01 0.17439249335E+01 0.21236960191E+01 0.25904222304E+01 0.31431390883E+01
 0.37692142737E+01 0.44408405993E+01 0.51141852962E+01 0.57325544551E+01 0.62339008559E+01
 0.65615444349E+01 0.66755614609E+01 0.65615455476E+01 0.62339021571E+01 0.57325529545E+01
 0.51141782672E+01 0.44408297643E+01 0.37692049318E+01 0.31431345339E+01 0.25904214273E+01
 0.21236968202E+01 0.17439266437E+01 0.14448751403E+01 0.12171538411E+01 0.10511302807E+01
 0.93859790543E+00 0.87351285258E+00 0.87351160172E+00 0.91023426021E+00 0.98567198056E+00
 0.11036868328E+01 0.12697527891E+01 0.14905084158E+01 0.17728963310E+01 0.21225667397E+01
 0.25413232618E+01 0.30237702593E+01 0.35539274094E+01 0.41031422475E+01 0.46307484523E+01
 0.50883262884E+01 0.54272447097E+01 0.56078593209E+01 0.56078613616E+01 0.54272474330E+01
 0.50883218804E+01 0.46307323236E+01 0.41031214114E+01 0.35539179945E+01 0.30237815253E+01
 0.25413452794E+01 0.21225793146E+01 0.17728906491E+01 0.14904949297E+01 0.12697463167E+01
 0.11036894779E+01 0.98567507490E+00 0.91023292017E+00 0.87350992060E+00 0.93859651139E+00
 0.98567198056E+00 0.10667761208E+01 0.11856137062E+01 0.13468584730E+01 0.15555878544E+01
 0.18163521826E+01 0.21316599253E+01 0.24997700670E+01 0.29120463732E+01 0.33506643455E+01
 0.37878529007E+01 0.41877278598E+01 0.45110219713E+01 0.47219171177E+01 0.47952391213E+01
 0.47219177779E+01 0.45110226011E+01 0.41877280367E+01 0.37878528958E+01 0.33506644259E+01
 0.29120461865E+01 0.24997691274E+01 0.21316584435E+01 0.18163509637E+01 0.15555874150E+01
 0.13468586021E+01 0.11856139197E+01 0.10667762267E+01 0.98567205902E+00 0.93859658978E+00
 0.92317707416E+00 0.10511289919E+01 0.11036868328E+01 0.11856137062E+01 0.13002916876E+01
 0.14516161004E+01 0.16433342756E+01 0.18780465498E+01 0.21557692419E+01 0.24720853358E+01
 0.28162326046E+01 0.31698777859E+01 0.35074957141E+01 0.37989551141E+01 0.40141443622E+01
 0.41286043585E+01 0.41286045182E+01 0.40141444195E+01 0.37989564336E+01 0.35075025723E+01
 0.31698902682E+01 0.28162406856E+01 0.24720771064E+01 0.21557463722E+01 0.18780259641E+01
 0.16433311601E+01 0.14516286334E+01 0.13003057189E+01 0.11856192575E+01 0.11036853528E+01
 0.10511264070E+01 0.10254885233E+01 0.10254894401E+01 0.12171519955E+01 0.12697527891E+01
 0.13468584730E+01 0.14516161004E+01 0.15873602856E+01 0.17568360892E+01 0.19611437213E+01
 0.21984176074E+01 0.24623849010E+01 0.27412045111E+01 0.30172108781E+01 0.32681467235E+01
 0.34700512353E+01 0.36013164758E+01 0.36468739249E+01 0.36013168632E+01 0.34700517270E+01
 0.32681465618E+01 0.30172090796E+01 0.27412007610E+01 0.24623802622E+01 0.21984140555E+01
 0.19611427165E+01 0.17568375350E+01 0.15873628045E+01 0.14516181371E+01 0.13468591391E+01
 0.12697520600E+01 0.12171505536E+01 0.11865999318E+01 0.11765855543E+01 0.11866010495E+01
 0.14448729045E+01 0.14905084158E+01 0.15555878544E+01 0.16433342756E+01 0.17568360892E+01
 0.18981578237E+01 0.20672924981E+01 0.22610490417E+01 0.24720859375E+01 0.26884729262E+01
 0.28942202435E+01 0.30710191323E+01 0.32010108995E+01 0.32699549973E+01 0.32699540805E+01
 0.32010100036E+01 0.30710197673E+01 0.28942186836E+01 0.26884644773E+01 0.24720740776E+01
 0.22610455075E+01 0.20673051240E+01 0.18981799737E+01 0.17568512202E+01 0.16433314813E+01
 0.15555716354E+01 0.14904929793E+01 0.14448681371E+01 0.14159802816E+01 0.14019833523E+01
 0.14019804637E+01 0.14159765927E+01 0.17439249335E+01 0.17728963310E+01 0.18163521826E+01
 0.18780465498E+01 0.19611437213E+01 0.20672924981E+01 0.21957153368E+01 0.23424239529E+01
 0.24997700578E+01 0.26566347556E+01 0.27994909204E+01 0.29142889503E+01 0.29887635277E+01
 0.30145729394E+01 0.29887648638E+01 0.29142910235E+01 0.27994931955E+01 0.26566372962E+01
 0.24997732045E+01 0.23424274413E+01 0.21957179892E+01 0.20672930472E+01 0.19611419009E+01
 0.18780432526E+01 0.18163486781E+01 0.17728935186E+01 0.17439231627E+01 0.17259219775E+01
 0.17161969128E+01 0.17131314052E+01 0.17161971474E+01 0.17259227958E+01 0.21236960191E+01
 0.21225667397E+01 0.21316599253E+01 0.21557692419E+01 0.21984176074E+01 0.22610490417E+01
 0.23424239529E+01 0.24382672768E+01 0.25413226429E+01 0.26420135107E+01 0.27297546020E+01
 0.27946536863E+01 0.28291415331E+01 0.28291438921E+01 0.27946586196E+01 0.27297585887E+01
 0.26420166015E+01 0.25413285723E+01 0.24382772790E+01 0.23424312882E+01 0.22610428121E+01
 0.21983949003E+01 0.21557426038E+01 0.21316484247E+01 0.21225770484E+01 0.21237150001E+01
 0.21299470996E+01 0.21367881659E+01 0.21410310439E+01 0.21410347562E+01 0.21367913021E+01
 0.21299376071E+01 0.25904222304E+01 0.25413232618E+01 0.24997700670E+01 0.24720853358E+01
 0.24623849010E+01 0.24720859375E+01 0.24997700578E+01 0.25413226429E+01 0.25904222173E+01
 0.26394815492E+01 0.26809347599E+01 0.27085163044E+01 0.27181738554E+01 0.27085170885E+01
 0.26809360233E+01 0.26394837009E+01 0.25904251552E+01 0.25413237276E+01 0.24997659475E+01
 0.24720767534E+01 0.24623744752E+01 0.24720773550E+01 0.24997659382E+01 0.25413231087E+01
 0.25904251420E+01 0.26394842955E+01 0.26809360140E+01 0.27085164768E+01 0.27181738554E+01
 0.27085169162E+01 0.26809347692E+01 0.26394809546E+01 0.31431390883E+01 0.30237702593E+01
 0.29120463732E+01 0.28162326046E+01 0.27412045111E+01 0.26884729262E+01 0.26566347556E+01
 0.26420135107E+01 0.26394815492E+01 0.26434870672E+01 0.26491070118E+01 0.26528141249E+01
 0.26528139869E+01 0.26491054370E+01 0.26434844366E+01 0.26394817862E+01 0.26420162037E+01
 0.26566313736E+01 0.26884589846E+01 0.27411909166E+01 0.28162349877E+01 0.29120642392E+01
 0.30237858079E+01 0.31431381176E+01 0.32592144580E+01 0.33599904687E+01 0.34343091028E+01
 0.34737200362E+01 0.34737201307E+01 0.34343130853E+01 0.33600023693E+01 0.32592278041E+01
 0.37692142737E+01 0.35539274094E+01 0.33506643455E+01 0.31698777859E+01 0.30172108781E+01
 0.28942202435E+01 0.27994909204E+01 0.27297546020E+01 0.26809347599E+01 0.26491070118E+01
 0.26312269255E+01 0.26254660535E+01 0.26312276529E+01 0.26491062783E+01 0.26809334980E+01
 0.27297560492E+01 0.27994942460E+01 0.28942210254E+01 0.30172084304E+01 0.31698761934E+01
 0.33506656326E+01 0.35539293552E+01 0.37692156560E+01 0.39815358521E+01 0.41729872823E+01
 0.43254786178E+01 0.44237258620E+01 0.44576434043E+01 0.44237256013E+01 0.43254764175E+01
 0.41729837831E+01 0.39815334484E+01 0.44408405993E+01 0.41031422475E+01 0.37878529007E+01
 0.35074957141E+01 0.32681467235E+01 0.30710191323E+01 0.29142889503E+01 0.27946536863E+01
 0.27085163044E+01 0.26528141249E+01 0.26254660535E+01 0.26254652236E+01 0.26528131381E+01
 0.27085176596E+01 0.27946571112E+01 0.29142913243E+01 0.30710196974E+01 0.32681494322E+01
 0.35075020591E+01 0.37878554264E+01 0.41031329845E+01 0.44408254223E+01 0.47815065183E+01
 0.51002309889E+01 0.53698748021E+01 0.55654921630E+01 0.56682938145E+01 0.56682889948E+01
 0.55654769891E+01 0.53698536001E+01 0.51002175831E+01 0.47815110888E+01 0.51141852962E+01
 0.46307484523E+01 0.41877278598E+01 0.37989551141E+01 0.34700512353E+01 0.32010108995E+01
 0.29887635277E+01 0.28291415331E+01 0.27181738554E+01 0.26528139869E+01 0.26312276529E+01
 0.26528131381E+01 0.27181727072E+01 0.28291413845E+01 0.29887644309E+01 0.32010102407E+01
 0.34700472081E+01 0.37989508332E+01 0.41877286240E+01 0.46307552599E+01 0.51141941825E+01
 0.56144996170E+01 0.60991869041E+01 0.65303992205E+01 0.68705568824E+01 0.70883417812E+01
 0.71632951441E+01 0.70883460950E+01 0.68705609848E+01 0.65303995027E+01 0.60991830859E+01
 0.56144925226E+01 0.57325544551E+01 0.50883262884E+01 0.45110219713E+01 0.40141443622E+01
 0.36013164758E+01 0.32699549973E+01 0.30145729394E+01 0.28291438921E+01 0.27085170885E+01
 0.26491054370E+01 0.26491062783E+01 0.27085176596E+01 0.28291413845E+01 0.30145680686E+01
 0.32699508169E+01 0.36013135731E+01 0.40141406875E+01 0.45110188312E+01 0.50883313672E+01
 0.57325745640E+01 0.64175460843E+01 0.71039599507E+01 0.77425689554E+01 0.82806079155E+01
 0.86698864021E+01 0.88741714692E+01 0.88741860116E+01 0.86699192071E+01 0.82806348656E+01
 0.77425711820E+01 0.71039376330E+01 0.64175160187E+01 0.62339008559E+01 0.54272447097E+01
 0.47219171177E+01 0.41286043585E+01 0.36468739249E+01 0.32699540805E+01 0.29887648638E+01
 0.27946586196E+01 0.26809360233E+01 0.26434844366E+01 0.26809334980E+01 0.27946571112E+01
 0.29887644309E+01 0.32699508169E+01 0.36468677815E+01 0.41286017964E+01 0.47219239714E+01
 0.54272603501E+01 0.62339202037E+01 0.71158406041E+01 0.80295531042E+01 0.89158948771E+01
 0.97060472533E+01 0.10330995166E+02 0.10732137013E+02 0.10870410257E+02 0.10732139954E+02
 0.10331001594E+02 0.97060538850E+01 0.89158951600E+01 0.80295434834E+01 0.71158234270E+01
 0.65615444349E+01 0.56078593209E+01 0.47952391213E+01 0.41286045182E+01 0.36013168632E+01
 0.32010100036E+01 0.29142910235E+01 0.27297585887E+01 0.26394837009E+01 0.26394817862E+01
 0.27297560492E+01 0.29142913243E+01 0.32010102407E+01 0.36013135731E+01 0.41286017964E+01
 0.47952451281E+01 0.56078770720E+01 0.65615684600E+01 0.76341518456E+01 0.87823625888E+01
 0.99413734294E+01 0.11028818635E+02 0.11953609436E+02 0.12628657863E+02 0.12985179378E+02
 0.12985163590E+02 0.12628628981E+02 0.11953598742E+02 0.11028832043E+02 0.99413895820E+01
 0.87823616628E+01 0.76341333753E+01 0.66755614609E+01 0.56078613616E+01 0.47219177779E+01
 0.40141444195E+01 0.34700517270E+01 0.30710197673E+01 0.27994931955E+01 0.26420166015E+01
 0.25904251552E+01 0.26420162037E+01 0.27994942460E+01 0.30710196974E+01 0.34700472081E+01
 0.40141406875E+01 0.47219239714E+01 0.56078770720E+01 0.66755778189E+01 0.79107484741E+01
 0.92756995765E+01 0.10706468253E+02 0.12113624315E+02 0.13387865207E+02 0.14411724308E+02
 0.15077375522E+02 0.15308161104E+02 0.15077372197E+02 0.14411725912E+02 0.13387872518E+02
 0.12113628067E+02 0.10706463336E+02 0.92756896692E+01 0.79107359239E+01 0.65615455476E+01
 0.54272474330E+01 0.45110226011E+01 0.37989564336E+01 0.32681465618E+01 0.28942186836E+01
 0.26566372962E+01 0.25413285723E+01 0.25413237276E+01 0.26566313736E+01 0.28942210254E+01
 0.32681494322E+01 0.37989508332E+01 0.45110188312E+01 0.54272603501E+01 0.65615684600E+01
 0.79107484741E+01 0.94476395483E+01 0.11116336745E+02 0.12829653924E+02 0.14469644799E+02
 0.15892734515E+02 0.16941676877E+02 0.17496359008E+02 0.17496371143E+02 0.16941700612E+02
 0.15892745729E+02 0.14469634748E+02 0.12829637535E+02 0.11116330251E+02 0.94476374982E+01
 0.79107349174E+01 0.62339021571E+01 0.50883218804E+01 0.41877280367E+01 0.35075025723E+01
 0.30172090796E+01 0.26884644773E+01 0.24997732045E+01 0.24382772790E+01 0.24997659475E+01
 0.26884589846E+01 0.30172084304E+01 0.35075020591E+01 0.41877286240E+01 0.50883313672E+01
 0.62339202037E+01 0.76341518456E+01 0.92756995765E+01 0.11116336745E+02 0.13080250967E+02
 0.15053711856E+02 0.16875563215E+02 0.18343351605E+02 0.19292202743E+02 0.19619985701E+02
 0.19292201323E+02 0.18343347982E+02 0.16875555553E+02 0.15053701342E+02 0.13080243406E+02
 0.11116334082E+02 0.92756940576E+01 0.76341367816E+01 0.57325529545E+01 0.46307323236E+01
 0.37878528958E+01 0.31698902682E+01 0.27412007610E+01 0.24720740776E+01 0.23424274413E+01
 0.23424312882E+01 0.24720767534E+01 0.27411909166E+01 0.31698761934E+01 0.37878554264E+01
 0.46307552599E+01 0.57325745640E+01 0.71158406041E+01 0.87823625888E+01 0.10706468253E+02
 0.12829653924E+02 0.15053711856E+02 0.17219843906E+02 0.19095825162E+02 0.20472515361E+02
 0.21200117369E+02 0.21200104458E+02 0.20472490995E+02 0.19095810772E+02 0.17219838772E+02
 0.15053702756E+02 0.12829642949E+02 0.10706469187E+02 0.87823729069E+01 0.71158393102E+01
 0.51141782672E+01 0.41031214114E+01 0.33506644259E+01 0.28162406856E+01 0.24623802622E+01
 0.22610455075E+01 0.21957179892E+01 0.22610428121E+01 0.24623744752E+01 0.28162349877E+01
 0.33506656326E+01 0.41031329845E+01 0.51141941825E+01 0.64175460843E+01 0.80295531042E+01
 0.99413734294E+01 0.12113624315E+02 0.14469644799E+02 0.16875563215E+02 0.19095825162E+02
 0.20884246883E+02 0.22043886433E+02 0.22445564145E+02 0.22043872589E+02 0.20884224887E+02
 0.19095803903E+02 0.16875551363E+02 0.14469647202E+02 0.12113638611E+02 0.99413896059E+01
 0.80295592524E+01 0.64175377171E+01 0.44408297643E+01 0.35539179945E+01 0.29120461865E+01
 0.24720771064E+01 0.21984140555E+01 0.20673051240E+01 0.20672930472E+01 0.21983949003E+01
 0.24720773550E+01 0.29120642392E+01 0.35539293552E+01 0.44408254223E+01 0.56144996170E+01
 0.71039599507E+01 0.89158948771E+01 0.11028818635E+02 0.13387865207E+02 0.15892734515E+02
 0.18343351605E+02 0.20472515361E+02 0.22043886433E+02 0.22878656861E+02 0.22878654612E+02
 0.22043870499E+02 0.20472481173E+02 0.18343324630E+02 0.15892744467E+02 0.13387903006E+02
 0.11028845592E+02 0.89158935066E+01 0.71039505904E+01 0.56145021875E+01 0.37692049318E+01
 0.30237815253E+01 0.24997691274E+01 0.21557463722E+01 0.19611427165E+01 0.18981799737E+01
 0.19611419009E+01 0.21557426038E+01 0.24997659382E+01 0.30237858079E+01 0.37692156560E+01
 0.47815065183E+01 0.60991869041E+01 0.77425689554E+01 0.97060472533E+01 0.11953609436E+02
 0.14411724308E+02 0.16941676877E+02 0.19292202743E+02 0.21200117369E+02 0.22445564145E+02
 0.22878654612E+02 0.22445558322E+02 0.21200101997E+02 0.19292183815E+02 0.16941669601E+02
 0.14411735642E+02 0.11953630981E+02 0.97060671514E+01 0.77425813398E+01 0.60991892457E+01
 0.47814988581E+01 0.31431345339E+01 0.25413452794E+01 0.21316584435E+01 0.18780259641E+01
 0.17568375350E+01 0.17568512202E+01 0.18780432526E+01 0.21316484247E+01 0.25413231087E+01
 0.31431381176E+01 0.39815358521E+01 0.51002309889E+01 0.65303992205E+01 0.82806079155E+01
 0.10330995166E+02 0.12628657863E+02 0.15077375522E+02 0.17496359008E+02 0.19619985701E+02
 0.21200104458E+02 0.22043872589E+02 0.22043870499E+02 0.21200101997E+02 0.19619986687E+02
 0.17496357869E+02 0.15077365969E+02 0.12628650464E+02 0.10331010955E+02 0.82806457006E+01
 0.65304251521E+01 0.51002192472E+01 0.39815077018E+01 0.25904214273E+01 0.21225793146E+01
 0.18163509637E+01 0.16433311601E+01 0.15873628045E+01 0.16433314813E+01 0.18163486781E+01
 0.21225770484E+01 0.25904251420E+01 0.32592144580E+01 0.41729872823E+01 0.53698748021E+01
 0.68705568824E+01 0.86698864021E+01 0.10732137013E+02 0.12985179378E+02 0.15308161104E+02
 0.17496371143E+02 0.19292201323E+02 0.20472490995E+02 0.20884224887E+02 0.20472481173E+02
 0.19292183815E+02 0.17496357869E+02 0.15308166773E+02 0.12985203761E+02 0.10732164949E+02
 0.86699063017E+01 0.68705684551E+01 0.53698792934E+01 0.41729835330E+01 0.32592064887E+01
 0.21236968202E+01 0.17728906491E+01 0.15555874150E+01 0.14516286334E+01 0.14516181371E+01
 0.15555716354E+01 0.17728935186E+01 0.21237150001E+01 0.26394842955E+01 0.33599904687E+01
 0.43254786178E+01 0.55654921630E+01 0.70883417812E+01 0.88741714692E+01 0.10870410257E+02
 0.12985163590E+02 0.15077372197E+02 0.16941700612E+02 0.18343347982E+02 0.19095810772E+02
 0.19095803903E+02 0.18343324630E+02 0.16941669601E+02 0.15077365969E+02 0.12985203761E+02
 0.10870471119E+02 0.88742053115E+01 0.70883369582E+01 0.55654803872E+01 0.43254842761E+01
 0.33599999851E+01 0.26394760261E+01 0.17439266437E+01 0.14904949297E+01 0.13468586021E+01
 0.13003057189E+01 0.13468591391E+01 0.14904929793E+01 0.17439231627E+01 0.21299470996E+01
 0.26809360140E+01 0.34343091028E+01 0.44237258620E+01 0.56682938145E+01 0.71632951441E+01
 0.88741860116E+01 0.10732139954E+02 0.12628628981E+02 0.14411725912E+02 0.15892745729E+02
 0.16875555553E+02 0.17219838772E+02 0.16875551363E+02 0.15892744467E+02 0.14411735642E+02
 0.12628650464E+02 0.10732164949E+02 0.88742053115E+01 0.71633063239E+01 0.56682989844E+01
 0.44237257349E+01 0.34343042519E+01 0.26809310218E+01 0.21299469813E+01 0.14448751403E+01
 0.12697463167E+01 0.11856139197E+01 0.11856192575E+01 0.12697520600E+01 0.14448681371E+01
 0.17259219775E+01 0.21367881659E+01 0.27085164768E+01 0.34737200362E+01 0.44576434043E+01
 0.56682889948E+01 0.70883460950E+01 0.86699192071E+01 0.10331001594E+02 0.11953598742E+02
 0.13387872518E+02 0.14469634748E+02 0.15053701342E+02 0.15053702756E+02 0.14469647202E+02
 0.13387903006E+02 0.11953630981E+02 0.10331010955E+02 0.86699063017E+01 0.70883369582E+01
 0.56682989844E+01 0.44576580307E+01 0.34737201426E+01 0.27085074508E+01 0.21367890327E+01
 0.17259344090E+01 0.12171538411E+01 0.11036894779E+01 0.10667762267E+01 0.11036853528E+01
 0.12171505536E+01 0.14159802816E+01 0.17161969128E+01 0.21410310439E+01 0.27181738554E+01
 0.34737201307E+01 0.44237256013E+01 0.55654769891E+01 0.68705609848E+01 0.82806348656E+01
 0.97060538850E+01 0.11028832043E+02 0.12113628067E+02 0.12829637535E+02 0.13080243406E+02
 0.12829642949E+02 0.12113638611E+02 0.11028845592E+02 0.97060671514E+01 0.82806457006E+01
 0.68705684551E+01 0.55654803872E+01 0.44237257349E+01 0.34737201426E+01 0.27181758169E+01
 0.21410331278E+01 0.17161970252E+01 0.14159805094E+01 0.10511302807E+01 0.98567507490E+00
 0.98567205902E+00 0.10511264070E+01 0.11865999318E+01 0.14019833523E+01 0.17131314052E+01
 0.21410347562E+01 0.27085169162E+01 0.34343130853E+01 0.43254764175E+01 0.53698536001E+01
 0.65303995027E+01 0.77425711820E+01 0.89158951600E+01 0.99413895820E+01 0.10706463336E+02
 0.11116330251E+02 0.11116334082E+02 0.10706469187E+02 0.99413896059E+01 0.89158935066E+01
 0.77425813398E+01 0.65304251521E+01 0.53698792934E+01 0.43254842761E+01 0.34343042519E+01
 0.27085074508E+01 0.21410331278E+01 0.17131315921E+01 0.14019803234E+01 0.11865985779E+01
 0.93859790543E+00 0.91023292017E+00 0.93859658978E+00 0.10254885233E+01 0.11765855543E+01
 0.14019804637E+01 0.17161971474E+01 0.21367913021E+01 0.26809347692E+01 0.33600023693E+01
 0.41729837831E+01 0.51002175831E+01 0.60991830859E+01 0.71039376330E+01 0.80295434834E+01
 0.87823616628E+01 0.92756896692E+01 0.94476374982E+01 0.92756940576E+01 0.87823729069E+01
 0.80295592524E+01 0.71039505904E+01 0.60991892457E+01 0.51002192472E+01 0.41729835330E+01
 0.33599999851E+01 0.26809310218E+01 0.21367890327E+01 0.17161970252E+01 0.14019803234E+01
 0.11765848347E+01 0.10254889169E+01 0.87351285258E+00 0.87350992060E+00 0.92317707416E+00
 0.10254894401E+01 0.11866010495E+01 0.14159765927E+01 0.17259227958E+01 0.21299376071E+01
 0.26394809546E+01 0.32592278041E+01 0.39815334484E+01 0.47815110888E+01 0.56144925226E+01
 0.64175160187E+01 0.71158234270E+01 0.76341333753E+01 0.79107359239E+01 0.79107349174E+01
 0.76341367816E+01 0.71158393102E+01 0.64175377171E+01 0.56145021875E+01 0.47814988581E+01
 0.39815077018E+01 0.32592064887E+01 0.26394760261E+01 0.21299469813E+01 0.17259344090E+01
 0.14159805094E+01 0.11865985779E+01 0.10254889169E+01 0.92318132436E+00 0.87351231616E+00
 0.91023455836E+00 0.98567201046E+00 0.11036869568E+01 0.12697529346E+01 0.14905082881E+01
 0.17728960481E+01 0.21225666510E+01 0.25413233592E+01 0.30237703752E+01 0.35539277718E+01
 0.41031432115E+01 0.46307498749E+01 0.50883277607E+01 0.54272461820E+01 0.56078608937E+01
 0.56078626901E+01 0.54272479774E+01 0.50883215681E+01 0.46307313944E+01 0.41031198552E+01
 0.35539157617E+01 0.30237790641E+01 0.25413432195E+01 0.21225777860E+01 0.17728894760E+01
 0.14904942484E+01 0.12697463800E+01 0.11036900671E+01 0.98567573360E+00 0.91023358033E+00
 0.87351071859E+00 0.91023455836E+00 0.95616838746E+00 0.10354094926E+01 0.11516756409E+01
 0.13095857039E+01 0.15140790593E+01 0.17695071267E+01 0.20781812504E+01 0.24382681693E+01
 0.28412648911E+01 0.32697896094E+01 0.36968165224E+01 0.40874000432E+01 0.44032326135E+01
 0.46093025807E+01 0.46809595791E+01 0.46093077716E+01 0.44032302136E+01 0.40873822645E+01
 0.36967937971E+01 0.32697821162E+01 0.28412811410E+01 0.24382948116E+01 0.20781957774E+01
 0.17694998274E+01 0.15140607457E+01 0.13095739205E+01 0.11516760649E+01 0.10354135273E+01
 0.95616730477E+00 0.91023044684E+00 0.89519898129E+00 0.98567201046E+00 0.10354094926E+01
 0.11132472188E+01 0.12226025939E+01 0.13672636530E+01 0.15507184254E+01 0.17752365883E+01
 0.20405941130E+01 0.23424239717E+01 0.26704693791E+01 0.30074056566E+01 0.33291028025E+01
 0.36069596589E+01 0.38122411260E+01 0.39214900409E+01 0.39214917132E+01 0.38122433154E+01
 0.36069583125E+01 0.33290992402E+01 0.30074054542E+01 0.26704750688E+01 0.23424315738E+01
 0.20405975716E+01 0.17752340001E+01 0.15507131269E+01 0.13672601505E+01 0.12226022285E+01
 0.11132476356E+01 0.10354079783E+01 0.98566894451E+00 0.96147985723E+00 0.96148146895E+00
 0.11036869568E+01 0.11516756409E+01 0.12226025939E+01 0.13196484430E+01 0.14459870728E+01
 0.16040349218E+01 0.17945449208E+01 0.20155274839E+01 0.22610485542E+01 0.25201922168E+01
 0.27767426750E+01 0.30101783153E+01 0.31982284355E+01 0.33206301660E+01 0.33631437654E+01
 0.33206339891E+01 0.31982310689E+01 0.30101795270E+01 0.27767478920E+01 0.25202008148E+01
 0.22610497605E+01 0.20155144905E+01 0.17945275472E+01 0.16040298100E+01 0.14459971240E+01
 0.13196601419E+01 0.12226042917E+01 0.11516704274E+01 0.11036840741E+01 0.10760229053E+01
 0.10669945449E+01 0.10760219839E+01 0.12697529346E+01 0.13095857039E+01 0.13672636530E+01
 0.14459870728E+01 0.15486330518E+01 0.16769454556E+01 0.18306785417E+01 0.20067381285E+01
 0.21984177417E+01 0.23949974034E+01 0.25821065593E+01 0.27431563060E+01 0.28617824854E+01
 0.29247888405E+01 0.29247917892E+01 0.28617865577E+01 0.27431547281E+01 0.25821011579E+01
 0.23949954603E+01 0.21984203859E+01 0.20067389165E+01 0.18306742689E+01 0.16769416252E+01
 0.15486351785E+01 0.14459917394E+01 0.13672635368E+01 0.13095805574E+01 0.12697493997E+01
 0.12449189132E+01 0.12330299943E+01 0.12330284355E+01 0.12449177418E+01 0.14905082881E+01
 0.15140790593E+01 0.15507184254E+01 0.16040349218E+01 0.16769454556E+01 0.17708598718E+01
 0.18849444382E+01 0.20155278304E+01 0.21557697014E+01 0.22958103584E+01 0.24236188078E+01
 0.25265722028E+01 0.25935041233E+01 0.26167277440E+01 0.25935033243E+01 0.25265709959E+01
 0.24236168948E+01 0.22958071834E+01 0.21557666976E+01 0.20155288570E+01 0.18849520438E+01
 0.17708709905E+01 0.16769524619E+01 0.16040322384E+01 0.15507078785E+01 0.15140681367E+01
 0.14905033017E+01 0.14764989124E+01 0.14692566830E+01 0.14670354049E+01 0.14692538817E+01
 0.14764976993E+01 0.17728960481E+01 0.17695071267E+01 0.17752365883E+01 0.17945449208E+01
 0.18306785417E+01 0.18849444382E+01 0.19561999319E+01 0.20405938091E+01 0.21316596313E+01
 0.22208986912E+01 0.22988866254E+01 0.23567285283E+01 0.23875267033E+01 0.23875261137E+01
 0.23567276541E+01 0.22988880012E+01 0.22209046718E+01 0.21316688720E+01 0.20406006827E+01
 0.19561996166E+01 0.18849382090E+01 0.18306721573E+01 0.17945420312E+01 0.17752357730E+01
 0.17695056047E+01 0.17728939322E+01 0.17806041781E+01 0.17883579965E+01 0.17930402411E+01
 0.17930393847E+01 0.17883568261E+01 0.17806048072E+01 0.21225666510E+01 0.20781812504E+01
 0.20405941130E+01 0.20155274839E+01 0.20067381285E+01 0.20155278304E+01 0.20405938091E+01
 0.20781802820E+01 0.21225660466E+01 0.21669228164E+01 0.22044374588E+01 0.22294287408E+01
 0.22381861288E+01 0.22294285849E+01 0.22044401814E+01 0.21669323076E+01 0.21225816701E+01
 0.20781933154E+01 0.20405928666E+01 0.20155099282E+01 0.20067128781E+01 0.20155092228E+01
 0.20405907267E+01 0.20781901295E+01 0.21225788257E+01 0.21669301667E+01 0.22044380367E+01
 0.22294265875E+01 0.22381852954E+01 0.22294290239E+01 0.22044377475E+01 0.21669228936E+01
 0.25413233592E+01 0.24382681693E+01 0.23424239717E+01 0.22610485542E+01 0.21984177417E+01
 0.21557697014E+01 0.21316596313E+01 0.21225660466E+01 0.21236961183E+01 0.21299383274E+01
 0.21367916720E+01 0.21410351330E+01 0.21410324815E+01 0.21367902497E+01 0.21299485794E+01
 0.21237159784E+01 0.21225783786E+01 0.21316495634E+01 0.21557422804E+01 0.21983933596E+01
 0.22610412446E+01 0.23424296427E+01 0.24382748067E+01 0.25413259080E+01 0.26420150748E+01
 0.27297580199E+01 0.27946579458E+01 0.28291433682E+01 0.28291421374E+01 0.27946549565E+01
 0.27297552696E+01 0.26420137144E+01 0.30237703752E+01 0.28412648911E+01 0.26704693791E+01
 0.25201922168E+01 0.23949974034E+01 0.22958103584E+01 0.22208986912E+01 0.21669228164E+01
 0.21299383274E+01 0.21062763060E+01 0.20931621343E+01 0.20889641522E+01 0.20931624917E+01
 0.21062856553E+01 0.21299585190E+01 0.21669382716E+01 0.22208887529E+01 0.22957751142E+01
 0.23949645066E+01 0.25201902657E+01 0.26704967952E+01 0.28412927578E+01 0.30237755231E+01
 0.32051261099E+01 0.33697849325E+01 0.35017175463E+01 0.35870955040E+01 0.36166360632E+01
 0.35870873965E+01 0.35017141315E+01 0.33697947366E+01 0.32051388124E+01 0.35539277718E+01
 0.32697896094E+01 0.30074056566E+01 0.27767426750E+01 0.25821065593E+01 0.24236188078E+01
 0.22988866254E+01 0.22044374588E+01 0.21367916720E+01 0.20931621343E+01 0.20717602927E+01
 0.20717648216E+01 0.20931778371E+01 0.21368163977E+01 0.22044547169E+01 0.22988766812E+01
 0.24235834630E+01 0.25820742862E+01 0.27767411829E+01 0.30074329129E+01 0.32698192975E+01
 0.35539404466E+01 0.38436119481E+01 0.41173620085E+01 0.43511017049E+01 0.45219634260E+01
 0.46122106588E+01 0.46122086381E+01 0.45219581879E+01 0.43510970949E+01 0.41173622803E+01
 0.38436124562E+01 0.41031432115E+01 0.36968165224E+01 0.33291028025E+01 0.30101783153E+01
 0.27431563060E+01 0.25265722028E+01 0.23567285283E+01 0.22294287408E+01 0.21410351330E+01
 0.20889641522E+01 0.20717648216E+01 0.20889827880E+01 0.21410654839E+01 0.22294498764E+01
 0.23567169870E+01 0.25265309455E+01 0.27431212589E+01 0.30101827748E+01 0.33291399004E+01
 0.36968494015E+01 0.41031499123E+01 0.45291268403E+01 0.49471936482E+01 0.53237129226E+01
 0.56238853564E+01 0.58175922631E+01 0.58845409211E+01 0.58175891938E+01 0.56238743122E+01
 0.53236991604E+01 0.49471906295E+01 0.45291331128E+01 0.46307498749E+01 0.40874000432E+01
 0.36069596589E+01 0.31982284355E+01 0.28617824854E+01 0.25935041233E+01 0.23875267033E+01
 0.22381861288E+01 0.21410324815E+01 0.20931624917E+01 0.20931778371E+01 0.21410654839E+01
 0.22382064530E+01 0.23875106665E+01 0.25934589387E+01 0.28617449388E+01 0.31982320425E+01
 0.36070024506E+01 0.40874489081E+01 0.46307749290E+01 0.52168738472E+01 0.58130226385E+01
 0.63757054656E+01 0.68559334149E+01 0.72069847755E+01 0.73924406600E+01 0.73924409698E+01
 0.72069853682E+01 0.68559355091E+01 0.63757126562E+01 0.58130335928E+01 0.52168751142E+01
 0.50883277607E+01 0.44032326135E+01 0.38122411260E+01 0.33206301660E+01 0.29247888405E+01
 0.26167277440E+01 0.23875261137E+01 0.22294285849E+01 0.21367902497E+01 0.21062856553E+01
 0.21368163977E+01 0.22294498764E+01 0.23875106665E+01 0.26166783056E+01 0.29247465894E+01
 0.33206359285E+01 0.38122937686E+01 0.44032930347E+01 0.50883614659E+01 0.58487592169E+01
 0.66491110633E+01 0.74375323758E+01 0.81502584625E+01 0.87205008674E+01 0.90895638016E+01
 0.92173350063E+01 0.90895783779E+01 0.87205201612E+01 0.81502732239E+01 0.74375422822E+01
 0.66491181998E+01 0.58487542892E+01 0.54272461820E+01 0.46093025807E+01 0.39214900409E+01
 0.33631437654E+01 0.29247917892E+01 0.25935033243E+01 0.23567276541E+01 0.22044401814E+01
 0.21299485794E+01 0.21299585190E+01 0.22044547169E+01 0.23567169870E+01 0.25934589387E+01
 0.29247465894E+01 0.33631456562E+01 0.39215497900E+01 0.46093782880E+01 0.54272870921E+01
 0.63611787931E+01 0.73770114436E+01 0.84184286176E+01 0.94091790430E+01 0.10261339227E+02
 0.10888551984E+02 0.11221487374E+02 0.11221489615E+02 0.10888556098E+02 0.10261341463E+02
 0.94091825314E+01 0.84184423819E+01 0.73770332663E+01 0.63611829921E+01 0.56078608937E+01
 0.46809595791E+01 0.39214917132E+01 0.33206339891E+01 0.28617865577E+01 0.25265709959E+01
 0.22988880012E+01 0.21669323076E+01 0.21237159784E+01 0.21669382716E+01 0.22988766812E+01
 0.25265309455E+01 0.28617449388E+01 0.33206359285E+01 0.39215497900E+01 0.46810353960E+01
 0.56079045716E+01 0.66961019020E+01 0.79176941685E+01 0.92177711405E+01 0.10513406704E+02
 0.11698842477E+02 0.12658197973E+02 0.13284777513E+02 0.13502791103E+02 0.13284758332E+02
 0.12658179658E+02 0.11698840912E+02 0.10513422299E+02 0.92177978710E+01 0.79177207531E+01
 0.66961042236E+01 0.56078626901E+01 0.46093077716E+01 0.38122433154E+01 0.31982310689E+01
 0.27431547281E+01 0.24236168948E+01 0.22209046718E+01 0.21225816701E+01 0.21225783786E+01
 0.22208887529E+01 0.24235834630E+01 0.27431212589E+01 0.31982320425E+01 0.38122937686E+01
 0.46093782880E+01 0.56079045716E+01 0.68126525302E+01 0.82063541834E+01 0.97422352293E+01
 0.11339167817E+02 0.12881882068E+02 0.14229519017E+02 0.15235022772E+02 0.15773806790E+02
 0.15773806601E+02 0.15235024796E+02 0.14229524645E+02 0.12881887857E+02 0.11339176169E+02
 0.97422557546E+01 0.82063819112E+01 0.68126575298E+01 0.54272479774E+01 0.44032302136E+01
 0.36069583125E+01 0.30101795270E+01 0.25821011579E+01 0.22958071834E+01 0.21316688720E+01
 0.20781933154E+01 0.21316495634E+01 0.22957751142E+01 0.25820742862E+01 0.30101827748E+01
 0.36070024506E+01 0.44032930347E+01 0.54272870921E+01 0.66961019020E+01 0.82063541834E+01
 0.99251349898E+01 0.11782115641E+02 0.13664331570E+02 0.15417610226E+02 0.16860699935E+02
 0.17815826271E+02 0.18150592332E+02 0.17815845661E+02 0.16860723272E+02 0.15417619099E+02
 0.13664324451E+02 0.11782113504E+02 0.99251568373E+01 0.82063872383E+01 0.66961088725E+01
 0.50883215681E+01 0.40873822645E+01 0.33290992402E+01 0.27767478920E+01 0.23949954603E+01
 0.21557666976E+01 0.20406006827E+01 0.20405928666E+01 0.21557422804E+01 0.23949645066E+01
 0.27767411829E+01 0.33291399004E+01 0.40874489081E+01 0.50883614659E+01 0.63611787931E+01
 0.79176941685E+01 0.97422352293E+01 0.11782115641E+02 0.13938426735E+02 0.16059801629E+02
 0.17946834348E+02 0.19375339688E+02 0.20145994566E+02 0.20145988882E+02 0.19375332122E+02
 0.17946836228E+02 0.16059805806E+02 0.13938422627E+02 0.11782115242E+02 0.97422600248E+01