   2   2   0   0
  0.2001288E+02  0.3839590E-09  0.3839590E-09  0.3839590E-09  0.5000000E-15
  1.000000000000000E-004
  CAR 
 unknown system                          
     17.21073921     -8.19412105  301      5.94137722      1.00000000
     -8.194  0.0000E+00  0.0000E+00
     -8.109  0.0000E+00  0.0000E+00
     -8.025  0.0000E+00  0.0000E+00
     -7.940  0.0000E+00  0.0000E+00
     -7.855  0.0000E+00  0.0000E+00
     -7.771  0.0000E+00  0.0000E+00
     -7.686  0.0000E+00  0.0000E+00
     -7.601  0.0000E+00  0.0000E+00
     -7.517  0.0000E+00  0.0000E+00
     -7.432  0.0000E+00  0.0000E+00
     -7.347  0.1970E-18  0.1668E-19
     -7.263  0.2502E-16  0.2135E-17
     -7.178  0.2103E-14  0.1802E-15
     -7.093  0.1251E-12  0.1077E-13
     -7.009  0.5277E-11  0.4577E-12
     -6.924  0.1589E-09  0.1391E-10
     -6.839  0.3441E-08  0.3053E-09
     -6.755  0.5408E-07  0.4885E-08
     -6.670  0.6237E-06  0.5770E-07
     -6.585  0.5335E-05  0.5095E-06
     -6.500  0.3412E-04  0.3399E-05
     -6.416  0.1638E-03  0.1727E-04
     -6.331  0.5919E-03  0.6739E-04
     -6.246  0.1619E-02  0.2045E-03
     -6.162  0.3417E-02  0.4938E-03
     -6.077  0.5820E-02  0.9867E-03
     -5.992  0.8537E-02  0.1710E-02
     -5.908  0.1133E-01  0.2669E-02
     -5.823  0.1362E-01  0.3823E-02
     -5.738  0.1492E-01  0.5087E-02
     -5.654  0.1602E-01  0.6443E-02
     -5.569  0.1819E-01  0.7984E-02
     -5.484  0.2097E-01  0.9760E-02
     -5.400  0.2264E-01  0.1168E-01
     -5.315  0.2264E-01  0.1359E-01
     -5.230  0.2205E-01  0.1546E-01
     -5.146  0.2282E-01  0.1739E-01
     -5.061  0.2613E-01  0.1961E-01
     -4.976  0.3038E-01  0.2218E-01
     -4.891  0.3248E-01  0.2493E-01
     -4.807  0.3174E-01  0.2762E-01
     -4.722  0.2979E-01  0.3014E-01
     -4.637  0.2856E-01  0.3256E-01
     -4.553  0.3024E-01  0.3512E-01
     -4.468  0.3588E-01  0.3816E-01
     -4.383  0.4272E-01  0.4178E-01
     -4.299  0.4620E-01  0.4569E-01
     -4.214  0.4483E-01  0.4948E-01
     -4.129  0.4131E-01  0.5298E-01
     -4.045  0.3989E-01  0.5636E-01
     -3.960  0.4407E-01  0.6009E-01
     -3.875  0.5372E-01  0.6464E-01
     -3.791  0.6290E-01  0.6997E-01
     -3.706  0.6450E-01  0.7543E-01
     -3.621  0.5834E-01  0.8037E-01
     -3.537  0.5014E-01  0.8462E-01
     -3.452  0.4469E-01  0.8840E-01
     -3.367  0.4446E-01  0.9217E-01
     -3.283  0.4890E-01  0.9631E-01
     -3.198  0.5225E-01  0.1007E+00
     -3.113  0.4876E-01  0.1049E+00
     -3.028  0.4030E-01  0.1083E+00
     -2.944  0.3381E-01  0.1111E+00
     -2.859  0.3326E-01  0.1140E+00
     -2.774  0.3670E-01  0.1171E+00
     -2.690  0.3853E-01  0.1203E+00
     -2.605  0.3472E-01  0.1233E+00
     -2.520  0.2692E-01  0.1255E+00
     -2.436  0.2017E-01  0.1273E+00
     -2.351  0.1731E-01  0.1287E+00
     -2.266  0.1714E-01  0.1302E+00
     -2.182  0.1688E-01  0.1316E+00
     -2.097  0.1511E-01  0.1329E+00
     -2.012  0.1264E-01  0.1339E+00
     -1.928  0.1099E-01  0.1349E+00
     -1.843  0.1056E-01  0.1358E+00
     -1.758  0.1108E-01  0.1367E+00
     -1.674  0.1323E-01  0.1378E+00
     -1.589  0.1870E-01  0.1394E+00
     -1.504  0.2795E-01  0.1418E+00
     -1.419  0.3828E-01  0.1450E+00
     -1.335  0.4580E-01  0.1489E+00
     -1.250  0.5105E-01  0.1532E+00
     -1.165  0.5890E-01  0.1582E+00
     -1.081  0.6999E-01  0.1641E+00
     -0.996  0.7779E-01  0.1707E+00
     -0.911  0.7741E-01  0.1773E+00
     -0.827  0.7104E-01  0.1833E+00
     -0.742  0.6228E-01  0.1886E+00
     -0.657  0.5216E-01  0.1930E+00
     -0.573  0.4321E-01  0.1966E+00
     -0.488  0.3989E-01  0.2000E+00
     -0.403  0.4146E-01  0.2035E+00
     -0.319  0.4140E-01  0.2070E+00
     -0.234  0.3691E-01  0.2102E+00
     -0.149  0.3201E-01  0.2129E+00
     -0.065  0.3011E-01  0.2154E+00
      0.020  0.2939E-01  0.2179E+00
      0.105  0.2737E-01  0.2202E+00
      0.189  0.2561E-01  0.2224E+00
      0.274  0.2624E-01  0.2246E+00
      0.359  0.2747E-01  0.2270E+00
      0.444  0.2619E-01  0.2292E+00
      0.528  0.2255E-01  0.2311E+00
      0.613  0.1955E-01  0.2327E+00
      0.698  0.1949E-01  0.2344E+00
      0.782  0.2128E-01  0.2362E+00
      0.867  0.2116E-01  0.2380E+00
      0.952  0.1703E-01  0.2394E+00
      1.036  0.1162E-01  0.2404E+00
      1.121  0.1038E-01  0.2413E+00
      1.206  0.1673E-01  0.2427E+00
      1.290  0.2925E-01  0.2452E+00
      1.375  0.4274E-01  0.2488E+00
      1.460  0.5284E-01  0.2533E+00
      1.544  0.5866E-01  0.2582E+00
      1.629  0.6136E-01  0.2634E+00
      1.714  0.6386E-01  0.2688E+00
      1.798  0.6989E-01  0.2748E+00
      1.883  0.7812E-01  0.2814E+00
      1.968  0.8127E-01  0.2883E+00
      2.053  0.7578E-01  0.2947E+00
      2.137  0.6727E-01  0.3004E+00
      2.222  0.6294E-01  0.3057E+00
      2.307  0.6448E-01  0.3112E+00
      2.391  0.7021E-01  0.3171E+00
      2.476  0.7831E-01  0.3237E+00
      2.561  0.8532E-01  0.3310E+00
      2.645  0.8696E-01  0.3383E+00
      2.730  0.8437E-01  0.3455E+00
      2.815  0.8548E-01  0.3527E+00
      2.899  0.9499E-01  0.3608E+00
      2.984  0.1062E+00  0.3698E+00
      3.069  0.1078E+00  0.3789E+00
      3.153  0.9882E-01  0.3873E+00
      3.238  0.9013E-01  0.3949E+00
      3.323  0.9025E-01  0.4025E+00
      3.407  0.9410E-01  0.4105E+00
      3.492  0.9207E-01  0.4183E+00
      3.577  0.8500E-01  0.4255E+00
      3.661  0.8280E-01  0.4325E+00
      3.746  0.8958E-01  0.4401E+00
      3.831  0.9739E-01  0.4483E+00
      3.916  0.9704E-01  0.4566E+00
      4.000  0.8945E-01  0.4641E+00
      4.085  0.8230E-01  0.4711E+00
      4.170  0.7852E-01  0.4777E+00
      4.254  0.7393E-01  0.4840E+00
      4.339  0.6696E-01  0.4897E+00
      4.424  0.6235E-01  0.4950E+00
      4.508  0.6205E-01  0.5002E+00
      4.593  0.6094E-01  0.5054E+00
      4.678  0.5550E-01  0.5101E+00
      4.762  0.4881E-01  0.5142E+00
      4.847  0.4356E-01  0.5179E+00
      4.932  0.3793E-01  0.5211E+00
      5.016  0.3079E-01  0.5237E+00
      5.101  0.2438E-01  0.5258E+00
      5.186  0.2016E-01  0.5275E+00
      5.270  0.1692E-01  0.5289E+00
      5.355  0.1386E-01  0.5301E+00
      5.440  0.1166E-01  0.5311E+00
      5.525  0.1009E-01  0.5319E+00
      5.609  0.7890E-02  0.5326E+00
      5.694  0.4968E-02  0.5330E+00
      5.779  0.2421E-02  0.5332E+00
      5.863  0.9257E-03  0.5333E+00
      5.948  0.3489E-03  0.5333E+00
      6.033  0.4093E-03  0.5334E+00
      6.117  0.1116E-02  0.5335E+00
      6.202  0.2671E-02  0.5337E+00
      6.287  0.5180E-02  0.5341E+00
      6.371  0.8578E-02  0.5349E+00
      6.456  0.1259E-01  0.5359E+00
      6.541  0.1650E-01  0.5373E+00
      6.625  0.1942E-01  0.5390E+00
      6.710  0.2111E-01  0.5408E+00
      6.795  0.2248E-01  0.5427E+00
      6.879  0.2563E-01  0.5448E+00
      6.964  0.3185E-01  0.5475E+00
      7.049  0.3944E-01  0.5509E+00
      7.133  0.4609E-01  0.5548E+00
      7.218  0.5268E-01  0.5592E+00
      7.303  0.6062E-01  0.5644E+00
      7.388  0.6753E-01  0.5701E+00
      7.472  0.7046E-01  0.5760E+00
      7.557  0.7124E-01  0.5821E+00
      7.642  0.7423E-01  0.5884E+00
      7.726  0.8119E-01  0.5952E+00
      7.811  0.9044E-01  0.6029E+00
      7.896  0.9777E-01  0.6112E+00
      7.980  0.9838E-01  0.6195E+00
      8.065  0.9248E-01  0.6273E+00
      8.150  0.8709E-01  0.6347E+00
      8.234  0.8704E-01  0.6421E+00
      8.319  0.8834E-01  0.6496E+00
      8.404  0.8552E-01  0.6568E+00
      8.488  0.7959E-01  0.6635E+00
      8.573  0.7513E-01  0.6699E+00
      8.658  0.7645E-01  0.6764E+00
      8.742  0.8742E-01  0.6838E+00
      8.827  0.1076E+00  0.6929E+00
      8.912  0.1284E+00  0.7038E+00
      8.997  0.1385E+00  0.7155E+00
      9.081  0.1353E+00  0.7270E+00
      9.166  0.1262E+00  0.7376E+00
      9.251  0.1195E+00  0.7478E+00
      9.335  0.1160E+00  0.7576E+00
      9.420  0.1104E+00  0.7669E+00
      9.505  0.9799E-01  0.7752E+00
      9.589  0.8200E-01  0.7822E+00
      9.674  0.7054E-01  0.7882E+00
      9.759  0.6796E-01  0.7939E+00
      9.843  0.7183E-01  0.8000E+00
      9.928  0.7545E-01  0.8064E+00
     10.013  0.7424E-01  0.8127E+00
     10.097  0.7312E-01  0.8189E+00
     10.182  0.8278E-01  0.8259E+00
     10.267  0.1043E+00  0.8347E+00
     10.351  0.1233E+00  0.8451E+00
     10.436  0.1259E+00  0.8558E+00
     10.521  0.1140E+00  0.8655E+00
     10.605  0.9894E-01  0.8738E+00
     10.690  0.8699E-01  0.8812E+00
     10.775  0.7673E-01  0.8877E+00
     10.860  0.6652E-01  0.8933E+00
     10.944  0.5781E-01  0.8982E+00
     11.029  0.5275E-01  0.9027E+00
     11.114  0.5319E-01  0.9072E+00
     11.198  0.5991E-01  0.9123E+00
     11.283  0.7001E-01  0.9182E+00
     11.368  0.7657E-01  0.9247E+00
     11.452  0.7440E-01  0.9310E+00
     11.537  0.6688E-01  0.9367E+00
     11.622  0.6333E-01  0.9420E+00
     11.706  0.6859E-01  0.9478E+00
     11.791  0.7921E-01  0.9545E+00
     11.876  0.8833E-01  0.9620E+00
     11.960  0.9009E-01  0.9696E+00
     12.045  0.8188E-01  0.9766E+00
     12.130  0.6740E-01  0.9823E+00
     12.214  0.5532E-01  0.9870E+00
     12.299  0.5050E-01  0.9912E+00
     12.384  0.4931E-01  0.9954E+00
     12.468  0.4633E-01  0.9993E+00
     12.553  0.4099E-01  0.1003E+01
     12.638  0.3691E-01  0.1006E+01
     12.723  0.3776E-01  0.1009E+01
     12.807  0.4273E-01  0.1013E+01
     12.892  0.4597E-01  0.1017E+01
     12.977  0.4296E-01  0.1020E+01
     13.061  0.3620E-01  0.1023E+01
     13.146  0.3300E-01  0.1026E+01
     13.231  0.3815E-01  0.1029E+01
     13.315  0.4836E-01  0.1033E+01
     13.400  0.5529E-01  0.1038E+01
     13.485  0.5499E-01  0.1043E+01
     13.569  0.5128E-01  0.1047E+01
     13.654  0.4839E-01  0.1051E+01
     13.739  0.4406E-01  0.1055E+01
     13.823  0.3410E-01  0.1058E+01
     13.908  0.2037E-01  0.1060E+01
     13.993  0.8954E-02  0.1060E+01
     14.077  0.2837E-02  0.1061E+01
     14.162  0.6412E-03  0.1061E+01
     14.247  0.1031E-03  0.1061E+01
     14.332  0.1373E-04  0.1061E+01
     14.416  0.1953E-04  0.1061E+01
     14.501  0.1208E-03  0.1061E+01
     14.586  0.5586E-03  0.1061E+01
     14.670  0.1854E-02  0.1061E+01
     14.755  0.4472E-02  0.1061E+01
     14.840  0.7993E-02  0.1062E+01
     14.924  0.1093E-01  0.1063E+01
     15.009  0.1195E-01  0.1064E+01
     15.094  0.1104E-01  0.1065E+01
     15.178  0.8963E-02  0.1066E+01
     15.263  0.6413E-02  0.1066E+01
     15.348  0.3880E-02  0.1066E+01
     15.432  0.1873E-02  0.1067E+01
     15.517  0.6871E-03  0.1067E+01
     15.602  0.1854E-03  0.1067E+01
     15.686  0.3611E-04  0.1067E+01
     15.771  0.5020E-05  0.1067E+01
     15.856  0.4951E-06  0.1067E+01
     15.940  0.3451E-07  0.1067E+01
     16.025  0.1696E-08  0.1067E+01
     16.110  0.5871E-10  0.1067E+01
     16.195  0.1430E-11  0.1067E+01
     16.279  0.2447E-13  0.1067E+01
     16.364  0.2931E-15  0.1067E+01
     16.449  0.3152E-17  0.1067E+01
     16.533  0.0000E+00  0.1067E+01
     16.618  0.0000E+00  0.1067E+01
     16.703  0.0000E+00  0.1067E+01
     16.787  0.0000E+00  0.1067E+01
     16.872  0.0000E+00  0.1067E+01
     16.957  0.0000E+00  0.1067E+01
     17.041  0.0000E+00  0.1067E+01
     17.126  0.0000E+00  0.1067E+01
     17.211  0.0000E+00  0.1067E+01
