<?xml version="1.0" encoding="ISO-8859-1"?>
<modeling>
 <generator>
  <i name="program" type="string">vasp </i>
  <i name="version" type="string">5.4.4.18Apr17-6-g9f103f2a35  </i>
  <i name="subversion" type="string">(build Dec 09 2018 21:25:21) complex            parallel </i>
  <i name="platform" type="string">IFC18.0.1.163_CrayMPICH7.7.0_MKL18.0.1.163 </i>
  <i name="date" type="string">2019 03 20 </i>
  <i name="time" type="string">09:19:16 </i>
 </generator>
 <incar>
  <i type="string" name="PREC">normal</i>
  <i type="int" name="IBRION">     2</i>
  <i name="EDIFF">      0.00040000</i>
  <i name="EDIFFG">     -0.01000000</i>
  <i type="int" name="NSW">    15</i>
  <i type="int" name="ISIF">     3</i>
  <i name="ENCUT">    250.00000000</i>
  <i type="int" name="NBANDS">     8</i>
  <i type="logical" name="LREAL"> F  </i>
  <i type="int" name="ISMEAR">     0</i>
  <i name="SIGMA">      0.20000000</i>
  <v type="int" name="KPOINT_BSE">    -1     0     0     0</v>
 </incar>
 <structure name="primitive_cell" >
  <crystal>
   <varray name="basis" >
    <v>      -2.45000000       2.45000000       1.27400000 </v>
    <v>       2.45000000      -2.45000000       1.27400000 </v>
    <v>       2.45000000       2.45000000      -1.27400000 </v>
   </varray>
   <i name="volume">     30.58874000 </i>
   <varray name="rec_basis" >
    <v>       0.00000000       0.20408163       0.39246468 </v>
    <v>       0.20408163       0.00000000       0.39246468 </v>
    <v>       0.20408163       0.20408163      -0.00000000 </v>
   </varray>
  </crystal>
  <varray name="positions" >
   <v>       0.25000000      -0.25000000      -0.50000000 </v>
   <v>       0.00000000       0.00000000       0.00000000 </v>
  </varray>
 </structure>
 <varray name="primitive_index" >
  <v type="int" >        1 </v>
  <v type="int" >        2 </v>
 </varray>
 <kpoints>
  <generation param="Monkhorst-Pack">
   <v type="int" name="divisions">      12       12       12 </v>
   <v name="usershift">      0.00000000       0.00000000       0.00000000 </v>
   <v name="genvec1">      0.08333333      -0.00000000       0.00000000 </v>
   <v name="genvec2">     -0.00000000       0.08333333       0.00000000 </v>
   <v name="genvec3">     -0.00000000      -0.00000000       0.08333333 </v>
   <v name="shift">      0.50000000       0.50000000       0.50000000 </v>
  </generation>
  <varray name="kpointlist" >
   <v>       0.04166667       0.04166667       0.04166667 </v>
   <v>       0.12500000       0.04166667       0.04166667 </v>
   <v>       0.20833333       0.04166667       0.04166667 </v>
   <v>       0.29166667       0.04166667       0.04166667 </v>
   <v>       0.37500000       0.04166667       0.04166667 </v>
   <v>       0.45833333       0.04166667       0.04166667 </v>
   <v>      -0.04166667       0.04166667       0.04166667 </v>
   <v>       0.12500000       0.12500000       0.04166667 </v>
   <v>       0.20833333       0.12500000       0.04166667 </v>
   <v>       0.29166667       0.12500000       0.04166667 </v>
   <v>       0.37500000       0.12500000       0.04166667 </v>
   <v>       0.45833333       0.12500000       0.04166667 </v>
   <v>      -0.45833333       0.12500000       0.04166667 </v>
   <v>      -0.37500000       0.12500000       0.04166667 </v>
   <v>      -0.29166667       0.12500000       0.04166667 </v>
   <v>      -0.20833333       0.12500000       0.04166667 </v>
   <v>      -0.12500000       0.12500000       0.04166667 </v>
   <v>      -0.04166667       0.12500000       0.04166667 </v>
   <v>       0.20833333       0.20833333       0.04166667 </v>
   <v>       0.29166667       0.20833333       0.04166667 </v>
   <v>       0.37500000       0.20833333       0.04166667 </v>
   <v>       0.45833333       0.20833333       0.04166667 </v>
   <v>      -0.45833333       0.20833333       0.04166667 </v>
   <v>      -0.37500000       0.20833333       0.04166667 </v>
   <v>      -0.29166667       0.20833333       0.04166667 </v>
   <v>      -0.20833333       0.20833333       0.04166667 </v>
   <v>      -0.12500000       0.20833333       0.04166667 </v>
   <v>      -0.04166667       0.20833333       0.04166667 </v>
   <v>       0.29166667       0.29166667       0.04166667 </v>
   <v>       0.37500000       0.29166667       0.04166667 </v>
   <v>       0.45833333       0.29166667       0.04166667 </v>
   <v>      -0.45833333       0.29166667       0.04166667 </v>
   <v>      -0.37500000       0.29166667       0.04166667 </v>
   <v>      -0.29166667       0.29166667       0.04166667 </v>
   <v>      -0.20833333       0.29166667       0.04166667 </v>
   <v>      -0.12500000       0.29166667       0.04166667 </v>
   <v>      -0.04166667       0.29166667       0.04166667 </v>
   <v>       0.37500000       0.37500000       0.04166667 </v>
   <v>       0.45833333       0.37500000       0.04166667 </v>
   <v>      -0.45833333       0.37500000       0.04166667 </v>
   <v>      -0.37500000       0.37500000       0.04166667 </v>
   <v>      -0.29166667       0.37500000       0.04166667 </v>
   <v>      -0.20833333       0.37500000       0.04166667 </v>
   <v>      -0.12500000       0.37500000       0.04166667 </v>
   <v>      -0.04166667       0.37500000       0.04166667 </v>
   <v>       0.45833333       0.45833333       0.04166667 </v>
   <v>      -0.45833333       0.45833333       0.04166667 </v>
   <v>      -0.37500000       0.45833333       0.04166667 </v>
   <v>      -0.29166667       0.45833333       0.04166667 </v>
   <v>      -0.20833333       0.45833333       0.04166667 </v>
   <v>      -0.12500000       0.45833333       0.04166667 </v>
   <v>      -0.04166667       0.45833333       0.04166667 </v>
   <v>      -0.45833333      -0.45833333       0.04166667 </v>
   <v>      -0.37500000      -0.45833333       0.04166667 </v>
   <v>      -0.29166667      -0.45833333       0.04166667 </v>
   <v>      -0.20833333      -0.45833333       0.04166667 </v>
   <v>      -0.12500000      -0.45833333       0.04166667 </v>
   <v>      -0.04166667      -0.45833333       0.04166667 </v>
   <v>      -0.37500000      -0.37500000       0.04166667 </v>
   <v>      -0.29166667      -0.37500000       0.04166667 </v>
   <v>      -0.20833333      -0.37500000       0.04166667 </v>
   <v>      -0.12500000      -0.37500000       0.04166667 </v>
   <v>      -0.04166667      -0.37500000       0.04166667 </v>
   <v>      -0.29166667      -0.29166667       0.04166667 </v>
   <v>      -0.20833333      -0.29166667       0.04166667 </v>
   <v>      -0.12500000      -0.29166667       0.04166667 </v>
   <v>      -0.04166667      -0.29166667       0.04166667 </v>
   <v>      -0.20833333      -0.20833333       0.04166667 </v>
   <v>      -0.12500000      -0.20833333       0.04166667 </v>
   <v>      -0.04166667      -0.20833333       0.04166667 </v>
   <v>      -0.12500000      -0.12500000       0.04166667 </v>
   <v>      -0.04166667      -0.12500000       0.04166667 </v>
   <v>      -0.04166667      -0.04166667       0.04166667 </v>
   <v>       0.12500000       0.12500000       0.12500000 </v>
   <v>       0.20833333       0.12500000       0.12500000 </v>
   <v>       0.29166667       0.12500000       0.12500000 </v>
   <v>       0.37500000       0.12500000       0.12500000 </v>
   <v>      -0.12500000       0.12500000       0.12500000 </v>
   <v>       0.20833333       0.20833333       0.12500000 </v>
   <v>       0.29166667       0.20833333       0.12500000 </v>
   <v>       0.37500000       0.20833333       0.12500000 </v>
   <v>       0.45833333       0.20833333       0.12500000 </v>
   <v>      -0.45833333       0.20833333       0.12500000 </v>
   <v>      -0.20833333       0.20833333       0.12500000 </v>
   <v>      -0.12500000       0.20833333       0.12500000 </v>
   <v>       0.29166667       0.29166667       0.12500000 </v>
   <v>       0.37500000       0.29166667       0.12500000 </v>
   <v>       0.45833333       0.29166667       0.12500000 </v>
   <v>      -0.29166667       0.29166667       0.12500000 </v>
   <v>      -0.20833333       0.29166667       0.12500000 </v>
   <v>      -0.12500000       0.29166667       0.12500000 </v>
   <v>       0.37500000       0.37500000       0.12500000 </v>
   <v>      -0.37500000       0.37500000       0.12500000 </v>
   <v>      -0.29166667       0.37500000       0.12500000 </v>
   <v>      -0.20833333       0.37500000       0.12500000 </v>
   <v>      -0.12500000       0.37500000       0.12500000 </v>
   <v>      -0.45833333       0.45833333       0.12500000 </v>
   <v>      -0.37500000       0.45833333       0.12500000 </v>
   <v>      -0.29166667       0.45833333       0.12500000 </v>
   <v>      -0.20833333       0.45833333       0.12500000 </v>
   <v>      -0.12500000       0.45833333       0.12500000 </v>
   <v>      -0.45833333      -0.45833333       0.12500000 </v>
   <v>      -0.37500000      -0.45833333       0.12500000 </v>
   <v>      -0.29166667      -0.45833333       0.12500000 </v>
   <v>      -0.20833333      -0.45833333       0.12500000 </v>
   <v>      -0.12500000      -0.45833333       0.12500000 </v>
   <v>      -0.37500000      -0.37500000       0.12500000 </v>
   <v>      -0.29166667      -0.37500000       0.12500000 </v>
   <v>      -0.20833333      -0.37500000       0.12500000 </v>
   <v>      -0.12500000      -0.37500000       0.12500000 </v>
   <v>      -0.29166667      -0.29166667       0.12500000 </v>
   <v>      -0.20833333      -0.29166667       0.12500000 </v>
   <v>      -0.12500000      -0.29166667       0.12500000 </v>
   <v>      -0.20833333      -0.20833333       0.12500000 </v>
   <v>      -0.12500000      -0.20833333       0.12500000 </v>
   <v>      -0.12500000      -0.12500000       0.12500000 </v>
   <v>       0.20833333       0.20833333       0.20833333 </v>
   <v>       0.29166667       0.20833333       0.20833333 </v>
   <v>      -0.20833333       0.20833333       0.20833333 </v>
   <v>       0.29166667       0.29166667       0.20833333 </v>
   <v>      -0.29166667       0.29166667       0.20833333 </v>
   <v>      -0.20833333       0.29166667       0.20833333 </v>
   <v>      -0.37500000       0.37500000       0.20833333 </v>
   <v>      -0.29166667       0.37500000       0.20833333 </v>
   <v>      -0.20833333       0.37500000       0.20833333 </v>
   <v>      -0.45833333       0.45833333       0.20833333 </v>
   <v>      -0.37500000       0.45833333       0.20833333 </v>
   <v>      -0.29166667       0.45833333       0.20833333 </v>
   <v>      -0.20833333       0.45833333       0.20833333 </v>
   <v>      -0.45833333      -0.45833333       0.20833333 </v>
   <v>      -0.37500000      -0.45833333       0.20833333 </v>
   <v>      -0.29166667      -0.45833333       0.20833333 </v>
   <v>      -0.20833333      -0.45833333       0.20833333 </v>
   <v>      -0.37500000      -0.37500000       0.20833333 </v>
   <v>      -0.29166667      -0.37500000       0.20833333 </v>
   <v>      -0.20833333      -0.37500000       0.20833333 </v>
   <v>      -0.29166667      -0.29166667       0.20833333 </v>
   <v>      -0.20833333      -0.29166667       0.20833333 </v>
   <v>      -0.20833333      -0.20833333       0.20833333 </v>
   <v>      -0.29166667       0.29166667       0.29166667 </v>
   <v>      -0.37500000       0.37500000       0.29166667 </v>
   <v>      -0.29166667       0.37500000       0.29166667 </v>
   <v>      -0.45833333       0.45833333       0.29166667 </v>
   <v>      -0.37500000       0.45833333       0.29166667 </v>
   <v>      -0.29166667       0.45833333       0.29166667 </v>
   <v>      -0.45833333      -0.45833333       0.29166667 </v>
   <v>      -0.37500000      -0.45833333       0.29166667 </v>
   <v>      -0.29166667      -0.45833333       0.29166667 </v>
   <v>      -0.37500000      -0.37500000       0.29166667 </v>
   <v>      -0.29166667      -0.37500000       0.29166667 </v>
   <v>      -0.29166667      -0.29166667       0.29166667 </v>
   <v>      -0.37500000       0.37500000       0.37500000 </v>
   <v>      -0.45833333       0.45833333       0.37500000 </v>
   <v>      -0.37500000       0.45833333       0.37500000 </v>
   <v>      -0.45833333      -0.45833333       0.37500000 </v>
   <v>      -0.37500000      -0.45833333       0.37500000 </v>
   <v>      -0.37500000      -0.37500000       0.37500000 </v>
   <v>      -0.45833333       0.45833333       0.45833333 </v>
   <v>      -0.45833333      -0.45833333       0.45833333 </v>
  </varray>
  <varray name="weights" >
   <v>       0.00462963 </v>
   <v>       0.00925926 </v>
   <v>       0.00925926 </v>
   <v>       0.00925926 </v>
   <v>       0.00925926 </v>
   <v>       0.00462963 </v>
   <v>       0.00231481 </v>
   <v>       0.00462963 </v>
   <v>       0.00925926 </v>
   <v>       0.00925926 </v>
   <v>       0.00925926 </v>
   <v>       0.00925926 </v>
   <v>       0.00925926 </v>
   <v>       0.00925926 </v>
   <v>       0.00925926 </v>
   <v>       0.00462963 </v>
   <v>       0.00462963 </v>
   <v>       0.00462963 </v>
   <v>       0.00462963 </v>
   <v>       0.00925926 </v>
   <v>       0.00925926 </v>
   <v>       0.00925926 </v>
   <v>       0.00925926 </v>
   <v>       0.00925926 </v>
   <v>       0.00462963 </v>
   <v>       0.00462963 </v>
   <v>       0.00925926 </v>
   <v>       0.00462963 </v>
   <v>       0.00462963 </v>
   <v>       0.00925926 </v>
   <v>       0.00925926 </v>
   <v>       0.00925926 </v>
   <v>       0.00462963 </v>
   <v>       0.00462963 </v>
   <v>       0.00925926 </v>
   <v>       0.00925926 </v>
   <v>       0.00462963 </v>
   <v>       0.00462963 </v>
   <v>       0.00925926 </v>
   <v>       0.00462963 </v>
   <v>       0.00462963 </v>
   <v>       0.00925926 </v>
   <v>       0.00925926 </v>
   <v>       0.00925926 </v>
   <v>       0.00462963 </v>
   <v>       0.00231481 </v>
   <v>       0.00462963 </v>
   <v>       0.00925926 </v>
   <v>       0.00925926 </v>
   <v>       0.00925926 </v>
   <v>       0.00925926 </v>
   <v>       0.00462963 </v>
   <v>       0.00462963 </v>
   <v>       0.00925926 </v>
   <v>       0.00925926 </v>
   <v>       0.00925926 </v>
   <v>       0.00925926 </v>
   <v>       0.00462963 </v>
   <v>       0.00462963 </v>
   <v>       0.00925926 </v>
   <v>       0.00925926 </v>
   <v>       0.00925926 </v>
   <v>       0.00462963 </v>
   <v>       0.00462963 </v>
   <v>       0.00925926 </v>
   <v>       0.00925926 </v>
   <v>       0.00462963 </v>
   <v>       0.00462963 </v>
   <v>       0.00925926 </v>
   <v>       0.00462963 </v>
   <v>       0.00462963 </v>
   <v>       0.00462963 </v>
   <v>       0.00115741 </v>
   <v>       0.00462963 </v>
   <v>       0.00925926 </v>
   <v>       0.00925926 </v>
   <v>       0.00462963 </v>
   <v>       0.00231481 </v>
   <v>       0.00462963 </v>
   <v>       0.00925926 </v>
   <v>       0.00925926 </v>
   <v>       0.00925926 </v>
   <v>       0.00462963 </v>
   <v>       0.00462963 </v>
   <v>       0.00462963 </v>
   <v>       0.00462963 </v>
   <v>       0.00925926 </v>
   <v>       0.00462963 </v>
   <v>       0.00462963 </v>
   <v>       0.00925926 </v>
   <v>       0.00462963 </v>
   <v>       0.00231481 </v>
   <v>       0.00462963 </v>
   <v>       0.00925926 </v>
   <v>       0.00925926 </v>
   <v>       0.00462963 </v>
   <v>       0.00462963 </v>
   <v>       0.00925926 </v>
   <v>       0.00925926 </v>
   <v>       0.00925926 </v>
   <v>       0.00462963 </v>
   <v>       0.00462963 </v>
   <v>       0.00925926 </v>
   <v>       0.00925926 </v>
   <v>       0.00925926 </v>
   <v>       0.00462963 </v>
   <v>       0.00462963 </v>
   <v>       0.00925926 </v>
   <v>       0.00925926 </v>
   <v>       0.00462963 </v>
   <v>       0.00462963 </v>
   <v>       0.00925926 </v>
   <v>       0.00462963 </v>
   <v>       0.00462963 </v>
   <v>       0.00462963 </v>
   <v>       0.00115741 </v>
   <v>       0.00462963 </v>
   <v>       0.00462963 </v>
   <v>       0.00231481 </v>
   <v>       0.00231481 </v>
   <v>       0.00462963 </v>
   <v>       0.00462963 </v>
   <v>       0.00462963 </v>
   <v>       0.00925926 </v>
   <v>       0.00462963 </v>
   <v>       0.00462963 </v>
   <v>       0.00925926 </v>
   <v>       0.00925926 </v>
   <v>       0.00462963 </v>
   <v>       0.00462963 </v>
   <v>       0.00925926 </v>
   <v>       0.00925926 </v>
   <v>       0.00462963 </v>
   <v>       0.00462963 </v>
   <v>       0.00925926 </v>
   <v>       0.00462963 </v>
   <v>       0.00462963 </v>
   <v>       0.00462963 </v>
   <v>       0.00115741 </v>
   <v>       0.00231481 </v>
   <v>       0.00462963 </v>
   <v>       0.00462963 </v>
   <v>       0.00462963 </v>
   <v>       0.00925926 </v>
   <v>       0.00462963 </v>
   <v>       0.00462963 </v>
   <v>       0.00925926 </v>
   <v>       0.00462963 </v>
   <v>       0.00462963 </v>
   <v>       0.00462963 </v>
   <v>       0.00115741 </v>
   <v>       0.00231481 </v>
   <v>       0.00462963 </v>
   <v>       0.00462963 </v>
   <v>       0.00462963 </v>
   <v>       0.00462963 </v>
   <v>       0.00115741 </v>
   <v>       0.00231481 </v>
   <v>       0.00115741 </v>
  </varray>
 </kpoints>
 <parameters>
  <separator name="general" >
   <i type="string" name="SYSTEM">unknown system</i>
   <i type="logical" name="LCOMPAT"> F  </i>
  </separator>
  <separator name="electronic" >
   <i type="string" name="PREC">normal</i>
   <i name="ENMAX">    250.00000000</i>
   <i name="ENAUG">    322.06900000</i>
   <i name="EDIFF">      0.00040000</i>
   <i type="int" name="IALGO">    38</i>
   <i type="int" name="IWAVPR">    11</i>
   <i type="int" name="NBANDS">     8</i>
   <i name="NELECT">      8.00000000</i>
   <i type="int" name="TURBO">     0</i>
   <i type="int" name="IRESTART">     0</i>
   <i type="int" name="NREBOOT">     0</i>
   <i type="int" name="NMIN">     0</i>
   <i name="EREF">      0.00000000</i>
   <separator name="electronic smearing" >
    <i type="int" name="ISMEAR">     0</i>
    <i name="SIGMA">      0.20000000</i>
    <i name="KSPACING">      0.50000000</i>
    <i type="logical" name="KGAMMA"> T  </i>
   </separator>
   <separator name="electronic projectors" >
    <i type="logical" name="LREAL"> F  </i>
    <v name="ROPT">      0.00000000</v>
    <i type="int" name="LMAXPAW">  -100</i>
    <i type="int" name="LMAXMIX">     2</i>
    <i type="logical" name="NLSPLINE"> F  </i>
   </separator>
   <separator name="electronic startup" >
    <i type="int" name="ISTART">     0</i>
    <i type="int" name="ICHARG">     2</i>
    <i type="int" name="INIWAV">     1</i>
   </separator>
   <separator name="electronic spin" >
    <i type="int" name="ISPIN">     1</i>
    <i type="logical" name="LNONCOLLINEAR"> F  </i>
    <v name="MAGMOM">      1.00000000      1.00000000</v>
    <i name="NUPDOWN">     -1.00000000</i>
    <i type="logical" name="LSORBIT"> F  </i>
    <v name="SAXIS">      0.00000000      0.00000000      1.00000000</v>
    <i type="logical" name="LSPIRAL"> F  </i>
    <v name="QSPIRAL">      0.00000000      0.00000000      0.00000000</v>
    <i type="logical" name="LZEROZ"> F  </i>
   </separator>
   <separator name="electronic exchange-correlation" >
    <i type="logical" name="LASPH"> F  </i>
    <i type="logical" name="LMETAGGA"> F  </i>
   </separator>
   <separator name="electronic convergence" >
    <i type="int" name="NELM">    60</i>
    <i type="int" name="NELMDL">    -5</i>
    <i type="int" name="NELMIN">     2</i>
    <i name="ENINI">    250.00000000</i>
    <separator name="electronic convergence detail" >
     <i type="logical" name="LDIAG"> T  </i>
     <i type="logical" name="LSUBROT"> F  </i>
     <i name="WEIMIN">      0.00100000</i>
     <i name="EBREAK">      0.00001250</i>
     <i name="DEPER">      0.30000000</i>
     <i type="int" name="NRMM">     4</i>
     <i name="TIME">      0.40000000</i>
    </separator>
   </separator>
   <separator name="electronic mixer" >
    <i name="AMIX">      0.40000000</i>
    <i name="BMIX">      1.00000000</i>
    <i name="AMIN">      0.10000000</i>
    <i name="AMIX_MAG">      1.60000000</i>
    <i name="BMIX_MAG">      1.00000000</i>
    <separator name="electronic mixer details" >
     <i type="int" name="IMIX">     4</i>
     <i type="logical" name="MIXFIRST"> F  </i>
     <i type="int" name="MAXMIX">   -45</i>
     <i name="WC">    100.00000000</i>
     <i type="int" name="INIMIX">     1</i>
     <i type="int" name="MIXPRE">     1</i>
     <i type="int" name="MREMOVE">     5</i>
    </separator>
   </separator>
   <separator name="electronic dipolcorrection" >
    <i type="logical" name="LDIPOL"> F  </i>
    <i type="logical" name="LMONO"> F  </i>
    <i type="int" name="IDIPOL">     0</i>
    <i name="EPSILON">      1.00000000</i>
    <v name="DIPOL">   -100.00000000   -100.00000000   -100.00000000</v>
    <i name="EFIELD">      0.00000000</i>
   </separator>
  </separator>
  <separator name="grids" >
   <i type="int" name="NGX">    14</i>
   <i type="int" name="NGY">    14</i>
   <i type="int" name="NGZ">    14</i>
   <i type="int" name="NGXF">    28</i>
   <i type="int" name="NGYF">    28</i>
   <i type="int" name="NGZF">    28</i>
   <i type="logical" name="ADDGRID"> F  </i>
  </separator>
  <separator name="ionic" >
   <i type="int" name="NSW">    15</i>
   <i type="int" name="IBRION">     2</i>
   <i type="int" name="MDALGO">     0</i>
   <i type="int" name="ISIF">     3</i>
   <i name="PSTRESS">      0.00000000</i>
   <i name="EDIFFG">     -0.01000000</i>
   <i type="int" name="NFREE">     1</i>
   <i name="POTIM">      0.50000000</i>
   <i name="SMASS">     -3.00000000</i>
   <i name="SCALEE">      1.00000000</i>
  </separator>
  <separator name="ionic md" >
   <i name="TEBEG">      0.00010000</i>
   <i name="TEEND">      0.00010000</i>
   <i type="int" name="NBLOCK">     1</i>
   <i type="int" name="KBLOCK">    15</i>
   <i type="int" name="NPACO">   256</i>
   <i name="APACO">     16.00000000</i>
  </separator>
  <separator name="symmetry" >
   <i type="int" name="ISYM">     2</i>
   <i name="SYMPREC">      0.00001000</i>
  </separator>
  <separator name="dos" >
   <i type="int" name="LORBIT">     0</i>
   <v name="RWIGS">     -1.00000000</v>
   <i type="int" name="NEDOS">   301</i>
   <i name="EMIN">     10.00000000</i>
   <i name="EMAX">    -10.00000000</i>
   <i name="EFERMI">      0.00000000</i>
  </separator>
  <separator name="writing" >
   <i type="int" name="NWRITE">     2</i>
   <i type="logical" name="LWAVE"> T  </i>
   <i type="logical" name="LDOWNSAMPLE"> F  </i>
   <i type="logical" name="LCHARG"> T  </i>
   <i type="logical" name="LPARD"> F  </i>
   <i type="logical" name="LVTOT"> F  </i>
   <i type="logical" name="LVHAR"> F  </i>
   <i type="logical" name="LELF"> F  </i>
   <i type="logical" name="LOPTICS"> F  </i>
   <v name="STM">      0.00000000      0.00000000      0.00000000      0.00000000      0.00000000      0.00000000      0.00000000</v>
  </separator>
  <separator name="performance" >
   <i type="int" name="NPAR">     8</i>
   <i type="int" name="NSIM">     4</i>
   <i type="int" name="NBLK">    -1</i>
   <i type="logical" name="LPLANE"> T  </i>
   <i type="logical" name="LSCALAPACK"> T  </i>
   <i type="logical" name="LSCAAWARE"> F  </i>
   <i type="logical" name="LSCALU"> F  </i>
   <i type="logical" name="LASYNC"> F  </i>
   <i type="logical" name="LORBITALREAL"> F  </i>
  </separator>
  <separator name="miscellaneous" >
   <i type="int" name="IDIOT">     3</i>
   <i type="int" name="ISPECIAL">     0</i>
   <i type="logical" name="LMUSIC"> F  </i>
   <v name="POMASS">     28.08500000</v>
   <v name="DARWINR">      0.00000000</v>
   <v name="DARWINV">      1.00000000</v>
   <i type="logical" name="LCORR"> T  </i>
  </separator>
  <i type="logical" name="GGA_COMPAT"> T  </i>
  <i type="logical" name="LBERRY"> F  </i>
  <i type="int" name="ICORELEVEL">     0</i>
  <i type="logical" name="LDAU"> F  </i>
  <i type="int" name="I_CONSTRAINED_M">     0</i>
  <separator name="electronic exchange-correlation" >
   <i type="string" name="GGA">--</i>
   <i type="int" name="VOSKOWN">     0</i>
   <i type="logical" name="LHFCALC"> F  </i>
   <i type="string" name="PRECFOCK"></i>
   <i type="logical" name="LSYMGRAD"> F  </i>
   <i type="logical" name="LHFONE"> F  </i>
   <i type="logical" name="LRHFCALC"> F  </i>
   <i type="logical" name="LTHOMAS"> F  </i>
   <i type="logical" name="LMODELHF"> F  </i>
   <i name="ENCUT4O">     -1.00000000</i>
   <i type="int" name="EXXOEP">     0</i>
   <i type="int" name="FOURORBIT">     0</i>
   <i name="AEXX">      0.00000000</i>
   <i name="HFALPHA">      0.00000000</i>
   <i name="MCALPHA">      0.00000000</i>
   <i name="ALDAX">      1.00000000</i>
   <i name="AGGAX">      1.00000000</i>
   <i name="ALDAC">      1.00000000</i>
   <i name="AGGAC">      1.00000000</i>
   <i type="int" name="NKREDX">     1</i>
   <i type="int" name="NKREDY">     1</i>
   <i type="int" name="NKREDZ">     1</i>
   <i type="logical" name="SHIFTRED"> F  </i>
   <i type="logical" name="ODDONLY"> F  </i>
   <i type="logical" name="EVENONLY"> F  </i>
   <i type="int" name="LMAXFOCK">     0</i>
   <i type="int" name="NMAXFOCKAE">     0</i>
   <i type="logical" name="LFOCKAEDFT"> F  </i>
   <i name="HFSCREEN">      0.00000000</i>
   <i name="HFSCREENC">      0.00000000</i>
   <i type="int" name="NBANDSGWLOW">     0</i>
  </separator>
  <separator name="vdW DFT" >
   <i type="logical" name="LUSE_VDW"> F  </i>
   <i name="Zab_VDW">     -0.84910000</i>
   <i name="PARAM1">      0.12340000</i>
   <i name="PARAM2">      1.00000000</i>
   <i name="PARAM3">      0.00000000</i>
  </separator>
  <separator name="model GW" >
   <i type="int" name="MODEL_GW">     0</i>
   <i name="MODEL_EPS0">      9.17662200</i>
   <i name="MODEL_ALPHA">      1.00000000</i>
  </separator>
  <separator name="linear response parameters" >
   <i type="logical" name="LEPSILON"> F  </i>
   <i type="logical" name="LRPA"> F  </i>
   <i type="logical" name="LNABLA"> F  </i>
   <i type="logical" name="LVEL"> F  </i>
   <i type="int" name="KINTER">     0</i>
   <i name="CSHIFT">      0.10000000</i>
   <i name="OMEGAMAX">     -1.00000000</i>
   <i name="DEG_THRESHOLD">      0.00200000</i>
   <i name="RTIME">     -0.10000000</i>
   <i name="WPLASMAI">      0.00000000</i>
   <v name="DFIELD">      0.00000000      0.00000000      0.00000000</v>
   <v name="WPLASMA">      0.00000000      0.00000000      0.00000000      0.00000000      0.00000000      0.00000000      0.00000000      0.00000000      0.00000000</v>
  </separator>
  <separator name="orbital magnetization" >
   <i type="logical" name="NUCIND"> F  </i>
   <v name="MAGPOS">      0.00000000      0.00000000      0.00000000</v>
   <i type="logical" name="LNICSALL"> T  </i>
   <i type="logical" name="ORBITALMAG"> F  </i>
   <i type="logical" name="LMAGBLOCH"> F  </i>
   <i type="logical" name="LCHIMAG"> F  </i>
   <i type="logical" name="LGAUGE"> T  </i>
   <i type="int" name="MAGATOM">     0</i>
   <v name="MAGDIPOL">      0.00000000      0.00000000      0.00000000</v>
   <v name="AVECCONST">      0.00000000      0.00000000      0.00000000</v>
  </separator>
  <separator name="response functions" >
   <i type="logical" name="LADDER"> F  </i>
   <i type="logical" name="LRPAFORCE"> F  </i>
   <i type="logical" name="LFXC"> F  </i>
   <i type="logical" name="LHARTREE"> T  </i>
   <i type="int" name="IBSE">     0</i>
   <v type="int" name="KPOINT">    -1     0     0     0</v>
   <i type="logical" name="LTCTE"> F  </i>
   <i type="logical" name="LTETE"> F  </i>
   <i type="logical" name="LTRIPLET"> F  </i>
   <i type="logical" name="LFXCEPS"> F  </i>
   <i type="logical" name="LFXHEG"> F  </i>
   <i type="int" name="NATURALO">     2</i>
   <i type="logical" name="L2ORDER"> F  </i>
   <i type="logical" name="LMP2LT"> F  </i>
   <i type="logical" name="LUSEW"> F  </i>
   <i name="ENCUTGW">     -2.00000000</i>
   <i name="ENCUTGWSOFT">     -2.00000000</i>
   <i name="ENCUTLF">     -1.00000000</i>
   <i type="int" name="LMAXMP2">    -1</i>
   <i name="SCISSOR">      0.00000000</i>
   <i type="int" name="NOMEGA">     0</i>
   <i type="int" name="NOMEGAR">     0</i>
   <i type="int" name="NBANDSGW">    -1</i>
   <i type="int" name="NBANDSO">    -1</i>
   <i type="int" name="NBANDSV">    -1</i>
   <i type="int" name="NELM">     1</i>
   <i type="int" name="NELMHF">     1</i>
   <i type="int" name="DIM">     3</i>
   <i type="int" name="ANTIRES">     0</i>
   <i name="OMEGAMAX">    -30.00000000</i>
   <i name="OMEGAMIN">    -30.00000000</i>
   <i name="OMEGATL">   -200.00000000</i>
   <i type="int" name="OMEGAGRID">   140</i>
   <i name="CSHIFT">     -0.10000000</i>
   <i type="logical" name="SELFENERGY"> F  </i>
   <i type="logical" name="LSPECTRAL"> F  </i>
   <i type="logical" name="LSPECTRALGW"> F  </i>
   <i type="logical" name="LSINGLES"> F  </i>
   <i type="logical" name="LFERMIGW"> F  </i>
   <i type="logical" name="ODDONLYGW"> F  </i>
   <i type="logical" name="EVENONLYGW"> F  </i>
   <i type="int" name="NKREDLFX">     1</i>
   <i type="int" name="NKREDLFY">     1</i>
   <i type="int" name="NKREDLFZ">     1</i>
   <i type="int" name="MAXMEM">  2800</i>
   <i type="int" name="TELESCOPE">     0</i>
   <i type="int" name="TAUPAR">     1</i>
   <i type="int" name="OMEGAPAR">    -1</i>
   <i name="LAMBDA">      1.00000000</i>
  </separator>
  <separator name="External order field" >
   <i name="OFIELD_KAPPA">      0.00000000</i>
   <v name="OFIELD_K">      0.00000000      0.00000000      0.00000000</v>
   <i name="OFIELD_Q6_NEAR">      0.00000000</i>
   <i name="OFIELD_Q6_FAR">      0.00000000</i>
   <i name="OFIELD_A">      0.00000000</i>
  </separator>
 </parameters>
 <atominfo>
  <atoms>       2 </atoms>
  <types>       1 </types>
  <array name="atoms" >
   <dimension dim="1">ion</dimension>
   <field type="string">element</field>
   <field type="int">atomtype</field>
   <set>
    <rc><c>Si</c><c>   1</c></rc>
    <rc><c>Si</c><c>   1</c></rc>
   </set>
  </array>
  <array name="atomtypes" >
   <dimension dim="1">type</dimension>
   <field type="int">atomspertype</field>
   <field type="string">element</field>
   <field>mass</field>
   <field>valence</field>
   <field type="string">pseudopotential</field>
   <set>
    <rc><c>   2</c><c>Si</c><c>     28.08500000</c><c>      4.00000000</c><c> PAW_PBE Si 05Jan2001                   </c></rc>
   </set>
  </array>
 </atominfo>
 <structure name="initialpos" >
  <crystal>
   <varray name="basis" >
    <v>      -2.45000000       2.45000000       1.27400000 </v>
    <v>       2.45000000      -2.45000000       1.27400000 </v>
    <v>       2.45000000       2.45000000      -1.27400000 </v>
   </varray>
   <i name="volume">     30.58874000 </i>
   <varray name="rec_basis" >
    <v>       0.00000000       0.20408163       0.39246468 </v>
    <v>       0.20408163       0.00000000       0.39246468 </v>
    <v>       0.20408163       0.20408163      -0.00000000 </v>
   </varray>
  </crystal>
  <varray name="positions" >
   <v>       0.25000000       0.75000000       0.50000000 </v>
   <v>       0.00000000       0.00000000       0.00000000 </v>
  </varray>
 </structure>
 <calculation>
  <scstep>
   <time name="dav">    1.27    1.28</time>
   <time name="total">    1.32    1.33</time>
   <energy>
    <i name="alphaZ">      4.40202223 </i>
    <i name="ewald">   -265.18101312 </i>
    <i name="hartreedc">     -2.30415367 </i>
    <i name="XCdc">    -17.81545108 </i>
    <i name="pawpsdc">     65.95520812 </i>
    <i name="pawaedc">    -30.76852678 </i>
    <i name="eentropy">     -0.01454372 </i>
    <i name="bandstr">     37.86494182 </i>
    <i name="atom">    206.12349923 </i>
    <i name="e_fr_energy">     -1.73801697 </i>
    <i name="e_wo_entrp">     -1.72347325 </i>
    <i name="e_0_energy">     -1.73074511 </i>
   </energy>
  </scstep>
  <scstep>
   <time name="dav">    1.75    1.76</time>
   <time name="total">    1.76    1.77</time>
   <energy>
    <i name="e_fr_energy">    -10.15682642 </i>
    <i name="e_wo_entrp">    -10.14301806 </i>
    <i name="e_0_energy">    -10.14992224 </i>
   </energy>
  </scstep>
  <scstep>
   <time name="dav">    1.47    1.48</time>
   <time name="total">    1.48    1.48</time>
   <energy>
    <i name="e_fr_energy">    -10.23924657 </i>
    <i name="e_wo_entrp">    -10.22526012 </i>
    <i name="e_0_energy">    -10.23225334 </i>
   </energy>
  </scstep>
  <scstep>
   <time name="dav">    1.89    1.90</time>
   <time name="total">    1.90    1.90</time>
   <energy>
    <i name="e_fr_energy">    -10.23954458 </i>
    <i name="e_wo_entrp">    -10.22555854 </i>
    <i name="e_0_energy">    -10.23255156 </i>
   </energy>
  </scstep>
  <scstep>
   <time name="dav">    1.43    1.44</time>
   <time name="total">    1.47    1.48</time>
   <energy>
    <i name="e_fr_energy">    -10.23954469 </i>
    <i name="e_wo_entrp">    -10.22555866 </i>
    <i name="e_0_energy">    -10.23255168 </i>
   </energy>
  </scstep>
  <scstep>
   <time name="dav">    1.44    1.44</time>
   <time name="total">    1.50    1.51</time>
   <energy>
    <i name="e_fr_energy">    -10.23440764 </i>
    <i name="e_wo_entrp">    -10.22041469 </i>
    <i name="e_0_energy">    -10.22741116 </i>
   </energy>
  </scstep>
  <scstep>
   <time name="dav">    1.24    1.24</time>
   <time name="total">    1.31    1.32</time>
   <energy>
    <i name="e_fr_energy">    -10.23022649 </i>
    <i name="e_wo_entrp">    -10.21622317 </i>
    <i name="e_0_energy">    -10.22322483 </i>
   </energy>
  </scstep>
  <scstep>
   <time name="dav">    0.84    0.84</time>
   <time name="total">    0.87    0.88</time>
   <energy>
    <i name="alphaZ">      4.40202223 </i>
    <i name="ewald">   -265.18101312 </i>
    <i name="hartreedc">     -2.49250398 </i>
    <i name="XCdc">    -17.57689655 </i>
    <i name="pawpsdc">     70.71545401 </i>
    <i name="pawaedc">    -35.63232495 </i>
    <i name="eentropy">     -0.01400130 </i>
    <i name="bandstr">     29.42555332 </i>
    <i name="atom">    206.12349923 </i>
    <i name="e_fr_energy">    -10.23021109 </i>
    <i name="e_wo_entrp">    -10.21620979 </i>
    <i name="e_0_energy">    -10.22321044 </i>
   </energy>
  </scstep>
  <structure>
   <crystal>
    <varray name="basis" >
     <v>      -2.45000000       2.45000000       1.27400000 </v>
     <v>       2.45000000      -2.45000000       1.27400000 </v>
     <v>       2.45000000       2.45000000      -1.27400000 </v>
    </varray>
    <i name="volume">     30.58874000 </i>
    <varray name="rec_basis" >
     <v>       0.00000000       0.20408163       0.39246468 </v>
     <v>       0.20408163       0.00000000       0.39246468 </v>
     <v>       0.20408163       0.20408163      -0.00000000 </v>
    </varray>
   </crystal>
   <varray name="positions" >
    <v>       0.25000000       0.75000000       0.50000000 </v>
    <v>       0.00000000       0.00000000       0.00000000 </v>
   </varray>
  </structure>
  <varray name="forces" >
   <v>      -0.00000000       0.00000000       0.00000000 </v>
   <v>       0.00000000      -0.00000000      -0.00000000 </v>
  </varray>
  <varray name="stress" >
   <v>     -26.18504552       0.00000000       0.00000000 </v>
   <v>      -0.00000000     -26.18504552       0.00000000 </v>
   <v>       0.00000000       0.00000000      54.83752451 </v>
  </varray>
  <energy>
   <i name="e_fr_energy">    -10.23021109 </i>
   <i name="e_wo_entrp">    -10.22321044 </i>
   <i name="e_0_energy">     -0.01400130 </i>
  </energy>
  <time name="totalsc">   12.76   13.20</time>
 </calculation>
 <calculation>
  <scstep>
   <time name="dav">    1.74    1.74</time>
   <time name="total">    1.80    1.81</time>
   <energy>
    <i name="alphaZ">      4.39904702 </i>
    <i name="ewald">   -265.23356641 </i>
    <i name="hartreedc">     -2.47503447 </i>
    <i name="XCdc">    -17.58032818 </i>
    <i name="pawpsdc">     70.71254727 </i>
    <i name="pawaedc">    -35.62973603 </i>
    <i name="eentropy">     -0.01281150 </i>
    <i name="bandstr">     29.42916965 </i>
    <i name="atom">    206.12349923 </i>
    <i name="e_fr_energy">    -10.26721343 </i>
    <i name="e_wo_entrp">    -10.25440193 </i>
    <i name="e_0_energy">    -10.26080768 </i>
   </energy>
  </scstep>
  <scstep>
   <time name="dav">    1.44    1.44</time>
   <time name="total">    1.50    1.52</time>
   <energy>
    <i name="e_fr_energy">    -10.25710007 </i>
    <i name="e_wo_entrp">    -10.24433625 </i>
    <i name="e_0_energy">    -10.25071816 </i>
   </energy>
  </scstep>
  <scstep>
   <time name="dav">    1.62    1.62</time>
   <time name="total">    1.69    1.70</time>
   <energy>
    <i name="e_fr_energy">    -10.25219476 </i>
    <i name="e_wo_entrp">    -10.23945494 </i>
    <i name="e_0_energy">    -10.24582485 </i>
   </energy>
  </scstep>
  <scstep>
   <time name="dav">    0.90    0.90</time>
   <time name="total">    0.93    0.94</time>
   <energy>
    <i name="alphaZ">      4.39904702 </i>
    <i name="ewald">   -265.23356641 </i>
    <i name="hartreedc">     -2.45736065 </i>
    <i name="XCdc">    -17.57978593 </i>
    <i name="pawpsdc">     70.74635435 </i>
    <i name="pawaedc">    -35.66474905 </i>
    <i name="eentropy">     -0.01274003 </i>
    <i name="bandstr">     29.42706604 </i>
    <i name="atom">    206.12349923 </i>
    <i name="e_fr_energy">    -10.25223543 </i>
    <i name="e_wo_entrp">    -10.23949541 </i>
    <i name="e_0_energy">    -10.24586542 </i>
   </energy>
  </scstep>
  <structure>
   <crystal>
    <varray name="basis" >
     <v>      -2.42045584       2.42045584       1.30617359 </v>
     <v>       2.42045584      -2.42045584       1.30617359 </v>
     <v>       2.42045584       2.42045584      -1.30617359 </v>
    </varray>
    <i name="volume">     30.60942816 </i>
    <varray name="rec_basis" >
     <v>      -0.00000000       0.20657266       0.38279751 </v>
     <v>       0.20657266      -0.00000000       0.38279751 </v>
     <v>       0.20657266       0.20657266      -0.00000000 </v>
    </varray>
   </crystal>
   <varray name="positions" >
    <v>       0.25000000       0.75000000       0.50000000 </v>
    <v>      -0.00000000      -0.00000000      -0.00000000 </v>
   </varray>
  </structure>
  <varray name="forces" >
   <v>      -0.00000000       0.00000000       0.00000000 </v>
   <v>       0.00000000      -0.00000000      -0.00000000 </v>
  </varray>
  <varray name="stress" >
   <v>      -4.79511162       0.00000000       0.00000000 </v>
   <v>       0.00000000      -4.79511162       0.00000000 </v>
   <v>       0.00000000      -0.00000000       7.65797192 </v>
  </varray>
  <energy>
   <i name="e_fr_energy">    -10.25223543 </i>
   <i name="e_wo_entrp">    -10.24586542 </i>
   <i name="e_0_energy">     -0.01274003 </i>
  </energy>
  <time name="totalsc">    6.71    7.05</time>
 </calculation>
 <calculation>
  <scstep>
   <time name="dav">    1.68    1.68</time>
   <time name="total">    1.75    1.75</time>
   <energy>
    <i name="alphaZ">      4.39893700 </i>
    <i name="ewald">   -265.23545956 </i>
    <i name="hartreedc">     -2.45339101 </i>
    <i name="XCdc">    -17.58043371 </i>
    <i name="pawpsdc">     70.74484048 </i>
    <i name="pawaedc">    -35.66314798 </i>
    <i name="eentropy">     -0.01265860 </i>
    <i name="bandstr">     29.42442574 </i>
    <i name="atom">    206.12349923 </i>
    <i name="e_fr_energy">    -10.25338841 </i>
    <i name="e_wo_entrp">    -10.24072981 </i>
    <i name="e_0_energy">    -10.24705911 </i>
   </energy>
  </scstep>
  <scstep>
   <time name="dav">    1.32    1.32</time>
   <time name="total">    1.36    1.37</time>
   <energy>
    <i name="alphaZ">      4.39893700 </i>
    <i name="ewald">   -265.23545956 </i>
    <i name="hartreedc">     -2.45404836 </i>
    <i name="XCdc">    -17.58008473 </i>
    <i name="pawpsdc">     70.75442306 </i>
    <i name="pawaedc">    -35.67302227 </i>
    <i name="eentropy">     -0.01265699 </i>
    <i name="bandstr">     29.42529460 </i>
    <i name="atom">    206.12349923 </i>
    <i name="e_fr_energy">    -10.25311802 </i>
    <i name="e_wo_entrp">    -10.24046103 </i>
    <i name="e_0_energy">    -10.24678952 </i>
   </energy>
  </scstep>
  <structure>
   <crystal>
    <varray name="basis" >
     <v>      -2.41510388       2.41510388       1.31200187 </v>
     <v>       2.41510388      -2.41510388       1.31200187 </v>
     <v>       2.41510388       2.41510388      -1.31200187 </v>
    </varray>
    <i name="volume">     30.61019367 </i>
    <varray name="rec_basis" >
     <v>       0.00000000       0.20703043       0.38109702 </v>
     <v>       0.20703043       0.00000000       0.38109702 </v>
     <v>       0.20703043       0.20703043       0.00000000 </v>
    </varray>
   </crystal>
   <varray name="positions" >
    <v>       0.25000000       0.75000000       0.50000000 </v>
    <v>      -0.00000000      -0.00000000      -0.00000000 </v>
   </varray>
  </structure>
  <varray name="forces" >
   <v>       0.00000000      -0.00000000       0.00000000 </v>
   <v>      -0.00000000       0.00000000      -0.00000000 </v>
  </varray>
  <varray name="stress" >
   <v>      -3.44670105       0.00000000       0.00000000 </v>
   <v>       0.00000000      -3.44670105       0.00000000 </v>
   <v>       0.00000000       0.00000000       6.31621972 </v>
  </varray>
  <energy>
   <i name="e_fr_energy">    -10.25311802 </i>
   <i name="e_wo_entrp">    -10.24678952 </i>
   <i name="e_0_energy">     -0.01265699 </i>
  </energy>
  <time name="totalsc">    3.88    4.09</time>
 </calculation>
 <calculation>
  <scstep>
   <time name="dav">    1.71    1.71</time>
   <time name="total">    1.78    1.79</time>
   <energy>
    <i name="alphaZ">      4.39910645 </i>
    <i name="ewald">   -265.23294393 </i>
    <i name="hartreedc">     -2.45253213 </i>
    <i name="XCdc">    -17.57979172 </i>
    <i name="pawpsdc">     70.76424219 </i>
    <i name="pawaedc">    -35.68314285 </i>
    <i name="eentropy">     -0.01245001 </i>
    <i name="bandstr">     29.42041321 </i>
    <i name="atom">    206.12349923 </i>
    <i name="e_fr_energy">    -10.25359956 </i>
    <i name="e_wo_entrp">    -10.24114955 </i>
    <i name="e_0_energy">    -10.24737455 </i>
   </energy>
  </scstep>
  <scstep>
   <time name="dav">    1.52    1.52</time>
   <time name="total">    1.59    1.60</time>
   <energy>
    <i name="e_fr_energy">    -10.25237625 </i>
    <i name="e_wo_entrp">    -10.23993399 </i>
    <i name="e_0_energy">    -10.24615512 </i>
   </energy>
  </scstep>
  <scstep>
   <time name="dav">    1.35    1.35</time>
   <time name="total">    1.41    1.42</time>
   <energy>
    <i name="e_fr_energy">    -10.25178881 </i>
    <i name="e_wo_entrp">    -10.23935392 </i>
    <i name="e_0_energy">    -10.24557136 </i>
   </energy>
  </scstep>
  <scstep>
   <time name="dav">    0.75    0.75</time>
   <time name="total">    0.78    0.79</time>
   <energy>
    <i name="alphaZ">      4.39910645 </i>
    <i name="ewald">   -265.23294393 </i>
    <i name="hartreedc">     -2.46295899 </i>
    <i name="XCdc">    -17.57733559 </i>
    <i name="pawpsdc">     70.81918747 </i>
    <i name="pawaedc">    -35.73973872 </i>
    <i name="eentropy">     -0.01243500 </i>
    <i name="bandstr">     29.43182419 </i>
    <i name="atom">    206.12349923 </i>
    <i name="e_fr_energy">    -10.25179489 </i>
    <i name="e_wo_entrp">    -10.23935988 </i>
    <i name="e_0_energy">    -10.24557739 </i>
   </energy>
  </scstep>
  <structure>
   <crystal>
    <varray name="basis" >
     <v>      -2.40439996       2.40439996       1.32365845 </v>
     <v>       2.40439996      -2.40439996       1.32365845 </v>
     <v>       2.40439996       2.40439996      -1.32365845 </v>
    </varray>
    <i name="volume">     30.60901462 </i>
    <varray name="rec_basis" >
     <v>       0.00000000       0.20795209       0.37774095 </v>
     <v>       0.20795209      -0.00000000       0.37774095 </v>
     <v>       0.20795209       0.20795209      -0.00000000 </v>
    </varray>
   </crystal>
   <varray name="positions" >
    <v>       0.25000000       0.75000000       0.50000000 </v>
    <v>      -0.00000000      -0.00000000      -0.00000000 </v>
   </varray>
  </structure>
  <varray name="forces" >
   <v>       0.00000000       0.00000000       0.00000000 </v>
   <v>      -0.00000000      -0.00000000      -0.00000000 </v>
  </varray>
  <varray name="stress" >
   <v>       6.46160873      -0.00000000       0.00000000 </v>
   <v>       0.00000000       6.46160873       0.00000000 </v>
   <v>       0.00000000       0.00000000     -10.97795669 </v>
  </varray>
  <energy>
   <i name="e_fr_energy">    -10.25179489 </i>
   <i name="e_wo_entrp">    -10.24557739 </i>
   <i name="e_0_energy">     -0.01243500 </i>
  </energy>
  <time name="totalsc">    6.35    6.70</time>
 </calculation>
 <calculation>
  <scstep>
   <time name="dav">    1.69    1.69</time>
   <time name="total">    1.76    1.76</time>
   <energy>
    <i name="alphaZ">      4.39893824 </i>
    <i name="ewald">   -265.23550159 </i>
    <i name="hartreedc">     -2.46351626 </i>
    <i name="XCdc">    -17.57748758 </i>
    <i name="pawpsdc">     70.81948500 </i>
    <i name="pawaedc">    -35.74003363 </i>
    <i name="eentropy">     -0.01257600 </i>
    <i name="bandstr">     29.43342665 </i>
    <i name="atom">    206.12349923 </i>
    <i name="e_fr_energy">    -10.25376595 </i>
    <i name="e_wo_entrp">    -10.24118994 </i>
    <i name="e_0_energy">    -10.24747795 </i>
   </energy>
  </scstep>
  <scstep>
   <time name="dav">    1.42    1.42</time>
   <time name="total">    1.48    1.50</time>
   <energy>
    <i name="e_fr_energy">    -10.25321940 </i>
    <i name="e_wo_entrp">    -10.24064281 </i>
    <i name="e_0_energy">    -10.24693110 </i>
   </energy>
  </scstep>
  <scstep>
   <time name="dav">    0.84    0.84</time>
   <time name="total">    0.88    0.88</time>
   <energy>
    <i name="alphaZ">      4.39893824 </i>
    <i name="ewald">   -265.23550159 </i>
    <i name="hartreedc">     -2.45468684 </i>
    <i name="XCdc">    -17.57942326 </i>
    <i name="pawpsdc">     70.77948385 </i>
    <i name="pawaedc">    -35.69881494 </i>
    <i name="eentropy">     -0.01257877 </i>
    <i name="bandstr">     29.42613774 </i>
    <i name="atom">    206.12349923 </i>
    <i name="e_fr_energy">    -10.25294633 </i>
    <i name="e_wo_entrp">    -10.24036756 </i>
    <i name="e_0_energy">    -10.24665695 </i>
   </energy>
  </scstep>
  <structure>
   <crystal>
    <varray name="basis" >
     <v>      -2.41126020       2.41126020       1.31618764 </v>
     <v>       2.41126020      -2.41126020       1.31618764 </v>
     <v>       2.41126020       2.41126020      -1.31618764 </v>
    </varray>
    <i name="volume">     30.61018503 </i>
    <varray name="rec_basis" >
     <v>      -0.00000000       0.20736045       0.37988504 </v>
     <v>       0.20736045      -0.00000000       0.37988504 </v>
     <v>       0.20736045       0.20736045      -0.00000000 </v>
    </varray>
   </crystal>
   <varray name="positions" >
    <v>       0.25000000       0.75000000       0.50000000 </v>
    <v>      -0.00000000      -0.00000000      -0.00000000 </v>
   </varray>
  </structure>
  <varray name="forces" >
   <v>       0.00000000       0.00000000       0.00000000 </v>
   <v>      -0.00000000      -0.00000000      -0.00000000 </v>
  </varray>
  <varray name="stress" >
   <v>       1.32564875       0.00000000       0.00000000 </v>
   <v>       0.00000000       1.32564875       0.00000000 </v>
   <v>       0.00000000       0.00000000      -2.36539815 </v>
  </varray>
  <energy>
   <i name="e_fr_energy">    -10.25294633 </i>
   <i name="e_wo_entrp">    -10.24665695 </i>
   <i name="e_0_energy">     -0.01257877 </i>
  </energy>
  <time name="totalsc">    4.89    5.15</time>
 </calculation>
 <calculation>
  <scstep>
   <time name="dav">    1.58    1.59</time>
   <time name="total">    1.65    1.66</time>
   <energy>
    <i name="alphaZ">      4.39893124 </i>
    <i name="ewald">   -265.23559755 </i>
    <i name="hartreedc">     -2.45521660 </i>
    <i name="XCdc">    -17.57935996 </i>
    <i name="pawpsdc">     70.78048053 </i>
    <i name="pawaedc">    -35.69984776 </i>
    <i name="eentropy">     -0.01260121 </i>
    <i name="bandstr">     29.42669361 </i>
    <i name="atom">    206.12349923 </i>
    <i name="e_fr_energy">    -10.25301848 </i>
    <i name="e_wo_entrp">    -10.24041727 </i>
    <i name="e_0_energy">    -10.24671788 </i>
   </energy>
  </scstep>
  <scstep>
   <time name="dav">    0.70    0.70</time>
   <time name="total">    0.73    0.74</time>
   <energy>
    <i name="alphaZ">      4.39893124 </i>
    <i name="ewald">   -265.23559755 </i>
    <i name="hartreedc">     -2.45508855 </i>
    <i name="XCdc">    -17.57942691 </i>
    <i name="pawpsdc">     70.77814233 </i>
    <i name="pawaedc">    -35.69744438 </i>
    <i name="eentropy">     -0.01260136 </i>
    <i name="bandstr">     29.42657631 </i>
    <i name="atom">    206.12349923 </i>
    <i name="e_fr_energy">    -10.25300964 </i>
    <i name="e_wo_entrp">    -10.24040828 </i>
    <i name="e_0_energy">    -10.24670896 </i>
   </energy>
  </scstep>
  <structure>
   <crystal>
    <varray name="basis" >
     <v>      -2.41231448       2.41231448       1.31503952 </v>
     <v>       2.41231448      -2.41231448       1.31503952 </v>
     <v>       2.41231448       2.41231448      -1.31503952 </v>
    </varray>
    <i name="volume">     30.61023376 </i>
    <varray name="rec_basis" >
     <v>       0.00000000       0.20726982       0.38021671 </v>
     <v>       0.20726982       0.00000000       0.38021671 </v>
     <v>       0.20726982       0.20726982      -0.00000000 </v>
    </varray>
   </crystal>
   <varray name="positions" >
    <v>       0.25000000       0.75000000       0.50000000 </v>
    <v>      -0.00000000      -0.00000000      -0.00000000 </v>
   </varray>
  </structure>
  <varray name="forces" >
   <v>      -0.00000000      -0.00000000      -0.00000000 </v>
   <v>       0.00000000       0.00000000       0.00000000 </v>
  </varray>
  <varray name="stress" >
   <v>       1.08187109       0.00000000       0.00000000 </v>
   <v>       0.00000000       1.08187109      -0.00000000 </v>
   <v>       0.00000000       0.00000000      -2.30419553 </v>
  </varray>
  <energy>
   <i name="e_fr_energy">    -10.25300964 </i>
   <i name="e_wo_entrp">    -10.24670896 </i>
   <i name="e_0_energy">     -0.01260136 </i>
  </energy>
  <time name="totalsc">    3.17    3.42</time>
 </calculation>
 <calculation>
  <scstep>
   <time name="dav">    1.72    1.72</time>
   <time name="total">    1.79    1.79</time>
   <energy>
    <i name="alphaZ">      4.39892971 </i>
    <i name="ewald">   -265.23560008 </i>
    <i name="hartreedc">     -2.45533429 </i>
    <i name="XCdc">    -17.57945921 </i>
    <i name="pawpsdc">     70.77569521 </i>
    <i name="pawaedc">    -35.69492956 </i>
    <i name="eentropy">     -0.01262954 </i>
    <i name="bandstr">     29.42677454 </i>
    <i name="atom">    206.12349923 </i>
    <i name="e_fr_energy">    -10.25305400 </i>
    <i name="e_wo_entrp">    -10.24042445 </i>
    <i name="e_0_energy">    -10.24673923 </i>
   </energy>
  </scstep>
  <scstep>
   <time name="dav">    0.69    0.69</time>
   <time name="total">    0.72    0.73</time>
   <energy>
    <i name="alphaZ">      4.39892971 </i>
    <i name="ewald">   -265.23560008 </i>
    <i name="hartreedc">     -2.45489778 </i>
    <i name="XCdc">    -17.57959089 </i>
    <i name="pawpsdc">     70.77241054 </i>
    <i name="pawaedc">    -35.69154556 </i>
    <i name="eentropy">     -0.01262972 </i>
    <i name="bandstr">     29.42639071 </i>
    <i name="atom">    206.12349923 </i>
    <i name="e_fr_energy">    -10.25303384 </i>
    <i name="e_wo_entrp">    -10.24040412 </i>
    <i name="e_0_energy">    -10.24671898 </i>
   </energy>
  </scstep>
  <structure>
   <crystal>
    <varray name="basis" >
     <v>      -2.41370918       2.41370918       1.31352070 </v>
     <v>       2.41370918      -2.41370918       1.31352070 </v>
     <v>       2.41370918       2.41370918      -1.31352070 </v>
    </varray>
    <i name="volume">     30.61024440 </i>
    <varray name="rec_basis" >
     <v>       0.00000000       0.20715006       0.38065635 </v>
     <v>       0.20715006      -0.00000000       0.38065635 </v>
     <v>       0.20715006       0.20715006      -0.00000000 </v>
    </varray>
   </crystal>
   <varray name="positions" >
    <v>       0.25000000       0.75000000       0.50000000 </v>
    <v>      -0.00000000      -0.00000000      -0.00000000 </v>
   </varray>
  </structure>
  <varray name="forces" >
   <v>      -0.00000000       0.00000000      -0.00000000 </v>
   <v>       0.00000000      -0.00000000       0.00000000 </v>
  </varray>
  <varray name="stress" >
   <v>       0.22979491       0.00000000       0.00000000 </v>
   <v>       0.00000000       0.22979491      -0.00000000 </v>
   <v>      -0.00000000      -0.00000000      -0.96681079 </v>
  </varray>
  <energy>
   <i name="e_fr_energy">    -10.25303384 </i>
   <i name="e_wo_entrp">    -10.24671898 </i>
   <i name="e_0_energy">     -0.01262972 </i>
  </energy>
  <time name="totalsc">    3.46    4.02</time>
  <eigenvalues>
   <array>
    <dimension dim="1">band</dimension>
    <dimension dim="2">kpoint</dimension>
    <dimension dim="3">spin</dimension>
    <field>eigene</field>
    <field>occ</field>
    <set>
     <set comment="spin 1">
      <set comment="kpoint 1">
       <r>   -4.3734    1.0000 </r>
       <r>    5.3169    1.0000 </r>
       <r>    6.7406    1.0000 </r>
       <r>    7.9928    1.0000 </r>
       <r>   11.3747    0.0000 </r>
       <r>   15.3739    0.0000 </r>
       <r>   16.3435    0.0000 </r>
       <r>   17.2811    0.0000 </r>
      </set>
      <set comment="kpoint 2">
       <r>   -3.8111    1.0000 </r>
       <r>    4.9320    1.0000 </r>
       <r>    6.8651    1.0000 </r>
       <r>    9.0686    0.6250 </r>
       <r>   12.4118    0.0000 </r>
       <r>   13.4277    0.0000 </r>
       <r>   13.8342    0.0000 </r>
       <r>   16.0583    0.0000 </r>
      </set>
      <set comment="kpoint 3">
       <r>   -2.8784    1.0000 </r>
       <r>    4.8534    1.0000 </r>
       <r>    6.9509    1.0000 </r>
       <r>    9.5850    0.0004 </r>
       <r>   11.4402    0.0000 </r>
       <r>   11.7887    0.0000 </r>
       <r>   13.8031    0.0000 </r>
       <r>   14.9114    0.0000 </r>
      </set>
      <set comment="kpoint 4">
       <r>   -1.5836    1.0000 </r>
       <r>    5.0760    1.0000 </r>
       <r>    6.9595    1.0000 </r>
       <r>    7.4117    1.0000 </r>
       <r>    9.8764    0.0000 </r>
       <r>   12.5252    0.0000 </r>
       <r>   13.2015    0.0000 </r>
       <r>   14.2389    0.0000 </r>
      </set>
      <set comment="kpoint 5">
       <r>    0.0543    1.0000 </r>
       <r>    4.3627    1.0000 </r>
       <r>    5.8587    1.0000 </r>
       <r>    7.4240    1.0000 </r>
       <r>    8.6100    0.9998 </r>
       <r>   11.2379    0.0000 </r>
       <r>   13.7364    0.0000 </r>
       <r>   14.4570    0.0000 </r>
      </set>
      <set comment="kpoint 6">
       <r>    1.6909    1.0000 </r>
       <r>    2.4685    1.0000 </r>
       <r>    6.6359    1.0000 </r>
       <r>    6.7074    1.0000 </r>
       <r>    8.4756    1.0000 </r>
       <r>   10.6040    0.0000 </r>
       <r>   13.5856    0.0000 </r>
       <r>   14.5558    0.0000 </r>
      </set>
      <set comment="kpoint 7">
       <r>   -4.5613    1.0000 </r>
       <r>    5.7543    1.0000 </r>
       <r>    6.3539    1.0000 </r>
       <r>    7.6987    1.0000 </r>
       <r>   10.9503    0.0000 </r>
       <r>   16.0083    0.0000 </r>
       <r>   17.8654    0.0000 </r>
       <r>   18.1019    0.0000 </r>
      </set>
      <set comment="kpoint 8">
       <r>   -2.9630    1.0000 </r>
       <r>    4.8348    1.0000 </r>
       <r>    7.8173    1.0000 </r>
       <r>    9.4464    0.0093 </r>
       <r>   11.1971    0.0000 </r>
       <r>   11.2665    0.0000 </r>
       <r>   13.9226    0.0000 </r>
       <r>   15.0437    0.0000 </r>
      </set>
      <set comment="kpoint 9">
       <r>   -1.7510    1.0000 </r>
       <r>    5.0178    1.0000 </r>
       <r>    7.6376    1.0000 </r>
       <r>    8.1899    1.0000 </r>
       <r>    9.5795    0.0005 </r>
       <r>   11.6390    0.0000 </r>
       <r>   13.3335    0.0000 </r>
       <r>   14.1483    0.0000 </r>
      </set>
      <set comment="kpoint 10">
       <r>   -0.1907    1.0000 </r>
       <r>    4.9791    1.0000 </r>
       <r>    5.7524    1.0000 </r>
       <r>    6.9219    1.0000 </r>
       <r>    9.4696    0.0059 </r>
       <r>   11.8592    0.0000 </r>
       <r>   13.0037    0.0000 </r>
       <r>   14.2205    0.0000 </r>
      </set>
      <set comment="kpoint 11">
       <r>    1.6131    1.0000 </r>
       <r>    2.8608    1.0000 </r>
       <r>    5.5593    1.0000 </r>
       <r>    6.4970    1.0000 </r>
       <r>    9.4070    0.0190 </r>
       <r>   11.4183    0.0000 </r>
       <r>   12.9029    0.0000 </r>
       <r>   15.3661    0.0000 </r>
      </set>
      <set comment="kpoint 12">
       <r>    0.6250    1.0000 </r>
       <r>    3.8623    1.0000 </r>
       <r>    4.7291    1.0000 </r>
       <r>    7.3978    1.0000 </r>
       <r>    8.9870    0.8149 </r>
       <r>   12.0544    0.0000 </r>
       <r>   13.0834    0.0000 </r>
       <r>   15.3256    0.0000 </r>
      </set>
      <set comment="kpoint 13">
       <r>   -1.0819    1.0000 </r>
       <r>    3.7629    1.0000 </r>
       <r>    6.5913    1.0000 </r>
       <r>    7.6466    1.0000 </r>
       <r>    9.6613    0.0001 </r>
       <r>   12.8131    0.0000 </r>
       <r>   13.4968    0.0000 </r>
       <r>   14.4003    0.0000 </r>
      </set>
      <set comment="kpoint 14">
       <r>   -2.4560    1.0000 </r>
       <r>    3.4309    1.0000 </r>
       <r>    7.2726    1.0000 </r>
       <r>    9.3370    0.0572 </r>
       <r>   11.2635    0.0000 </r>
       <r>   11.8986    0.0000 </r>
       <r>   13.6483    0.0000 </r>
       <r>   15.4517    0.0000 </r>
      </set>
      <set comment="kpoint 15">
       <r>   -3.4709    1.0000 </r>
       <r>    3.4287    1.0000 </r>
       <r>    7.1603    1.0000 </r>
       <r>    9.6881    0.0000 </r>
       <r>   12.5041    0.0000 </r>
       <r>   13.2837    0.0000 </r>
       <r>   14.1847    0.0000 </r>
       <r>   15.2745    0.0000 </r>
      </set>
      <set comment="kpoint 16">
       <r>   -4.1174    1.0000 </r>
       <r>    3.7627    1.0000 </r>
       <r>    6.9735    1.0000 </r>
       <r>    8.7253    0.9970 </r>
       <r>   12.8131    0.0000 </r>
       <r>   14.1082    0.0000 </r>
       <r>   15.7634    0.0000 </r>
       <r>   16.5753    0.0000 </r>
      </set>
      <set comment="kpoint 17">
       <r>   -4.3905    1.0000 </r>
       <r>    4.3966    1.0000 </r>
       <r>    6.3800    1.0000 </r>
       <r>    8.6158    0.9998 </r>
       <r>   11.9594    0.0000 </r>
       <r>   14.5922    0.0000 </r>
       <r>   16.9739    0.0000 </r>
       <r>   18.4001    0.0000 </r>
      </set>
      <set comment="kpoint 18">
       <r>   -4.2881    1.0000 </r>
       <r>    5.0396    1.0000 </r>
       <r>    6.0225    1.0000 </r>
       <r>    8.8663    0.9599 </r>
       <r>   11.7873    0.0000 </r>
       <r>   14.5876    0.0000 </r>
       <r>   16.0642    0.0000 </r>
       <r>   17.4934    0.0000 </r>
      </set>
      <set comment="kpoint 19">
       <r>   -0.2726    1.0000 </r>
       <r>    5.3052    1.0000 </r>
       <r>    5.9966    1.0000 </r>
       <r>    6.2277    1.0000 </r>
       <r>   10.1742    0.0000 </r>
       <r>   12.3457    0.0000 </r>
       <r>   12.8210    0.0000 </r>
       <r>   13.0259    0.0000 </r>
      </set>
      <set comment="kpoint 20">
       <r>    1.4989    1.0000 </r>
       <r>    3.5936    1.0000 </r>
       <r>    4.5256    1.0000 </r>
       <r>    6.3807    1.0000 </r>
       <r>   10.1716    0.0000 </r>
       <r>   11.6270    0.0000 </r>
       <r>   13.1140    0.0000 </r>
       <r>   14.7634    0.0000 </r>
      </set>
      <set comment="kpoint 21">
       <r>    1.3480    1.0000 </r>
       <r>    3.1474    1.0000 </r>
       <r>    4.0545    1.0000 </r>
       <r>    7.3308    1.0000 </r>
       <r>    9.5387    0.0013 </r>
       <r>   11.5062    0.0000 </r>
       <r>   13.9622    0.0000 </r>
       <r>   15.9688    0.0000 </r>
      </set>
      <set comment="kpoint 22">
       <r>   -0.4164    1.0000 </r>
       <r>    2.5144    1.0000 </r>
       <r>    6.3025    1.0000 </r>
       <r>    8.0134    1.0000 </r>
       <r>    9.5541    0.0009 </r>
       <r>   11.8286    0.0000 </r>
       <r>   14.2395    0.0000 </r>
       <r>   15.4821    0.0000 </r>
      </set>
      <set comment="kpoint 23">
       <r>   -1.8664    1.0000 </r>
       <r>    2.0875    1.0000 </r>
       <r>    7.7375    1.0000 </r>
       <r>    9.0702    0.6209 </r>
       <r>   10.7796    0.0000 </r>
       <r>   12.3801    0.0000 </r>
       <r>   12.7143    0.0000 </r>
       <r>   15.7111    0.0000 </r>
      </set>
      <set comment="kpoint 24">
       <r>   -2.9622    1.0000 </r>
       <r>    2.0051    1.0000 </r>
       <r>    7.6138    1.0000 </r>
       <r>   10.2319    0.0000 </r>
       <r>   11.7383    0.0000 </r>
       <r>   12.7992    0.0000 </r>
       <r>   14.0881    0.0000 </r>
       <r>   15.2454    0.0000 </r>
      </set>
      <set comment="kpoint 25">
       <r>   -3.6917    1.0000 </r>
       <r>    2.2730    1.0000 </r>
       <r>    7.3610    1.0000 </r>
       <r>    9.3182    0.0741 </r>
       <r>   12.7599    0.0000 </r>
       <r>   14.6890    0.0000 </r>
       <r>   14.7868    0.0000 </r>
       <r>   16.0463    0.0000 </r>
      </set>
      <set comment="kpoint 26">
       <r>   -4.0493    1.0000 </r>
       <r>    2.8807    1.0000 </r>
       <r>    6.6835    1.0000 </r>
       <r>    9.2640    0.1439 </r>
       <r>   13.1459    0.0000 </r>
       <r>   13.6964    0.0000 </r>
       <r>   15.7649    0.0000 </r>
       <r>   18.1371    0.0000 </r>
      </set>
      <set comment="kpoint 27">
       <r>   -4.0323    1.0000 </r>
       <r>    3.7815    1.0000 </r>
       <r>    5.9826    1.0000 </r>
       <r>    9.7582    0.0000 </r>
       <r>   13.0217    0.0000 </r>
       <r>   13.2732    0.0000 </r>
       <r>   15.5388    0.0000 </r>
       <r>   17.1584    0.0000 </r>
      </set>
      <set comment="kpoint 28">
       <r>   -3.6410    1.0000 </r>
       <r>    4.6680    1.0000 </r>
       <r>    5.8458    1.0000 </r>
       <r>   10.1569    0.0000 </r>
       <r>   12.8187    0.0000 </r>
       <r>   13.1058    0.0000 </r>
       <r>   13.4739    0.0000 </r>
       <r>   15.5887    0.0000 </r>
      </set>
      <set comment="kpoint 29">
       <r>    2.1375    1.0000 </r>
       <r>    2.2877    1.0000 </r>
       <r>    3.8992    1.0000 </r>
       <r>    7.2982    1.0000 </r>
       <r>    9.9903    0.0000 </r>
       <r>   10.9189    0.0000 </r>
       <r>   15.1699    0.0000 </r>
       <r>   15.4758    0.0000 </r>
      </set>
      <set comment="kpoint 30">
       <r>    0.4092    1.0000 </r>
       <r>    1.3898    1.0000 </r>
       <r>    6.1522    1.0000 </r>
       <r>    8.2604    1.0000 </r>
       <r>    9.6769    0.0000 </r>
       <r>   11.0366    0.0000 </r>
       <r>   14.9082    0.0000 </r>
       <r>   16.0660    0.0000 </r>
      </set>
      <set comment="kpoint 31">
       <r>   -1.1127    1.0000 </r>
       <r>    0.8715    1.0000 </r>
       <r>    8.2431    1.0000 </r>
       <r>    8.9291    0.9041 </r>
       <r>   10.2416    0.0000 </r>
       <r>   11.9645    0.0000 </r>
       <r>   13.1342    0.0000 </r>
       <r>   14.9588    0.0000 </r>
      </set>
      <set comment="kpoint 32">
       <r>   -2.2864    1.0000 </r>
       <r>    0.7068    1.0000 </r>
       <r>    8.2136    1.0000 </r>
       <r>   10.5552    0.0000 </r>
       <r>   11.0679    0.0000 </r>
       <r>   12.4712    0.0000 </r>
       <r>   13.6551    0.0000 </r>
       <r>   14.2711    0.0000 </r>
      </set>
      <set comment="kpoint 33">
       <r>   -3.0975    1.0000 </r>
       <r>    0.9003    1.0000 </r>
       <r>    7.9021    1.0000 </r>
       <r>    9.9597    0.0000 </r>
       <r>   11.5388    0.0000 </r>
       <r>   13.6685    0.0000 </r>
       <r>   15.6702    0.0000 </r>
       <r>   15.7193    0.0000 </r>
      </set>
      <set comment="kpoint 34">
       <r>   -3.5388    1.0000 </r>
       <r>    1.4479    1.0000 </r>
       <r>    7.1531    1.0000 </r>
       <r>    9.8755    0.0000 </r>
       <r>   11.7995    0.0000 </r>
       <r>   14.5458    0.0000 </r>
       <r>   15.7352    0.0000 </r>
       <r>   17.8985    0.0000 </r>
      </set>
      <set comment="kpoint 35">
       <r>   -3.6069    1.0000 </r>
       <r>    2.3346    1.0000 </r>
       <r>    6.3377    1.0000 </r>
       <r>   10.4080    0.0000 </r>
       <r>   11.8786    0.0000 </r>
       <r>   14.5898    0.0000 </r>
       <r>   15.2490    0.0000 </r>
       <r>   16.4193    0.0000 </r>
      </set>
      <set comment="kpoint 36">
       <r>   -3.3015    1.0000 </r>
       <r>    3.5056    1.0000 </r>
       <r>    5.8042    1.0000 </r>
       <r>   10.7606    0.0000 </r>
       <r>   12.0361    0.0000 </r>
       <r>   12.8532    0.0000 </r>
       <r>   14.3997    0.0000 </r>
       <r>   15.4070    0.0000 </r>
      </set>
      <set comment="kpoint 37">
       <r>   -2.6251    1.0000 </r>
       <r>    4.6408    1.0000 </r>
       <r>    5.9181    1.0000 </r>
       <r>    9.2113    0.2450 </r>
       <r>   11.7876    0.0000 </r>
       <r>   12.6468    0.0000 </r>
       <r>   13.9595    0.0000 </r>
       <r>   14.1178    0.0000 </r>
      </set>
      <set comment="kpoint 38">
       <r>   -0.2025    1.0000 </r>
       <r>   -0.1939    1.0000 </r>
       <r>    8.4807    1.0000 </r>
       <r>    8.9759    0.8351 </r>
       <r>    9.8908    0.0000 </r>
       <r>   11.7529    0.0000 </r>
       <r>   13.6727    0.0000 </r>
       <r>   14.3393    0.0000 </r>
      </set>
      <set comment="kpoint 39">
       <r>   -1.4468    1.0000 </r>
       <r>   -0.4470    1.0000 </r>
       <r>    8.9476    0.8799 </r>
       <r>    9.7888    0.0000 </r>
       <r>   11.3829    0.0000 </r>
       <r>   12.3435    0.0000 </r>
       <r>   13.4431    0.0000 </r>
       <r>   13.5301    0.0000 </r>
      </set>
      <set comment="kpoint 40">
       <r>   -2.3374    1.0000 </r>
       <r>   -0.3324    1.0000 </r>
       <r>    8.5948    0.9999 </r>
       <r>   10.4099    0.0000 </r>
       <r>   10.7254    0.0000 </r>
       <r>   12.5833    0.0000 </r>
       <r>   15.5394    0.0000 </r>
       <r>   15.5847    0.0000 </r>
      </set>
      <set comment="kpoint 41">
       <r>   -2.8610    1.0000 </r>
       <r>    0.1438    1.0000 </r>
       <r>    7.7806    1.0000 </r>
       <r>   10.5706    0.0000 </r>
       <r>   10.5789    0.0000 </r>
       <r>   13.3867    0.0000 </r>
       <r>   17.5118    0.0000 </r>
       <r>   17.8287    0.0000 </r>
      </set>
      <set comment="kpoint 42">
       <r>   -3.0136    1.0000 </r>
       <r>    0.9739    1.0000 </r>
       <r>    6.8799    1.0000 </r>
       <r>   10.5943    0.0000 </r>
       <r>   11.0609    0.0000 </r>
       <r>   14.2163    0.0000 </r>
       <r>   15.6068    0.0000 </r>
       <r>   16.3906    0.0000 </r>
      </set>
      <set comment="kpoint 43">
       <r>   -2.7939    1.0000 </r>
       <r>    2.1392    1.0000 </r>
       <r>    6.2144    1.0000 </r>
       <r>   10.5533    0.0000 </r>
       <r>   11.2671    0.0000 </r>
       <r>   12.8250    0.0000 </r>
       <r>   14.6301    0.0000 </r>
       <r>   16.7322    0.0000 </r>
      </set>
      <set comment="kpoint 44">
       <r>   -2.2040    1.0000 </r>
       <r>    3.5754    1.0000 </r>
       <r>    5.9082    1.0000 </r>
       <r>    8.7639    0.9933 </r>
       <r>   11.0880    0.0000 </r>
       <r>   13.1773    0.0000 </r>
       <r>   13.6036    0.0000 </r>
       <r>   15.0976    0.0000 </r>
      </set>
      <set comment="kpoint 45">
       <r>   -1.2494    1.0000 </r>
       <r>    4.8969    1.0000 </r>
       <r>    6.2646    1.0000 </r>
       <r>    6.6053    1.0000 </r>
       <r>   10.2560    0.0000 </r>
       <r>   12.5783    0.0000 </r>
       <r>   13.1201    0.0000 </r>
       <r>   14.4902    0.0000 </r>
      </set>
      <set comment="kpoint 46">
       <r>   -1.4139    1.0000 </r>
       <r>   -1.4139    1.0000 </r>
       <r>    9.4356    0.0114 </r>
       <r>    9.4356    0.0114 </r>
       <r>   11.5925    0.0000 </r>
       <r>   11.5926    0.0000 </r>
       <r>   15.5004    0.0000 </r>
       <r>   15.5004    0.0000 </r>
      </set>
      <set comment="kpoint 47">
       <r>   -2.0186    1.0000 </r>
       <r>   -1.0148    1.0000 </r>
       <r>    8.5631    1.0000 </r>
       <r>    9.4976    0.0033 </r>
       <r>   11.3853    0.0000 </r>
       <r>   12.3262    0.0000 </r>
       <r>   17.6019    0.0000 </r>
       <r>   17.6590    0.0000 </r>
      </set>
      <set comment="kpoint 48">
       <r>   -2.2544    1.0000 </r>
       <r>   -0.2537    1.0000 </r>
       <r>    7.5853    1.0000 </r>
       <r>    9.4544    0.0080 </r>
       <r>   11.7643    0.0000 </r>
       <r>   13.4534    0.0000 </r>
       <r>   15.1538    0.0000 </r>
       <r>   16.3844    0.0000 </r>
      </set>
      <set comment="kpoint 49">
       <r>   -2.1199    1.0000 </r>
       <r>    0.8586    1.0000 </r>
       <r>    6.8231    1.0000 </r>
       <r>    9.5394    0.0013 </r>
       <r>   11.0690    0.0000 </r>
       <r>   13.2378    0.0000 </r>
       <r>   14.4087    0.0000 </r>
       <r>   15.8583    0.0000 </r>
      </set>
      <set comment="kpoint 50">
       <r>   -1.6167    1.0000 </r>
       <r>    2.2976    1.0000 </r>
       <r>    6.3656    1.0000 </r>
       <r>    8.4044    1.0000 </r>
       <r>   10.0595    0.0000 </r>
       <r>   12.8133    0.0000 </r>
       <r>   14.2027    0.0000 </r>
       <r>   16.3102    0.0000 </r>
      </set>
      <set comment="kpoint 51">
       <r>   -0.7506    1.0000 </r>
       <r>    3.9591    1.0000 </r>
       <r>    5.9653    1.0000 </r>
       <r>    6.4620    1.0000 </r>
       <r>    9.9979    0.0000 </r>
       <r>   12.0452    0.0000 </r>
       <r>   13.4427    0.0000 </r>
       <r>   15.5478    0.0000 </r>
      </set>
      <set comment="kpoint 52">
       <r>    0.4594    1.0000 </r>
       <r>    3.8251    1.0000 </r>
       <r>    5.8328    1.0000 </r>
       <r>    6.8432    1.0000 </r>
       <r>    8.8779    0.9523 </r>
       <r>   11.1921    0.0000 </r>
       <r>   12.7226    0.0000 </r>
       <r>   15.4749    0.0000 </r>
      </set>
      <set comment="kpoint 53">
       <r>   -1.3334    1.0000 </r>
       <r>   -1.3315    1.0000 </r>
       <r>    8.4412    1.0000 </r>
       <r>    8.4505    1.0000 </r>
       <r>   12.4150    0.0000 </r>
       <r>   12.7603    0.0000 </r>
       <r>   15.0147    0.0000 </r>
       <r>   16.3369    0.0000 </r>
      </set>
      <set comment="kpoint 54">
       <r>   -1.2829    1.0000 </r>
       <r>   -0.2873    1.0000 </r>
       <r>    7.5934    1.0000 </r>
       <r>    8.5080    1.0000 </r>
       <r>   10.9763    0.0000 </r>
       <r>   13.8286    0.0000 </r>
       <r>   14.2995    0.0000 </r>
       <r>   14.9818    0.0000 </r>
      </set>
      <set comment="kpoint 55">
       <r>   -0.8663    1.0000 </r>
       <r>    1.1029    1.0000 </r>
       <r>    7.0015    1.0000 </r>
       <r>    8.1409    1.0000 </r>
       <r>    9.0841    0.5830 </r>
       <r>   12.5515    0.0000 </r>
       <r>   14.9196    0.0000 </r>
       <r>   16.6410    0.0000 </r>
      </set>
      <set comment="kpoint 56">
       <r>   -0.0897    1.0000 </r>
       <r>    2.7933    1.0000 </r>
       <r>    5.6843    1.0000 </r>
       <r>    6.9298    1.0000 </r>
       <r>    9.3200    0.0723 </r>
       <r>   11.3819    0.0000 </r>
       <r>   14.6754    0.0000 </r>
       <r>   16.3515    0.0000 </r>
      </set>
      <set comment="kpoint 57">
       <r>    1.0184    1.0000 </r>
       <r>    3.4153    1.0000 </r>
       <r>    4.9517    1.0000 </r>
       <r>    6.9874    1.0000 </r>
       <r>    8.9584    0.8639 </r>
       <r>   11.3789    0.0000 </r>
       <r>   12.2246    0.0000 </r>
       <r>   16.5761    0.0000 </r>
      </set>
      <set comment="kpoint 58">
       <r>    1.4510    1.0000 </r>
       <r>    2.7072    1.0000 </r>
       <r>    6.7392    1.0000 </r>
       <r>    7.4326    1.0000 </r>
       <r>    7.8157    1.0000 </r>
       <r>   10.4140    0.0000 </r>
       <r>   12.6960    0.0000 </r>
       <r>   15.4367    0.0000 </r>
      </set>
      <set comment="kpoint 59">
       <r>    0.0339    1.0000 </r>
       <r>    0.0516    1.0000 </r>
       <r>    7.5834    1.0000 </r>
       <r>    7.8476    1.0000 </r>
       <r>    8.5877    0.9999 </r>
       <r>   12.4652    0.0000 </r>
       <r>   15.4244    0.0000 </r>
       <r>   16.2376    0.0000 </r>
      </set>
      <set comment="kpoint 60">
       <r>    0.7284    1.0000 </r>
       <r>    1.6969    1.0000 </r>
       <r>    5.5329    1.0000 </r>
       <r>    7.5971    1.0000 </r>
       <r>    8.5100    1.0000 </r>
       <r>   11.0846    0.0000 </r>
       <r>   15.9565    0.0000 </r>
       <r>   16.7458    0.0000 </r>
      </set>
      <set comment="kpoint 61">
       <r>    1.7109    1.0000 </r>
       <r>    3.0924    1.0000 </r>
       <r>    3.9648    1.0000 </r>
       <r>    7.4693    1.0000 </r>
       <r>    8.7780    0.9912 </r>
       <r>   10.6078    0.0000 </r>
       <r>   13.4526    0.0000 </r>
       <r>   16.5344    0.0000 </r>
      </set>
      <set comment="kpoint 62">
       <r>    1.1796    1.0000 </r>
       <r>    3.2914    1.0000 </r>
       <r>    5.9763    1.0000 </r>
       <r>    7.3656    1.0000 </r>
       <r>    8.4704    1.0000 </r>
       <r>   10.9222    0.0000 </r>
       <r>   11.7645    0.0000 </r>
       <r>   15.7464    0.0000 </r>
      </set>
      <set comment="kpoint 63">
       <r>   -0.3567    1.0000 </r>
       <r>    4.9326    1.0000 </r>
       <r>    6.8489    1.0000 </r>
       <r>    7.5258    1.0000 </r>
       <r>    8.2806    1.0000 </r>
       <r>   10.7803    0.0000 </r>
       <r>   12.9144    0.0000 </r>
       <r>   14.7652    0.0000 </r>
      </set>
      <set comment="kpoint 64">
       <r>    2.3331    1.0000 </r>
       <r>    2.6921    1.0000 </r>
       <r>    3.5271    1.0000 </r>
       <r>    7.7836    1.0000 </r>
       <r>    8.6088    0.9998 </r>
       <r>   10.2728    0.0000 </r>
       <r>   14.5988    0.0000 </r>
       <r>   15.5172    0.0000 </r>
      </set>
      <set comment="kpoint 65">
       <r>    1.0317    1.0000 </r>
       <r>    4.0584    1.0000 </r>
       <r>    4.9782    1.0000 </r>
       <r>    7.3982    1.0000 </r>
       <r>    9.0321    0.7181 </r>
       <r>   10.5677    0.0000 </r>
       <r>   12.5137    0.0000 </r>
       <r>   14.3288    0.0000 </r>
      </set>
      <set comment="kpoint 66">
       <r>   -0.6044    1.0000 </r>
       <r>    5.6194    1.0000 </r>
       <r>    6.9519    1.0000 </r>
       <r>    7.3093    1.0000 </r>
       <r>    8.7973    0.9874 </r>
       <r>   11.1224    0.0000 </r>
       <r>   11.9129    0.0000 </r>
       <r>   13.6545    0.0000 </r>
      </set>
      <set comment="kpoint 67">
       <r>   -1.9194    1.0000 </r>
       <r>    6.1667    1.0000 </r>
       <r>    7.2356    1.0000 </r>
       <r>    7.7522    1.0000 </r>
       <r>    9.8994    0.0000 </r>
       <r>   12.1019    0.0000 </r>
       <r>   12.1877    0.0000 </r>
       <r>   14.2117    0.0000 </r>
      </set>
      <set comment="kpoint 68">
       <r>   -0.6872    1.0000 </r>
       <r>    6.3138    1.0000 </r>
       <r>    6.4924    1.0000 </r>
       <r>    7.0343    1.0000 </r>
       <r>    9.4186    0.0155 </r>
       <r>   11.2051    0.0000 </r>
       <r>   12.2222    0.0000 </r>
       <r>   12.3286    0.0000 </r>
      </set>
      <set comment="kpoint 69">
       <r>   -2.0875    1.0000 </r>
       <r>    6.4420    1.0000 </r>
       <r>    7.8902    1.0000 </r>
       <r>    8.4298    1.0000 </r>
       <r>    9.5967    0.0003 </r>
       <r>   11.0974    0.0000 </r>
       <r>   12.4097    0.0000 </r>
       <r>   13.2840    0.0000 </r>
      </set>
      <set comment="kpoint 70">
       <r>   -3.1325    1.0000 </r>
       <r>    6.0814    1.0000 </r>
       <r>    6.9844    1.0000 </r>
       <r>    9.4274    0.0133 </r>
       <r>   11.3556    0.0000 </r>
       <r>   11.9991    0.0000 </r>
       <r>   12.7367    0.0000 </r>
       <r>   14.5273    0.0000 </r>
      </set>
      <set comment="kpoint 71">
       <r>   -3.2172    1.0000 </r>
       <r>    6.3442    1.0000 </r>
       <r>    7.6262    1.0000 </r>
       <r>    8.8718    0.9564 </r>
       <r>   11.5794    0.0000 </r>
       <r>   11.7110    0.0000 </r>
       <r>   12.5285    0.0000 </r>
       <r>   14.4968    0.0000 </r>
      </set>
      <set comment="kpoint 72">
       <r>   -3.9814    1.0000 </r>
       <r>    6.2717    1.0000 </r>
       <r>    6.8360    1.0000 </r>
       <r>    8.1836    1.0000 </r>
       <r>   11.5194    0.0000 </r>
       <r>   13.9098    0.0000 </r>
       <r>   14.1336    0.0000 </r>
       <r>   16.3805    0.0000 </r>
      </set>
      <set comment="kpoint 73">
       <r>   -4.4587    1.0000 </r>
       <r>    6.6629    1.0000 </r>
       <r>    6.6629    1.0000 </r>
       <r>    6.9806    1.0000 </r>
       <r>   10.8273    0.0000 </r>
       <r>   16.1449    0.0000 </r>
       <r>   16.5418    0.0000 </r>
       <r>   17.6244    0.0000 </r>
      </set>
      <set comment="kpoint 74">
       <r>   -2.5401    1.0000 </r>
       <r>    3.3703    1.0000 </r>
       <r>    8.1155    1.0000 </r>
       <r>    9.6700    0.0000 </r>
       <r>   10.8718    0.0000 </r>
       <r>   11.0740    0.0000 </r>
       <r>   14.6723    0.0000 </r>
       <r>   15.2104    0.0000 </r>
      </set>
      <set comment="kpoint 75">
       <r>   -1.2479    1.0000 </r>
       <r>    3.6381    1.0000 </r>
       <r>    7.2990    1.0000 </r>
       <r>    7.9961    1.0000 </r>
       <r>    9.8193    0.0000 </r>
       <r>   12.1721    0.0000 </r>
       <r>   14.0462    0.0000 </r>
       <r>   14.7773    0.0000 </r>
      </set>
      <set comment="kpoint 76">
       <r>    0.3852    1.0000 </r>
       <r>    4.1065    1.0000 </r>
       <r>    4.9609    1.0000 </r>
       <r>    6.6018    1.0000 </r>
       <r>   10.1386    0.0000 </r>
       <r>   12.9013    0.0000 </r>
       <r>   14.0277    0.0000 </r>
       <r>   14.1363    0.0000 </r>
      </set>
      <set comment="kpoint 77">
       <r>    2.0175    1.0000 </r>
       <r>    2.7669    1.0000 </r>
       <r>    5.0693    1.0000 </r>
       <r>    5.5865    1.0000 </r>
       <r>   10.4894    0.0000 </r>
       <r>   12.3159    0.0000 </r>
       <r>   13.9441    0.0000 </r>
       <r>   14.4921    0.0000 </r>
      </set>
      <set comment="kpoint 78">
       <r>   -4.2199    1.0000 </r>
       <r>    4.1277    1.0000 </r>
       <r>    5.3342    1.0000 </r>
       <r>    9.8660    0.0000 </r>
       <r>   12.6165    0.0000 </r>
       <r>   13.2263    0.0000 </r>
       <r>   17.6840    0.0000 </r>
       <r>   18.1461    0.0000 </r>
      </set>
      <set comment="kpoint 79">
       <r>    0.3046    1.0000 </r>
       <r>    4.1112    1.0000 </r>
       <r>    5.6381    1.0000 </r>
       <r>    5.7511    1.0000 </r>
       <r>   10.9477    0.0000 </r>
       <r>   13.1732    0.0000 </r>
       <r>   13.8998    0.0000 </r>
       <r>   13.9660    0.0000 </r>
      </set>
      <set comment="kpoint 80">
       <r>    2.0881    1.0000 </r>
       <r>    3.2912    1.0000 </r>
       <r>    4.2032    1.0000 </r>
       <r>    5.2837    1.0000 </r>
       <r>   11.3674    0.0000 </r>
       <r>   12.9834    0.0000 </r>
       <r>   13.8693    0.0000 </r>
[...]
       <r>    2.1606    1.0000 </r>
       <r>    3.7221    1.0000 </r>
       <r>    5.0323    1.0000 </r>
       <r>    7.1636    1.0000 </r>
       <r>   15.9427    0.0000 </r>
       <r>   17.2211    0.0000 </r>
       <r>   18.9191    0.0000 </r>
      </set>
      <set comment="kpoint 149">
       <r>    1.5672    1.0000 </r>
       <r>    1.6281    1.0000 </r>
       <r>    4.1008    1.0000 </r>
       <r>    4.1265    1.0000 </r>
       <r>    7.0765    1.0000 </r>
       <r>   16.2321    0.0000 </r>
       <r>   17.9565    0.0000 </r>
       <r>   18.3129    0.0000 </r>
      </set>
      <set comment="kpoint 150">
       <r>    2.4624    1.0000 </r>
       <r>    2.9537    1.0000 </r>
       <r>    4.5392    1.0000 </r>
       <r>    4.6878    1.0000 </r>
       <r>    5.1599    1.0000 </r>
       <r>   14.6210    0.0000 </r>
       <r>   15.5439    0.0000 </r>
       <r>   16.4024    0.0000 </r>
      </set>
      <set comment="kpoint 151">
       <r>    2.2047    1.0000 </r>
       <r>    4.2813    1.0000 </r>
       <r>    4.5394    1.0000 </r>
       <r>    5.6668    1.0000 </r>
       <r>    5.6668    1.0000 </r>
       <r>   13.4488    0.0000 </r>
       <r>   13.8376    0.0000 </r>
       <r>   13.8377    0.0000 </r>
      </set>
      <set comment="kpoint 152">
       <r>   -1.2118    1.0000 </r>
       <r>    1.1160    1.0000 </r>
       <r>    2.6996    1.0000 </r>
       <r>    4.9805    1.0000 </r>
       <r>   15.2896    0.0000 </r>
       <r>   15.5515    0.0000 </r>
       <r>   18.7020    0.0000 </r>
       <r>   20.5534    0.0000 </r>
      </set>
      <set comment="kpoint 153">
       <r>   -0.4173    1.0000 </r>
       <r>    0.4635    1.0000 </r>
       <r>    3.0205    1.0000 </r>
       <r>    3.8854    1.0000 </r>
       <r>   15.3195    0.0000 </r>
       <r>   15.3914    0.0000 </r>
       <r>   19.6960    0.0000 </r>
       <r>   20.4325    0.0000 </r>
      </set>
      <set comment="kpoint 154">
       <r>   -0.3176    1.0000 </r>
       <r>    1.0455    1.0000 </r>
       <r>    2.6400    1.0000 </r>
       <r>    3.9814    1.0000 </r>
       <r>   12.4398    0.0000 </r>
       <r>   18.1186    0.0000 </r>
       <r>   19.8433    0.0000 </r>
       <r>   20.7924    0.0000 </r>
      </set>
      <set comment="kpoint 155">
       <r>    0.4721    1.0000 </r>
       <r>    0.4848    1.0000 </r>
       <r>    3.0361    1.0000 </r>
       <r>    3.0400    1.0000 </r>
       <r>   12.3735    0.0000 </r>
       <r>   18.1641    0.0000 </r>
       <r>   20.5643    0.0000 </r>
       <r>   20.9440    0.0000 </r>
      </set>
      <set comment="kpoint 156">
       <r>    0.8591    1.0000 </r>
       <r>    1.3416    1.0000 </r>
       <r>    2.9303    1.0000 </r>
       <r>    3.4055    1.0000 </r>
       <r>    9.5697    0.0006 </r>
       <r>   18.6585    0.0000 </r>
       <r>   19.8729    0.0000 </r>
       <r>   20.1911    0.0000 </r>
      </set>
      <set comment="kpoint 157">
       <r>    1.9498    1.0000 </r>
       <r>    2.0340    1.0000 </r>
       <r>    3.5671    1.0000 </r>
       <r>    3.5671    1.0000 </r>
       <r>    6.9917    1.0000 </r>
       <r>   17.1395    0.0000 </r>
       <r>   17.8903    0.0000 </r>
       <r>   17.8904    0.0000 </r>
      </set>
      <set comment="kpoint 158">
       <r>    0.2946    1.0000 </r>
       <r>    0.7760    1.0000 </r>
       <r>    2.3857    1.0000 </r>
       <r>    2.8623    1.0000 </r>
       <r>   15.2587    0.0000 </r>
       <r>   15.2778    0.0000 </r>
       <r>   21.0922    0.0000 </r>
       <r>   21.5641    0.0000 </r>
      </set>
      <set comment="kpoint 159">
       <r>    0.8674    1.0000 </r>
       <r>    0.8839    1.0000 </r>
       <r>    2.4829    1.0000 </r>
       <r>    2.4829    1.0000 </r>
       <r>   12.3060    0.0000 </r>
       <r>   18.1863    0.0000 </r>
       <r>   21.3349    0.0000 </r>
       <r>   21.5066    0.0000 </r>
      </set>
     </set>
    </set>
   </array>
  </eigenvalues>
  <separator name="orbital magnetization" >
   <v name="MAGDIPOLOUT">      0.00000000      0.00000000      0.00000000</v>
  </separator>
  <dos>
   <i name="efermi">      9.11370211 </i>
   <total>
    <array>
     <dimension dim="1">gridpoints</dimension>
     <dimension dim="2">spin</dimension>
     <field>energy</field>
     <field>total</field>
     <field>integrated</field>
     <set>
      <set comment="spin 1">
       <r>    -6.5613     0.0000     0.0000 </r>
       <r>    -6.4609     0.0000     0.0000 </r>
       <r>    -6.3604     0.0000     0.0000 </r>
       <r>    -6.2600     0.0000     0.0000 </r>
       <r>    -6.1596     0.0000     0.0000 </r>
       <r>    -6.0592     0.0000     0.0000 </r>
       <r>    -5.9588     0.0000     0.0000 </r>
       <r>    -5.8584     0.0000     0.0000 </r>
       <r>    -5.7579     0.0000     0.0000 </r>
       <r>    -5.6575     0.0000     0.0000 </r>
       <r>    -5.5571     0.0000     0.0000 </r>
       <r>    -5.4567     0.0000     0.0000 </r>
       <r>    -5.3563     0.0000     0.0000 </r>
       <r>    -5.2558     0.0000     0.0000 </r>
       <r>    -5.1554     0.0000     0.0000 </r>
       <r>    -5.0550     0.0000     0.0000 </r>
       <r>    -4.9546     0.0001     0.0000 </r>
       <r>    -4.8542     0.0009     0.0001 </r>
       <r>    -4.7538     0.0042     0.0005 </r>
       <r>    -4.6533     0.0142     0.0020 </r>
       <r>    -4.5529     0.0349     0.0055 </r>
       <r>    -4.4525     0.0655     0.0120 </r>
       <r>    -4.3521     0.0952     0.0216 </r>
       <r>    -4.2517     0.1148     0.0331 </r>
       <r>    -4.1512     0.1333     0.0465 </r>
       <r>    -4.0508     0.1591     0.0625 </r>
       <r>    -3.9504     0.1797     0.0805 </r>
       <r>    -3.8500     0.1892     0.0995 </r>
       <r>    -3.7496     0.1987     0.1195 </r>
       <r>    -3.6492     0.2134     0.1409 </r>
       <r>    -3.5487     0.2282     0.1638 </r>
       <r>    -3.4483     0.2384     0.1878 </r>
       <r>    -3.3479     0.2411     0.2120 </r>
       <r>    -3.2475     0.2358     0.2356 </r>
       <r>    -3.1471     0.2422     0.2600 </r>
       <r>    -3.0467     0.2858     0.2887 </r>
       <r>    -2.9462     0.3425     0.3231 </r>
       <r>    -2.8458     0.3555     0.3588 </r>
       <r>    -2.7454     0.3123     0.3901 </r>
       <r>    -2.6450     0.2578     0.4160 </r>
       <r>    -2.5446     0.2456     0.4407 </r>
       <r>    -2.4441     0.2892     0.4697 </r>
       <r>    -2.3437     0.3523     0.5051 </r>
       <r>    -2.2433     0.3888     0.5441 </r>
       <r>    -2.1429     0.3881     0.5831 </r>
       <r>    -2.0425     0.3798     0.6212 </r>
       <r>    -1.9421     0.3885     0.6603 </r>
       <r>    -1.8416     0.4017     0.7006 </r>
       <r>    -1.7412     0.3943     0.7402 </r>
       <r>    -1.6408     0.3670     0.7770 </r>
       <r>    -1.5404     0.3416     0.8113 </r>
       <r>    -1.4400     0.3417     0.8456 </r>
       <r>    -1.3395     0.3864     0.8844 </r>
       <r>    -1.2391     0.4576     0.9304 </r>
       <r>    -1.1387     0.5043     0.9810 </r>
       <r>    -1.0383     0.4996     1.0312 </r>
       <r>    -0.9379     0.4526     1.0767 </r>
       <r>    -0.8375     0.3979     1.1166 </r>
       <r>    -0.7370     0.3789     1.1547 </r>
       <r>    -0.6366     0.4085     1.1957 </r>
       <r>    -0.5362     0.4625     1.2421 </r>
       <r>    -0.4358     0.5155     1.2939 </r>
       <r>    -0.3354     0.5541     1.3495 </r>
       <r>    -0.2350     0.5649     1.4063 </r>
       <r>    -0.1345     0.5422     1.4607 </r>
       <r>    -0.0341     0.5072     1.5116 </r>
       <r>     0.0663     0.4793     1.5598 </r>
       <r>     0.1667     0.4575     1.6057 </r>
       <r>     0.2671     0.4647     1.6524 </r>
       <r>     0.3676     0.5173     1.7043 </r>
       <r>     0.4680     0.5560     1.7602 </r>
       <r>     0.5684     0.5325     1.8136 </r>
       <r>     0.6688     0.5067     1.8645 </r>
       <r>     0.7692     0.5472     1.9195 </r>
       <r>     0.8696     0.6353     1.9833 </r>
       <r>     0.9701     0.7179     2.0553 </r>
       <r>     1.0705     0.7519     2.1309 </r>
       <r>     1.1709     0.7064     2.2018 </r>
       <r>     1.2713     0.6067     2.2627 </r>
       <r>     1.3717     0.5421     2.3171 </r>
       <r>     1.4722     0.5573     2.3731 </r>
       <r>     1.5726     0.5859     2.4319 </r>
       <r>     1.6730     0.5540     2.4876 </r>
       <r>     1.7734     0.4779     2.5356 </r>
       <r>     1.8738     0.4342     2.5792 </r>
       <r>     1.9742     0.4752     2.6269 </r>
       <r>     2.0747     0.5675     2.6839 </r>
       <r>     2.1751     0.6357     2.7477 </r>
       <r>     2.2755     0.6601     2.8140 </r>
       <r>     2.3759     0.6513     2.8794 </r>
       <r>     2.4763     0.6002     2.9397 </r>
       <r>     2.5768     0.5287     2.9928 </r>
       <r>     2.6772     0.4809     3.0411 </r>
       <r>     2.7776     0.4681     3.0881 </r>
       <r>     2.8780     0.4905     3.1373 </r>
       <r>     2.9784     0.5399     3.1915 </r>
       <r>     3.0788     0.5832     3.2501 </r>
       <r>     3.1793     0.6065     3.3110 </r>
       <r>     3.2797     0.6338     3.3747 </r>
       <r>     3.3801     0.6731     3.4422 </r>
       <r>     3.4805     0.6933     3.5119 </r>
       <r>     3.5809     0.6663     3.5788 </r>
       <r>     3.6813     0.6139     3.6404 </r>
       <r>     3.7818     0.6073     3.7014 </r>
       <r>     3.8822     0.6775     3.7694 </r>
       <r>     3.9826     0.7603     3.8458 </r>
       <r>     4.0830     0.7723     3.9233 </r>
       <r>     4.1834     0.6931     3.9929 </r>
       <r>     4.2839     0.5787     4.0510 </r>
       <r>     4.3843     0.5100     4.1023 </r>
       <r>     4.4847     0.5166     4.1541 </r>
       <r>     4.5851     0.5815     4.2125 </r>
       <r>     4.6855     0.6780     4.2806 </r>
       <r>     4.7859     0.7830     4.3592 </r>
       <r>     4.8864     0.8886     4.4485 </r>
       <r>     4.9868     0.9623     4.5451 </r>
       <r>     5.0872     0.9398     4.6395 </r>
       <r>     5.1876     0.8342     4.7232 </r>
       <r>     5.2880     0.7391     4.7975 </r>
       <r>     5.3885     0.7014     4.8679 </r>
       <r>     5.4889     0.7097     4.9392 </r>
       <r>     5.5893     0.7480     5.0143 </r>
       <r>     5.6897     0.7798     5.0926 </r>
       <r>     5.7901     0.7699     5.1699 </r>
       <r>     5.8905     0.7382     5.2440 </r>
       <r>     5.9910     0.7317     5.3175 </r>
       <r>     6.0914     0.7758     5.3954 </r>
       <r>     6.1918     0.8724     5.4830 </r>
       <r>     6.2922     0.9893     5.5823 </r>
       <r>     6.3926     1.0444     5.6872 </r>
       <r>     6.4931     0.9695     5.7846 </r>
       <r>     6.5935     0.8076     5.8657 </r>
       <r>     6.6939     0.6943     5.9354 </r>
       <r>     6.7943     0.7393     6.0096 </r>
       <r>     6.8947     0.9161     6.1016 </r>
       <r>     6.9951     1.0634     6.2084 </r>
       <r>     7.0956     1.0681     6.3157 </r>
       <r>     7.1960     1.0086     6.4169 </r>
       <r>     7.2964     1.0089     6.5182 </r>
       <r>     7.3968     1.0543     6.6241 </r>
       <r>     7.4972     1.0690     6.7315 </r>
       <r>     7.5976     1.0469     6.8366 </r>
       <r>     7.6981     1.0028     6.9373 </r>
       <r>     7.7985     0.9368     7.0314 </r>
       <r>     7.8989     0.8731     7.1191 </r>
       <r>     7.9993     0.8370     7.2031 </r>
       <r>     8.0997     0.8250     7.2859 </r>
       <r>     8.2002     0.8074     7.3670 </r>
       <r>     8.3006     0.7583     7.4432 </r>
       <r>     8.4010     0.7085     7.5143 </r>
       <r>     8.5014     0.6892     7.5835 </r>
       <r>     8.6018     0.6655     7.6504 </r>
       <r>     8.7022     0.6361     7.7142 </r>
       <r>     8.8027     0.6539     7.7799 </r>
       <r>     8.9031     0.7115     7.8513 </r>
       <r>     9.0035     0.7355     7.9252 </r>
       <r>     9.1039     0.6830     7.9938 </r>
       <r>     9.2043     0.6066     8.0547 </r>
       <r>     9.3048     0.6077     8.1157 </r>
       <r>     9.4052     0.7066     8.1867 </r>
       <r>     9.5056     0.8230     8.2693 </r>
       <r>     9.6060     0.8702     8.3567 </r>
       <r>     9.7064     0.8201     8.4391 </r>
       <r>     9.8068     0.7185     8.5112 </r>
       <r>     9.9073     0.6319     8.5747 </r>
       <r>    10.0077     0.5868     8.6336 </r>
       <r>    10.1081     0.5811     8.6919 </r>
       <r>    10.2085     0.6057     8.7528 </r>
       <r>    10.3089     0.6574     8.8188 </r>
       <r>    10.4093     0.7427     8.8934 </r>
       <r>    10.5098     0.8199     8.9757 </r>
       <r>    10.6102     0.8108     9.0571 </r>
       <r>    10.7106     0.7363     9.1311 </r>
       <r>    10.8110     0.7167     9.2030 </r>
       <r>    10.9114     0.8113     9.2845 </r>
       <r>    11.0119     0.9596     9.3809 </r>
       <r>    11.1123     1.0518     9.4865 </r>
       <r>    11.2127     1.0404     9.5909 </r>
       <r>    11.3131     0.9792     9.6893 </r>
       <r>    11.4135     0.9012     9.7798 </r>
       <r>    11.5139     0.7996     9.8601 </r>
       <r>    11.6144     0.7392     9.9343 </r>
       <r>    11.7148     0.7928    10.0139 </r>
       <r>    11.8152     0.9047    10.1048 </r>
       <r>    11.9156     0.9663    10.2018 </r>
       <r>    12.0160     0.9674    10.2989 </r>
       <r>    12.1165     0.9548    10.3948 </r>
       <r>    12.2169     0.9415    10.4894 </r>
       <r>    12.3173     0.9354    10.5833 </r>
       <r>    12.4177     0.9524    10.6789 </r>
       <r>    12.5181     0.9791    10.7773 </r>
       <r>    12.6185     1.0012    10.8778 </r>
       <r>    12.7190     1.0538    10.9836 </r>
       <r>    12.8194     1.1519    11.0993 </r>
       <r>    12.9198     1.2175    11.2215 </r>
       <r>    13.0202     1.1925    11.3413 </r>
       <r>    13.1206     1.1206    11.4538 </r>
       <r>    13.2211     1.0468    11.5589 </r>
       <r>    13.3215     0.9905    11.6584 </r>
       <r>    13.4219     0.9833    11.7571 </r>
       <r>    13.5223     1.0008    11.8576 </r>
       <r>    13.6227     0.9901    11.9571 </r>
       <r>    13.7231     0.9686    12.0543 </r>
       <r>    13.8236     0.9584    12.1506 </r>
       <r>    13.9240     0.9374    12.2447 </r>
       <r>    14.0244     0.9199    12.3371 </r>
       <r>    14.1248     0.9703    12.4345 </r>
       <r>    14.2252     1.0814    12.5431 </r>
       <r>    14.3256     1.1624    12.6598 </r>
       <r>    14.4261     1.1766    12.7780 </r>
       <r>    14.5265     1.1601    12.8945 </r>
       <r>    14.6269     1.1165    13.0066 </r>
       <r>    14.7273     1.0263    13.1097 </r>
       <r>    14.8277     0.9419    13.2043 </r>
       <r>    14.9282     0.9213    13.2968 </r>
       <r>    15.0286     0.9168    13.3888 </r>
       <r>    15.1290     0.8863    13.4778 </r>
       <r>    15.2294     0.8960    13.5678 </r>
       <r>    15.3298     0.9963    13.6679 </r>
       <r>    15.4302     1.1274    13.7811 </r>
       <r>    15.5307     1.1894    13.9005 </r>
       <r>    15.6311     1.1337    14.0143 </r>
       <r>    15.7315     0.9989    14.1147 </r>
       <r>    15.8319     0.8487    14.1999 </r>
       <r>    15.9323     0.7266    14.2728 </r>
       <r>    16.0328     0.6486    14.3380 </r>
       <r>    16.1332     0.5928    14.3975 </r>
       <r>    16.2336     0.5774    14.4555 </r>
       <r>    16.3340     0.6449    14.5202 </r>
       <r>    16.4344     0.7351    14.5941 </r>
       <r>    16.5348     0.7487    14.6692 </r>
       <r>    16.6353     0.6716    14.7367 </r>
       <r>    16.7357     0.5656    14.7935 </r>
       <r>    16.8361     0.5121    14.8449 </r>
       <r>    16.9365     0.5306    14.8982 </r>
       <r>    17.0369     0.5674    14.9552 </r>
       <r>    17.1374     0.5873    15.0141 </r>
       <r>    17.2378     0.5915    15.0735 </r>
       <r>    17.3382     0.5807    15.1318 </r>
       <r>    17.4386     0.5786    15.1900 </r>
       <r>    17.5390     0.6154    15.2518 </r>
       <r>    17.6394     0.6601    15.3180 </r>
       <r>    17.7399     0.6514    15.3835 </r>
       <r>    17.8403     0.5871    15.4424 </r>
       <r>    17.9407     0.5083    15.4935 </r>
       <r>    18.0411     0.4399    15.5376 </r>
       <r>    18.1415     0.3911    15.5769 </r>
       <r>    18.2419     0.3629    15.6133 </r>
       <r>    18.3424     0.3506    15.6485 </r>
       <r>    18.4428     0.3394    15.6826 </r>
       <r>    18.5432     0.3131    15.7141 </r>
       <r>    18.6436     0.2810    15.7423 </r>
       <r>    18.7440     0.2558    15.7680 </r>
       <r>    18.8445     0.2168    15.7898 </r>
       <r>    18.9449     0.1521    15.8050 </r>
       <r>    19.0453     0.0974    15.8148 </r>
       <r>    19.1457     0.0904    15.8239 </r>
       <r>    19.2461     0.1214    15.8361 </r>
       <r>    19.3465     0.1418    15.8503 </r>
       <r>    19.4470     0.1214    15.8625 </r>
       <r>    19.5474     0.0913    15.8717 </r>
       <r>    19.6478     0.1008    15.8818 </r>
       <r>    19.7482     0.1435    15.8962 </r>
       <r>    19.8486     0.1640    15.9127 </r>
       <r>    19.9491     0.1318    15.9259 </r>
       <r>    20.0495     0.0783    15.9338 </r>
       <r>    20.1499     0.0461    15.9384 </r>
       <r>    20.2503     0.0394    15.9424 </r>
       <r>    20.3507     0.0444    15.9468 </r>
       <r>    20.4511     0.0554    15.9524 </r>
       <r>    20.5516     0.0642    15.9588 </r>
       <r>    20.6520     0.0624    15.9651 </r>
       <r>    20.7524     0.0559    15.9707 </r>
       <r>    20.8528     0.0535    15.9761 </r>
       <r>    20.9532     0.0516    15.9813 </r>
       <r>    21.0536     0.0437    15.9857 </r>
       <r>    21.1541     0.0311    15.9888 </r>
       <r>    21.2545     0.0205    15.9908 </r>
       <r>    21.3549     0.0167    15.9925 </r>
       <r>    21.4553     0.0190    15.9944 </r>
       <r>    21.5557     0.0216    15.9966 </r>
       <r>    21.6562     0.0184    15.9984 </r>
       <r>    21.7566     0.0106    15.9995 </r>
       <r>    21.8570     0.0039    15.9999 </r>
       <r>    21.9574     0.0009    16.0000 </r>
       <r>    22.0578     0.0001    16.0000 </r>
       <r>    22.1582     0.0000    16.0000 </r>
       <r>    22.2587     0.0000    16.0000 </r>
       <r>    22.3591     0.0000    16.0000 </r>
       <r>    22.4595     0.0000    16.0000 </r>
       <r>    22.5599     0.0000    16.0000 </r>
       <r>    22.6603     0.0000    16.0000 </r>
       <r>    22.7608     0.0000    16.0000 </r>
       <r>    22.8612     0.0000    16.0000 </r>
       <r>    22.9616     0.0000    16.0000 </r>
       <r>    23.0620     0.0000    16.0000 </r>
       <r>    23.1624     0.0000    16.0000 </r>
       <r>    23.2628     0.0000    16.0000 </r>
       <r>    23.3633     0.0000    16.0000 </r>
       <r>    23.4637     0.0000    16.0000 </r>
       <r>    23.5641     0.0000    16.0000 </r>
      </set>
     </set>
    </array>
   </total>
  </dos>
 </calculation>
 <structure name="finalpos" >
  <crystal>
   <varray name="basis" >
    <v>      -2.41370918       2.41370918       1.31352070 </v>
    <v>       2.41370918      -2.41370918       1.31352070 </v>
    <v>       2.41370918       2.41370918      -1.31352070 </v>
   </varray>
   <i name="volume">     30.61024440 </i>
   <varray name="rec_basis" >
    <v>       0.00000000       0.20715006       0.38065635 </v>
    <v>       0.20715006      -0.00000000       0.38065635 </v>
    <v>       0.20715006       0.20715006      -0.00000000 </v>
   </varray>
  </crystal>
  <varray name="positions" >
   <v>       0.25000000       0.75000000       0.50000000 </v>
   <v>      -0.00000000      -0.00000000      -0.00000000 </v>
  </varray>
 </structure>
</modeling>
