   2   2   0   0
  0.1579333E+02  0.3686983E-09  0.3686983E-09  0.3686983E-09  0.5000000E-15
  1.000000000000000E-004
  CAR 
 unknown system                          
     22.69879692     -6.63048088  301      8.68809055      1.00000000
     -6.630  0.0000E+00  0.0000E+00
     -6.533  0.0000E+00  0.0000E+00
     -6.435  0.0000E+00  0.0000E+00
     -6.337  0.0000E+00  0.0000E+00
     -6.239  0.0000E+00  0.0000E+00
     -6.142  0.0000E+00  0.0000E+00
     -6.044  0.0000E+00  0.0000E+00
     -5.946  0.0000E+00  0.0000E+00
     -5.848  0.0000E+00  0.0000E+00
     -5.751  0.1242E-16  0.1214E-17
     -5.653  0.2576E-14  0.2531E-15
     -5.555  0.3299E-12  0.3250E-13
     -5.457  0.2640E-10  0.2614E-11
     -5.360  0.1323E-08  0.1319E-09
     -5.262  0.4152E-07  0.4191E-08
     -5.164  0.8178E-06  0.8415E-07
     -5.066  0.1013E-04  0.1074E-05
     -4.968  0.7898E-04  0.8795E-05
     -4.871  0.3894E-03  0.4686E-04
     -4.773  0.1224E-02  0.1665E-03
     -4.675  0.2512E-02  0.4121E-03
     -4.577  0.3668E-02  0.7707E-03
     -4.480  0.4815E-02  0.1241E-02
     -4.382  0.7357E-02  0.1961E-02
     -4.284  0.1148E-01  0.3083E-02
     -4.186  0.1450E-01  0.4501E-02
     -4.089  0.1432E-01  0.5900E-02
     -3.991  0.1203E-01  0.7076E-02
     -3.893  0.9661E-02  0.8021E-02
     -3.795  0.8737E-02  0.8875E-02
     -3.698  0.1082E-01  0.9932E-02
     -3.600  0.1638E-01  0.1153E-01
     -3.502  0.2278E-01  0.1376E-01
     -3.404  0.2475E-01  0.1618E-01
     -3.306  0.2063E-01  0.1820E-01
     -3.209  0.1610E-01  0.1977E-01
     -3.111  0.1671E-01  0.2141E-01
     -3.013  0.2033E-01  0.2339E-01
     -2.915  0.2149E-01  0.2549E-01
     -2.818  0.1967E-01  0.2742E-01
     -2.720  0.1918E-01  0.2929E-01
     -2.622  0.2184E-01  0.3143E-01
     -2.524  0.2487E-01  0.3386E-01
     -2.427  0.2594E-01  0.3640E-01
     -2.329  0.2537E-01  0.3888E-01
     -2.231  0.2381E-01  0.4120E-01
     -2.133  0.2315E-01  0.4347E-01
     -2.036  0.2644E-01  0.4605E-01
     -1.938  0.3132E-01  0.4911E-01
     -1.840  0.3085E-01  0.5213E-01
     -1.742  0.2424E-01  0.5450E-01
     -1.645  0.1745E-01  0.5621E-01
     -1.547  0.1493E-01  0.5767E-01
     -1.449  0.1755E-01  0.5938E-01
     -1.351  0.2577E-01  0.6190E-01
     -1.253  0.3847E-01  0.6566E-01
     -1.156  0.4908E-01  0.7046E-01
     -1.058  0.5031E-01  0.7538E-01
     -0.960  0.4352E-01  0.7963E-01
     -0.862  0.3666E-01  0.8322E-01
     -0.765  0.3353E-01  0.8650E-01
     -0.667  0.3078E-01  0.8951E-01
     -0.569  0.2586E-01  0.9203E-01
     -0.471  0.2081E-01  0.9407E-01
     -0.374  0.1826E-01  0.9585E-01
     -0.276  0.1966E-01  0.9778E-01
     -0.178  0.2513E-01  0.1002E+00
     -0.080  0.3188E-01  0.1033E+00
      0.017  0.3622E-01  0.1069E+00
      0.115  0.3873E-01  0.1107E+00
      0.213  0.4250E-01  0.1148E+00
      0.311  0.4739E-01  0.1195E+00
      0.409  0.4984E-01  0.1243E+00
      0.506  0.4785E-01  0.1290E+00
      0.604  0.4392E-01  0.1333E+00
      0.702  0.4110E-01  0.1373E+00
      0.800  0.4094E-01  0.1413E+00
      0.897  0.4336E-01  0.1456E+00
      0.995  0.4513E-01  0.1500E+00
      1.093  0.4691E-01  0.1546E+00
      1.191  0.5340E-01  0.1598E+00
      1.288  0.5898E-01  0.1656E+00
      1.386  0.5198E-01  0.1706E+00
      1.484  0.3476E-01  0.1740E+00
      1.582  0.2073E-01  0.1761E+00
      1.679  0.1567E-01  0.1776E+00
      1.777  0.1552E-01  0.1791E+00
      1.875  0.1629E-01  0.1807E+00
      1.973  0.1974E-01  0.1826E+00
      2.071  0.2900E-01  0.1855E+00
      2.168  0.4145E-01  0.1895E+00
      2.266  0.5090E-01  0.1945E+00
      2.364  0.5379E-01  0.1998E+00
      2.462  0.5096E-01  0.2047E+00
      2.559  0.4709E-01  0.2093E+00
      2.657  0.4596E-01  0.2138E+00
      2.755  0.4676E-01  0.2184E+00
      2.853  0.4785E-01  0.2231E+00
      2.950  0.4917E-01  0.2279E+00
      3.048  0.4742E-01  0.2325E+00
      3.146  0.3791E-01  0.2362E+00
      3.244  0.2539E-01  0.2387E+00
      3.341  0.2063E-01  0.2407E+00
      3.439  0.2585E-01  0.2433E+00
      3.537  0.3328E-01  0.2465E+00
      3.635  0.3620E-01  0.2501E+00
      3.733  0.3474E-01  0.2534E+00
      3.830  0.3277E-01  0.2567E+00
      3.928  0.3503E-01  0.2601E+00
      4.026  0.4582E-01  0.2646E+00
      4.124  0.6398E-01  0.2708E+00
      4.221  0.7862E-01  0.2785E+00
      4.319  0.7996E-01  0.2863E+00
      4.417  0.7252E-01  0.2934E+00
      4.515  0.6466E-01  0.2997E+00
      4.612  0.5607E-01  0.3052E+00
      4.710  0.4640E-01  0.3097E+00
      4.808  0.4060E-01  0.3137E+00
      4.906  0.4123E-01  0.3177E+00
      5.003  0.4332E-01  0.3220E+00
      5.101  0.4053E-01  0.3259E+00
      5.199  0.3535E-01  0.3294E+00
      5.297  0.3664E-01  0.3330E+00
      5.395  0.4692E-01  0.3376E+00
      5.492  0.5885E-01  0.3433E+00
      5.590  0.6413E-01  0.3496E+00
      5.688  0.6380E-01  0.3558E+00
      5.786  0.6583E-01  0.3623E+00
      5.883  0.6959E-01  0.3691E+00
      5.981  0.6667E-01  0.3756E+00
      6.079  0.5714E-01  0.3812E+00
      6.177  0.4874E-01  0.3859E+00
      6.274  0.4679E-01  0.3905E+00
      6.372  0.5197E-01  0.3956E+00
      6.470  0.5966E-01  0.4014E+00
      6.568  0.6268E-01  0.4075E+00
      6.665  0.5940E-01  0.4134E+00
      6.763  0.5575E-01  0.4188E+00
      6.861  0.5917E-01  0.4246E+00
      6.959  0.6977E-01  0.4314E+00
      7.057  0.8049E-01  0.4393E+00
      7.154  0.8781E-01  0.4479E+00
      7.252  0.9127E-01  0.4568E+00
      7.350  0.8776E-01  0.4654E+00
      7.448  0.7781E-01  0.4730E+00
      7.545  0.6614E-01  0.4794E+00
      7.643  0.5517E-01  0.4848E+00
      7.741  0.4699E-01  0.4894E+00
      7.839  0.4294E-01  0.4936E+00
      7.936  0.4096E-01  0.4976E+00
      8.034  0.3989E-01  0.5015E+00
      8.132  0.4082E-01  0.5055E+00
      8.230  0.4314E-01  0.5097E+00
      8.327  0.4395E-01  0.5140E+00
      8.425  0.4376E-01  0.5183E+00
      8.523  0.4839E-01  0.5230E+00
      8.621  0.5919E-01  0.5288E+00
      8.719  0.6709E-01  0.5354E+00
      8.816  0.6330E-01  0.5416E+00
      8.914  0.5355E-01  0.5468E+00
      9.012  0.5279E-01  0.5520E+00
      9.110  0.6166E-01  0.5580E+00
      9.207  0.6164E-01  0.5640E+00
      9.305  0.4408E-01  0.5683E+00
      9.403  0.2361E-01  0.5706E+00
      9.501  0.1543E-01  0.5722E+00
      9.598  0.2006E-01  0.5741E+00
      9.696  0.2967E-01  0.5770E+00
      9.794  0.3704E-01  0.5806E+00
      9.892  0.4087E-01  0.5846E+00
      9.989  0.4441E-01  0.5890E+00
     10.087  0.4810E-01  0.5937E+00
     10.185  0.4841E-01  0.5984E+00
     10.283  0.4616E-01  0.6029E+00
     10.381  0.4765E-01  0.6076E+00
     10.478  0.5632E-01  0.6131E+00
     10.576  0.6842E-01  0.6198E+00
     10.674  0.7570E-01  0.6272E+00
     10.772  0.7541E-01  0.6346E+00
     10.869  0.7368E-01  0.6418E+00
     10.967  0.7261E-01  0.6489E+00
     11.065  0.6722E-01  0.6554E+00
     11.163  0.5826E-01  0.6611E+00
     11.260  0.5616E-01  0.6666E+00
     11.358  0.6867E-01  0.6733E+00
     11.456  0.8932E-01  0.6821E+00
     11.554  0.1051E+00  0.6923E+00
     11.651  0.1092E+00  0.7030E+00
     11.749  0.1010E+00  0.7129E+00
     11.847  0.8251E-01  0.7210E+00
     11.945  0.6032E-01  0.7269E+00
     12.042  0.4344E-01  0.7311E+00
     12.140  0.3459E-01  0.7345E+00
     12.238  0.2958E-01  0.7374E+00
     12.336  0.2943E-01  0.7402E+00
     12.434  0.4126E-01  0.7443E+00
     12.531  0.6223E-01  0.7504E+00
     12.629  0.7735E-01  0.7579E+00
     12.727  0.7776E-01  0.7655E+00
     12.825  0.7101E-01  0.7725E+00
     12.922  0.6859E-01  0.7792E+00
     13.020  0.7023E-01  0.7860E+00
     13.118  0.6770E-01  0.7927E+00
     13.216  0.5850E-01  0.7984E+00
     13.313  0.4858E-01  0.8031E+00
     13.411  0.4593E-01  0.8076E+00
     13.509  0.5725E-01  0.8132E+00
     13.607  0.8270E-01  0.8213E+00
     13.704  0.1071E+00  0.8318E+00
     13.802  0.1133E+00  0.8428E+00
     13.900  0.1049E+00  0.8531E+00
     13.998  0.9468E-01  0.8624E+00
     14.096  0.8453E-01  0.8706E+00
     14.193  0.7145E-01  0.8776E+00
     14.291  0.5854E-01  0.8833E+00
     14.389  0.5263E-01  0.8885E+00
     14.487  0.5677E-01  0.8940E+00
     14.584  0.6654E-01  0.9005E+00
     14.682  0.7428E-01  0.9078E+00
     14.780  0.7517E-01  0.9151E+00
     14.878  0.6905E-01  0.9219E+00
     14.975  0.6078E-01  0.9278E+00
     15.073  0.5665E-01  0.9334E+00
     15.171  0.5779E-01  0.9390E+00
     15.269  0.6139E-01  0.9450E+00
     15.366  0.6350E-01  0.9512E+00
     15.464  0.6048E-01  0.9571E+00
     15.562  0.5422E-01  0.9624E+00
     15.660  0.4789E-01  0.9671E+00
     15.758  0.4057E-01  0.9711E+00
     15.855  0.3352E-01  0.9744E+00
     15.953  0.3065E-01  0.9774E+00
     16.051  0.3214E-01  0.9805E+00
     16.149  0.3488E-01  0.9839E+00
     16.246  0.3850E-01  0.9877E+00
     16.344  0.4648E-01  0.9922E+00
     16.442  0.5772E-01  0.9979E+00
     16.540  0.6554E-01  0.1004E+01
     16.637  0.6715E-01  0.1011E+01
     16.735  0.6305E-01  0.1017E+01
     16.833  0.5318E-01  0.1022E+01
     16.931  0.4000E-01  0.1026E+01
     17.028  0.2725E-01  0.1029E+01
     17.126  0.1771E-01  0.1031E+01
     17.224  0.1313E-01  0.1032E+01
     17.322  0.1265E-01  0.1033E+01
     17.420  0.1402E-01  0.1034E+01
     17.517  0.1689E-01  0.1036E+01
     17.615  0.2278E-01  0.1038E+01
     17.713  0.3161E-01  0.1041E+01
     17.811  0.3827E-01  0.1045E+01
     17.908  0.3691E-01  0.1049E+01
     18.006  0.2831E-01  0.1051E+01
     18.104  0.1816E-01  0.1053E+01
     18.202  0.1040E-01  0.1054E+01
     18.299  0.5502E-02  0.1055E+01
     18.397  0.2703E-02  0.1055E+01
     18.495  0.1634E-02  0.1055E+01
     18.593  0.2592E-02  0.1055E+01
     18.690  0.5731E-02  0.1056E+01
     18.788  0.9791E-02  0.1057E+01
     18.886  0.1251E-01  0.1058E+01
     18.984  0.1259E-01  0.1059E+01
     19.082  0.1016E-01  0.1060E+01
     19.179  0.6324E-02  0.1061E+01
     19.277  0.2931E-02  0.1061E+01
     19.375  0.1458E-02  0.1062E+01
     19.473  0.2200E-02  0.1062E+01
     19.570  0.4362E-02  0.1062E+01
     19.668  0.6020E-02  0.1063E+01
     19.766  0.5818E-02  0.1063E+01
     19.864  0.4721E-02  0.1064E+01
     19.961  0.3973E-02  0.1064E+01
     20.059  0.3507E-02  0.1065E+01
     20.157  0.3286E-02  0.1065E+01
     20.255  0.3236E-02  0.1065E+01
     20.352  0.2733E-02  0.1065E+01
     20.450  0.1889E-02  0.1066E+01
     20.548  0.1693E-02  0.1066E+01
     20.646  0.2389E-02  0.1066E+01
     20.744  0.2902E-02  0.1066E+01
     20.841  0.2337E-02  0.1067E+01
     20.939  0.1195E-02  0.1067E+01
     21.037  0.3863E-03  0.1067E+01
     21.135  0.7876E-04  0.1067E+01
     21.232  0.1012E-04  0.1067E+01
     21.330  0.8176E-06  0.1067E+01
     21.428  0.4151E-07  0.1067E+01
     21.526  0.1323E-08  0.1067E+01
     21.623  0.2640E-10  0.1067E+01
     21.721  0.3299E-12  0.1067E+01
     21.819  0.2576E-14  0.1067E+01
     21.917  0.1183E-16  0.1067E+01
     22.014  0.0000E+00  0.1067E+01
     22.112  0.0000E+00  0.1067E+01
     22.210  0.0000E+00  0.1067E+01
     22.308  0.0000E+00  0.1067E+01
     22.406  0.0000E+00  0.1067E+01
     22.503  0.0000E+00  0.1067E+01
     22.601  0.0000E+00  0.1067E+01
     22.699  0.0000E+00  0.1067E+01
