    2    2   15    1
  0.1579333E+02  0.3686983E-09  0.3686983E-09  0.3686983E-09  0.5000000E-15
  1.000000000000000E-004
  CAR 
 unknown system                          
      8     56      8
 
  0.6250000E-01  0.6250000E-01  0.6250000E-01  0.1562500E-01
    1       -4.222231   1.000000
    2        4.438245   1.000000
    3        6.702993   1.000000
    4        8.229816   0.999403
    5       11.858504   0.000000
    6       13.724327   0.000000
    7       14.290672   0.000000
    8       16.144353   0.000000
 
  0.1875000E+00  0.6250000E-01  0.6250000E-01  0.3125000E-01
    1       -3.004679   1.000000
    2        4.192707   1.000000
    3        7.002361   1.000000
    4        9.166802   0.000356
    5       10.825888   0.000000
    6       10.933877   0.000000
    7       13.691101   0.000000
    8       14.449228   0.000000
 
  0.3125000E+00  0.6250000E-01  0.6250000E-01  0.3125000E-01
    1       -1.005607   1.000000
    2        4.489936   1.000000
    3        5.564181   1.000000
    4        7.272346   1.000000
    5        8.624688   0.673040
    6       11.750363   0.000000
    7       13.207586   0.000000
    8       13.596141   0.000000
 
  0.4375000E+00  0.6250000E-01  0.6250000E-01  0.1562500E-01
    1        1.331630   1.000000
    2        2.245513   1.000000
    3        5.790233   1.000000
    4        6.179829   1.000000
    5        8.507908   0.898683
    6       10.584778   0.000000
    7       13.115016   0.000000
    8       14.057044   0.000000
 
 -0.6250000E-01  0.6250000E-01  0.6250000E-01  0.7812500E-02
    1       -4.630481   1.000000
    2        5.045216   1.000000
    3        5.896304   1.000000
    4        7.898341   1.000000
    5       10.989798   0.000000
    6       14.874331   0.000000
    7       17.349502   0.000000
    8       17.446539   0.000000
 
  0.1875000E+00  0.1875000E+00  0.6250000E-01  0.1562500E-01
    1       -1.188719   1.000000
    2        4.479833   1.000000
    3        6.448492   1.000000
    4        6.641737   1.000000
    5        9.593650   0.000000
    6       11.591491   0.000000
    7       12.886078   0.000000
    8       13.078172   0.000000
 
  0.3125000E+00  0.1875000E+00  0.6250000E-01  0.3125000E-01
    1        1.277638   1.000000
    2        2.975769   1.000000
    3        4.323717   1.000000
    4        5.799204   1.000000
    5        9.850226   0.000000
    6       11.585904   0.000000
    7       12.609671   0.000000
    8       14.650220   0.000000
 
  0.4375000E+00  0.1875000E+00  0.6250000E-01  0.3125000E-01
    1       -0.090460   1.000000
    2        2.746233   1.000000
    3        4.924044   1.000000
    4        7.275844   1.000000
    5        9.094749   0.002017
    6       11.755239   0.000000
    7       13.675247   0.000000
    8       14.562131   0.000000
 
 -0.4375000E+00  0.1875000E+00  0.6250000E-01  0.3125000E-01
    1       -2.255940   1.000000
    2        2.125696   1.000000
    3        7.547368   1.000000
    4        8.826080   0.164599
    5       10.355830   0.000000
    6       11.481825   0.000000
    7       12.690777   0.000000
    8       15.033833   0.000000
 
 -0.3125000E+00  0.1875000E+00  0.6250000E-01  0.1562500E-01
    1       -3.655677   1.000000
    2        2.215024   1.000000
    3        7.210205   1.000000
    4        9.153041   0.000505
    5       12.145810   0.000000
    6       13.658616   0.000000
    7       14.207983   0.000000
    8       14.838510   0.000000
 
 -0.1875000E+00  0.1875000E+00  0.6250000E-01  0.1562500E-01
    1       -4.251722   1.000000
    2        3.028796   1.000000
    3        6.013389   1.000000
    4        9.133735   0.000813
    5       12.800265   0.000000
    6       12.957648   0.000000
    7       15.884513   0.000000
    8       17.237356   0.000000
 
 -0.6250000E-01  0.1875000E+00  0.6250000E-01  0.1562500E-01
    1       -4.033330   1.000000
    2        4.156924   1.000000
    3        5.378787   1.000000
    4        9.715449   0.000000
    5       12.583417   0.000000
    6       12.711875   0.000000
    7       13.752239   0.000000
    8       15.735445   0.000000
 
  0.3125000E+00  0.3125000E+00  0.6250000E-01  0.1562500E-01
    1        1.139097   1.000000
    2        1.205701   1.000000
    3        4.731831   1.000000
    4        7.218500   1.000000
    5        9.834471   0.000000
    6       10.661687   0.000000
    7       14.704769   0.000000
    8       15.556996   0.000000
 
  0.4375000E+00  0.3125000E+00  0.6250000E-01  0.3125000E-01
    1       -1.141137   1.000000
    2        0.327446   1.000000
    3        8.074353   0.999993
    4        8.683488   0.512981
    5       10.005074   0.000000
    6       11.398957   0.000000
    7       12.499977   0.000000
    8       13.892342   0.000000
 
 -0.4375000E+00  0.3125000E+00  0.6250000E-01  0.1562500E-01
    1       -2.716350   1.000000
    2        0.240741   1.000000
    3        8.047081   0.999997
    4       10.117514   0.000000
    5       10.635577   0.000000
    6       12.721298   0.000000
    7       13.766713   0.000000
    8       13.853442   0.000000
 
 -0.3125000E+00  0.3125000E+00  0.6250000E-01  0.1562500E-01
    1       -3.497130   1.000000
    2        0.927961   1.000000
    3        6.698084   1.000000
    4       10.072246   0.000000
    5       10.825450   0.000000
    6       14.162929   0.000000
    7       15.862071   0.000000
    8       16.932024   0.000000
 
 -0.1875000E+00  0.3125000E+00  0.6250000E-01  0.3125000E-01
    1       -3.468126   1.000000
    2        2.339757   1.000000
    3        5.499943   1.000000
    4       10.667977   0.000000
    5       11.063080   0.000000
    6       12.970943   0.000000
    7       14.742772   0.000000
    8       15.651004   0.000000
 
 -0.6250000E-01  0.3125000E+00  0.6250000E-01  0.1562500E-01
    1       -2.630641   1.000000
    2        4.019025   1.000000
    3        5.385487   1.000000
    4        8.468811   0.939494
    5       11.101804   0.000000
    6       12.650478   0.000000
    7       13.314382   0.000000
    8       13.673993   0.000000
 
  0.4375000E+00  0.4375000E+00  0.6250000E-01  0.7812500E-02
    1       -1.412661   1.000000
    2       -1.412661   1.000000
    3        9.192568   0.000180
    4        9.192569   0.000180
    5       11.369077   0.000000
    6       11.369079   0.000000
    7       13.569425   0.000000
    8       13.569427   0.000000
 
 -0.4375000E+00  0.4375000E+00  0.6250000E-01  0.1562500E-01
    1       -2.373052   1.000000
    2       -0.890806   1.000000
    3        7.742120   1.000000
    4        9.124978   0.001003
    5       11.184478   0.000000
    6       12.557890   0.000000
    7       16.633252   0.000000
    8       16.731568   0.000000
 
 -0.3125000E+00  0.4375000E+00  0.6250000E-01  0.3125000E-01
    1       -2.531501   1.000000
    2        0.408324   1.000000
    3        6.334256   1.000000
    4        9.066875   0.003699
    5       11.417690   0.000000
    6       12.895570   0.000000
    7       14.837269   0.000000
    8       15.358208   0.000000
 
 -0.1875000E+00  0.4375000E+00  0.6250000E-01  0.3125000E-01
    1       -1.886178   1.000000
    2        2.410550   1.000000
    3        5.592782   1.000000
    4        7.829625   1.000000
    5        9.689735   0.000000
    6       12.509090   0.000000
    7       14.004757   0.000000
    8       15.343866   0.000000
 
 -0.6250000E-01  0.4375000E+00  0.6250000E-01  0.1562500E-01
    1       -0.459248   1.000000
    2        4.065534   1.000000
    3        5.213897   1.000000
    4        6.003119   1.000000
    5        9.156664   0.000461
    6       11.567895   0.000000
    7       11.887076   0.000000
    8       15.180850   0.000000
 
 -0.4375000E+00 -0.4375000E+00  0.6250000E-01  0.1562500E-01
    1       -1.236284   1.000000
    2       -1.229716   1.000000
    3        7.533943   1.000000
    4        7.547344   1.000000
    5       11.508492   0.000000
    6       13.403499   0.000000
    7       14.244293   0.000000
    8       14.844007   0.000000
 
 -0.3125000E+00 -0.4375000E+00  0.6250000E-01  0.3125000E-01
    1       -0.779779   1.000000
    2        0.670805   1.000000
    3        6.492419   1.000000
    4        7.408808   1.000000
    5        8.269404   0.998465
    6       12.160869   0.000000
    7       15.098841   0.000000
    8       16.405564   0.000000
 
 -0.1875000E+00 -0.4375000E+00  0.6250000E-01  0.3125000E-01
    1        0.438874   1.000000
    2        3.060606   1.000000
    3        4.223437   1.000000
    4        6.436901   1.000000
    5        8.666565   0.560489
    6       10.603821   0.000000
    7       13.105964   0.000000
    8       16.491313   0.000000
 
 -0.6250000E-01 -0.4375000E+00  0.6250000E-01  0.1562500E-01
    1        0.925746   1.000000
    2        2.652374   1.000000
    3        6.242891   1.000000
    4        6.973123   1.000000
    5        7.594012   1.000000
    6       10.200391   0.000000
    7       11.646519   0.000000
    8       15.393743   0.000000
 
 -0.3125000E+00 -0.3125000E+00  0.6250000E-01  0.1562500E-01
    1        1.574485   1.000000
    2        1.749130   1.000000
    3        3.924487   1.000000
    4        7.309158   1.000000
    5        7.716871   1.000000
    6       10.226526   0.000000
    7       14.957966   0.000000
    8       15.627383   0.000000
 
 -0.1875000E+00 -0.3125000E+00  0.6250000E-01  0.3125000E-01
    1        0.612192   1.000000
    2        3.651567   1.000000
    3        4.993679   1.000000
    4        7.169031   1.000000
    5        8.279601   0.998064
    6       10.089824   0.000000
    7       11.678722   0.000000
    8       14.084467   0.000000
 
 -0.6250000E-01 -0.3125000E+00  0.6250000E-01  0.1562500E-01
    1       -1.559164   1.000000
    2        5.836889   1.000000
    3        6.843488   1.000000
    4        7.214558   1.000000
    5        8.454924   0.950399
    6       10.930429   0.000000
    7       11.666500   0.000000
    8       13.333265   0.000000
 
 -0.1875000E+00 -0.1875000E+00  0.6250000E-01  0.1562500E-01
    1       -1.744354   1.000000
    2        6.467131   1.000000
    3        7.132973   1.000000
    4        7.428472   1.000000
    5        8.790164   0.235218
    6       10.452554   0.000000
    7       11.628648   0.000000
    8       11.852545   0.000000
 
 -0.6250000E-01 -0.1875000E+00  0.6250000E-01  0.1562500E-01
    1       -3.380552   1.000000
    2        6.154635   1.000000
    3        6.897798   1.000000
    4        8.752740   0.323785
    5       10.883485   0.000000
    6       11.314927   0.000000
    7       12.100745   0.000000
    8       13.844691   0.000000
 
 -0.6250000E-01 -0.6250000E-01  0.6250000E-01  0.3906250E-02
    1       -4.411571   1.000000
    2        6.533142   1.000000
    3        6.533142   1.000000
    4        6.812072   1.000000
    5       10.743932   0.000000
    6       14.520610   0.000000
    7       14.635393   0.000000
    8       16.515098   0.000000
 
  0.1875000E+00  0.1875000E+00  0.1875000E+00  0.1562500E-01
    1       -0.269081   1.000000
    2        2.604021   1.000000
    3        6.017066   1.000000
    4        6.106384   1.000000
    5       10.586519   0.000000
    6       12.432471   0.000000
    7       13.657450   0.000000
    8       14.098776   0.000000
 
  0.3125000E+00  0.1875000E+00  0.1875000E+00  0.1562500E-01
    1        2.038784   1.000000
    2        2.784477   1.000000
    3        3.813543   1.000000
    4        4.461539   1.000000
    5       11.512688   0.000000
    6       13.430531   0.000000
    7       13.739776   0.000000
    8       13.927386   0.000000
 
 -0.1875000E+00  0.1875000E+00  0.1875000E+00  0.7812500E-02
    1       -3.874759   1.000000
    2        2.852066   1.000000
    3        4.272613   1.000000
    4       10.677433   0.000000
    5       11.258312   0.000000
    6       14.032025   0.000000
    7       16.278950   0.000000
    8       16.798628   0.000000
 
  0.3125000E+00  0.3125000E+00  0.1875000E+00  0.7812500E-02
    1        1.003001   1.000000
    2        1.003001   1.000000
    3        5.896534   1.000000
    4        5.896535   1.000000
    5       11.837423   0.000000
    6       11.837425   0.000000
    7       13.645769   0.000000
    8       13.645774   0.000000
 
 -0.3125000E+00  0.3125000E+00  0.1875000E+00  0.1562500E-01
    1       -3.124229   1.000000
    2        1.217845   1.000000
    3        4.493577   1.000000
    4        8.647058   0.614147
    5       12.596852   0.000000
    6       15.508981   0.000000
    7       16.108593   0.000000
    8       16.890146   0.000000
 
 -0.1875000E+00  0.3125000E+00  0.1875000E+00  0.1562500E-01
    1       -2.907444   1.000000
    2        2.316144   1.000000
    3        3.826805   1.000000
    4        8.802863   0.208520
    5       11.401979   0.000000
    6       14.038182   0.000000
    7       16.050370   0.000000
    8       16.368663   0.000000
 
 -0.4375000E+00  0.4375000E+00  0.1875000E+00  0.1562500E-01
    1       -2.008096   1.000000
    2       -0.543444   1.000000
    3        5.503280   1.000000
    4        6.905380   1.000000
    5       13.643598   0.000000
    6       14.644595   0.000000
    7       16.204809   0.000000
    8       16.588436   0.000000
 
 -0.3125000E+00  0.4375000E+00  0.1875000E+00  0.3125000E-01
    1       -1.980209   1.000000
    2        0.874272   1.000000
    3        4.189223   1.000000
    4        6.929612   1.000000
    5       11.040360   0.000000
    6       15.353215   0.000000
    7       16.418384   0.000000
    8       17.867995   0.000000
 
 -0.1875000E+00  0.4375000E+00  0.1875000E+00  0.1562500E-01
    1       -1.152009   1.000000
    2        2.549234   1.000000
    3        4.101952   1.000000
    4        7.023560   1.000000
    5        7.931522   1.000000
    6       13.753678   0.000000
    7       15.163420   0.000000
    8       16.504012   0.000000
 
 -0.4375000E+00 -0.4375000E+00  0.1875000E+00  0.1562500E-01
    1       -0.709229   1.000000
    2       -0.695309   1.000000
    3        5.354426   1.000000
    4        5.376535   1.000000
    5       10.895577   0.000000
    6       16.023093   0.000000
    7       16.687191   0.000000
    8       17.003164   0.000000
 
 -0.3125000E+00 -0.4375000E+00  0.1875000E+00  0.3125000E-01
    1       -0.068912   1.000000
    2        1.311632   1.000000
    3        4.602402   1.000000
    4        5.868119   1.000000
    5        7.056690   1.000000
    6       13.937172   0.000000
    7       16.696043   0.000000
    8       17.740170   0.000000
 
 -0.1875000E+00 -0.4375000E+00  0.1875000E+00  0.1562500E-01
    1        1.285522   1.000000
    2        3.014685   1.000000
    3        4.177304   1.000000
    4        5.088614   1.000000
    5        7.280232   1.000000
    6       11.719230   0.000000
    7       13.044296   0.000000
    8       16.662217   0.000000
 
 -0.3125000E+00 -0.3125000E+00  0.1875000E+00  0.1562500E-01
    1        2.125041   1.000000
    2        2.593092   1.000000
    3        3.657814   1.000000
    4        5.780506   1.000000
    5        5.896399   1.000000
    6       11.966228   0.000000
    7       14.423022   0.000000
    8       15.234233   0.000000
 
 -0.1875000E+00 -0.3125000E+00  0.1875000E+00  0.1562500E-01
    1        0.264655   1.000000
    2        4.647425   1.000000
    3        5.577030   1.000000
    4        6.646218   1.000000
    5        7.446509   1.000000
    6       10.472590   0.000000
    7       11.530542   0.000000
    8       13.023244   0.000000
 
 -0.1875000E+00 -0.1875000E+00  0.1875000E+00  0.3906250E-02
    1       -1.930165   1.000000
    2        7.816807   1.000000
    3        7.816808   1.000000
    4        7.912716   1.000000
    5        8.131806   0.999958
    6        9.427589   0.000000
    7       11.348526   0.000000
    8       11.348528   0.000000
 
 -0.3125000E+00  0.3125000E+00  0.3125000E+00  0.7812500E-02
    1       -2.383497   1.000000
    2        1.360542   1.000000
    3        2.947292   1.000000
    4        6.581618   1.000000
    5       14.256542   0.000000
    6       15.138474   0.000000
    7       16.705952   0.000000
    8       18.124152   0.000000
 
 -0.4375000E+00  0.4375000E+00  0.3125000E+00  0.1562500E-01
    1       -1.289561   1.000000
    2        0.105595   1.000000
    3        3.469597   1.000000
    4        4.828570   1.000000
    5       14.587611   0.000000
    6       14.775430   0.000000
    7       17.686313   0.000000
    8       18.756302   0.000000
 
 -0.3125000E+00  0.4375000E+00  0.3125000E+00  0.1562500E-01
    1       -1.075678   1.000000
    2        1.193791   1.000000
    3        2.810413   1.000000
    4        5.026435   1.000000
    5       10.586167   0.000000
    6       17.517318   0.000000
    7       17.873655   0.000000
    8       18.887809   0.000000
 
 -0.4375000E+00 -0.4375000E+00  0.3125000E+00  0.1562500E-01
    1        0.118487   1.000000
    2        0.142643   1.000000
    3        3.491881   1.000000
    4        3.506691   1.000000
    5       10.425438   0.000000
    6       17.758801   0.000000
    7       19.038828   0.000000
    8       19.632333   0.000000
 
 -0.3125000E+00 -0.4375000E+00  0.3125000E+00  0.1562500E-01
    1        0.938709   1.000000
    2        1.806634   1.000000
    3        3.425908   1.000000
    4        4.263856   1.000000
    5        6.625779   1.000000
    6       15.608599   0.000000
    7       16.835251   0.000000
    8       18.015608   0.000000
 
 -0.3125000E+00 -0.3125000E+00  0.3125000E+00  0.3906250E-02
    1        2.341091   1.000000
    2        3.308660   1.000000
    3        4.054815   1.000000
    4        4.766190   1.000000
    5        4.766190   1.000000
    6       13.691579   0.000000
    7       14.241514   0.000000
    8       14.241520   0.000000
 
 -0.4375000E+00  0.4375000E+00  0.4375000E+00  0.7812500E-02
    1       -0.268399   1.000000
    2        0.606545   1.000000
    3        2.257050   1.000000
    4        3.120163   1.000000
    5       14.488523   0.000000
    6       14.526394   0.000000
    7       19.930641   0.000000
    8       20.698797   0.000000
 
 -0.4375000E+00 -0.4375000E+00  0.4375000E+00  0.3906250E-02
    1        0.797211   1.000000
    2        0.836378   1.000000
    3        2.464191   1.000000
    4        2.464191   1.000000
    5       10.261840   0.000000
    6       18.272460   0.000000
    7       20.210621   0.000000
    8       20.266388   0.000000
