unknown system                          
   1.00000000000000     
    -2.450000    2.450000    1.274000
     2.450000   -2.450000    1.274000
     2.450000    2.450000   -1.274000
   Si
     2
Direct
  0.250000  0.750000  0.500000
  0.000000  0.000000  0.000000
 
   24   24   24
 -.55677083054E+01 -.35505229902E+01 0.14736678803E+01 0.70701397356E+01 0.10870686751E+02
 0.11850535873E+02 0.10605909794E+02 0.85831124642E+01 0.67095792811E+01 0.52585371998E+01
 0.42872128274E+01 0.37475261338E+01 0.35764440331E+01 0.37475845017E+01 0.42871963411E+01
 0.52584720993E+01 0.67095981396E+01 0.85831454905E+01 0.10605796375E+02 0.11850377725E+02
 0.10870694998E+02 0.70702057304E+01 0.14735262078E+01 -.35507705805E+01 -.35507705805E+01
 -.45796582299E+01 -.17904529860E+01 0.33846262674E+01 0.84638414363E+01 0.11398764726E+02
 0.11619072076E+02 0.10020949608E+02 0.80050608246E+01 0.62416567929E+01 0.49288795173E+01
 0.40859482580E+01 0.36540657681E+01 0.35764442553E+01 0.38395209309E+01 0.44807583905E+01
 0.55651812252E+01 0.71251076365E+01 0.90649404401E+01 0.11034014901E+02 0.11932896182E+02
 0.10424862975E+02 0.62507346218E+01 0.77534605910E+00 0.14735262078E+01 -.17906676399E+01
 -.18553659459E+01 0.12985202119E+01 0.60174924083E+01 0.10026176048E+02 0.11775887190E+02
 0.11177444680E+02 0.93234070966E+01 0.73755729068E+01 0.57580268291E+01 0.46011277030E+01
 0.38913809388E+01 0.35654795850E+01 0.35763878232E+01 0.39233277888E+01 0.46517366529E+01
 0.58236339539E+01 0.74527089012E+01 0.94110575447E+01 0.11290259266E+02 0.11946878608E+02
 0.10251891784E+02 0.62507346218E+01 0.70702057304E+01 0.33845173759E+01 0.12983641539E+01
 0.19605462168E+01 0.49895340941E+01 0.87321001123E+01 0.11329389356E+02 0.11817220301E+02
 0.10523418843E+02 0.85709003701E+01 0.67404847808E+01 0.52930584907E+01 0.42972756673E+01
 0.37159337345E+01 0.34874016135E+01 0.35762881280E+01 0.39927369029E+01 0.47859380613E+01
 0.60107816803E+01 0.76626060803E+01 0.95920413803E+01 0.11374991474E+02 0.11946878608E+02
 0.10424862975E+02 0.10870694998E+02 0.84638967620E+01 0.60174306182E+01 0.49894524400E+01
 0.60174009889E+01 0.84828863034E+01 0.10937814151E+02 0.12063172281E+02 0.11457477195E+02
 0.97309675714E+01 0.78161756026E+01 0.61428665629E+01 0.48760612387E+01 0.40351707366E+01
 0.35697004707E+01 0.34245891765E+01 0.35761522280E+01 0.40423072621E+01 0.48716318996E+01
 0.61091171355E+01 0.77349206569E+01 0.95920413803E+01 0.11290259266E+02 0.11932896182E+02
 0.11850377725E+02 0.11398770218E+02 0.10026218736E+02 0.87320905099E+01 0.84828798949E+01
 0.95103698915E+01 0.11137509677E+02 0.12263284975E+02 0.12126304372E+02 0.10775457373E+02
 0.89135410419E+01 0.71122412339E+01 0.56201906930E+01 0.45302077788E+01 0.38282439764E+01
 0.34601985367E+01 0.33806341932E+01 0.35760174143E+01 0.40681375841E+01 0.49011118828E+01
 0.61091171355E+01 0.76626060803E+01 0.94110575447E+01 0.11034014901E+02 0.10605796375E+02
 0.11618987691E+02 0.11775890455E+02 0.11329414338E+02 0.10937848296E+02 0.11137566686E+02
 0.11899365670E+02 0.12634030705E+02 0.12641541345E+02 0.11640298535E+02 0.99617604483E+01
 0.81492740624E+01 0.65085283161E+01 0.52026895614E+01 0.42723178421E+01 0.36856555193E+01
 0.33925293682E+01 0.33580405269E+01 0.35759753985E+01 0.40681375841E+01 0.48716318996E+01
 0.60107816803E+01 0.74527089012E+01 0.90649404401E+01 0.85831454905E+01 0.10020934354E+02
 0.11177432187E+02 0.11817215864E+02 0.12063175472E+02 0.12263349366E+02 0.12634131991E+02
 0.13025465671E+02 0.13020744688E+02 0.12288684942E+02 0.10886664993E+02 0.91906861048E+01
 0.75065231801E+01 0.60465550462E+01 0.49125018945E+01 0.41134661124E+01 0.36130533525E+01
 0.33696666551E+01 0.33580405269E+01 0.35760174143E+01 0.40423072621E+01 0.47859380613E+01
 0.58236339539E+01 0.71251076365E+01 0.67095981396E+01 0.80051193865E+01 0.93234711937E+01
 0.10523463978E+02 0.11457466525E+02 0.12126287895E+02 0.12641618811E+02 0.13020867050E+02
 0.13096409904E+02 0.12640296602E+02 0.11595606656E+02 0.10154760720E+02 0.85611076952E+01
 0.70434273207E+01 0.57570002789E+01 0.47639526775E+01 0.40598688886E+01 0.36130533525E+01
 0.33925293682E+01 0.33806341932E+01 0.35761522280E+01 0.39927369029E+01 0.46517366529E+01
 0.55651812252E+01 0.52584720993E+01 0.62416542305E+01 0.73756374863E+01 0.85710184003E+01
 0.97310554525E+01 0.10775443473E+02 0.11640264030E+02 0.12288759162E+02 0.12640420800E+02
 0.12562540663E+02 0.11975792632E+02 0.10933887450E+02 0.95897631460E+01 0.81502999171E+01
 0.68013152180E+01 0.56584396422E+01 0.47639526775E+01 0.41134661124E+01 0.36856555193E+01
 0.34601985367E+01 0.34245891765E+01 0.35762881280E+01 0.39233277888E+01 0.44807583905E+01
 0.42871963411E+01 0.49288428187E+01 0.57580054072E+01 0.67405412253E+01 0.78163161059E+01
 0.89136511869E+01 0.99617469062E+01 0.10886619097E+02 0.11595668673E+02 0.11975906349E+02
 0.11925252800E+02 0.11405039755E+02 0.10475418379E+02 0.92831789288E+01 0.80077519673E+01
 0.68013152180E+01 0.57570002789E+01 0.49125018945E+01 0.42723178421E+01 0.38282439764E+01
 0.35697004707E+01 0.34874016135E+01 0.35763878232E+01 0.38395209309E+01 0.37475845017E+01
 0.40860018972E+01 0.46011271315E+01 0.52930240932E+01 0.61428968745E+01 0.71123749718E+01
 0.81493945698E+01 0.91906810058E+01 0.10154709158E+02 0.10933931950E+02 0.11405138455E+02
 0.11466313832E+02 0.11083012340E+02 0.10312040680E+02 0.92831789288E+01 0.81502999171E+01
 0.70434273207E+01 0.60465550462E+01 0.52026895614E+01 0.45302077788E+01 0.40351707366E+01
 0.37159337345E+01 0.35654795850E+01 0.35764442553E+01 0.35764440331E+01 0.36541537021E+01
 0.38914904139E+01 0.42973136875E+01 0.48760213511E+01 0.56201905761E+01 0.65086421885E+01
 0.75066459648E+01 0.85611101178E+01 0.95897066738E+01 0.10475448213E+02 0.11083101433E+02
 0.11300289945E+02 0.11083012340E+02 0.10475418379E+02 0.95897631460E+01 0.85611076952E+01
 0.75065231801E+01 0.65085283161E+01 0.56201906930E+01 0.48760612387E+01 0.42972756673E+01
 0.38913809388E+01 0.36540657681E+01 0.37475261338E+01 0.35764422999E+01 0.35655737208E+01
 0.37160839655E+01 0.40352560430E+01 0.45301777636E+01 0.52026604123E+01 0.60466390875E+01
 0.70435437156E+01 0.81503075672E+01 0.92831215394E+01 0.10312065748E+02 0.11083101433E+02
 0.11466313832E+02 0.11405039755E+02 0.10933887450E+02 0.10154760720E+02 0.91906861048E+01
 0.81492740624E+01 0.71122412339E+01 0.61428665629E+01 0.52930584907E+01 0.46011277030E+01
 0.40859482580E+01 0.42872128274E+01 0.38395078919E+01 0.35763848574E+01 0.34874934452E+01
 0.35698871854E+01 0.38283778386E+01 0.42722972498E+01 0.49124439573E+01 0.57570590826E+01
 0.68014288241E+01 0.80077631648E+01 0.92831215394E+01 0.10475448213E+02 0.11405138455E+02
 0.11925252800E+02 0.11975792632E+02 0.11595606656E+02 0.10886664993E+02 0.99617604483E+01
 0.89135410419E+01 0.78161756026E+01 0.67404847808E+01 0.57580268291E+01 0.49288795173E+01
 0.52585371998E+01 0.44808547556E+01 0.39233802901E+01 0.35762962124E+01 0.34246752075E+01
 0.34604075239E+01 0.36858222600E+01 0.41134523470E+01 0.47638810940E+01 0.56584910965E+01
 0.68014288241E+01 0.81503075672E+01 0.95897066738E+01 0.10933931950E+02 0.11975906349E+02
 0.12562540663E+02 0.12640296602E+02 0.12288684942E+02 0.11640298535E+02 0.10775457373E+02
 0.97309675714E+01 0.85709003701E+01 0.73755729068E+01 0.62416567929E+01 0.67095792811E+01
 0.55652761658E+01 0.46519231408E+01 0.39928620610E+01 0.35761691271E+01 0.33807074279E+01
 0.33927501671E+01 0.36132414851E+01 0.40598605422E+01 0.47638810940E+01 0.57570590826E+01
 0.70435437156E+01 0.85611101178E+01 0.10154709158E+02 0.11595668673E+02 0.12640420800E+02
 0.13096409904E+02 0.13020744688E+02 0.12641541345E+02 0.12126304372E+02 0.11457477195E+02
 0.10523418843E+02 0.93234070966E+01 0.80050608246E+01 0.85831124642E+01 0.71250772287E+01
 0.58237576264E+01 0.47862006876E+01 0.40424876716E+01 0.35760400946E+01 0.33581093561E+01
 0.33698944068E+01 0.36132414851E+01 0.41134523470E+01 0.49124439573E+01 0.60466390875E+01
 0.75066459648E+01 0.91906810058E+01 0.10886619097E+02 0.12288759162E+02 0.13020867050E+02
 0.13025465671E+02 0.12634030705E+02 0.12263284975E+02 0.12063172281E+02 0.11817220301E+02
 0.11177444680E+02 0.10020949608E+02 0.10605909794E+02 0.90649434416E+01 0.74526668870E+01
 0.60109213408E+01 0.48719459141E+01 0.40683529185E+01 0.35760034850E+01 0.33581093561E+01
 0.33927501671E+01 0.36858222600E+01 0.42722972498E+01 0.52026604123E+01 0.65086421885E+01
 0.81493945698E+01 0.99617469062E+01 0.11640264030E+02 0.12641618811E+02 0.12634131991E+02
 0.11899365670E+02 0.11137509677E+02 0.10937814151E+02 0.11329389356E+02 0.11775887190E+02
 0.11619072076E+02 0.11850535873E+02 0.11034216972E+02 0.94110884810E+01 0.76625557477E+01
 0.61092685534E+01 0.49014473664E+01 0.40683529185E+01 0.35760400946E+01 0.33807074279E+01
 0.34604075239E+01 0.38283778386E+01 0.45301777636E+01 0.56201905761E+01 0.71123749718E+01
 0.89136511869E+01 0.10775443473E+02 0.12126287895E+02 0.12263349366E+02 0.11137566686E+02
 0.95103698915E+01 0.84828863034E+01 0.87321001123E+01 0.10026176048E+02 0.11398764726E+02
 0.10870686751E+02 0.11933110229E+02 0.11290523123E+02 0.95920915794E+01 0.77348702523E+01
 0.61092685534E+01 0.48719459141E+01 0.40424876716E+01 0.35761691271E+01 0.34246752075E+01
 0.35698871854E+01 0.40352560430E+01 0.48760213511E+01 0.61428968745E+01 0.78163161059E+01
 0.97310554525E+01 0.11457466525E+02 0.12063175472E+02 0.10937848296E+02 0.84828798949E+01
 0.60174009889E+01 0.49895340941E+01 0.60174924083E+01 0.84638414363E+01 0.70701397356E+01
 0.10424852680E+02 0.11947125989E+02 0.11375279896E+02 0.95920915794E+01 0.76625557477E+01
 0.60109213408E+01 0.47862006876E+01 0.39928620610E+01 0.35762962124E+01 0.34874934452E+01
 0.37160839655E+01 0.42973136875E+01 0.52930240932E+01 0.67405412253E+01 0.85710184003E+01
 0.10523463978E+02 0.11817215864E+02 0.11329414338E+02 0.87320905099E+01 0.49894524400E+01
 0.19605462168E+01 0.12985202119E+01 0.33846262674E+01 0.14736678803E+01 0.62506645020E+01
 0.10251882426E+02 0.11947125989E+02 0.11290523123E+02 0.94110884810E+01 0.74526668870E+01
 0.58237576264E+01 0.46519231408E+01 0.39233802901E+01 0.35763848574E+01 0.35655737208E+01
 0.38914904139E+01 0.46011271315E+01 0.57580054072E+01 0.73756374863E+01 0.93234711937E+01
 0.11177432187E+02 0.11775890455E+02 0.10026218736E+02 0.60174306182E+01 0.12983641539E+01
 -.18553659459E+01 -.17904529860E+01 -.35505229902E+01 0.77550036223E+00 0.62506645020E+01
 0.10424852680E+02 0.11933110229E+02 0.11034216972E+02 0.90649434416E+01 0.71250772287E+01
 0.55652761658E+01 0.44808547556E+01 0.38395078919E+01 0.35764422999E+01 0.36541537021E+01
 0.40860018972E+01 0.49288428187E+01 0.62416542305E+01 0.80051193865E+01 0.10020934354E+02
 0.11618987691E+02 0.11398770218E+02 0.84638967620E+01 0.33845173759E+01 -.17906676399E+01
 -.45796582299E+01 -.35503367177E+01 -.21191796075E+01 0.21946070366E+01 0.72392185955E+01
 0.10770599034E+02 0.11708290348E+02 0.10506415714E+02 0.85058771313E+01 0.66288576113E+01
 0.51556653912E+01 0.41519948072E+01 0.35742395529E+01 0.33581217593E+01 0.34717429828E+01
 0.39342195339E+01 0.48046048637E+01 0.61376813554E+01 0.79029558828E+01 0.98886781080E+01
 0.11385565392E+02 0.11039743021E+02 0.81040335173E+01 0.32855288987E+01 -.13657128683E+01
 -.21194254342E+01 -.35503412668E+01 -.13654546713E+01 0.32857297957E+01 0.81040359083E+01
 0.11039735611E+02 0.11385677790E+02 0.98888032050E+01 0.79030107734E+01 0.61377278305E+01
 0.48046685488E+01 0.39342413114E+01 0.34717301887E+01 0.33581244434E+01 0.35742085760E+01
 0.41518741614E+01 0.51555517223E+01 0.66288396328E+01 0.85058319003E+01 0.10506224627E+02
 0.11708114136E+02 0.10770628515E+02 0.72392967989E+01 0.21944673530E+01 0.23412352211E+01
 -.12054073247E+01 -.17902692132E+01 0.85702774402E+00 0.53049342076E+01 0.93400176015E+01
 0.11303932815E+02 0.10928067475E+02 0.91835550853E+01 0.72656939342E+01 0.56455607712E+01
 0.44712032878E+01 0.37407852993E+01 0.33939333466E+01 0.33806448776E+01 0.36951051689E+01
 0.43795690792E+01 0.54992128735E+01 0.70822626914E+01 0.90293039562E+01 0.10997159630E+02
 0.11949538556E+02 0.10683352589E+02 0.70412669032E+01 0.76039925008E+01 0.37051960408E+01
 0.11548497410E+01 0.12986487332E+01 0.39933260188E+01 0.77158123941E+01 0.10556405006E+02
 0.11371824451E+02 0.10312253123E+02 0.84435995664E+01 0.66368460015E+01 0.51850847559E+01
 0.41761884136E+01 0.35830645811E+01 0.33454053482E+01 0.34244903383E+01 0.38267598699E+01
 0.46010643187E+01 0.58086480152E+01 0.74603972736E+01 0.94301926084E+01 0.11338270636E+02
 0.12154042449E+02 0.10881072089E+02 0.11337358804E+02 0.87836937179E+01 0.59401081235E+01
 0.43891776932E+01 0.49896294634E+01 0.73081041052E+01 0.99294197949E+01 0.11402827645E+02
 0.11127127842E+02 0.95745520004E+01 0.77143151026E+01 0.60548619919E+01 0.47831334494E+01
 0.39357892492E+01 0.34695191915E+01 0.33289367410E+01 0.34872048438E+01 0.39603853436E+01
 0.47994340307E+01 0.60576328775E+01 0.77291602343E+01 0.96719122628E+01 0.11510579834E+02
 0.12323656035E+02 0.12409048604E+02 0.11902033468E+02 0.10246491260E+02 0.84861635380E+01
 0.77538718202E+01 0.84829216553E+01 0.10109185695E+02 0.11485951407E+02 0.11684133999E+02
 0.10577196020E+02 0.88067419457E+01 0.70389087421E+01 0.55524095818E+01 0.44603027063E+01
 0.37614444552E+01 0.34055008178E+01 0.33454136276E+01 0.35651938709E+01 0.40867683901E+01
 0.49586832395E+01 0.62237056224E+01 0.78625662775E+01 0.97298057110E+01 0.11493348574E+02
 0.11268177677E+02 0.12328780970E+02 0.12357440313E+02 0.11582434047E+02 0.10747962984E+02
 0.10557965534E+02 0.11137480554E+02 0.11941867828E+02 0.12180809927E+02 0.11413365146E+02
 0.98518048098E+01 0.80837045156E+01 0.64588055017E+01 0.51559815051E+01 0.42311882038E+01
 0.36602526737E+01 0.33935900278E+01 0.33939612504E+01 0.36537873639E+01 0.41967706444E+01
 0.50654361450E+01 0.62913677278E+01 0.78468905138E+01 0.95952889553E+01 0.92778550279E+01
 0.10832500625E+02 0.12008946193E+02 0.12502299222E+02 0.12442758658E+02 0.12274970012E+02
 0.12355546196E+02 0.12633963265E+02 0.12690357155E+02 0.12095689511E+02 0.10788452691E+02
 0.91282304577E+01 0.74632693740E+01 0.60110887282E+01 0.48857180753E+01 0.41052670269E+01
 0.36357963956E+01 0.34338623379E+01 0.34717988711E+01 0.37473083361E+01 0.42821701063E+01
 0.51106596140E+01 0.62543159083E+01 0.76828781152E+01 0.73859413930E+01 0.88043913421E+01
 0.10214734905E+02 0.11425200637E+02 0.12230200249E+02 0.12650602956E+02 0.12882342170E+02
 0.13043546721E+02 0.13020634061E+02 0.12561697262E+02 0.11533775761E+02 0.10095398136E+02
 0.85101251375E+01 0.70004272905E+01 0.57260403154E+01 0.47557178963E+01 0.40876988563E+01
 0.36885567852E+01 0.35239885223E+01 0.35743711738E+01 0.38394386617E+01 0.43363527937E+01
 0.50906560836E+01 0.61163828433E+01 0.58909979434E+01 0.69837411435E+01 0.82156007236E+01
 0.94721431178E+01 0.10628444125E+02 0.11572025733E+02 0.12246279085E+02 0.12675124914E+02
 0.12841821300E+02 0.12640214656E+02 0.11971151994E+02 0.10879678628E+02 0.95167907906E+01
 0.80763550247E+01 0.67402134943E+01 0.56251757814E+01 0.47740402533E+01 0.41797290715E+01
 0.38162576710E+01 0.36593883468E+01 0.36954069174E+01 0.39234936138E+01 0.43549841216E+01
 0.50076468125E+01 0.48693068050E+01 0.55989579898E+01 0.65121242985E+01 0.75608857882E+01
 0.86654313880E+01 0.97342511716E+01 0.10686446138E+02 0.11455712437E+02 0.11977287726E+02
 0.12175629599E+02 0.11975738120E+02 0.11353490343E+02 0.10367239491E+02 0.91547356972E+01
 0.78872709451E+01 0.67123719926E+01 0.57198430544E+01 0.49426314672E+01 0.43787355373E+01
 0.40136625832E+01 0.38330362278E+01 0.38271519302E+01 0.39931377394E+01 0.43365872402E+01
 0.42825928908E+01 0.46876854422E+01 0.52655751769E+01 0.60103106868E+01 0.68922536388E+01
 0.78585048424E+01 0.88432626022E+01 0.97773607637E+01 0.10587266474E+02 0.11187780389E+02
 0.11485532953E+02 0.11405031832E+02 0.10926781025E+02 0.10109724449E+02 0.90777147777E+01
 0.79764557943E+01 0.69283952340E+01 0.60101596455E+01 0.52565577560E+01 0.46774585526E+01
 0.42721138047E+01 0.40355303724E+01 0.39608635041E+01 0.40429070672E+01 0.40688110348E+01
 0.41973157548E+01 0.44776682214E+01 0.49173049091E+01 0.55161961159E+01 0.62588519407E+01
 0.71133642677E+01 0.80351486376E+01 0.89677380456E+01 0.98370731482E+01 0.10547156554E+02
 0.10991214836E+02 0.11083035062E+02 0.10793700815E+02 0.10168699299E+02 0.93118788863E+01
 0.83466648852E+01 0.73794572761E+01 0.64834841743E+01 0.57027621544E+01 0.50631164169E+01
 0.45790258028E+01 0.42550294682E+01 0.40872293857E+01 0.41971723504E+01 0.40687877442E+01
 0.40873386039E+01 0.42551469534E+01 0.45790352809E+01 0.50630530005E+01 0.57027691489E+01
 0.64836098350E+01 0.73795729403E+01 0.83466556830E+01 0.93118208494E+01 0.10168728660E+02
 0.10793784032E+02 0.11083031220E+02 0.10991126808E+02 0.10547131996E+02 0.98371457070E+01
 0.89677553361E+01 0.80350183807E+01 0.71132109337E+01 0.62588325235E+01 0.55162729597E+01
 0.49173132552E+01 0.44775455588E+01 0.46876113523E+01 0.42824424639E+01 0.40428051399E+01
 0.39609077213E+01 0.40356724753E+01 0.42721971560E+01 0.46774180104E+01 0.52565167892E+01
 0.60102418788E+01 0.69285205989E+01 0.79764684652E+01 0.90776415506E+01 0.10109724444E+02
 0.10926869938E+02 0.11405060862E+02 0.11485454296E+02 0.11187729612E+02 0.10587320560E+02
 0.97773978336E+01 0.88431596284E+01 0.78583339634E+01 0.68921717411E+01 0.60103426595E+01
 0.52656042537E+01 0.55989920035E+01 0.48692592996E+01 0.43364477848E+01 0.39930150365E+01
 0.38271784515E+01 0.38331952987E+01 0.40137764747E+01 0.43787021740E+01 0.49425754675E+01
 0.57199087327E+01 0.67124766089E+01 0.78872530671E+01 0.91546478920E+01 0.10367264096E+02
 0.11353614633E+02 0.11975766461E+02 0.12175516635E+02 0.11977210744E+02 0.11455766463E+02
 0.10686486979E+02 0.97341332295E+01 0.86652269374E+01 0.75607641353E+01 0.65121301835E+01
 0.69836680352E+01 0.58910140965E+01 0.50076823410E+01 0.43549297404E+01 0.39233699945E+01
 0.36953902543E+01 0.36595515776E+01 0.38164201692E+01 0.41797148063E+01 0.47739480507E+01
 0.56251940385E+01 0.67403007733E+01 0.80763476089E+01 0.95167189484E+01 0.10879708401E+02
 0.11971269996E+02 0.12640232595E+02 0.12841691857E+02 0.12675004010E+02 0.12246260365E+02
 0.11572019043E+02 0.10628347264E+02 0.94719780763E+01 0.82154505884E+01 0.88042209811E+01
 0.73858323970E+01 0.61164272120E+01 0.50907750790E+01 0.43363588956E+01 0.38393293263E+01
 0.35743694942E+01 0.35241805215E+01 0.36887188046E+01 0.40876471660E+01 0.47556039602E+01
 0.57260748520E+01 0.70005292739E+01 0.85101049479E+01 0.10095313239E+02 0.11533811001E+02
 0.12561811391E+02 0.13020614345E+02 0.13043348556E+02 0.12882140099E+02 0.12650518505E+02
 0.12230180257E+02 0.11425146733E+02 0.10214607332E+02 0.10832482549E+02 0.92777321690E+01
 0.76827395727E+01 0.62543526425E+01 0.51108499829E+01 0.42822763668E+01 0.37472598688E+01
 0.34718055948E+01 0.34340340401E+01 0.36359375608E+01 0.41052190109E+01 0.48856271474E+01
 0.60111310785E+01 0.74633560573E+01 0.91282083797E+01 0.10788382925E+02 0.12095699665E+02
 0.12690383074E+02 0.12633856985E+02 0.12355320313E+02 0.12274749813E+02 0.12442611267E+02
 0.12502231592E+02 0.12008944820E+02 0.12328884753E+02 0.11268266128E+02 0.95951867119E+01
 0.78467388591E+01 0.62914482000E+01 0.50657122963E+01 0.41969337700E+01 0.36537584458E+01
 0.33939873274E+01 0.33937774883E+01 0.36603827886E+01 0.42311215342E+01 0.51558976416E+01
 0.64588720761E+01 0.80838048141E+01 0.98517731411E+01 0.11413252224E+02 0.12180734400E+02
 0.11941804352E+02 0.11137346714E+02 0.10557758983E+02 0.10747729238E+02 0.11582234812E+02
 0.12357379283E+02 0.11901971787E+02 0.12409198845E+02 0.11493520317E+02 0.97297752151E+01
 0.78624586424E+01 0.62238083896E+01 0.49589701262E+01 0.40869573485E+01 0.35652212034E+01
 0.33454812969E+01 0.34056624536E+01 0.37615203042E+01 0.44602391066E+01 0.55523780514E+01
 0.70389882429E+01 0.88067925533E+01 0.10577120001E+02 0.11684002155E+02 0.11485824091E+02
 0.10109036431E+02 0.84827551901E+01 0.77537257711E+01 0.84860038995E+01 0.10246309094E+02
 0.87834995332E+01 0.11337286911E+02 0.12323868414E+02 0.11510834607E+02 0.96719234172E+01
 0.77290659554E+01 0.60577532373E+01 0.47997400283E+01 0.39605864462E+01 0.34872393090E+01
 0.33289964685E+01 0.34696535582E+01 0.39358503410E+01 0.47830837000E+01 0.60548312829E+01
 0.77143512128E+01 0.95745639456E+01 0.11127060813E+02 0.11402692574E+02 0.99292158708E+01
 0.73078770942E+01 0.49895075466E+01 0.43891711129E+01 0.59400354036E+01 0.37052051875E+01
 0.76038435346E+01 0.10881022466E+02 0.12154256630E+02 0.11338519242E+02 0.94302319106E+01
 0.74603675891E+01 0.58087954796E+01 0.46013190106E+01 0.38269002965E+01 0.34245259185E+01
 0.33454846816E+01 0.35831659117E+01 0.41761910717E+01 0.51850198086E+01 0.66368269467E+01
 0.84436120469E+01 0.10312219403E+02 0.11371744575E+02 0.10556282727E+02 0.77155997609E+01
 0.39930886747E+01 0.12985734275E+01 0.11549375057E+01 -.12052070073E+01 0.23413450002E+01
 0.70411468390E+01 0.10683281818E+02 0.11949728315E+02 0.10997411213E+02 0.90293769029E+01
 0.70822568450E+01 0.54993271494E+01 0.43797563593E+01 0.36952117730E+01 0.33806797232E+01
 0.33939752964E+01 0.37408089803E+01 0.44711725566E+01 0.56455264391E+01 0.72656705932E+01
 0.91834836888E+01 0.10927972394E+02 0.11303900500E+02 0.93399749734E+01 0.53047223917E+01
 0.85675015653E+00 -.17903134837E+01 0.14743313266E+01 0.23418295481E+01 0.54529231050E+01
 0.91511061842E+01 0.11621465969E+02 0.11969250157E+02 0.10582967627E+02 0.85974071075E+01
 0.67495005113E+01 0.52861507941E+01 0.42694932750E+01 0.36592449995E+01 0.33925102559E+01
 0.34337569617E+01 0.37941787258E+01 0.45248938789E+01 0.56823901778E+01 0.72629632333E+01
 0.91212477835E+01 0.10838649679E+02 0.11373760472E+02 0.99007911925E+01 0.67130331957E+01
 0.32859433784E+01 0.21948896480E+01 0.77620701256E+00 0.21951468784E+01 0.56634419355E+01
 0.93342800211E+01 0.11473707207E+02 0.11448024394E+02 0.98838220193E+01 0.79401858632E+01
 0.62093341144E+01 0.48888077742E+01 0.40105909521E+01 0.35238647750E+01 0.33696540615E+01
 0.35238370856E+01 0.40105160080E+01 0.48887396996E+01 0.62093149213E+01 0.79401267914E+01
 0.98836672527E+01 0.11447932310E+02 0.11473807546E+02 0.93343818880E+01 0.56632920022E+01
 0.54528549908E+01 0.23416289098E+01 0.14743577305E+01 0.32862190070E+01 0.67132449051E+01
 0.99008035172E+01 0.11373747050E+02 0.10838739610E+02 0.91213626009E+01 0.72630295263E+01
 0.56824460048E+01 0.45249516493E+01 0.37942021512E+01 0.34337612779E+01 0.33925157489E+01
 0.36591917712E+01 0.42693681611E+01 0.52860766368E+01 0.67495267961E+01 0.85973724474E+01
 0.10582790240E+02 0.11969147684E+02 0.11621617247E+02 0.91512962805E+01 0.94891447106E+01
 0.61839176376E+01 0.37054790577E+01 0.33851605413E+01 0.53053081577E+01 0.82634099878E+01
 0.10586884759E+02 0.11191234944E+02 0.10135778957E+02 0.83477280041E+01 0.66102820266E+01
 0.52019403079E+01 0.42155975036E+01 0.36317869727E+01 0.33935547519E+01 0.34601821846E+01
 0.38328500822E+01 0.45555963446E+01 0.56907315875E+01 0.72640126648E+01 0.91849852116E+01
 0.11168065240E+02 0.12413628969E+02 0.11908833430E+02 0.12338796758E+02 0.10301858887E+02
 0.76826865719E+01 0.59402523330E+01 0.60178338333E+01 0.77160324381E+01 0.98570221604E+01
 0.11104798547E+02 0.10823035561E+02 0.93666171476E+01 0.76055185955E+01 0.60188096119E+01
 0.47937008418E+01 0.39763467924E+01 0.35313248573E+01 0.34055542805E+01 0.35696829617E+01
 0.40353522852E+01 0.48508349514E+01 0.60728656246E+01 0.77107447253E+01 0.96520422868E+01
 0.11594989028E+02 0.12771054548E+02 0.12996432522E+02 0.12814723985E+02 0.11370353997E+02
 0.95552349460E+01 0.84861695131E+01 0.87322134453E+01 0.99294326224E+01 0.11073248278E+02
 0.11250217308E+02 0.10246840282E+02 0.85988297773E+01 0.69320099352E+01 0.55179852519E+01
 0.44767084952E+01 0.38177313988E+01 0.34973850197E+01 0.34696584044E+01 0.37159210223E+01
 0.42548936204E+01 0.51343074471E+01 0.64013371056E+01 0.80492856314E+01 0.99529351914E+01
 0.11821959144E+02 0.11813930068E+02 0.13019768632E+02 0.13172164954E+02 0.12377680488E+02
 0.11317309354E+02 0.10747812486E+02 0.10937677915E+02 0.11485807480E+02 0.11659966026E+02
 0.10973122005E+02 0.95397727672E+01 0.78894412190E+01 0.63607764272E+01 0.51305225592E+01
 0.42638430343E+01 0.37458487918E+01 0.35314685108E+01 0.35833060328E+01 0.38913823733E+01
 0.44774517325E+01 0.53843291929E+01 0.66472681396E+01 0.82464114444E+01 0.10054458986E+02
 0.99420282572E+01 0.11553992593E+02 0.12775203079E+02 0.13242558841E+02 0.13019901116E+02
 0.12550785602E+02 0.12274729896E+02 0.12262983963E+02 0.12180536628E+02 0.11598932168E+02
 0.10387880125E+02 0.88384400100E+01 0.72820533311E+01 0.59217966014E+01 0.48734677878E+01
 0.41631579424E+01 0.37631558875E+01 0.36320533668E+01 0.37410811301E+01 0.40859897266E+01
 0.46875469423E+01 0.55804312609E+01 0.67877374074E+01 0.82812795669E+01 0.81492607937E+01
 0.96230798077E+01 0.11057106028E+02 0.12236748815E+02 0.12922611611E+02 0.13111086247E+02
 0.13030268408E+02 0.12882040162E+02 0.12641125620E+02 0.12095391954E+02 0.11085999674E+02
 0.97171069172E+01 0.82298778256E+01 0.68212451742E+01 0.56408696318E+01 0.47591229233E+01
 0.41787433227E+01 0.38687543067E+01 0.37944981401E+01 0.39345963683E+01 0.42873071620E+01
 0.48692333356E+01 0.57055911706E+01 0.68092053439E+01 0.67096941272E+01 0.78628476359E+01
 0.91264985644E+01 0.10369013004E+02 0.11444326054E+02 0.12221018098E+02 0.12643247704E+02
 0.12777069113E+02 0.12674853826E+02 0.12288307958E+02 0.11533525871E+02 0.10436546300E+02
 0.91314376189E+01 0.77814735643E+01 0.65475929206E+01 0.55383269919E+01 0.47952132479E+01
 0.43110792768E+01 0.40585170640E+01 0.40108796360E+01 0.41523423634E+01 0.44810049020E+01
 0.50076458001E+01 0.57485910983E+01 0.57054869699E+01 0.64990143230E+01 0.74498074607E+01
 0.84985237297E+01 0.95509840461E+01 0.10501592795E+02 0.11263627443E+02 0.11781658521E+02
 0.12027427621E+02 0.11977097817E+02 0.11595331853E+02 0.10879503650E+02 0.98844165626E+01
 0.87262402078E+01 0.75521898012E+01 0.64925345968E+01 0.56275522648E+01 0.49846105075E+01
 0.45567743505E+01 0.43245870600E+01 0.42696580821E+01 0.43800446757E+01 0.46521058005E+01
 0.50907446199E+01 0.51108130207E+01 0.55802548054E+01 0.61973103901E+01 0.69487807609E+01
 0.77957168180E+01 0.86749048142E+01 0.95123092407E+01 0.10238657663E+02 0.10795260311E+02
 0.11128796670E+02 0.11187681210E+02 0.10933738006E+02 0.10367155857E+02 0.95452059268E+01
 0.85754357614E+01 0.75833600972E+01 0.66745646906E+01 0.59132476880E+01 0.53240459830E+01
 0.49074495222E+01 0.46547505868E+01 0.45557653077E+01 0.46014982332E+01 0.47863808414E+01
 0.48721030233E+01 0.50656888473E+01 0.53841865584E+01 0.58318246646E+01 0.64035067579E+01
 0.70772308157E+01 0.78141745427E+01 0.85650751313E+01 0.92759104542E+01 0.98877375379E+01
 0.10334234354E+02 0.10547149924E+02 0.10475375918E+02 0.10109673518E+02 0.94954817126E+01
 0.87219968257E+01 0.78927709768E+01 0.70958443552E+01 0.63889881408E+01 0.58022343765E+01
 0.53484599757E+01 0.50318152588E+01 0.48508308361E+01 0.47997519956E+01 0.49588578855E+01
 0.49015440128E+01 0.49589882052E+01 0.51342340453E+01 0.54332047759E+01 0.58572801986E+01
 0.63976916660E+01 0.70347484156E+01 0.77391684546E+01 0.84704012452E+01 0.91712245760E+01
 0.97655392218E+01 0.10168745759E+02 0.10312015166E+02 0.10168671119E+02 0.97655297916E+01
 0.91713117547E+01 0.84704390111E+01 0.77390685032E+01 0.70346354361E+01 0.63977245995E+01
 0.58574184978E+01 0.54332634055E+01 0.51341356624E+01 0.53840750100E+01 0.50654720271E+01
 0.48719743836E+01 0.47997911886E+01 0.48509202083E+01 0.50317918586E+01 0.53483314899E+01
 0.58021728050E+01 0.63890812236E+01 0.70959594319E+01 0.78927504536E+01 0.87218979550E+01
 0.94954722286E+01 0.10109753401E+02 0.10475390378E+02 0.10547068657E+02 0.10334211784E+02
 0.98878439565E+01 0.92759933046E+01 0.85649932268E+01 0.78140271591E+01 0.70772161653E+01
 0.64036337878E+01 0.58319007387E+01 0.61973599861E+01 0.55801490829E+01 0.51105699952E+01
 0.47861610945E+01 0.46014411357E+01 0.45558351705E+01 0.46547762437E+01 0.49073571199E+01
 0.53239658674E+01 0.59133040218E+01 0.66746627960E+01 0.75833317699E+01 0.85753211273E+01
 0.95451868253E+01 0.10367246965E+02 0.10933769839E+02 0.11187603931E+02 0.11128771374E+02
 0.10795374754E+02 0.10238759381E+02 0.95122374206E+01 0.86747344001E+01 0.77956415525E+01
 0.69488416963E+01 0.74497730241E+01 0.64990373753E+01 0.57054214862E+01 0.50905151157E+01
 0.46518237227E+01 0.43799191460E+01 0.42697330299E+01 0.43246627927E+01 0.45566950851E+01
 0.49844930344E+01 0.56275708942E+01 0.64926161931E+01 0.75521459785E+01 0.87261090347E+01
 0.98844045362E+01 0.10879624492E+02 0.11595383029E+02 0.11977005664E+02 0.12027362193E+02
 0.11781737352E+02 0.11263720618E+02 0.10501529578E+02 0.95507924845E+01 0.84983665510E+01
 0.91262945929E+01 0.78627216387E+01 0.67096770958E+01 0.57485719859E+01 0.50074733821E+01
 0.44807253223E+01 0.41521948727E+01 0.40109572612E+01 0.40586073849E+01 0.43109932246E+01
 0.47950718097E+01 0.55383247485E+01 0.65476565802E+01 0.77814169550E+01 0.91313150101E+01
 0.10436558485E+02 0.11533654552E+02 0.12288330675E+02 0.12674709232E+02 0.12776934163E+02
 0.12643244744E+02 0.12221055573E+02 0.11444264261E+02 0.10368835902E+02 0.11056995865E+02
 0.96228516720E+01 0.81490446761E+01 0.68091601752E+01 0.57056465638E+01 0.48691504361E+01
 0.42870615171E+01 0.39344511043E+01 0.37945833609E+01 0.38688488126E+01 0.41786437905E+01
 0.47589660987E+01 0.56408626354E+01 0.68213096754E+01 0.82298273002E+01 0.97169934696E+01
 0.11085999066E+02 0.12095469662E+02 0.12641084520E+02 0.12881830219E+02 0.13030038059E+02
 0.13110961795E+02 0.12922583769E+02 0.12236729971E+02 0.12775238864E+02 0.11553965437E+02
 0.99418123755E+01 0.82810239412E+01 0.67876924427E+01 0.55805510567E+01 0.46875426669E+01
 0.40858046747E+01 0.37409771258E+01 0.36321500147E+01 0.37632292433E+01 0.41630402040E+01
 0.48733247084E+01 0.59218116864E+01 0.72821181176E+01 0.88383791281E+01 0.10387749994E+02
 0.11598875945E+02 0.12180515332E+02 0.12262852646E+02 0.12274465148E+02 0.12550489605E+02