   2   2   0   0
  0.1529437E+02  0.3691622E-09  0.3691622E-09  0.3691622E-09  0.5000000E-15
  1.000000000000000E-004
  CAR 
 unknown system                          
     22.54467014     -6.45009177  301      9.20667716      1.00000000
     -6.450  0.0000E+00  0.0000E+00
     -6.353  0.0000E+00  0.0000E+00
     -6.257  0.0000E+00  0.0000E+00
     -6.160  0.0000E+00  0.0000E+00
     -6.063  0.0000E+00  0.0000E+00
     -5.967  0.0000E+00  0.0000E+00
     -5.870  0.0000E+00  0.0000E+00
     -5.774  0.0000E+00  0.0000E+00
     -5.677  0.0000E+00  0.0000E+00
     -5.580  0.1702E-16  0.1645E-17
     -5.484  0.3446E-14  0.3347E-15
     -5.387  0.4413E-12  0.4299E-13
     -5.290  0.3570E-10  0.3494E-11
     -5.194  0.1826E-08  0.1800E-09
     -5.097  0.5916E-07  0.5897E-08
     -5.000  0.1215E-05  0.1233E-06
     -4.904  0.1583E-04  0.1653E-05
     -4.807  0.1311E-03  0.1432E-04
     -4.710  0.6906E-03  0.8107E-04
     -4.614  0.2318E-02  0.3051E-03
     -4.517  0.4963E-02  0.7848E-03
     -4.420  0.6791E-02  0.1441E-02
     -4.324  0.6023E-02  0.2023E-02
     -4.227  0.3860E-02  0.2396E-02
     -4.131  0.3093E-02  0.2695E-02
     -4.034  0.5110E-02  0.3189E-02
     -3.937  0.1010E-01  0.4166E-02
     -3.841  0.1760E-01  0.5867E-02
     -3.744  0.2439E-01  0.8224E-02
     -3.647  0.2544E-01  0.1068E-01
     -3.551  0.2067E-01  0.1268E-01
     -3.454  0.1642E-01  0.1427E-01
     -3.357  0.1648E-01  0.1586E-01
     -3.261  0.1739E-01  0.1754E-01
     -3.164  0.1537E-01  0.1903E-01
     -3.067  0.1105E-01  0.2009E-01
     -2.971  0.6977E-02  0.2077E-01
     -2.874  0.6011E-02  0.2135E-01
     -2.777  0.9902E-02  0.2231E-01
     -2.681  0.1714E-01  0.2396E-01
     -2.584  0.2520E-01  0.2640E-01
     -2.487  0.3370E-01  0.2966E-01
     -2.391  0.3992E-01  0.3351E-01
     -2.294  0.3744E-01  0.3713E-01
     -2.198  0.2712E-01  0.3975E-01
     -2.101  0.1952E-01  0.4164E-01
     -2.004  0.2037E-01  0.4361E-01
     -1.908  0.2397E-01  0.4593E-01
     -1.811  0.2275E-01  0.4813E-01
     -1.714  0.1644E-01  0.4971E-01
     -1.618  0.1197E-01  0.5087E-01
     -1.521  0.1691E-01  0.5251E-01
     -1.424  0.3062E-01  0.5546E-01
     -1.328  0.4128E-01  0.5945E-01
     -1.231  0.3893E-01  0.6322E-01
     -1.134  0.2917E-01  0.6604E-01
     -1.038  0.2256E-01  0.6822E-01
     -0.941  0.2261E-01  0.7040E-01
     -0.844  0.3102E-01  0.7340E-01
     -0.748  0.4547E-01  0.7779E-01
     -0.651  0.5382E-01  0.8300E-01
     -0.554  0.4722E-01  0.8756E-01
     -0.458  0.3088E-01  0.9054E-01
     -0.361  0.1611E-01  0.9210E-01
     -0.265  0.1116E-01  0.9318E-01
     -0.168  0.1938E-01  0.9505E-01
     -0.071  0.3730E-01  0.9866E-01
      0.025  0.5341E-01  0.1038E+00
      0.122  0.5630E-01  0.1093E+00
      0.219  0.4469E-01  0.1136E+00
      0.315  0.2832E-01  0.1163E+00
      0.412  0.2056E-01  0.1183E+00
      0.509  0.2589E-01  0.1208E+00
      0.605  0.3391E-01  0.1241E+00
      0.702  0.3190E-01  0.1272E+00
      0.799  0.2161E-01  0.1293E+00
      0.895  0.1443E-01  0.1307E+00
      0.992  0.1675E-01  0.1323E+00
      1.089  0.2671E-01  0.1349E+00
      1.185  0.3685E-01  0.1384E+00
      1.282  0.4207E-01  0.1425E+00
      1.378  0.4570E-01  0.1469E+00
      1.475  0.4892E-01  0.1516E+00
      1.572  0.4787E-01  0.1563E+00
      1.668  0.4801E-01  0.1609E+00
      1.765  0.5707E-01  0.1664E+00
      1.862  0.6773E-01  0.1730E+00
      1.958  0.6761E-01  0.1795E+00
      2.055  0.5738E-01  0.1850E+00
      2.152  0.4678E-01  0.1896E+00
      2.248  0.4160E-01  0.1936E+00
      2.345  0.4174E-01  0.1976E+00
      2.442  0.4201E-01  0.2017E+00
      2.538  0.3599E-01  0.2051E+00
      2.635  0.2693E-01  0.2077E+00
      2.732  0.2320E-01  0.2100E+00
      2.828  0.2469E-01  0.2124E+00
      2.925  0.2579E-01  0.2149E+00
      3.022  0.2313E-01  0.2171E+00
      3.118  0.1706E-01  0.2188E+00
      3.215  0.1282E-01  0.2200E+00
      3.311  0.1730E-01  0.2217E+00
      3.408  0.3055E-01  0.2246E+00
      3.505  0.4354E-01  0.2288E+00
      3.601  0.4810E-01  0.2335E+00
      3.698  0.4435E-01  0.2378E+00
      3.795  0.3815E-01  0.2414E+00
      3.891  0.3729E-01  0.2451E+00
      3.988  0.4454E-01  0.2494E+00
      4.085  0.5578E-01  0.2547E+00
      4.181  0.6901E-01  0.2614E+00
      4.278  0.8253E-01  0.2694E+00
      4.375  0.8587E-01  0.2777E+00
      4.471  0.7091E-01  0.2845E+00
      4.568  0.4687E-01  0.2891E+00
      4.665  0.3055E-01  0.2920E+00
      4.761  0.2882E-01  0.2948E+00
      4.858  0.3488E-01  0.2982E+00
      4.955  0.3788E-01  0.3018E+00
      5.051  0.3466E-01  0.3052E+00
      5.148  0.3131E-01  0.3082E+00
      5.244  0.3082E-01  0.3112E+00
      5.341  0.2899E-01  0.3140E+00
      5.438  0.2699E-01  0.3166E+00
      5.534  0.3206E-01  0.3197E+00
      5.631  0.4498E-01  0.3241E+00
      5.728  0.6204E-01  0.3301E+00
      5.824  0.8155E-01  0.3379E+00
      5.921  0.9736E-01  0.3473E+00
      6.018  0.1002E+00  0.3570E+00
      6.114  0.8714E-01  0.3654E+00
      6.211  0.6452E-01  0.3717E+00
      6.308  0.4690E-01  0.3762E+00
      6.404  0.4667E-01  0.3807E+00
      6.501  0.5964E-01  0.3865E+00
      6.598  0.6901E-01  0.3932E+00
      6.694  0.6452E-01  0.3994E+00
      6.791  0.5274E-01  0.4045E+00
      6.887  0.4819E-01  0.4092E+00
      6.984  0.5861E-01  0.4148E+00
      7.081  0.7504E-01  0.4221E+00
      7.177  0.7854E-01  0.4297E+00
      7.274  0.6403E-01  0.4358E+00
      7.371  0.4712E-01  0.4404E+00
      7.467  0.4291E-01  0.4445E+00
      7.564  0.4942E-01  0.4493E+00
      7.661  0.5513E-01  0.4547E+00
      7.757  0.5398E-01  0.4599E+00
      7.854  0.4959E-01  0.4647E+00
      7.951  0.5030E-01  0.4695E+00
      8.047  0.5827E-01  0.4752E+00
      8.144  0.6943E-01  0.4819E+00
      8.241  0.8074E-01  0.4897E+00
      8.337  0.8431E-01  0.4978E+00
      8.434  0.7341E-01  0.5049E+00
      8.531  0.5762E-01  0.5105E+00
      8.627  0.4831E-01  0.5152E+00
      8.724  0.4222E-01  0.5192E+00
      8.820  0.3273E-01  0.5224E+00
      8.917  0.2336E-01  0.5247E+00
      9.014  0.2241E-01  0.5268E+00
      9.110  0.3017E-01  0.5297E+00
      9.207  0.3737E-01  0.5333E+00
      9.304  0.3614E-01  0.5368E+00
      9.400  0.3045E-01  0.5398E+00
      9.497  0.3025E-01  0.5427E+00
      9.594  0.3793E-01  0.5464E+00
      9.690  0.5063E-01  0.5513E+00
      9.787  0.6715E-01  0.5578E+00
      9.884  0.8200E-01  0.5657E+00
      9.980  0.8506E-01  0.5739E+00
     10.077  0.7293E-01  0.5810E+00
     10.174  0.5309E-01  0.5861E+00
     10.270  0.3652E-01  0.5896E+00
     10.367  0.2752E-01  0.5923E+00
     10.464  0.2359E-01  0.5946E+00
     10.560  0.2428E-01  0.5969E+00
     10.657  0.3013E-01  0.5998E+00
     10.753  0.3789E-01  0.6035E+00
     10.850  0.4461E-01  0.6078E+00
     10.947  0.4883E-01  0.6125E+00
     11.043  0.4930E-01  0.6173E+00
     11.140  0.4982E-01  0.6221E+00
     11.237  0.5948E-01  0.6278E+00
     11.333  0.8214E-01  0.6358E+00
     11.430  0.1059E+00  0.6460E+00
     11.527  0.1107E+00  0.6567E+00
     11.623  0.9455E-01  0.6658E+00
     11.720  0.7880E-01  0.6735E+00
     11.817  0.7782E-01  0.6810E+00
     11.913  0.7796E-01  0.6885E+00
     12.010  0.6240E-01  0.6945E+00
     12.107  0.4183E-01  0.6986E+00
     12.203  0.3916E-01  0.7024E+00
     12.300  0.5567E-01  0.7078E+00
     12.397  0.6885E-01  0.7144E+00
     12.493  0.6145E-01  0.7203E+00
     12.590  0.4153E-01  0.7244E+00
     12.686  0.2779E-01  0.7270E+00
     12.783  0.2755E-01  0.7297E+00
     12.880  0.3592E-01  0.7332E+00
     12.976  0.4456E-01  0.7375E+00
     13.073  0.4721E-01  0.7421E+00
     13.170  0.4525E-01  0.7464E+00
     13.266  0.4617E-01  0.7509E+00
     13.363  0.5702E-01  0.7564E+00
     13.460  0.8220E-01  0.7643E+00
     13.556  0.1160E+00  0.7756E+00
     13.653  0.1373E+00  0.7888E+00
     13.750  0.1294E+00  0.8013E+00
     13.846  0.1025E+00  0.8112E+00
     13.943  0.7955E-01  0.8189E+00
     14.040  0.6978E-01  0.8257E+00
     14.136  0.6725E-01  0.8322E+00
     14.233  0.6788E-01  0.8387E+00
     14.329  0.7451E-01  0.8459E+00
     14.426  0.8368E-01  0.8540E+00
     14.523  0.8500E-01  0.8622E+00
     14.619  0.7512E-01  0.8695E+00
     14.716  0.5851E-01  0.8751E+00
     14.813  0.4177E-01  0.8792E+00
     14.909  0.2962E-01  0.8820E+00
     15.006  0.2338E-01  0.8843E+00
     15.103  0.2582E-01  0.8868E+00
     15.199  0.4094E-01  0.8908E+00
     15.296  0.6796E-01  0.8973E+00
     15.393  0.9813E-01  0.9068E+00
     15.489  0.1165E+00  0.9181E+00
     15.586  0.1116E+00  0.9289E+00
     15.683  0.8818E-01  0.9374E+00
     15.779  0.6345E-01  0.9435E+00
     15.876  0.4710E-01  0.9481E+00
     15.973  0.3680E-01  0.9516E+00
     16.069  0.2931E-01  0.9545E+00
     16.166  0.2649E-01  0.9570E+00
     16.262  0.2902E-01  0.9598E+00
     16.359  0.3178E-01  0.9629E+00
     16.456  0.3157E-01  0.9659E+00
     16.552  0.3128E-01  0.9690E+00
     16.649  0.3324E-01  0.9722E+00
     16.746  0.3744E-01  0.9758E+00
     16.842  0.4166E-01  0.9798E+00
     16.939  0.4264E-01  0.9839E+00
     17.036  0.4014E-01  0.9878E+00
     17.132  0.3443E-01  0.9912E+00
     17.229  0.2795E-01  0.9939E+00
     17.326  0.2730E-01  0.9965E+00
     17.422  0.3304E-01  0.9997E+00
     17.519  0.3775E-01  0.1003E+01
     17.616  0.3709E-01  0.1007E+01
     17.712  0.3367E-01  0.1010E+01
     17.809  0.3041E-01  0.1013E+01
     17.906  0.2613E-01  0.1016E+01
     18.002  0.2057E-01  0.1018E+01
     18.099  0.2001E-01  0.1020E+01
     18.195  0.3141E-01  0.1023E+01
     18.292  0.5015E-01  0.1027E+01
     18.389  0.6134E-01  0.1033E+01
     18.485  0.5772E-01  0.1039E+01
     18.582  0.4506E-01  0.1043E+01
     18.679  0.3026E-01  0.1046E+01
     18.775  0.1901E-01  0.1048E+01
     18.872  0.1679E-01  0.1050E+01
     18.969  0.2201E-01  0.1052E+01
     19.065  0.2601E-01  0.1054E+01
     19.162  0.2335E-01  0.1057E+01
     19.259  0.1720E-01  0.1058E+01
     19.355  0.1280E-01  0.1059E+01
     19.452  0.1034E-01  0.1060E+01
     19.549  0.7357E-02  0.1061E+01
     19.645  0.3817E-02  0.1062E+01
     19.742  0.1333E-02  0.1062E+01
     19.838  0.3042E-03  0.1062E+01
     19.935  0.5031E-04  0.1062E+01
     20.032  0.6303E-04  0.1062E+01
     20.128  0.3931E-03  0.1062E+01
     20.225  0.1712E-02  0.1062E+01
     20.322  0.4933E-02  0.1062E+01
     20.418  0.9536E-02  0.1063E+01
     20.515  0.1253E-01  0.1065E+01
     20.612  0.1125E-01  0.1066E+01
     20.708  0.6890E-02  0.1066E+01
     20.805  0.2848E-02  0.1067E+01
     20.902  0.7834E-03  0.1067E+01
     20.998  0.1414E-03  0.1067E+01
     21.095  0.1656E-04  0.1067E+01
     21.192  0.1247E-05  0.1067E+01
     21.288  0.6009E-07  0.1067E+01
     21.385  0.1843E-08  0.1067E+01
     21.482  0.3589E-10  0.1067E+01
     21.578  0.4427E-12  0.1067E+01
     21.675  0.3452E-14  0.1067E+01
     21.771  0.1702E-16  0.1067E+01
     21.868  0.0000E+00  0.1067E+01
     21.965  0.0000E+00  0.1067E+01
     22.061  0.0000E+00  0.1067E+01
     22.158  0.0000E+00  0.1067E+01
     22.255  0.0000E+00  0.1067E+01
     22.351  0.0000E+00  0.1067E+01
     22.448  0.0000E+00  0.1067E+01
     22.545  0.0000E+00  0.1067E+01
