       N       E                     dE             d eps       ncg     rms          rms(c)
DAV:   1    -0.101679589448E+02   -0.10168E+02   -0.25537E-06   224   0.142E-02    0.475E-04
DAV:   2    -0.101679589638E+02   -0.19080E-07   -0.11938E-07   224   0.257E-03
   1 F= -.10167959E+02 E0= -.10162216E+02  d E =-.101680E+02
