 vasp.5.4.4.18Apr17-6-g9f103f2a35 (build Dec 09 2018 21:25:21) complex          
  
 executed on IFC18.0.1.163_CrayMP date 2019.03.18  04:28:50
 running on    8 total cores
 distrk:  each k-point on    8 cores,    1 groups
 distr:  one band on NCORES_PER_BAND=   1 cores,    8 groups


--------------------------------------------------------------------------------------------------------


 INCAR:
 POTCAR:   PAW_PBE Si 05Jan2001                   

 ----------------------------------------------------------------------------- 
|                                                                             |
|           W    W    AA    RRRRR   N    N  II  N    N   GGGG   !!!           |
|           W    W   A  A   R    R  NN   N  II  NN   N  G    G  !!!           |
|           W    W  A    A  R    R  N N  N  II  N N  N  G       !!!           |
|           W WW W  AAAAAA  RRRRR   N  N N  II  N  N N  G  GGG   !            |
|           WW  WW  A    A  R   R   N   NN  II  N   NN  G    G                |
|           W    W  A    A  R    R  N    N  II  N    N   GGGG   !!!           |
|                                                                             |
|      For optimal performance we recommend to set                            |
|        NCORE= 4 - approx SQRT( number of cores)                             |
|      NCORE specifies how many cores store one orbital (NPAR=cpu/NCORE).     |
|      This setting can  greatly improve the performance of VASP for DFT.     |
|      The default,   NCORE=1            might be grossly inefficient         |
|      on modern multi-core architectures or massively parallel machines.     |
|      Do your own testing !!!!                                               |
|      Unfortunately you need to use the default for GW and RPA calculations. |
|      (for HF NCORE is supported but not extensively tested yet)             |
|                                                                             |
 ----------------------------------------------------------------------------- 

 POTCAR:   PAW_PBE Si 05Jan2001                   
   VRHFIN =Si: s2p2                                                             
   LEXCH  = PE                                                                  
   EATOM  =   103.0669 eV,    7.5752 Ry                                         
                                                                                
   TITEL  = PAW_PBE Si 05Jan2001                                                
   LULTRA =        F    use ultrasoft PP ?                                      
   IUNSCR =        1    unscreen: 0-lin 1-nonlin 2-no                           
   RPACOR =    1.500    partial core radius                                     
   POMASS =   28.085; ZVAL   =    4.000    mass and valenz                      
   RCORE  =    1.900    outmost cutoff radius                                   
   RWIGS  =    2.480; RWIGS  =    1.312    wigner-seitz radius (au A)           
   ENMAX  =  245.345; ENMIN  =  184.009 eV                                      
   ICORE  =        2    local potential                                         
   LCOR   =        T    correct aug charges                                     
   LPAW   =        T    paw PP                                                  
   EAUG   =  322.069                                                            
   DEXC   =    -.007                                                            
   RMAX   =    2.944    core radius for proj-oper                               
   RAUG   =    1.300    factor for augmentation sphere                          
   RDEP   =    1.993    radius for radial grids                                 
   QCUT   =   -4.246; QGAM   =    8.493    optimization parameters              
                                                                                
   Description                                                                  
     l     E      TYP  RCUT    TYP  RCUT                                        
     0   .000     23  1.900                                                     
     0   .000     23  1.900                                                     
     1   .000     23  1.900                                                     
     1   .000     23  1.900                                                     
     2   .000      7  1.900                                                     
  local pseudopotential read in
  partial core-charges read in
  atomic valenz-charges read in
  non local Contribution for L=           0  read in
    real space projection operators read in
  non local Contribution for L=           0  read in
    real space projection operators read in
  non local Contribution for L=           1  read in
    real space projection operators read in
  non local Contribution for L=           1  read in
    real space projection operators read in
    PAW grid and wavefunctions read in
 
   number of l-projection  operators is LMAX  =           4
   number of lm-projection operators is LMMAX =           8
 
 PAW_PBE Si 05Jan2001                   :
 energy of atom  1       EATOM= -103.0669
 kinetic energy error for atom=    0.0210 (will be added to EATOM!!)
 
 
 POSCAR: Si2                                     
  positions in direct lattice
  No initial velocities read in
 exchange correlation table for  LEXCH =        8
   RHO(1)=    0.500       N(1)  =     2000
   RHO(2)=  100.500       N(2)  =     4000
 


--------------------------------------------------------------------------------------------------------


 ion  position               nearest neighbor table
   1  0.250  0.750  0.500-   2 2.53   2 2.53   2 2.53   2 2.53   2 3.11   2 3.11   2 3.11   2 3.11

   2  0.000  0.000  0.000-   1 2.53   1 2.53   1 2.53   1 2.53   1 3.11   1 3.11   1 3.11   1 3.11

 
  LATTYP: Found a body centered tetragonal cell.
 ALAT       =     4.9000000000
 C/A-ratio  =     0.5200000000
  
  Lattice vectors:
  
 A1 = (  -2.4500000000,   2.4500000000,   1.2740000000)
 A2 = (   2.4500000000,  -2.4500000000,   1.2740000000)
 A3 = (   2.4500000000,   2.4500000000,  -1.2740000000)


Analysis of symmetry for initial positions (statically):
=====================================================================
 Subroutine PRICEL returns:
 Original cell was already a primitive cell.
 

 Routine SETGRP: Setting up the symmetry group for a 
 body centered tetragonal supercell.


 Subroutine GETGRP returns: Found 16 space group operations
 (whereof  8 operations were pure point group operations)
 out of a pool of 16 trial point group operations.


The static configuration has the point symmetry D_2d.
 The point group associated with its full space group is D_4h.


Analysis of symmetry for dynamics (positions and initial velocities):
=====================================================================
 Subroutine PRICEL returns:
 Original cell was already a primitive cell.
 

 Routine SETGRP: Setting up the symmetry group for a 
 body centered tetragonal supercell.


 Subroutine GETGRP returns: Found 16 space group operations
 (whereof  8 operations were pure point group operations)
 out of a pool of 16 trial point group operations.


The dynamic configuration has the point symmetry D_2d.
 The point group associated with its full space group is D_4h.


 Subroutine INISYM returns: Found 16 space group operations
 (whereof  8 operations are pure point group operations),
 and found     1 'primitive' translations

 
 
 KPOINTS: Automatic kpoint scheme                 

Automatic generation of k-mesh.
Space group operators:
 irot       det(A)        alpha          n_x          n_y          n_z        tau_x        tau_y        tau_z
    1     1.000000     0.000000     1.000000     0.000000     0.000000     0.000000     0.000000     0.000000
    2    -1.000000    90.000000    -0.000000    -0.000000    -1.000000     0.000000     0.000000     0.000000
    3     1.000000   180.000000    -0.000000    -0.000000    -1.000000     0.000000     0.000000     0.000000
    4    -1.000000    90.000000    -0.000000     0.000000     1.000000     0.000000     0.000000     0.000000
    5    -1.000000   180.000000     0.000000    -1.000000     0.000000     0.000000     0.000000     0.000000
    6     1.000000   180.000000     0.707107     0.707107    -0.000000     0.000000     0.000000     0.000000
    7    -1.000000   180.000000     1.000000     0.000000     0.000000     0.000000     0.000000     0.000000
    8     1.000000   180.000000     0.707107    -0.707107     0.000000     0.000000     0.000000     0.000000
    9    -1.000000     0.000000     1.000000     0.000000     0.000000     0.250000     0.750000     0.500000
   10     1.000000    90.000000    -0.000000    -0.000000    -1.000000     0.250000     0.750000     0.500000
   11    -1.000000   180.000000    -0.000000    -0.000000    -1.000000     0.250000     0.750000     0.500000
   12     1.000000    90.000000    -0.000000     0.000000     1.000000     0.250000     0.750000     0.500000
   13     1.000000   180.000000     0.000000    -1.000000     0.000000     0.250000     0.750000     0.500000
   14    -1.000000   180.000000     0.707107     0.707107    -0.000000     0.250000     0.750000     0.500000
   15     1.000000   180.000000     1.000000     0.000000     0.000000     0.250000     0.750000     0.500000
   16    -1.000000   180.000000     0.707107    -0.707107     0.000000     0.250000     0.750000     0.500000
 
 Subroutine IBZKPT returns following result:
 ===========================================
 
 Found     28 irreducible k-points:
 
 Following reciprocal coordinates:
            Coordinates               Weight
  0.083333  0.083333  0.083333    128.000000
  0.250000  0.083333  0.083333    256.000000
  0.416667  0.083333  0.083333    128.000000
 -0.083333  0.083333  0.083333     64.000000
  0.250000  0.250000  0.083333    128.000000
  0.416667  0.250000  0.083333    256.000000
 -0.416667  0.250000  0.083333    128.000000
 -0.250000  0.250000  0.083333    128.000000
 -0.083333  0.250000  0.083333    128.000000
  0.416667  0.416667  0.083333     64.000000
 -0.416667  0.416667  0.083333    128.000000
 -0.250000  0.416667  0.083333    256.000000
 -0.083333  0.416667  0.083333    128.000000
 -0.416667 -0.416667  0.083333    128.000000
 -0.250000 -0.416667  0.083333    256.000000
 -0.083333 -0.416667  0.083333    128.000000
 -0.250000 -0.250000  0.083333    128.000000
 -0.083333 -0.250000  0.083333    128.000000
 -0.083333 -0.083333  0.083333     32.000000
  0.250000  0.250000  0.250000     32.000000
 -0.250000  0.250000  0.250000     64.000000
 -0.416667  0.416667  0.250000    128.000000
 -0.250000  0.416667  0.250000    128.000000
 -0.416667 -0.416667  0.250000    128.000000
 -0.250000 -0.416667  0.250000    128.000000
 -0.250000 -0.250000  0.250000     32.000000
 -0.416667  0.416667  0.416667     64.000000
 -0.416667 -0.416667  0.416667     32.000000
 
 Following cartesian coordinates:
            Coordinates               Weight
  0.034014  0.034014  0.065411    128.000000
  0.034014  0.068027  0.130822    256.000000
  0.034014  0.102041  0.196232    128.000000
  0.034014  0.000000 -0.000000     64.000000
  0.068027  0.068027  0.196232    128.000000
  0.068027  0.102041  0.261643    256.000000
  0.068027 -0.068027 -0.065411    128.000000
  0.068027 -0.034014  0.000000    128.000000
  0.068027  0.000000  0.065411    128.000000
  0.102041  0.102041  0.327054     64.000000
  0.102041 -0.068027 -0.000000    128.000000
  0.102041 -0.034014  0.065411    256.000000
  0.102041  0.000000  0.130822    128.000000
 -0.068027 -0.068027 -0.327054    128.000000
 -0.068027 -0.034014 -0.261643    256.000000
 -0.068027  0.000000 -0.196232    128.000000
 -0.034014 -0.034014 -0.196232    128.000000
 -0.034014  0.000000 -0.130822    128.000000
 -0.000000  0.000000 -0.065411     32.000000
  0.102041  0.102041  0.196232     32.000000
  0.102041  0.000000  0.000000     64.000000
  0.136054 -0.034014 -0.000000    128.000000
  0.136054  0.000000  0.065411    128.000000
 -0.034014 -0.034014 -0.327054    128.000000
 -0.034014  0.000000 -0.261643    128.000000
 -0.000000  0.000000 -0.196232     32.000000
  0.170068  0.000000 -0.000000     64.000000
  0.000000  0.000000 -0.327054     32.000000
 


--------------------------------------------------------------------------------------------------------




 Dimension of arrays:
   k-points           NKPTS =     28   k-points in BZ     NKDIM =     28   number of bands    NBANDS=      8
   number of dos      NEDOS =    301   number of ions     NIONS =      2
   non local maximal  LDIM  =      4   non local SUM 2l+1 LMDIM =      8
   total plane-waves  NPLWV =   1728
   max r-space proj   IRMAX =      1   max aug-charges    IRDMAX=   2088
   dimension x,y,z NGX =    12 NGY =   12 NGZ =   12
   dimension x,y,z NGXF=    24 NGYF=   24 NGZF=   24
   support grid    NGXF=    24 NGYF=   24 NGZF=   24
   ions per type =               2
   NGX,Y,Z   is equivalent  to a cutoff of   5.40,  5.40,  5.40 a.u.
   NGXF,Y,Z  is equivalent  to a cutoff of  10.81, 10.81, 10.81 a.u.

 SYSTEM =  unknown system                          
 POSCAR =  Si2                                     

 Startparameter for this run:
   NWRITE =      2    write-flag & timer
   PREC   = normal    normal or accurate (medium, high low for compatibility)
   ISTART =      0    job   : 0-new  1-cont  2-samecut
   ICHARG =      2    charge: 1-file 2-atom 10-const
   ISPIN  =      1    spin polarized calculation?
   LNONCOLLINEAR =      F non collinear calculations
   LSORBIT =      F    spin-orbit coupling
   INIWAV =      1    electr: 0-lowe 1-rand  2-diag
   LASPH  =      F    aspherical Exc in radial PAW
   METAGGA=      F    non-selfconsistent MetaGGA calc.

 Electronic Relaxation 1
   ENCUT  =  150.0 eV  11.02 Ry    3.32 a.u.   3.69  3.69  3.69*2*pi/ulx,y,z
   ENINI  =  150.0     initial cutoff
   ENAUG  =  322.1 eV  augmentation charge cutoff
   NELM   =     60;   NELMIN=  2; NELMDL=  0     # of ELM steps 
   EDIFF  = 0.4E-03   stopping-criterion for ELM
   LREAL  =      F    real-space projection
   NLSPLINE    = F    spline interpolate recip. space projectors
   LCOMPAT=      F    compatible to vasp.4.4
   GGA_COMPAT  = T    GGA compatible to vasp.4.4-vasp.4.6
   LMAXPAW     = -100 max onsite density
   LMAXMIX     =    2 max onsite mixed and CHGCAR
   VOSKOWN=      0    Vosko Wilk Nusair interpolation
   ROPT   =    0.00000
 Ionic relaxation
   EDIFFG = -.1E-01   stopping-criterion for IOM
   NSW    =     15    number of steps for IOM
   NBLOCK =      1;   KBLOCK =     15    inner block; outer block 
   IBRION =      2    ionic relax: 0-MD 1-quasi-New 2-CG
   NFREE  =      1    steps in history (QN), initial steepest desc. (CG)
   ISIF   =      2    stress and relaxation
   IWAVPR =     11    prediction:  0-non 1-charg 2-wave 3-comb
   ISYM   =      2    0-nonsym 1-usesym 2-fastsym
   LCORR  =      T    Harris-Foulkes like correction to forces

   POTIM  = 0.5000    time-step for ionic-motion
   TEIN   =    0.0    initial temperature
   TEBEG  =    0.0;   TEEND  =   0.0 temperature during run
   SMASS  =  -3.00    Nose mass-parameter (am)
   estimated Nose-frequenzy (Omega)   =  0.10E-29 period in steps =****** mass=  -0.311E-27a.u.
   SCALEE = 1.0000    scale energy and forces
   NPACO  =    256;   APACO  = 16.0  distance and # of slots for P.C.
   PSTRESS=    0.0 pullay stress

  Mass of Ions in am
   POMASS =  28.09
  Ionic Valenz
   ZVAL   =   4.00
  Atomic Wigner-Seitz radii
   RWIGS  =  -1.00
  virtual crystal weights 
   VCA    =   1.00
   NELECT =       8.0000    total number of electrons
   NUPDOWN=      -1.0000    fix difference up-down

 DOS related values:
   EMIN   =  10.00;   EMAX   =-10.00  energy-range for DOS
   EFERMI =   0.00
   ISMEAR =     0;   SIGMA  =   0.20  broadening in eV -4-tet -1-fermi 0-gaus

 Electronic relaxation 2 (details)
   IALGO  =     38    algorithm
   LDIAG  =      T    sub-space diagonalisation (order eigenvalues)
   LSUBROT=      F    optimize rotation matrix (better conditioning)
   TURBO    =      0    0=normal 1=particle mesh
   IRESTART =      0    0=no restart 2=restart with 2 vectors
   NREBOOT  =      0    no. of reboots
   NMIN     =      0    reboot dimension
   EREF     =   0.00    reference energy to select bands
   IMIX   =      4    mixing-type and parameters
     AMIX     =   0.40;   BMIX     =  1.00
     AMIX_MAG =   1.60;   BMIX_MAG =  1.00
     AMIN     =   0.10
     WC   =   100.;   INIMIX=   1;  MIXPRE=   1;  MAXMIX= -45

 Intra band minimization:
   WEIMIN = 0.0010     energy-eigenvalue tresh-hold
   EBREAK =  0.13E-04  absolut break condition
   DEPER  =   0.30     relativ break condition  

   TIME   =   0.40     timestep for ELM

  volume/ion in A,a.u.               =      15.29       103.21
  Fermi-wavevector in a.u.,A,eV,Ry     =   1.046930  1.978411 14.912834  1.096062
  Thomas-Fermi vector in A             =   2.181789
 
 Write flags
   LWAVE        =      T    write WAVECAR
   LDOWNSAMPLE  =      F    k-point downsampling of WAVECAR
   LCHARG       =      T    write CHGCAR
   LVTOT        =      F    write LOCPOT, total local potential
   LVHAR        =      F    write LOCPOT, Hartree potential only
   LELF         =      F    write electronic localiz. function (ELF)
   LORBIT       =      0    0 simple, 1 ext, 2 COOP (PROOUT), +10 PAW based schemes


 Dipole corrections
   LMONO  =      F    monopole corrections only (constant potential shift)
   LDIPOL =      F    correct potential (dipole corrections)
   IDIPOL =      0    1-x, 2-y, 3-z, 4-all directions 
   EPSILON=  1.0000000 bulk dielectric constant

 Exchange correlation treatment:
   GGA     =    --    GGA type
   LEXCH   =     8    internal setting for exchange type
   VOSKOWN=      0    Vosko Wilk Nusair interpolation
   LHFCALC =     F    Hartree Fock is set to
   LHFONE  =     F    Hartree Fock one center treatment
   AEXX    =    0.0000 exact exchange contribution

 Linear response parameters
   LEPSILON=     F    determine dielectric tensor
   LRPA    =     F    only Hartree local field effects (RPA)
   LNABLA  =     F    use nabla operator in PAW spheres
   LVEL    =     F    velocity operator in full k-point grid
   LINTERFAST=   F  fast interpolation
   KINTER  =     0    interpolate to denser k-point grid
   CSHIFT  =0.1000    complex shift for real part using Kramers Kronig
   OMEGAMAX=  -1.0    maximum frequency
   DEG_THRESHOLD= 0.2000000E-02 threshold for treating states as degnerate
   RTIME   =   -0.100 relaxation time in fs
  (WPLASMAI=    0.000 imaginary part of plasma frequency in eV, 0.658/RTIME)
   DFIELD  = 0.0000000 0.0000000 0.0000000 field for delta impulse in time
 
 Orbital magnetization related:
   ORBITALMAG=     F  switch on orbital magnetization
   LCHIMAG   =     F  perturbation theory with respect to B field
   DQ        =  0.001000  dq finite difference perturbation B field
   LLRAUG    =     F  two centre corrections for induced B field



--------------------------------------------------------------------------------------------------------


 conjugate gradient relaxation of ions
 charge density and potential will be updated during run
 non-spin polarized calculation
 Variant of blocked Davidson
 Davidson routine will perform the subspace rotation
 perform sub-space diagonalisation
    after iterative eigenvector-optimisation
 modified Broyden-mixing scheme, WC =      100.0
 initial mixing is a Kerker type mixing with AMIX =  0.4000 and BMIX =      1.0000
 Hartree-type preconditioning will be used
 using additional bands            4
 reciprocal scheme for non local part
 use partial core corrections
 calculate Harris-corrections to forces 
   (improved forces if not selfconsistent)
 use gradient corrections 
 use of overlap-Matrix (Vanderbilt PP)
 Gauss-broadening in eV      SIGMA  =   0.20


--------------------------------------------------------------------------------------------------------


  energy-cutoff  :      150.00
  volume of cell :       30.59
      direct lattice vectors                 reciprocal lattice vectors
    -2.450000000  2.450000000  1.274000000     0.000000000  0.204081633  0.392464678
     2.450000000 -2.450000000  1.274000000     0.204081633  0.000000000  0.392464678
     2.450000000  2.450000000 -1.274000000     0.204081633  0.204081633 -0.000000000

  length of vectors
     3.691622408  3.691622408  3.691622408     0.442354876  0.442354876  0.288615013


 
 k-points in units of 2pi/SCALE and weight: Automatic kpoint scheme                 
   0.03401361  0.03401361  0.06541078       0.037
   0.03401361  0.06802721  0.13082156       0.074
   0.03401361  0.10204082  0.19623234       0.037
   0.03401361 -0.00000000 -0.00000000       0.019
   0.06802721  0.06802721  0.19623234       0.037
   0.06802721  0.10204082  0.26164312       0.074
   0.06802721 -0.06802721 -0.06541078       0.037
   0.06802721 -0.03401361 -0.00000000       0.037
   0.06802721  0.00000000  0.06541078       0.037
   0.10204082  0.10204082  0.32705390       0.019
   0.10204082 -0.06802721 -0.00000000       0.037
   0.10204082 -0.03401361  0.06541078       0.074
   0.10204082  0.00000000  0.13082156       0.037
  -0.06802721 -0.06802721 -0.32705390       0.037
  -0.06802721 -0.03401361 -0.26164312       0.074
  -0.06802721 -0.00000000 -0.19623234       0.037
  -0.03401361 -0.03401361 -0.19623234       0.037
  -0.03401361 -0.00000000 -0.13082156       0.037
   0.00000000  0.00000000 -0.06541078       0.009
   0.10204082  0.10204082  0.19623234       0.009
   0.10204082  0.00000000 -0.00000000       0.019
   0.13605442 -0.03401361 -0.00000000       0.037
   0.13605442  0.00000000  0.06541078       0.037
  -0.03401361 -0.03401361 -0.32705390       0.037
  -0.03401361  0.00000000 -0.26164312       0.037
   0.00000000  0.00000000 -0.19623234       0.009
   0.17006803  0.00000000 -0.00000000       0.019
  -0.00000000 -0.00000000 -0.32705390       0.009
 
 k-points in reciprocal lattice and weights: Automatic kpoint scheme                 
   0.08333333  0.08333333  0.08333333       0.037
   0.25000000  0.08333333  0.08333333       0.074
   0.41666667  0.08333333  0.08333333       0.037
  -0.08333333  0.08333333  0.08333333       0.019
   0.25000000  0.25000000  0.08333333       0.037
   0.41666667  0.25000000  0.08333333       0.074
  -0.41666667  0.25000000  0.08333333       0.037
  -0.25000000  0.25000000  0.08333333       0.037
  -0.08333333  0.25000000  0.08333333       0.037
   0.41666667  0.41666667  0.08333333       0.019
  -0.41666667  0.41666667  0.08333333       0.037
  -0.25000000  0.41666667  0.08333333       0.074
  -0.08333333  0.41666667  0.08333333       0.037
  -0.41666667 -0.41666667  0.08333333       0.037
  -0.25000000 -0.41666667  0.08333333       0.074
  -0.08333333 -0.41666667  0.08333333       0.037
  -0.25000000 -0.25000000  0.08333333       0.037
  -0.08333333 -0.25000000  0.08333333       0.037
  -0.08333333 -0.08333333  0.08333333       0.009
   0.25000000  0.25000000  0.25000000       0.009
  -0.25000000  0.25000000  0.25000000       0.019
  -0.41666667  0.41666667  0.25000000       0.037
  -0.25000000  0.41666667  0.25000000       0.037
  -0.41666667 -0.41666667  0.25000000       0.037
  -0.25000000 -0.41666667  0.25000000       0.037
  -0.25000000 -0.25000000  0.25000000       0.009
  -0.41666667  0.41666667  0.41666667       0.019
  -0.41666667 -0.41666667  0.41666667       0.009
 
 position of ions in fractional coordinates (direct lattice) 
   0.25000000  0.75000000  0.50000000
   0.00000000  0.00000000  0.00000000
 
 position of ions in cartesian coordinates  (Angst):
   2.45000000  0.00000000  0.63700000
   0.00000000  0.00000000  0.00000000
 


--------------------------------------------------------------------------------------------------------


 k-point  1 :   0.0833 0.0833 0.0833  plane waves:     131
 k-point  2 :   0.2500 0.0833 0.0833  plane waves:     131
 k-point  3 :   0.4167 0.0833 0.0833  plane waves:     124
 k-point  4 :  -0.0833 0.0833 0.0833  plane waves:     131
 k-point  5 :   0.2500 0.2500 0.0833  plane waves:     126
 k-point  6 :   0.4167 0.2500 0.0833  plane waves:     129
 k-point  7 :  -0.4167 0.2500 0.0833  plane waves:     128
 k-point  8 :  -0.2500 0.2500 0.0833  plane waves:     134
 k-point  9 :  -0.0833 0.2500 0.0833  plane waves:     129
 k-point 10 :   0.4167 0.4167 0.0833  plane waves:     130
 k-point 11 :  -0.4167 0.4167 0.0833  plane waves:     130
 k-point 12 :  -0.2500 0.4167 0.0833  plane waves:     130
 k-point 13 :  -0.0833 0.4167 0.0833  plane waves:     130
 k-point 14 :  -0.4167-0.4167 0.0833  plane waves:     128
 k-point 15 :  -0.2500-0.4167 0.0833  plane waves:     125
 k-point 16 :  -0.0833-0.4167 0.0833  plane waves:     124
 k-point 17 :  -0.2500-0.2500 0.0833  plane waves:     123
 k-point 18 :  -0.0833-0.2500 0.0833  plane waves:     126
 k-point 19 :  -0.0833-0.0833 0.0833  plane waves:     131
 k-point 20 :   0.2500 0.2500 0.2500  plane waves:     132
 k-point 21 :  -0.2500 0.2500 0.2500  plane waves:     123
 k-point 22 :  -0.4167 0.4167 0.2500  plane waves:     131
 k-point 23 :  -0.2500 0.4167 0.2500  plane waves:     131
 k-point 24 :  -0.4167-0.4167 0.2500  plane waves:     131
 k-point 25 :  -0.2500-0.4167 0.2500  plane waves:     121
 k-point 26 :  -0.2500-0.2500 0.2500  plane waves:     115
 k-point 27 :  -0.4167 0.4167 0.4167  plane waves:     131
 k-point 28 :  -0.4167-0.4167 0.4167  plane waves:     126

 maximum and minimum number of plane-waves per node :       134      115

 maximum number of plane-waves:       134
 maximum index in each direction: 
   IXMAX=    4   IYMAX=    4   IZMAX=    3
   IXMIN=   -4   IYMIN=   -4   IZMIN=   -4


 serial   3D FFT for wavefunctions
 parallel 3D FFT for charge:
    minimum data exchange during FFTs selected (reduces bandwidth)


 total amount of memory used by VASP MPI-rank0    30546. kBytes
=======================================================================

   base      :      30000. kBytes
   nonl-proj :        248. kBytes
   fftplans  :         66. kBytes
   grid      :        158. kBytes
   one-center:          6. kBytes
   wavefun   :         68. kBytes
 
     INWAV:  cpu time    0.0000: real time    0.0011
 Broyden mixing: mesh for mixing (old mesh)
   NGX =  7   NGY =  7   NGZ =  7
  (NGX  = 24   NGY  = 24   NGZ  = 24)
  gives a total of    343 points

 initial charge density was supplied:
 charge density of overlapping atoms calculated
 number of electron       8.0000000 magnetization 
 keeping initial charge density in first step


--------------------------------------------------------------------------------------------------------


 Maximum index for augmentation-charges          241 (set IRDMAX)


--------------------------------------------------------------------------------------------------------


 First call to EWALD:  gamma=   0.567
 Maximum number of real-space cells 4x 4x 3
 Maximum number of reciprocal cells 3x 3x 3

    FEWALD:  cpu time    0.0040: real time    0.0120


--------------------------------------- Iteration      1(   1)  ---------------------------------------


    POTLOK:  cpu time    0.0240: real time    0.0419
    SETDIJ:  cpu time    0.0080: real time    0.0087
     EDDAV:  cpu time    0.2160: real time    0.2298
       DOS:  cpu time    0.0040: real time    0.0024
    --------------------------------------------
      LOOP:  cpu time    0.2520: real time    0.2836

 eigenvalue-minimisations  :   480
 total energy-change (2. order) :-0.5083330E+01  (-0.1780054E+03)
 number of electron       8.0000000 magnetization 
 augmentation part        8.0000000 magnetization 

 Free energy of the ion-electron system (eV)
  ---------------------------------------------------
  alpha Z        PSCENC =         4.40202223
  Ewald energy   TEWEN  =      -265.18101312
  -Hartree energ DENC   =        -2.30415367
  -exchange      EXHF   =         0.00000000
  -V(xc)+E(xc)   XCENC  =       -17.81530915
  PAW double counting   =        65.95520812      -30.76852678
  entropy T*S    EENTRO =        -0.00578699
  eigenvalues    EBANDS =        34.54239339
  atomic energy  EATOM  =       206.09183643
  Solvation  Ediel_sol  =         0.00000000
  ---------------------------------------------------
  free energy    TOTEN  =        -5.08332954 eV

  energy without entropy =       -5.07754256  energy(sigma->0) =       -5.08043605


--------------------------------------------------------------------------------------------------------




--------------------------------------- Iteration      1(   2)  ---------------------------------------


     EDDAV:  cpu time    0.3080: real time    0.3281
       DOS:  cpu time    0.0040: real time    0.0044
    --------------------------------------------
      LOOP:  cpu time    0.3120: real time    0.3330

 eigenvalue-minimisations  :   672
 total energy-change (2. order) :-0.5056945E+01  (-0.4978595E+01)
 number of electron       8.0000000 magnetization 
 augmentation part        8.0000000 magnetization 

 Free energy of the ion-electron system (eV)
  ---------------------------------------------------
  alpha Z        PSCENC =         4.40202223
  Ewald energy   TEWEN  =      -265.18101312
  -Hartree energ DENC   =        -2.30415367
  -exchange      EXHF   =         0.00000000
  -V(xc)+E(xc)   XCENC  =       -17.81530915
  PAW double counting   =        65.95520812      -30.76852678
  entropy T*S    EENTRO =        -0.01123378
  eigenvalues    EBANDS =        29.49089489
  atomic energy  EATOM  =       206.09183643
  Solvation  Ediel_sol  =         0.00000000
  ---------------------------------------------------
  free energy    TOTEN  =       -10.14027483 eV

  energy without entropy =      -10.12904105  energy(sigma->0) =      -10.13465794


--------------------------------------------------------------------------------------------------------




--------------------------------------- Iteration      1(   3)  ---------------------------------------


     EDDAV:  cpu time    0.2440: real time    0.2784
       DOS:  cpu time    0.0000: real time    0.0024
    --------------------------------------------
      LOOP:  cpu time    0.2440: real time    0.2807

 eigenvalue-minimisations  :   536
 total energy-change (2. order) :-0.4294461E-01  (-0.4288872E-01)
 number of electron       8.0000000 magnetization 
 augmentation part        8.0000000 magnetization 

 Free energy of the ion-electron system (eV)
  ---------------------------------------------------
  alpha Z        PSCENC =         4.40202223
  Ewald energy   TEWEN  =      -265.18101312
  -Hartree energ DENC   =        -2.30415367
  -exchange      EXHF   =         0.00000000
  -V(xc)+E(xc)   XCENC  =       -17.81530915
  PAW double counting   =        65.95520812      -30.76852678
  entropy T*S    EENTRO =        -0.01143497
  eigenvalues    EBANDS =        29.44815147
  atomic energy  EATOM  =       206.09183643
  Solvation  Ediel_sol  =         0.00000000
  ---------------------------------------------------
  free energy    TOTEN  =       -10.18321944 eV

  energy without entropy =      -10.17178447  energy(sigma->0) =      -10.17750196


--------------------------------------------------------------------------------------------------------




--------------------------------------- Iteration      1(   4)  ---------------------------------------


     EDDAV:  cpu time    0.3040: real time    0.3134
       DOS:  cpu time    0.0040: real time    0.0022
    --------------------------------------------
      LOOP:  cpu time    0.3080: real time    0.3200

 eigenvalue-minimisations  :   656
 total energy-change (2. order) :-0.7696241E-04  (-0.7696211E-04)
 number of electron       8.0000000 magnetization 
 augmentation part        8.0000000 magnetization 

 Free energy of the ion-electron system (eV)
  ---------------------------------------------------
  alpha Z        PSCENC =         4.40202223
  Ewald energy   TEWEN  =      -265.18101312
  -Hartree energ DENC   =        -2.30415367
  -exchange      EXHF   =         0.00000000
  -V(xc)+E(xc)   XCENC  =       -17.81530915
  PAW double counting   =        65.95520812      -30.76852678
  entropy T*S    EENTRO =        -0.01143599
  eigenvalues    EBANDS =        29.44807553
  atomic energy  EATOM  =       206.09183643
  Solvation  Ediel_sol  =         0.00000000
  ---------------------------------------------------
  free energy    TOTEN  =       -10.18329640 eV

  energy without entropy =      -10.17186041  energy(sigma->0) =      -10.17757841


--------------------------------------------------------------------------------------------------------




--------------------------------------- Iteration      1(   5)  ---------------------------------------


     EDDAV:  cpu time    0.2360: real time    0.2606
       DOS:  cpu time    0.0000: real time    0.0022
    CHARGE:  cpu time    0.0080: real time    0.0111
    MIXING:  cpu time    0.0040: real time    0.0020
    --------------------------------------------
      LOOP:  cpu time    0.2480: real time    0.2747

 eigenvalue-minimisations  :   512
 total energy-change (2. order) :-0.1894038E-06  (-0.1897561E-06)
 number of electron       8.0000045 magnetization 
 augmentation part       -0.4633760 magnetization 

 Broyden mixing:
  rms(total) = 0.15144E+00    rms(broyden)= 0.15133E+00
  rms(prec ) = 0.34041E+00
  weight for this iteration     100.00

 Free energy of the ion-electron system (eV)
  ---------------------------------------------------
  alpha Z        PSCENC =         4.40202223
  Ewald energy   TEWEN  =      -265.18101312
  -Hartree energ DENC   =        -2.30415367
  -exchange      EXHF   =         0.00000000
  -V(xc)+E(xc)   XCENC  =       -17.81530915
  PAW double counting   =        65.95520812      -30.76852678
  entropy T*S    EENTRO =        -0.01143599
  eigenvalues    EBANDS =        29.44807534
  atomic energy  EATOM  =       206.09183643
  Solvation  Ediel_sol  =         0.00000000
  ---------------------------------------------------
  free energy    TOTEN  =       -10.18329659 eV

  energy without entropy =      -10.17186060  energy(sigma->0) =      -10.17757860


--------------------------------------------------------------------------------------------------------




--------------------------------------- Iteration      1(   6)  ---------------------------------------


    POTLOK:  cpu time    0.0160: real time    0.0633
    SETDIJ:  cpu time    0.0080: real time    0.0083
     EDDAV:  cpu time    0.2400: real time    0.2421
       DOS:  cpu time    0.0000: real time    0.0052
    CHARGE:  cpu time    0.0080: real time    0.0171
    MIXING:  cpu time    0.0000: real time    0.0022
    --------------------------------------------
      LOOP:  cpu time    0.2760: real time    0.3369

 eigenvalue-minimisations  :   544
 total energy-change (2. order) : 0.8607738E-02  (-0.1818365E-03)
 number of electron       8.0000045 magnetization 
 augmentation part       -0.4650033 magnetization 

 Broyden mixing:
  rms(total) = 0.94585E-01    rms(broyden)= 0.94579E-01
  rms(prec ) = 0.21295E+00
  weight for this iteration     100.00

 eigenvalues of (default mixing * dielectric matrix)
  average eigenvalue GAMMA=   2.6614
  2.6614

 Free energy of the ion-electron system (eV)
  ---------------------------------------------------
  alpha Z        PSCENC =         4.40202223
  Ewald energy   TEWEN  =      -265.18101312
  -Hartree energ DENC   =        -2.33448677
  -exchange      EXHF   =         0.00000000
  -V(xc)+E(xc)   XCENC  =       -17.71692269
  PAW double counting   =        68.45986758      -33.31405739
  entropy T*S    EENTRO =        -0.01145723
  eigenvalues    EBANDS =        29.42952210
  atomic energy  EATOM  =       206.09183643
  Solvation  Ediel_sol  =         0.00000000
  ---------------------------------------------------
  free energy    TOTEN  =       -10.17468886 eV

  energy without entropy =      -10.16323162  energy(sigma->0) =      -10.16896024


--------------------------------------------------------------------------------------------------------




--------------------------------------- Iteration      1(   7)  ---------------------------------------


    POTLOK:  cpu time    0.0160: real time    0.0541
    SETDIJ:  cpu time    0.0080: real time    0.0083
     EDDAV:  cpu time    0.2040: real time    0.2050
       DOS:  cpu time    0.0040: real time    0.0059
    CHARGE:  cpu time    0.0080: real time    0.0073
    MIXING:  cpu time    0.0000: real time    0.0029
    --------------------------------------------
      LOOP:  cpu time    0.2360: real time    0.2826

 eigenvalue-minimisations  :   480
 total energy-change (2. order) : 0.6708867E-02  (-0.5147331E-03)
 number of electron       8.0000045 magnetization 
 augmentation part       -0.4680719 magnetization 

 Broyden mixing:
  rms(total) = 0.35307E-02    rms(broyden)= 0.35132E-02
  rms(prec ) = 0.92153E-02
  weight for this iteration     100.00

 eigenvalues of (default mixing * dielectric matrix)
  average eigenvalue GAMMA=   2.5352
  2.5352  2.5352

 Free energy of the ion-electron system (eV)
  ---------------------------------------------------
  alpha Z        PSCENC =         4.40202223
  Ewald energy   TEWEN  =      -265.18101312
  -Hartree energ DENC   =        -2.48650852
  -exchange      EXHF   =         0.00000000
  -V(xc)+E(xc)   XCENC  =       -17.53769437
  PAW double counting   =        72.51622009      -37.44092900
  entropy T*S    EENTRO =        -0.01148785
  eigenvalues    EBANDS =        29.47957412
  atomic energy  EATOM  =       206.09183643
  Solvation  Ediel_sol  =         0.00000000
  ---------------------------------------------------
  free energy    TOTEN  =       -10.16797999 eV

  energy without entropy =      -10.15649213  energy(sigma->0) =      -10.16223606


--------------------------------------------------------------------------------------------------------




--------------------------------------- Iteration      1(   8)  ---------------------------------------


    POTLOK:  cpu time    0.0160: real time    0.0457
    SETDIJ:  cpu time    0.0080: real time    0.0082
     EDDAV:  cpu time    0.1120: real time    0.1134
       DOS:  cpu time    0.0040: real time    0.0026
    --------------------------------------------
      LOOP:  cpu time    0.1400: real time    0.1684

 eigenvalue-minimisations  :   232
 total energy-change (2. order) : 0.2165229E-04  (-0.6987149E-05)
 number of electron       8.0000045 magnetization 
 augmentation part       -0.4680719 magnetization 

 Free energy of the ion-electron system (eV)
  ---------------------------------------------------
  alpha Z        PSCENC =         4.40202223
  Ewald energy   TEWEN  =      -265.18101312
  -Hartree energ DENC   =        -2.50718893
  -exchange      EXHF   =         0.00000000
  -V(xc)+E(xc)   XCENC  =       -17.53724831
  PAW double counting   =        72.34426757      -37.27010372
  entropy T*S    EENTRO =        -0.01148516
  eigenvalues    EBANDS =        29.50095466
  atomic energy  EATOM  =       206.09183643
  Solvation  Ediel_sol  =         0.00000000
  ---------------------------------------------------
  free energy    TOTEN  =       -10.16795834 eV

  energy without entropy =      -10.15647317  energy(sigma->0) =      -10.16221575


--------------------------------------------------------------------------------------------------------




 average (electrostatic) potential at core
  the test charge radii are     0.9892
  (the norm of the test charge is              1.0000)
       1 -80.5648       2 -80.5648
 
 
 
 E-fermi :   9.2067     XC(G=0): -10.8940     alpha+bet :-15.6819


 k-point     1 :       0.0833    0.0833    0.0833
  band No.  band energies     occupation 
      1      -3.6672      2.00000
      2       3.9220      2.00000
      3       7.1418      2.00000
      4       8.6731      1.99984
      5      12.9470      0.00000
      6      13.8057      0.00000
      7      14.0373      0.00000
      8      15.8587      0.00000

 k-point     2 :       0.2500    0.0833    0.0833
  band No.  band energies     occupation 
      1      -1.3406      2.00000
      2       4.2948      2.00000
      3       7.5183      2.00000
      4       8.0071      2.00000
      5       9.7795      0.00005
      6      12.3559      0.00000
      7      13.6491      0.00000
      8      14.4145      0.00000

 k-point     3 :       0.4167    0.0833    0.0833
  band No.  band energies     occupation 
      1       2.2050      2.00000
      2       2.7471      2.00000
      3       6.0455      2.00000
      4       6.1391      2.00000
      5       9.6074      0.00461
      6      11.4630      0.00000
      7      13.6943      0.00000
      8      14.6338      0.00000

 k-point     4 :      -0.0833    0.0833    0.0833
  band No.  band energies     occupation 
      1      -4.4501      2.00000
      2       4.5174      2.00000
      3       5.7098      2.00000
      4       8.2680      2.00000
      5      11.5735      0.00000
      6      14.4334      0.00000
      7      17.5161      0.00000
      8      18.3406      0.00000

 k-point     5 :       0.2500    0.2500    0.0833
  band No.  band energies     occupation 
      1       2.1083      2.00000
      2       4.0093      2.00000
      3       4.1111      2.00000
      4       5.8677      2.00000
      5      11.0297      0.00000
      6      12.2801      0.00000
      7      13.9117      0.00000
      8      14.3629      0.00000

 k-point     6 :       0.4167    0.2500    0.0833
  band No.  band energies     occupation 
      1      -0.0476      2.00000
      2       1.8577      2.00000
      3       7.0244      2.00000
      4       8.3347      2.00000
      5      10.0202      0.00000
      6      11.8493      0.00000
      7      13.6189      0.00000
      8      15.2655      0.00000

 k-point     7 :      -0.4167    0.2500    0.0833
  band No.  band energies     occupation 
      1      -2.6817      2.00000
      2       1.1750      2.00000
      3       8.0506      2.00000
      4       9.8841      0.00000
      5      11.5115      0.00000
      6      13.0021      0.00000
      7      14.1736      0.00000
      8      14.3640      0.00000

 k-point     8 :      -0.2500    0.2500    0.0833
  band No.  band energies     occupation 
      1      -3.7903      2.00000
      2       1.9532      2.00000
      3       5.9793      2.00000
      4       9.8782      0.00000
      5      11.5180      0.00000
      6      14.6126      0.00000
      7      15.4173      0.00000
      8      18.9597      0.00000

 k-point     9 :      -0.0833    0.2500    0.0833
  band No.  band energies     occupation 
      1      -3.3386      2.00000
      2       3.6656      2.00000
      3       5.1986      2.00000
      4      10.7282      0.00000
      5      11.8703      0.00000
      6      13.3077      0.00000
      7      14.1431      0.00000
      8      15.9879      0.00000

 k-point    10 :       0.4167    0.4167    0.0833
  band No.  band energies     occupation 
      1      -1.0567      2.00000
      2      -1.0567      2.00000
      3       9.5219      0.02582
      4       9.5219      0.02582
      5      11.4227      0.00000
      6      11.4228      0.00000
      7      13.7844      0.00000
      8      13.7845      0.00000

 k-point    11 :      -0.4167    0.4167    0.0833
  band No.  band energies     occupation 
      1      -2.4799      2.00000
      2      -0.5442      2.00000
      3       7.2084      2.00000
      4       9.0758      1.64515
      5      11.3048      0.00000
      6      13.1490      0.00000
      7      18.3462      0.00000
      8      18.5838      0.00000

 k-point    12 :      -0.2500    0.4167    0.0833
  band No.  band energies     occupation 
      1      -2.3584      2.00000
      2       1.4383      2.00000
      3       5.5943      2.00000
      4       9.2222      0.91286
      5      11.4352      0.00000
      6      13.5309      0.00000
      7      15.6169      0.00000
      8      16.8158      0.00000

 k-point    13 :      -0.0833    0.4167    0.0833
  band No.  band energies     occupation 
      1      -0.6964      2.00000
      2       4.2736      2.00000
      3       5.9080      2.00000
      4       6.5046      2.00000
      5      10.1195      0.00000
      6      12.3505      0.00000
      7      13.4510      0.00000
      8      15.4339      0.00000

 k-point    14 :      -0.4167   -0.4167    0.0833
  band No.  band energies     occupation 
      1      -0.7487      2.00000
      2      -0.7434      2.00000
      3       7.0899      2.00000
      4       7.1096      2.00000
      5      11.3438      0.00000
      6      14.5684      0.00000
      7      15.3477      0.00000
      8      15.4663      0.00000

 k-point    15 :      -0.2500   -0.4167    0.0833
  band No.  band energies     occupation 
      1       0.5776      2.00000
      2       2.4179      2.00000
      3       5.8321      2.00000
      4       6.5917      2.00000
      5       8.2800      2.00000
      6      11.9085      0.00000
      7      15.5089      0.00000
      8      17.0528      0.00000

 k-point    16 :      -0.0833   -0.4167    0.0833
  band No.  band energies     occupation 
      1       1.4850      2.00000
      2       3.4529      2.00000
      3       6.3905      2.00000
      4       7.6337      2.00000
      5       8.2145      2.00000
      6      10.9183      0.00000
      7      11.6983      0.00000
      8      15.7577      0.00000

 k-point    17 :      -0.2500   -0.2500    0.0833
  band No.  band energies     occupation 
      1       1.1790      2.00000
      2       4.9021      2.00000
      3       4.9473      2.00000
      4       7.7490      2.00000
      5       8.7498      1.99876
      6      10.3427      0.00000
      7      12.7657      0.00000
      8      13.5487      0.00000

 k-point    18 :      -0.0833   -0.2500    0.0833
  band No.  band energies     occupation 
      1      -1.9915      2.00000
      2       6.7283      2.00000
      3       7.7448      2.00000
      4       8.5246      2.00000
      5       9.9208      0.00000
      6      11.1497      0.00000
      7      12.4876      0.00000
      8      13.6577      0.00000

 k-point    19 :      -0.0833   -0.0833    0.0833
  band No.  band energies     occupation 
      1      -3.9971      2.00000
      2       6.7775      2.00000
      3       6.8382      2.00000
      4       6.8382      2.00000
      5      11.2850      0.00000
      6      14.5857      0.00000
      7      14.8719      0.00000
      8      16.7831      0.00000

 k-point    20 :       0.2500    0.2500    0.2500
  band No.  band energies     occupation 
      1       3.4136      2.00000
      2       3.4136      2.00000
      3       4.0750      2.00000
      4       4.0750      2.00000
      5      13.2878      0.00000
      6      13.2878      0.00000
      7      15.0696      0.00000
      8      15.0696      0.00000

 k-point    21 :      -0.2500    0.2500    0.2500
  band No.  band energies     occupation 
      1      -3.1363      2.00000
      2       1.9432      2.00000
      3       3.6442      2.00000
      4       8.5960      1.99998
      5      12.9610      0.00000
      6      16.2115      0.00000
      7      17.4212      0.00000
      8      18.3316      0.00000

 k-point    22 :      -0.4167    0.4167    0.2500
  band No.  band energies     occupation 
      1      -1.8445      2.00000
      2       0.0295      2.00000
      3       4.2897      2.00000
      4       6.1179      2.00000
      5      14.8388      0.00000
      6      16.3104      0.00000
      7      17.8905      0.00000
      8      18.2441      0.00000

 k-point    23 :      -0.2500    0.4167    0.2500
  band No.  band energies     occupation 
      1      -1.3975      2.00000
      2       1.7256      2.00000
      3       3.4833      2.00000
      4       6.5306      2.00000
      5      10.8886      0.00000
      6      16.5764      0.00000
      7      17.5612      0.00000
      8      18.5245      0.00000

 k-point    24 :      -0.4167   -0.4167    0.2500
  band No.  band energies     occupation 
      1       0.1420      2.00000
      2       0.1519      2.00000
      3       4.4133      2.00000
      4       4.4144      2.00000
      5      10.6265      0.00000
      6      17.7452      0.00000
      7      18.3364      0.00000
      8      19.0789      0.00000

 k-point    25 :      -0.2500   -0.4167    0.2500
  band No.  band energies     occupation 
      1       1.7767      2.00000
      2       2.9984      2.00000
      3       4.7675      2.00000
      4       5.2790      2.00000
      5       6.0354      2.00000
      6      14.0238      0.00000
      7      15.4958      0.00000
      8      17.3708      0.00000

 k-point    26 :      -0.2500   -0.2500    0.2500
  band No.  band energies     occupation 
      1       0.8642      2.00000
      2       5.7912      2.00000
      3       5.8842      2.00000
      4       7.3014      2.00000
      5       7.3015      2.00000
      6      11.5957      0.00000
      7      12.3920      0.00000
      8      12.3920      0.00000

 k-point    27 :      -0.4167    0.4167    0.4167
  band No.  band energies     occupation 
      1      -0.6231      2.00000
      2       0.6308      2.00000
      3       2.4450      2.00000
      4       3.6809      2.00000
      5      16.3157      0.00000
      6      16.5325      0.00000
      7      19.4291      0.00000
      8      20.5447      0.00000

 k-point    28 :      -0.4167   -0.4167    0.4167
  band No.  band energies     occupation 
      1       1.0628      2.00000
      2       1.0796      2.00000
      3       2.8784      2.00000
      4       2.8784      2.00000
      5      10.3535      0.00000
      6      19.2835      0.00000
      7      20.4307      0.00000
      8      20.4307      0.00000


--------------------------------------------------------------------------------------------------------


 soft charge-density along one line, spin component           1
         0         1         2         3         4         5         6         7         8         9
 total charge-density along one line
 
 pseudopotential strength for first ion, spin component:           1
 18.070  -0.003   0.000  -0.000  -0.000  -0.000   0.000   0.000
 -0.003   0.005  -0.000   0.000   0.000   0.000  -0.000  -0.000
  0.000  -0.000   4.118   0.000   0.000  -0.006  -0.000  -0.000
 -0.000   0.000   0.000   4.119   0.000  -0.000  -0.006  -0.000
 -0.000   0.000   0.000   0.000   4.118  -0.000  -0.000  -0.006
 -0.000   0.000  -0.006  -0.000  -0.000   0.005   0.000   0.000
  0.000  -0.000  -0.000  -0.006  -0.000   0.000   0.005   0.000
  0.000  -0.000  -0.000  -0.000  -0.006   0.000   0.000   0.005
 total augmentation occupancy for first ion, spin component:           1
  1.610  -0.695   0.000   0.000   0.000   0.000   0.000   0.000
 -0.695   1.093  -0.000   0.000   0.000   0.000   0.000  -0.000
 -0.000   0.000   0.886   0.000  -0.000  -0.807   0.000   0.000
  0.000   0.000   0.000   0.841   0.000   0.000  -0.811   0.000
 -0.000   0.000  -0.000   0.000   0.886   0.000  -0.000  -0.807
 -0.000  -0.000  -0.807   0.000   0.000   0.823   0.000  -0.000
  0.000   0.000   0.000  -0.811  -0.000   0.000   0.871  -0.000
  0.000  -0.000   0.000   0.000  -0.807  -0.000  -0.000   0.823


------------------------ aborting loop because EDIFF is reached ----------------------------------------


    CHARGE:  cpu time    0.0040: real time    0.0069
    FORLOC:  cpu time    0.0000: real time    0.0004
    FORNL :  cpu time    0.0040: real time    0.0059
    STRESS:  cpu time    0.0440: real time    0.0417
    FORCOR:  cpu time    0.0080: real time    0.0094
    FORHAR:  cpu time    0.0000: real time    0.0052
    MIXING:  cpu time    0.0000: real time    0.0008
    OFIELD:  cpu time    0.0000: real time    0.0004

  FORCE on cell =-STRESS in cart. coord.  units (eV):
  Direction    XX          YY          ZZ          XY          YZ          ZX
  --------------------------------------------------------------------------------------
  Alpha Z     4.40202     4.40202     4.40202
  Ewald     -90.96023   -90.96023   -83.26083    -0.00000     0.00000     0.00000
  Hartree     0.55777     0.55777     1.39649     0.00000    -0.00000    -0.00000
  E(xc)     -25.42198   -25.42198   -25.38648     0.00012     0.00006     0.00006
  Local     -11.22556   -11.22556   -17.72052    -0.00004    -0.00012    -0.00012
  n-local    77.11407    77.14820    77.00918     1.08353    -0.56255    -0.42653
  augment   -11.95755   -11.95755   -11.82633     0.00008     0.00008     0.00008
  Kinetic    57.01388    57.80645    55.58840     1.98624    -1.12007    -3.32234
  Fock        0.00000     0.00000     0.00000     0.00000     0.00000     0.00000
  -------------------------------------------------------------------------------------
  Total      -0.06423    -0.06423     0.20194    -0.00000     0.00000    -0.00000
  in kB      -3.36400    -3.36400    10.57696    -0.00000     0.00000    -0.00000
  external pressure =        1.28 kB  Pullay stress =        0.00 kB


 VOLUME and BASIS-vectors are now :
 -----------------------------------------------------------------------------
  energy-cutoff  :      150.00
  volume of cell :       30.59
      direct lattice vectors                 reciprocal lattice vectors
    -2.450000000  2.450000000  1.274000000     0.000000000  0.204081633  0.392464678
     2.450000000 -2.450000000  1.274000000     0.204081633  0.000000000  0.392464678
     2.450000000  2.450000000 -1.274000000     0.204081633  0.204081633 -0.000000000

  length of vectors
     3.691622408  3.691622408  3.691622408     0.442354876  0.442354876  0.288615013


 FORCES acting on ions
    electron-ion (+dipol)            ewald-force                    non-local-force                 convergence-correction
 -----------------------------------------------------------------------------------------------
   -.276E-04 0.276E-04 -.138E-14   0.198E-14 0.156E-15 0.342E-17   0.115E-15 -.149E-15 -.915E-17   -.355E-06 0.355E-06 0.148E-15
   0.276E-04 -.276E-04 -.669E-14   -.185E-14 0.943E-16 0.891E-15   -.129E-15 0.142E-15 0.952E-17   0.355E-06 -.355E-06 -.199E-15
 -----------------------------------------------------------------------------------------------
   -.521E-14 0.156E-14 -.807E-14   0.139E-15 0.250E-15 0.894E-15   -.135E-16 -.659E-17 0.375E-18   0.704E-16 -.116E-16 -.507E-16
 
 
 POSITION                                       TOTAL-FORCE (eV/Angst)
 -----------------------------------------------------------------------------------
      2.45000      0.00000      0.63700        -0.000000      0.000000      0.000000
      0.00000      0.00000      0.00000         0.000000     -0.000000     -0.000000
 -----------------------------------------------------------------------------------
    total drift:                               -0.000000      0.000000     -0.000000


--------------------------------------------------------------------------------------------------------



  FREE ENERGIE OF THE ION-ELECTRON SYSTEM (eV)
  ---------------------------------------------------
  free  energy   TOTEN  =       -10.16795834 eV

  energy  without entropy=      -10.15647317  energy(sigma->0) =      -10.16221575
 


--------------------------------------------------------------------------------------------------------


    POTLOK:  cpu time    0.0280: real time    0.0763


--------------------------------------------------------------------------------------------------------




--------------------------------------------------------------------------------------------------------


  
 reached required accuracy - stopping structural energy minimisation
 writing wavefunctions
     LOOP+:  cpu time    2.5160: real time    3.6541
    4ORBIT:  cpu time    0.0000: real time    0.0000

 total amount of memory used by VASP MPI-rank0    30546. kBytes
=======================================================================

   base      :      30000. kBytes
   nonl-proj :        248. kBytes
   fftplans  :         66. kBytes
   grid      :        158. kBytes
   one-center:          6. kBytes
   wavefun   :         68. kBytes
 
  
  
 General timing and accounting informations for this job:
 ========================================================
  
                  Total CPU time used (sec):        6.472
                            User time (sec):        4.900
                          System time (sec):        1.572
                         Elapsed time (sec):        9.256
  
                   Maximum memory used (kb):        9124.
                   Average memory used (kb):           0.
  
                          Minor page faults:        37952
                          Major page faults:           28
                 Voluntary context switches:        17300
