unknown system                          
   1.00000000000000     
     0.000000    2.762255    2.762255
     2.762255    0.000000    2.762255
     2.762255    2.762255    0.000000
   Si
     2
Direct
  0.500000  0.500000  0.500000
  0.750000  0.750000  0.750000
 
   36   36   36
 0.82667845887E+00 0.84218358067E+00 0.88978574292E+00 0.97259509456E+00 0.10953662658E+01
 0.12639855101E+01 0.14849234901E+01 0.17646364971E+01 0.21087309300E+01 0.25206151020E+01
 0.29994756201E+01 0.35377606230E+01 0.41188114302E+01 0.47156174309E+01 0.52916268271E+01
 0.58040499506E+01 0.62093253312E+01 0.64697074591E+01 0.65595310462E+01 0.64696992487E+01
 0.62093160206E+01 0.58040557323E+01 0.52916662227E+01 0.47156946251E+01 0.41189062436E+01
 0.35378387585E+01 0.29995116938E+01 0.25206077253E+01 0.21086984629E+01 0.17646013600E+01
 0.14848994226E+01 0.12639749788E+01 0.10953652138E+01 0.97259836496E+00 0.88978967404E+00
 0.84218605445E+00 0.84218358067E+00 0.86922599756E+00 0.92506244944E+00 0.10129948696E+01
 0.11374948829E+01 0.13037203251E+01 0.15169609156E+01 0.17819620939E+01 0.21019861809E+01
 0.24774695844E+01 0.29042883832E+01 0.33719257517E+01 0.38621240617E+01 0.43487367019E+01
 0.47993379530E+01 0.51786960810E+01 0.54536202168E+01 0.55981940843E+01 0.55981949092E+01
 0.54536240995E+01 0.51787098821E+01 0.47993727905E+01 0.43487948110E+01 0.38621877623E+01
 0.33719666211E+01 0.29042895457E+01 0.24774369170E+01 0.21019396943E+01 0.17819211475E+01
 0.15169361232E+01 0.13037124101E+01 0.11374968767E+01 0.10129973756E+01 0.92506035091E+00
 0.86922110965E+00 0.84218107503E+00 0.88978574292E+00 0.92506244944E+00 0.98619901754E+00
 0.10764452240E+01 0.11998359868E+01 0.13607277436E+01 0.15632257561E+01 0.18104462851E+01
 0.21035364610E+01 0.24404378330E+01 0.28145341808E+01 0.32135107905E+01 0.36188811511E+01
 0.40066286937E+01 0.43492192398E+01 0.46188803227E+01 0.47916196793E+01 0.48511283365E+01
 0.47916234529E+01 0.46188904919E+01 0.43492397238E+01 0.40066578713E+01 0.36189057023E+01
 0.32135121817E+01 0.28145046242E+01 0.24403874472E+01 0.21034842109E+01 0.18104073173E+01
 0.15632068221E+01 0.13607279377E+01 0.11998470881E+01 0.10764545992E+01 0.98619781923E+00
 0.92505226548E+00 0.88977631284E+00 0.87826518111E+00 0.97259509456E+00 0.10129948696E+01
 0.10764452240E+01 0.11660239959E+01 0.12852766919E+01 0.14377571239E+01 0.16264353461E+01
 0.18529368003E+01 0.21166058399E+01 0.24134736791E+01 0.27353301437E+01 0.30691906214E+01
 0.33974653229E+01 0.36990609409E+01 0.39514732673E+01 0.41336698287E+01 0.42292641562E+01
 0.42292639864E+01 0.41336709500E+01 0.39514773537E+01 0.36990641314E+01 0.33974580010E+01
 0.30691649495E+01 0.27352881582E+01 0.24134269566E+01 0.21165676296E+01 0.18529155875E+01
 0.16264339574E+01 0.14377731506E+01 0.12853013072E+01 0.11660437888E+01 0.10764499972E+01
 0.10129850600E+01 0.97258103041E+00 0.95298126467E+00 0.95298764492E+00 0.10953662658E+01
 0.11374948829E+01 0.11998359868E+01 0.12852766919E+01 0.13968897645E+01 0.15374698628E+01
 0.17089418171E+01 0.19116391881E+01 0.21434998923E+01 0.23992996074E+01 0.26701171918E+01
 0.29432546043E+01 0.32027949709E+01 0.34308915921E+01 0.36097463657E+01 0.37240428872E+01
 0.37633715234E+01 0.37240397513E+01 0.36097413667E+01 0.34308819754E+01 0.32027746473E+01
 0.29432227983E+01 0.26700828993E+01 0.23992748501E+01 0.21434910894E+01 0.19116466903E+01
 0.17089639143E+01 0.15375027927E+01 0.13969247862E+01 0.12853019349E+01 0.11998437170E+01
 0.11374867320E+01 0.10953515066E+01 0.10710969553E+01 0.10631937378E+01 0.10711076458E+01
 0.12639855101E+01 0.13037203251E+01 0.13607277436E+01 0.14377571239E+01 0.15374698628E+01
 0.16619811681E+01 0.18123127708E+01 0.19877807694E+01 0.21853829973E+01 0.23992995399E+01
 0.26206630180E+01 0.28377574408E+01 0.30367559573E+01 0.32030273069E+01 0.33229251598E+01
 0.33858016144E+01 0.33858001440E+01 0.33229206411E+01 0.32030178723E+01 0.30367385910E+01
 0.28377345400E+01 0.26206454167E+01 0.23992984860E+01 0.21854007973E+01 0.19878120352E+01
 0.18123514297E+01 0.16620216494E+01 0.15375039495E+01 0.14377761722E+01 0.13607292681E+01
 0.13037097183E+01 0.12639712122E+01 0.12390521809E+01 0.12270954936E+01 0.12270996802E+01
 0.12390634105E+01 0.14849234901E+01 0.15169609156E+01 0.15632257561E+01 0.16264353461E+01
 0.17089418171E+01 0.18123127708E+01 0.19368823547E+01 0.20812967379E+01 0.22421040316E+01
 0.24134736618E+01 0.25871634723E+01 0.27528564330E+01 0.28989509340E+01 0.30138110455E+01
 0.30873550345E+01 0.31126885086E+01 0.30873550888E+01 0.30138083350E+01 0.28989428087E+01
 0.27528454186E+01 0.25871585976E+01 0.24134839910E+01 0.22421309403E+01 0.20813340341E+01
 0.19369219869E+01 0.18123470460E+01 0.17089624373E+01 0.16264368557E+01 0.15632114635E+01
 0.15169416027E+01 0.14849085961E+01 0.14644130846E+01 0.14531565784E+01 0.14495881790E+01
 0.14531596873E+01 0.14644211095E+01 0.17646364971E+01 0.17819620939E+01 0.18104462851E+01
 0.18529368003E+01 0.19116391881E+01 0.19877807694E+01 0.20812967379E+01 0.21905421790E+01
 0.23120564904E+01 0.24404380438E+01 0.25684234691E+01 0.26872828976E+01 0.27876105392E+01
 0.28604934193E+01 0.28988894646E+01 0.28988920386E+01 0.28604982680E+01 0.27876128099E+01
 0.26872821770E+01 0.25684246670E+01 0.24404464120E+01 0.23120734457E+01 0.21905653534E+01
 0.20813210421E+01 0.19877979379E+01 0.19116396096E+01 0.18529165315E+01 0.18104128724E+01
 0.17819308076E+01 0.17646189747E+01 0.17553496654E+01 0.17511568976E+01 0.17497047980E+01
 0.17497025916E+01 0.17511533905E+01 0.17553528604E+01 0.21087309300E+01 0.21019861809E+01
 0.21035364610E+01 0.21166058399E+01 0.21434998923E+01 0.21853829973E+01 0.22421040316E+01
 0.23120564904E+01 0.23920840001E+01 0.24774698261E+01 0.25620916012E+01 0.26388498387E+01
 0.27004381025E+01 0.27403997580E+01 0.27542593561E+01 0.27404092052E+01 0.27004506683E+01
 0.26388598181E+01 0.25620972516E+01 0.24774707011E+01 0.23920801581E+01 0.23120507187E+01
 0.22420993325E+01 0.21853756782E+01 0.21434801729E+01 0.21165690921E+01 0.21034913855E+01
 0.21019492776E+01 0.21087137349E+01 0.21199456211E+01 0.21316617712E+01 0.21403324933E+01
 0.21435108693E+01 0.21403224077E+01 0.21316495963E+01 0.21199433708E+01 0.25206151020E+01
 0.24774695844E+01 0.24404378330E+01 0.24134736791E+01 0.23992996074E+01 0.23992995399E+01
 0.24134736618E+01 0.24404380438E+01 0.24774698261E+01 0.25206151999E+01 0.25649223411E+01
 0.26048930542E+01 0.26351958212E+01 0.26515500634E+01 0.26515579637E+01 0.26352151749E+01
 0.26049139424E+01 0.25649341021E+01 0.25206090324E+01 0.24774426849E+01 0.24403971349E+01
 0.24134322030E+01 0.23992638824E+01 0.23992645802E+01 0.24134338579E+01 0.24403989536E+01
 0.24774442189E+01 0.25206100768E+01 0.25649344046E+01 0.26049134916E+01 0.26352144201E+01
 0.26515573143E+01 0.26515494690E+01 0.26351951639E+01 0.26048925471E+01 0.25649221558E+01
 0.29994756201E+01 0.29042883832E+01 0.28145341808E+01 0.27353301437E+01 0.26701171918E+01
 0.26206630180E+01 0.25871634723E+01 0.25684234691E+01 0.25620916012E+01 0.25649223411E+01
 0.25730904969E+01 0.25826275633E+01 0.25900042852E+01 0.25927642861E+01 0.25900224794E+01
 0.25826544595E+01 0.25731086195E+01 0.25649124783E+01 0.25620446430E+01 0.25683496539E+01
 0.25870867962E+01 0.26206028040E+01 0.26700766924E+01 0.27353042216E+01 0.28145223784E+01
 0.29042942810E+01 0.29994973445E+01 0.30934901296E+01 0.31785613623E+01 0.32467428387E+01
 0.32909566562E+01 0.33062787314E+01 0.32909424135E+01 0.32467192110E+01 0.31785329657E+01
 0.30934611858E+01 0.35377606230E+01 0.33719257517E+01 0.32135107905E+01 0.30691906214E+01
 0.29432546043E+01 0.28377574408E+01 0.27528564330E+01 0.26872828976E+01 0.26388498387E+01
 0.26048930542E+01 0.25826275633E+01 0.25694840110E+01 0.25634660109E+01 0.25634758701E+01
 0.25695081587E+01 0.25826480080E+01 0.26048829967E+01 0.26387915309E+01 0.26871861417E+01
 0.27527549423E+01 0.28376839175E+01 0.29432210942E+01 0.30691915482E+01 0.32135371624E+01
 0.33719702000E+01 0.35378125263E+01 0.37020984129E+01 0.38540441274E+01 0.39819873723E+01
 0.40748121317E+01 0.41236831861E+01 0.41236803236E+01 0.40748032172E+01 0.39819698049E+01
 0.38540129288E+01 0.37020526452E+01 0.41188114302E+01 0.38621240617E+01 0.36188811511E+01
 0.33974653229E+01 0.32027949709E+01 0.30367559573E+01 0.28989509340E+01 0.27876105392E+01
 0.27004381025E+01 0.26351958212E+01 0.25900042852E+01 0.25634660109E+01 0.25547223767E+01
 0.25634812192E+01 0.25900209093E+01 0.26351857203E+01 0.27003760621E+01 0.27875023635E+01
 0.28988373009E+01 0.30366815834E+01 0.32027773411E+01 0.33974941485E+01 0.36189378785E+01
 0.38621929764E+01 0.41188779378E+01 0.43771377303E+01 0.46221745863E+01 0.48373934143E+01
 0.50061662785E+01 0.51140699800E+01 0.51512175180E+01 0.51140784732E+01 0.50061753446E+01
 0.48373907591E+01 0.46221496134E+01 0.43770879399E+01 0.47156174309E+01 0.43487367019E+01
 0.40066286937E+01 0.36990609409E+01 0.34308915921E+01 0.32030273069E+01 0.30138110455E+01
 0.28604934193E+01 0.27403997580E+01 0.26515500634E+01 0.25927642861E+01 0.25634758701E+01
 0.25634812192E+01 0.25927723942E+01 0.26515364911E+01 0.27403362172E+01 0.28603800837E+01
 0.30136915927E+01 0.32029570323E+01 0.34308912734E+01 0.36991096883E+01 0.40066949340E+01
 0.43488014770E+01 0.47156711756E+01 0.50923456232E+01 0.54592304322E+01 0.57935378422E+01
 0.60715144761E+01 0.62712608032E+01 0.63757990754E+01 0.63758098395E+01 0.62712872221E+01
 0.60715426736E+01 0.57935530669E+01 0.54592222409E+01 0.50923116583E+01 0.52916268271E+01
 0.47993379530E+01 0.43492192398E+01 0.39514732673E+01 0.36097463657E+01 0.33229251598E+01
 0.30873550345E+01 0.28988894646E+01 0.27542593561E+01 0.26515579637E+01 0.25900224794E+01
 0.25695081587E+01 0.25900209093E+01 0.26515364911E+01 0.27541919947E+01 0.28987728481E+01
 0.30872313596E+01 0.33228564300E+01 0.36097577000E+01 0.39515333507E+01 0.43492796956E+01
 0.47993760828E+01 0.52916451105E+01 0.58084642704E+01 0.63251809574E+01 0.68118526630E+01
 0.72360611666E+01 0.75664453654E+01 0.77765847802E+01 0.78487288857E+01 0.77766048098E+01
 0.75664785768E+01 0.72360974528E+01 0.68118815748E+01 0.63251946986E+01 0.58084614319E+01
 0.58040499506E+01 0.51786960810E+01 0.46188803227E+01 0.41336698287E+01 0.37240428872E+01
 0.33858016144E+01 0.31126885086E+01 0.28988920386E+01 0.27404092052E+01 0.26352151749E+01
 0.25826544595E+01 0.25826480080E+01 0.26351857203E+01 0.27403362172E+01 0.28987728481E+01
 0.31125629264E+01 0.33857331493E+01 0.37240603384E+01 0.41337364123E+01 0.46189329451E+01
 0.51787049680E+01 0.58040282222E+01 0.64759091301E+01 0.71652856862E+01 0.78348728210E+01
 0.84425469545E+01 0.89456662522E+01 0.93058626487E+01 0.94939013661E+01 0.94939011084E+01
 0.93058653465E+01 0.89456791128E+01 0.84425729561E+01 0.78349062811E+01 0.71653193543E+01
 0.64759404718E+01 0.62093253312E+01 0.54536202168E+01 0.47916196793E+01 0.42292641562E+01
 0.37633715234E+01 0.33858001440E+01 0.30873550888E+01 0.28604982680E+01 0.27004506683E+01
 0.26049139424E+01 0.25731086195E+01 0.26048829967E+01 0.27003760621E+01 0.28603800837E+01
 0.30872313596E+01 0.33857331493E+01 0.37633923950E+01 0.42293354133E+01 0.47916693776E+01
 0.54536107082E+01 0.62092749030E+01 0.70404237570E+01 0.79153808132E+01 0.87905843302E+01
 0.96142891700E+01 0.10331509820E+02 0.10889618204E+02 0.11244410845E+02 0.11366161949E+02
 0.11244365901E+02 0.10889557783E+02 0.10331470528E+02 0.96142877979E+01 0.87906128600E+01
 0.79154266158E+01 0.70404802219E+01 0.64697074591E+01 0.55981940843E+01 0.48511283365E+01
 0.42292639864E+01 0.37240397513E+01 0.33229206411E+01 0.30138083350E+01 0.27876128099E+01
 0.26388598181E+01 0.25649341021E+01 0.25649124783E+01 0.26387915309E+01 0.27875023635E+01
 0.30136915927E+01 0.33228564300E+01 0.37240603384E+01 0.42293354133E+01 0.48511773275E+01
 0.55981778511E+01 0.64696444773E+01 0.74507763622E+01 0.85101482173E+01 0.96004634598E+01
 0.10662127954E+02 0.11628363446E+02 0.12431077223E+02 0.13007748002E+02 0.13309561840E+02
 0.13309505313E+02 0.13007607597E+02 0.12430922120E+02 0.11628257892E+02 0.10662092734E+02
 0.96004803452E+01 0.85101958387E+01 0.74508435535E+01 0.65595310462E+01 0.55981949092E+01
 0.47916234529E+01 0.41336709500E+01 0.36097413667E+01 0.32030178723E+01 0.28989428087E+01
 0.26872821770E+01 0.25620972516E+01 0.25206090324E+01 0.25620446430E+01 0.26871861417E+01
 0.28988373009E+01 0.32029570323E+01 0.36097577000E+01 0.41337364123E+01 0.47916693776E+01
 0.55981778511E+01 0.65594682393E+01 0.76669387033E+01 0.88929206923E+01 0.10190153993E+02
 0.11494760006E+02 0.12730983049E+02 0.13816439088E+02 0.14668632274E+02 0.15214466981E+02
 0.15402482377E+02 0.15214317583E+02 0.14668394782E+02 0.13816207263E+02 0.12730829778E+02
 0.11494698601E+02 0.10190155191E+02 0.88929587794E+01 0.76670022554E+01 0.64696992487E+01
 0.54536240995E+01 0.46188904919E+01 0.39514773537E+01 0.34308819754E+01 0.30367385910E+01
 0.27528454186E+01 0.25684246670E+01 0.24774707011E+01 0.24774426849E+01 0.25683496539E+01
 0.27527549423E+01 0.30366815834E+01 0.34308912734E+01 0.39515333507E+01 0.46189329451E+01
 0.54536107082E+01 0.64696444773E+01 0.76669387033E+01 0.90250824496E+01 0.10501160206E+02
 0.12031764053E+02 0.13537055727E+02 0.14924651815E+02 0.16093249752E+02 0.16938778784E+02
 0.17381964997E+02 0.17381888735E+02 0.16938571791E+02 0.16092977372E+02 0.14924402705E+02
 0.13536891930E+02 0.12031688234E+02 0.10501141435E+02 0.90251018914E+01 0.76669895301E+01
 0.62093160206E+01 0.51787098821E+01 0.43492397238E+01 0.36990641314E+01 0.32027746473E+01
 0.28377345400E+01 0.25871585976E+01 0.24404464120E+01 0.23920801581E+01 0.24403971349E+01
 0.25870867962E+01 0.28376839175E+01 0.32027773411E+01 0.36991096883E+01 0.43492796956E+01
 0.51787049680E+01 0.62092749030E+01 0.74507763622E+01 0.88929206923E+01 0.10501160206E+02
 0.12217428271E+02 0.13963571895E+02 0.15643878011E+02 0.17139628741E+02 0.18316987425E+02
 0.19069091573E+02 0.19327649936E+02 0.19068991684E+02 0.18316798039E+02 0.17139392439E+02
 0.15643661643E+02 0.13963421309E+02 0.12217343691E+02 0.10501121795E+02 0.88929216601E+01
 0.74508121345E+01 0.58040557323E+01 0.47993727905E+01 0.40066578713E+01 0.33974580010E+01
 0.29432227983E+01 0.26206454167E+01 0.24134839910E+01 0.23120734457E+01 0.23120507187E+01
 0.24134322030E+01 0.26206028040E+01 0.29432210942E+01 0.33974941485E+01 0.40066949340E+01
 0.47993760828E+01 0.58040282222E+01 0.70404237570E+01 0.85101482173E+01 0.10190153993E+02
 0.12031764053E+02 0.13963571895E+02 0.15893398008E+02 0.17693791273E+02 0.19207967289E+02
 0.20301558327E+02 0.20875309957E+02 0.20875294606E+02 0.20301495739E+02 0.19207836491E+02
 0.17693611086E+02 0.15893220407E+02 0.13963436321E+02 0.12031676292E+02 0.10190106080E+02
 0.85101395825E+01 0.70404479138E+01 0.52916662227E+01 0.43487948110E+01 0.36189057023E+01
 0.30691649495E+01 0.26700828993E+01 0.23992984860E+01 0.22421309403E+01 0.21905653534E+01
 0.22420993325E+01 0.23992638824E+01 0.26700766924E+01 0.30691915482E+01 0.36189378785E+01
 0.43488014770E+01 0.52916451105E+01 0.64759091301E+01 0.79153808132E+01 0.96004634598E+01
 0.11494760006E+02 0.13537055727E+02 0.15643878011E+02 0.17693791273E+02 0.19516310983E+02
 0.20953152693E+02 0.21874787656E+02 0.22192673985E+02 0.21874809296E+02 0.20953141065E+02
 0.19516222232E+02 0.17693642440E+02 0.15643723622E+02 0.13536934393E+02 0.11494678867E+02
 0.96004187658E+01 0.79153736436E+01 0.64759303717E+01 0.47156946251E+01 0.38621877623E+01
 0.32135121817E+01 0.27352881582E+01 0.23992748501E+01 0.21854007973E+01 0.20813340341E+01
 0.20813210421E+01 0.21853756782E+01 0.23992645802E+01 0.27353042216E+01 0.32135371624E+01
 0.38621929764E+01 0.47156711756E+01 0.58084642704E+01 0.71652856862E+01 0.87905843302E+01
 0.10662127954E+02 0.12730983049E+02 0.14924651815E+02 0.17139628741E+02 0.19207967289E+02
 0.20953152693E+02 0.22220776129E+02 0.22889242899E+02 0.22889282219E+02 0.22220846868E+02
 0.20953166575E+02 0.19207886633E+02 0.17139492279E+02 0.14924517976E+02 0.12730880097E+02
 0.10662057968E+02 0.87905493893E+01 0.71652900995E+01 0.58084939817E+01 0.41189062436E+01
 0.33719666211E+01 0.28145046242E+01 0.24134269566E+01 0.21434910894E+01 0.19878120352E+01
 0.19369219869E+01 0.19877979379E+01 0.21434801729E+01 0.24134338579E+01 0.28145223784E+01
 0.33719702000E+01 0.41188779378E+01 0.50923456232E+01 0.63251809574E+01 0.78348728210E+01
 0.96142891700E+01 0.11628363446E+02 0.13816439088E+02 0.16093249752E+02 0.18316987425E+02
 0.20301558327E+02 0.21874787656E+02 0.22889242899E+02 0.23240284414E+02 0.22889337623E+02
 0.21874882759E+02 0.20301567469E+02 0.18316908453E+02 0.16093137084E+02 0.13816333156E+02
 0.11628275540E+02 0.96142278707E+01 0.78348556878E+01 0.63252102563E+01 0.50923929349E+01
 0.35378387585E+01 0.29042895457E+01 0.24403874472E+01 0.21165676296E+01 0.19116466903E+01
 0.18123514297E+01 0.18123470460E+01 0.19116396096E+01 0.21165690921E+01 0.24403989536E+01
 0.29042942810E+01 0.35378125263E+01 0.43771377303E+01 0.54592304322E+01 0.68118526630E+01
 0.84425469545E+01 0.10331509820E+02 0.12431077223E+02 0.14668632274E+02 0.16938778784E+02
 0.19069091573E+02 0.20875309957E+02 0.22192673985E+02 0.22889282219E+02 0.22889337623E+02
 0.22192789712E+02 0.20875391977E+02 0.19069096066E+02 0.16938728687E+02 0.14668559266E+02
 0.12430992928E+02 0.10331430002E+02 0.84425058388E+01 0.68118744464E+01 0.54592957875E+01
 0.43771994446E+01 0.29995116938E+01 0.24774369170E+01 0.21034842109E+01 0.18529155875E+01
 0.17089639143E+01 0.16620216494E+01 0.17089624373E+01 0.18529165315E+01 0.21034913855E+01
 0.24774442189E+01 0.29994973445E+01 0.37020984129E+01 0.46221745863E+01 0.57935378422E+01
 0.72360611666E+01 0.89456662522E+01 0.10889618204E+02 0.13007748002E+02 0.15214466981E+02
 0.17381964997E+02 0.19327649936E+02 0.20875294606E+02 0.21874809296E+02 0.22220846868E+02
 0.21874882759E+02 0.20875391977E+02 0.19327723907E+02 0.17382001818E+02 0.15214465230E+02
 0.13007702074E+02 0.10889542773E+02 0.89456096234E+01 0.72360722901E+01 0.57936152100E+01
 0.46222670193E+01 0.37021564496E+01 0.25206077253E+01 0.21019396943E+01 0.18104073173E+01
 0.16264339574E+01 0.15375027927E+01 0.15375039495E+01 0.16264368557E+01 0.18104128724E+01
 0.21019492776E+01 0.25206100768E+01 0.30934901296E+01 0.38540441274E+01 0.48373934143E+01
 0.60715144761E+01 0.75664453654E+01 0.93058626487E+01 0.11244410845E+02 0.13309561840E+02
 0.15402482377E+02 0.17381888735E+02 0.19068991684E+02 0.20301495739E+02 0.20953141065E+02
 0.20953166575E+02 0.20301567469E+02 0.19069096066E+02 0.17382001818E+02 0.15402566099E+02
 0.13309579131E+02 0.11244363792E+02 0.93058056183E+01 0.75664471986E+01 0.60715960266E+01
 0.48375092385E+01 0.38541311311E+01 0.30935229566E+01 0.21086984629E+01 0.17819211475E+01
 0.15632068221E+01 0.14377731506E+01 0.13969247862E+01 0.14377761722E+01 0.15632114635E+01
 0.17819308076E+01 0.21087137349E+01 0.25649344046E+01 0.31785613623E+01 0.39819873723E+01
 0.50061662785E+01 0.62712608032E+01 0.77765847802E+01 0.94939013661E+01 0.11366161949E+02
 0.13309505313E+02 0.15214317583E+02 0.16938571791E+02 0.18316798039E+02 0.19207836491E+02
 0.19516222232E+02 0.19207886633E+02 0.18316908453E+02 0.16938728687E+02 0.15214465230E+02
 0.13309579131E+02 0.11366147340E+02 0.94938515722E+01 0.77765789427E+01 0.62713369630E+01
 0.50062912427E+01 0.39820937065E+01 0.31786084321E+01 0.25649331841E+01 0.17646013600E+01
 0.15169361232E+01 0.13607279377E+01 0.12853013072E+01 0.12853019349E+01 0.13607292681E+01
 0.15169416027E+01 0.17646189747E+01 0.21199456211E+01 0.26049134916E+01 0.32467428387E+01
 0.40748121317E+01 0.51140699800E+01 0.63757990754E+01 0.78487288857E+01 0.94939011084E+01
 0.11244365901E+02 0.13007607597E+02 0.14668394782E+02 0.16092977372E+02 0.17139392439E+02
 0.17693611086E+02 0.17693642440E+02 0.17139492279E+02 0.16093137084E+02 0.14668559266E+02
 0.13007702074E+02 0.11244363792E+02 0.94938515722E+01 0.78487139279E+01 0.63758640281E+01
 0.51141910887E+01 0.40749251930E+01 0.32467985383E+01 0.26049114414E+01 0.21199206879E+01
 0.14848994226E+01 0.13037124101E+01 0.11998470881E+01 0.11660437888E+01 0.11998437170E+01
 0.13037097183E+01 0.14849085961E+01 0.17553496654E+01 0.21316617712E+01 0.26352144201E+01
 0.32909566562E+01 0.41236831861E+01 0.51512175180E+01 0.63758098395E+01 0.77766048098E+01
 0.93058653465E+01 0.10889557783E+02 0.12430922120E+02 0.13816207263E+02 0.14924402705E+02
 0.15643661643E+02 0.15893220407E+02 0.15643723622E+02 0.14924517976E+02 0.13816333156E+02
 0.12430992928E+02 0.10889542773E+02 0.93058056183E+01 0.77765789427E+01 0.63758640281E+01
 0.51513319527E+01 0.41237974339E+01 0.32910186918E+01 0.26352141139E+01 0.21316286295E+01
 0.17553209288E+01 0.12639749788E+01 0.11374968767E+01 0.10764545992E+01 0.10764499972E+01
 0.11374867320E+01 0.12639712122E+01 0.14644130846E+01 0.17511568976E+01 0.21403324933E+01
 0.26515573143E+01 0.33062787314E+01 0.41236803236E+01 0.51140784732E+01 0.62712872221E+01
 0.75664785768E+01 0.89456791128E+01 0.10331470528E+02 0.11628257892E+02 0.12730829778E+02
 0.13536891930E+02 0.13963421309E+02 0.13963436321E+02 0.13536934393E+02 0.12730880097E+02
 0.11628275540E+02 0.10331430002E+02 0.89456096234E+01 0.75664471986E+01 0.62713369630E+01
 0.51141910887E+01 0.41237974339E+01 0.33063482203E+01 0.26515636470E+01 0.21402977607E+01
 0.17511185789E+01 0.14643959958E+01 0.10953652138E+01 0.10129973756E+01 0.98619781923E+00
 0.10129850600E+01 0.10953515066E+01 0.12390521809E+01 0.14531565784E+01 0.17497047980E+01
 0.21435108693E+01 0.26515494690E+01 0.32909424135E+01 0.40748032172E+01 0.50061753446E+01
 0.60715426736E+01 0.72360974528E+01 0.84425729561E+01 0.96142877979E+01 0.10662092734E+02
 0.11494698601E+02 0.12031688234E+02 0.12217343691E+02 0.12031676292E+02 0.11494678867E+02
 0.10662057968E+02 0.96142278707E+01 0.84425058388E+01 0.72360722901E+01 0.60715960266E+01
 0.50062912427E+01 0.40749251930E+01 0.32910186918E+01 0.26515636470E+01 0.21434805169E+01
 0.17496626558E+01 0.14531303293E+01 0.12390507765E+01 0.97259836496E+00 0.92506035091E+00
 0.92505226548E+00 0.97258103041E+00 0.10710969553E+01 0.12270954936E+01 0.14495881790E+01
 0.17497025916E+01 0.21403224077E+01 0.26351951639E+01 0.32467192110E+01 0.39819698049E+01
 0.48373907591E+01 0.57935530669E+01 0.68118815748E+01 0.78349062811E+01 0.87906128600E+01
 0.96004803452E+01 0.10190155191E+02 0.10501141435E+02 0.10501121795E+02 0.10190106080E+02
 0.96004187658E+01 0.87905493893E+01 0.78348556878E+01 0.68118744464E+01 0.57936152100E+01
 0.48375092385E+01 0.39820937065E+01 0.32467985383E+01 0.26352141139E+01 0.21402977607E+01
 0.17496626558E+01 0.14495570581E+01 0.12270860327E+01 0.10711076613E+01 0.88978967404E+00
 0.86922110965E+00 0.88977631284E+00 0.95298126467E+00 0.10631937378E+01 0.12270996802E+01
 0.14531596873E+01 0.17511533905E+01 0.21316495963E+01 0.26048925471E+01 0.31785329657E+01
 0.38540129288E+01 0.46221496134E+01 0.54592222409E+01 0.63251946986E+01 0.71653193543E+01
 0.79154266158E+01 0.85101958387E+01 0.88929587794E+01 0.90251018914E+01 0.88929216601E+01
 0.85101395825E+01 0.79153736436E+01 0.71652900995E+01 0.63252102563E+01 0.54592957875E+01
 0.46222670193E+01 0.38541311311E+01 0.31786084321E+01 0.26049114414E+01 0.21316286295E+01
 0.17511185789E+01 0.14531303293E+01 0.12270860327E+01 0.10631981324E+01 0.95299688429E+00
 0.84218605445E+00 0.84218107503E+00 0.87826518111E+00 0.95298764492E+00 0.10711076458E+01
 0.12390634105E+01 0.14644211095E+01 0.17553528604E+01 0.21199433708E+01 0.25649221558E+01
 0.30934611858E+01 0.37020526452E+01 0.43770879399E+01 0.50923116583E+01 0.58084614319E+01
 0.64759404718E+01 0.70404802219E+01 0.74508435535E+01 0.76670022554E+01 0.76669895301E+01
 0.74508121345E+01 0.70404479138E+01 0.64759303717E+01 0.58084939817E+01 0.50923929349E+01
 0.43771994446E+01 0.37021564496E+01 0.30935229566E+01 0.25649331841E+01 0.21199206879E+01
 0.17553209288E+01 0.14643959958E+01 0.12390507765E+01 0.10711076613E+01 0.95299688429E+00
 0.87827641365E+00 0.84218379803E+00 0.86922609550E+00 0.92506258840E+00 0.10129950409E+01
 0.11374949569E+01 0.13037203048E+01 0.15169609267E+01 0.17819621522E+01 0.21019862012E+01
 0.24774695960E+01 0.29042884949E+01 0.33719259064E+01 0.38621240472E+01 0.43487363934E+01
 0.47993373473E+01 0.51786951621E+01 0.54536190666E+01 0.55981931100E+01 0.55981946615E+01
 0.54536247668E+01 0.51787110929E+01 0.47993738768E+01 0.43487951123E+01 0.38621868302E+01
 0.33719645046E+01 0.29042869451E+01 0.24774348080E+01 0.21019386974E+01 0.17819213281E+01
 0.15169372547E+01 0.13037141478E+01 0.11374987409E+01 0.10129989114E+01 0.92506140984E+00
 0.86922181343E+00 0.84218152443E+00 0.86922609550E+00 0.90397980700E+00 0.96413067139E+00
 0.10527971189E+01 0.11738975038E+01 0.13317232580E+01 0.15303805362E+01 0.17730405524E+01
 0.20609323191E+01 0.23920837712E+01 0.27599695857E+01 0.31523988062E+01 0.35510881831E+01
 0.39323441209E+01 0.42690785517E+01 0.45340365895E+01 0.47037168171E+01 0.47621627362E+01
 0.47037198031E+01 0.45340457478E+01 0.42690989877E+01 0.39323762406E+01 0.35511209625E+01
 0.31524143283E+01 0.27599572216E+01 0.23920483669E+01 0.20608888023E+01 0.17730037255E+01
 0.15303594614E+01 0.13317193671E+01 0.11739039359E+01 0.10528023676E+01 0.96412706837E+00
 0.90396922298E+00 0.86921714706E+00 0.85786752610E+00 0.92506258840E+00 0.96413067139E+00
 0.10252960006E+01 0.11114104616E+01 0.12258665666E+01 0.13721853678E+01 0.15534219899E+01
 0.17713582083E+01 0.20255077185E+01 0.23120563485E+01 0.26229610862E+01 0.29454911524E+01
 0.32624819790E+01 0.35534826836E+01 0.37968130834E+01 0.39723178063E+01 0.40643526776E+01
 0.40643515643E+01 0.39723168552E+01 0.37968165059E+01 0.35534906376E+01 0.32624878758E+01
 0.29454859017E+01 0.26229404745E+01 0.23120242775E+01 0.20254732058E+01 0.17713306165E+01
 0.15534080455E+01 0.13721867798E+01 0.12258777957E+01 0.11114205095E+01 0.10252957392E+01
 0.96411974058E+00 0.92504921532E+00 0.90604793124E+00 0.90605381796E+00 0.10129950409E+01
 0.10527971189E+01 0.11114104616E+01 0.11914793730E+01 0.12959789927E+01 0.14277770218E+01
 0.15889997521E+01 0.17802257748E+01 0.19996087986E+01 0.22421040133E+01 0.24990076453E+01
 0.27579976059E+01 0.30037938179E+01 0.32194662125E+01 0.33883118902E+01 0.34960783183E+01
 0.35331340274E+01 0.34960729921E+01 0.33883050896E+01 0.32194594146E+01 0.30037837091E+01
 0.27579811080E+01 0.24989864185E+01 0.22420826404E+01 0.19995912501E+01 0.17802154341E+01
 0.15890002045E+01 0.14277891969E+01 0.12959976160E+01 0.11914947483E+01 0.11114150246E+01
 0.10527904017E+01 0.10129831994E+01 0.98995578992E+00 0.98242871501E+00 0.98996448902E+00
 0.11374949569E+01 0.11738975038E+01 0.12258665666E+01 0.12959789927E+01 0.13869197575E+01
 0.15010038537E+01 0.16395431160E+01 0.18021289251E+01 0.19859609306E+01 0.21853829718E+01
 0.23917767788E+01 0.25939107782E+01 0.27787697917E+01 0.29328288120E+01 0.30436662320E+01
 0.31017001055E+01 0.31016974514E+01 0.30436596998E+01 0.29328198574E+01 0.27787572448E+01
 0.25938946591E+01 0.23917620878E+01 0.21853759834E+01 0.19859634347E+01 0.18021391917E+01
 0.16395601872E+01 0.15010266567E+01 0.13869432075E+01 0.12959954011E+01 0.12258716716E+01
 0.11738931830E+01 0.11374864756E+01 0.11145007640E+01 0.11034060428E+01 0.11034089859E+01
 0.11145082690E+01 0.13037203048E+01 0.13317232580E+01 0.13721853678E+01 0.14277770218E+01
 0.15010038537E+01 0.15937189135E+01 0.17065628376E+01 0.18384144304E+01 0.19859609054E+01
 0.21434997946E+01 0.23030611881E+01 0.24548938715E+01 0.25883105619E+01 0.26928430837E+01
 0.27595919160E+01 0.27825499674E+01 0.27595914274E+01 0.26928404612E+01 0.25883038515E+01
 0.24548842007E+01 0.23030544817E+01 0.21435027898E+01 0.19859754411E+01 0.18384372415E+01
 0.17065895162E+01 0.15937450196E+01 0.15010235318E+01 0.14277852245E+01 0.13721826260E+01
 0.13317154923E+01 0.13037131533E+01 0.12857165092E+01 0.12757635286E+01 0.12725918945E+01
 0.12757658789E+01 0.12857211974E+01 0.15169609267E+01 0.15303805362E+01 0.15534219899E+01
 0.15889997521E+01 0.16395431160E+01 0.17065628376E+01 0.17902338523E+01 0.18890491492E+01
 0.19996087577E+01 0.21166057891E+01 0.22330605877E+01 0.23408344630E+01 0.24314235204E+01
 0.24969800337E+01 0.25314253762E+01 0.25314278487E+01 0.24969845104E+01 0.24314247740E+01
 0.23408314454E+01 0.22330579678E+01 0.21166094711E+01 0.19996211877E+01 0.18890687905E+01
 0.17902566322E+01 0.17065824147E+01 0.16395519944E+01 0.15889939789E+01 0.15534056901E+01
 0.15303637033E+01 0.15169514199E+01 0.15101768308E+01 0.15073638337E+01 0.15064980666E+01
 0.15064969671E+01 0.15073620029E+01 0.15101784653E+01 0.17819621522E+01 0.17730405524E+01
 0.17713582083E+01 0.17802257748E+01 0.18021289251E+01 0.18384144304E+01 0.18890491492E+01
 0.19524642628E+01 0.20255077121E+01 0.21035365205E+01 0.21806911452E+01 0.22503936197E+01
 0.23060770273E+01 0.23420790350E+01 0.23545402461E+01 0.23420857210E+01 0.23060843958E+01
 0.22503966023E+01 0.21806898035E+01 0.21035337727E+01 0.20255064249E+01 0.19524669220E+01
 0.18890562399E+01 0.18384211163E+01 0.18021264730E+01 0.17802093174E+01 0.17713324865E+01
 0.17730166675E+01 0.17819491622E+01 0.17943743273E+01 0.18065613515E+01 0.18153195292E+01
 0.18184907893E+01 0.18153131507E+01 0.18065543749E+01 0.17943747451E+01 0.21019862012E+01
 0.20609323191E+01 0.20255077185E+01 0.19996087986E+01 0.19859609306E+01 0.19859609054E+01
 0.19996087577E+01 0.20255077121E+01 0.20609323466E+01 0.21019862300E+01 0.21438950191E+01
 0.21814845435E+01 0.22098464853E+01 0.22251047239E+01 0.22251094451E+01 0.22098568683E+01
 0.21814927593E+01 0.21438948543E+01 0.21019753574E+01 0.20609128719E+01 0.20254866454E+01
 0.19995940399E+01 0.19859534014E+01 0.19859527291E+01 0.19995923554E+01 0.20254847893E+01
 0.20609117661E+01 0.21019755159E+01 0.21438961752E+01 0.21814947268E+01 0.22098589067E+01
 0.22251111290E+01 0.22251058370E+01 0.22098470380E+01 0.21814847220E+01 0.21438950349E+01
 0.24774695960E+01 0.23920837712E+01 0.23120563485E+01 0.22421040133E+01 0.21853829718E+01
 0.21434997946E+01 0.21166057891E+01 0.21035365205E+01 0.21019862300E+01 0.21087308861E+01