   2   2   0   0
  0.2107615E+02  0.3906419E-09  0.3906419E-09  0.3906419E-09  0.5000000E-15
  1.000000000000000E-004
  CAR 
 unknown system                          
     16.49406049     -8.24645472  301      5.66720554      1.00000000
     -8.246  0.0000E+00  0.0000E+00
     -8.164  0.0000E+00  0.0000E+00
     -8.082  0.0000E+00  0.0000E+00
     -7.999  0.0000E+00  0.0000E+00
     -7.917  0.0000E+00  0.0000E+00
     -7.834  0.0000E+00  0.0000E+00
     -7.752  0.0000E+00  0.0000E+00
     -7.669  0.0000E+00  0.0000E+00
     -7.587  0.0000E+00  0.0000E+00
     -7.504  0.0000E+00  0.0000E+00
     -7.422  0.3506E-18  0.2891E-19
     -7.339  0.3436E-16  0.2862E-17
     -7.257  0.2826E-14  0.2359E-15
     -7.174  0.1662E-12  0.1395E-13
     -7.092  0.7005E-11  0.5917E-12
     -7.009  0.2117E-09  0.1805E-10
     -6.927  0.4595E-08  0.3970E-09
     -6.844  0.7186E-07  0.6323E-08
     -6.762  0.8128E-06  0.7336E-07
     -6.680  0.6693E-05  0.6253E-06
     -6.597  0.4049E-04  0.3965E-05
     -6.515  0.1825E-03  0.1902E-04
     -6.432  0.6239E-03  0.7047E-04
     -6.350  0.1654E-02  0.2069E-03
     -6.267  0.3485E-02  0.4943E-03
     -6.185  0.5998E-02  0.9889E-03
     -6.102  0.8721E-02  0.1708E-02
     -6.020  0.1123E-01  0.2634E-02
     -5.937  0.1352E-01  0.3749E-02
     -5.855  0.1572E-01  0.5046E-02
     -5.772  0.1762E-01  0.6499E-02
     -5.690  0.1882E-01  0.8051E-02
     -5.607  0.1970E-01  0.9676E-02
     -5.525  0.2132E-01  0.1143E-01
     -5.443  0.2384E-01  0.1340E-01
     -5.360  0.2590E-01  0.1554E-01
     -5.278  0.2641E-01  0.1771E-01
     -5.195  0.2630E-01  0.1988E-01
     -5.113  0.2716E-01  0.2212E-01
     -5.030  0.2919E-01  0.2453E-01
     -4.948  0.3152E-01  0.2713E-01
     -4.865  0.3379E-01  0.2992E-01
     -4.783  0.3591E-01  0.3288E-01
     -4.700  0.3728E-01  0.3595E-01
     -4.618  0.3728E-01  0.3903E-01
     -4.535  0.3648E-01  0.4204E-01
     -4.453  0.3706E-01  0.4509E-01
     -4.370  0.4122E-01  0.4849E-01
     -4.288  0.4817E-01  0.5246E-01
     -4.206  0.5412E-01  0.5693E-01
     -4.123  0.5661E-01  0.6160E-01
     -4.041  0.5686E-01  0.6628E-01
     -3.958  0.5694E-01  0.7098E-01
     -3.876  0.5663E-01  0.7565E-01
     -3.793  0.5426E-01  0.8013E-01
     -3.711  0.5015E-01  0.8426E-01
     -3.628  0.4794E-01  0.8822E-01
     -3.546  0.5065E-01  0.9239E-01
     -3.463  0.5589E-01  0.9700E-01
     -3.381  0.5757E-01  0.1017E+00
     -3.298  0.5230E-01  0.1061E+00
     -3.216  0.4246E-01  0.1096E+00
     -3.133  0.3300E-01  0.1123E+00
     -3.051  0.2714E-01  0.1145E+00
     -2.968  0.2584E-01  0.1167E+00
     -2.886  0.2891E-01  0.1190E+00
     -2.804  0.3459E-01  0.1219E+00
     -2.721  0.3890E-01  0.1251E+00
     -2.639  0.3759E-01  0.1282E+00
     -2.556  0.2974E-01  0.1307E+00
     -2.474  0.1872E-01  0.1322E+00
     -2.391  0.9177E-02  0.1330E+00
     -2.309  0.3481E-02  0.1332E+00
     -2.226  0.1310E-02  0.1333E+00
     -2.144  0.1878E-02  0.1335E+00
     -2.061  0.5891E-02  0.1340E+00
     -1.979  0.1490E-01  0.1352E+00
     -1.896  0.2775E-01  0.1375E+00
     -1.814  0.3841E-01  0.1407E+00
     -1.731  0.4080E-01  0.1440E+00
     -1.649  0.3604E-01  0.1470E+00
     -1.567  0.3183E-01  0.1496E+00
     -1.484  0.3518E-01  0.1525E+00
     -1.402  0.4727E-01  0.1564E+00
     -1.319  0.6344E-01  0.1617E+00
     -1.237  0.7669E-01  0.1680E+00
     -1.154  0.8282E-01  0.1748E+00
     -1.072  0.8131E-01  0.1815E+00
     -0.989  0.7260E-01  0.1875E+00
     -0.907  0.5944E-01  0.1924E+00
     -0.824  0.4858E-01  0.1964E+00
     -0.742  0.4463E-01  0.2001E+00
     -0.659  0.4387E-01  0.2037E+00
     -0.577  0.3940E-01  0.2070E+00
     -0.494  0.3100E-01  0.2095E+00
     -0.412  0.2494E-01  0.2116E+00
     -0.329  0.2551E-01  0.2137E+00
     -0.247  0.3125E-01  0.2163E+00
     -0.165  0.3729E-01  0.2193E+00
     -0.082  0.3846E-01  0.2225E+00
      0.000  0.3290E-01  0.2252E+00
      0.083  0.2410E-01  0.2272E+00
      0.165  0.1782E-01  0.2287E+00
      0.248  0.1740E-01  0.2301E+00
      0.330  0.2176E-01  0.2319E+00
      0.413  0.2613E-01  0.2341E+00
      0.495  0.2562E-01  0.2362E+00
      0.578  0.1993E-01  0.2378E+00
      0.660  0.1358E-01  0.2389E+00
      0.743  0.1084E-01  0.2398E+00
      0.825  0.1208E-01  0.2408E+00
      0.908  0.1563E-01  0.2421E+00
      0.990  0.2092E-01  0.2438E+00
      1.072  0.2810E-01  0.2462E+00
      1.155  0.3620E-01  0.2491E+00
      1.237  0.4365E-01  0.2527E+00
      1.320  0.4971E-01  0.2568E+00
      1.402  0.5541E-01  0.2614E+00
      1.485  0.6312E-01  0.2666E+00
      1.567  0.7313E-01  0.2727E+00
      1.650  0.8136E-01  0.2794E+00
      1.732  0.8317E-01  0.2862E+00
      1.815  0.7889E-01  0.2927E+00
      1.897  0.7331E-01  0.2988E+00
      1.980  0.7057E-01  0.3046E+00
      2.062  0.7082E-01  0.3104E+00
      2.145  0.7167E-01  0.3163E+00
      2.227  0.7240E-01  0.3223E+00
      2.309  0.7568E-01  0.3286E+00
      2.392  0.8433E-01  0.3355E+00
      2.474  0.9571E-01  0.3434E+00
      2.557  0.1020E+00  0.3518E+00
      2.639  0.9951E-01  0.3600E+00
      2.722  0.9461E-01  0.3678E+00
      2.804  0.9508E-01  0.3757E+00
      2.887  0.9959E-01  0.3839E+00
      2.969  0.1009E+00  0.3922E+00
      3.052  0.9715E-01  0.4002E+00
      3.134  0.9450E-01  0.4080E+00
      3.217  0.9873E-01  0.4161E+00
      3.299  0.1058E+00  0.4249E+00
      3.382  0.1055E+00  0.4336E+00
      3.464  0.9405E-01  0.4413E+00
      3.547  0.7936E-01  0.4479E+00
      3.629  0.7266E-01  0.4539E+00
      3.711  0.7788E-01  0.4603E+00
      3.794  0.8868E-01  0.4676E+00
      3.876  0.9496E-01  0.4754E+00
      3.959  0.9152E-01  0.4830E+00
      4.041  0.8061E-01  0.4896E+00
      4.124  0.6870E-01  0.4953E+00
      4.206  0.6158E-01  0.5004E+00
      4.289  0.5988E-01  0.5053E+00
      4.371  0.5816E-01  0.5101E+00
      4.454  0.5092E-01  0.5143E+00
      4.536  0.3964E-01  0.5176E+00
      4.619  0.3087E-01  0.5201E+00
      4.701  0.2815E-01  0.5224E+00
      4.784  0.2859E-01  0.5248E+00
      4.866  0.2718E-01  0.5270E+00
      4.948  0.2246E-01  0.5289E+00
      5.031  0.1683E-01  0.5303E+00
      5.113  0.1258E-01  0.5313E+00
      5.196  0.9668E-02  0.5321E+00
      5.278  0.7048E-02  0.5327E+00
      5.361  0.4395E-02  0.5331E+00
      5.443  0.2190E-02  0.5332E+00
      5.526  0.8403E-03  0.5333E+00
      5.608  0.2452E-03  0.5333E+00
      5.691  0.7739E-04  0.5333E+00
      5.773  0.1657E-03  0.5333E+00
      5.856  0.7004E-03  0.5334E+00
      5.938  0.2258E-02  0.5336E+00
      6.021  0.5355E-02  0.5340E+00
      6.103  0.9514E-02  0.5348E+00
      6.186  0.1323E-01  0.5359E+00
      6.268  0.1582E-01  0.5372E+00
      6.350  0.1890E-01  0.5388E+00
      6.433  0.2437E-01  0.5408E+00
      6.515  0.3133E-01  0.5434E+00
      6.598  0.3677E-01  0.5464E+00
      6.680  0.3998E-01  0.5497E+00
      6.763  0.4364E-01  0.5533E+00
      6.845  0.4922E-01  0.5574E+00
      6.928  0.5460E-01  0.5619E+00
      7.010  0.5767E-01  0.5666E+00
      7.093  0.5918E-01  0.5715E+00
      7.175  0.6190E-01  0.5766E+00
      7.258  0.6947E-01  0.5823E+00
      7.340  0.8436E-01  0.5893E+00
      7.423  0.1036E+00  0.5978E+00
      7.505  0.1178E+00  0.6075E+00
      7.587  0.1185E+00  0.6173E+00
      7.670  0.1074E+00  0.6262E+00
      7.752  0.9362E-01  0.6339E+00
      7.835  0.8561E-01  0.6410E+00
      7.917  0.8477E-01  0.6479E+00
      8.000  0.8595E-01  0.6550E+00
      8.082  0.8335E-01  0.6619E+00
      8.165  0.7685E-01  0.6682E+00
      8.247  0.7148E-01  0.6741E+00
      8.330  0.7264E-01  0.6801E+00
      8.412  0.8363E-01  0.6870E+00
      8.495  0.1034E+00  0.6956E+00
      8.577  0.1245E+00  0.7058E+00
      8.660  0.1368E+00  0.7171E+00
      8.742  0.1362E+00  0.7283E+00
      8.825  0.1278E+00  0.7389E+00
      8.907  0.1195E+00  0.7487E+00
      8.989  0.1139E+00  0.7581E+00
      9.072  0.1083E+00  0.7671E+00
      9.154  0.1014E+00  0.7754E+00
      9.237  0.9487E-01  0.7832E+00
      9.319  0.9013E-01  0.7907E+00
      9.402  0.8738E-01  0.7979E+00
      9.484  0.8646E-01  0.8050E+00
      9.567  0.8631E-01  0.8121E+00
      9.649  0.8593E-01  0.8192E+00
      9.732  0.8611E-01  0.8263E+00
      9.814  0.8750E-01  0.8335E+00
      9.897  0.8879E-01  0.8409E+00
      9.979  0.8997E-01  0.8483E+00
     10.062  0.9371E-01  0.8560E+00
     10.144  0.9968E-01  0.8642E+00
     10.226  0.1016E+00  0.8726E+00
     10.309  0.9420E-01  0.8804E+00
     10.391  0.8073E-01  0.8870E+00
     10.474  0.6891E-01  0.8927E+00
     10.556  0.6288E-01  0.8979E+00
     10.639  0.6111E-01  0.9029E+00
     10.721  0.6173E-01  0.9080E+00
     10.804  0.6692E-01  0.9136E+00
     10.886  0.7868E-01  0.9200E+00
     10.969  0.9267E-01  0.9277E+00
     11.051  0.1014E+00  0.9360E+00
     11.134  0.1012E+00  0.9444E+00
     11.216  0.9219E-01  0.9520E+00
     11.299  0.7696E-01  0.9583E+00
     11.381  0.6051E-01  0.9633E+00
     11.463  0.4912E-01  0.9674E+00
     11.546  0.4617E-01  0.9712E+00
     11.628  0.4872E-01  0.9752E+00
     11.711  0.4998E-01  0.9793E+00
     11.793  0.4678E-01  0.9832E+00
     11.876  0.4292E-01  0.9867E+00
     11.958  0.4502E-01  0.9904E+00
     12.041  0.5666E-01  0.9951E+00
     12.123  0.7429E-01  0.1001E+01
     12.206  0.8703E-01  0.1008E+01
     12.288  0.8490E-01  0.1015E+01
     12.371  0.6831E-01  0.1021E+01
     12.453  0.4686E-01  0.1025E+01
     12.536  0.3075E-01  0.1027E+01
     12.618  0.2493E-01  0.1030E+01
     12.701  0.2720E-01  0.1032E+01
     12.783  0.3055E-01  0.1034E+01
     12.865  0.3036E-01  0.1037E+01
     12.948  0.2860E-01  0.1039E+01
     13.030  0.2907E-01  0.1042E+01
     13.113  0.3192E-01  0.1044E+01
     13.195  0.3526E-01  0.1047E+01
     13.278  0.3824E-01  0.1050E+01
     13.360  0.3944E-01  0.1053E+01
     13.443  0.3564E-01  0.1056E+01
     13.525  0.2593E-01  0.1059E+01
     13.608  0.1440E-01  0.1060E+01
     13.690  0.5976E-02  0.1060E+01
     13.773  0.2012E-02  0.1060E+01
     13.855  0.1273E-02  0.1061E+01
     13.938  0.2615E-02  0.1061E+01
     14.020  0.5355E-02  0.1061E+01
     14.102  0.8144E-02  0.1062E+01
     14.185  0.9304E-02  0.1063E+01
     14.267  0.8804E-02  0.1063E+01
     14.350  0.8400E-02  0.1064E+01
     14.432  0.8916E-02  0.1065E+01
     14.515  0.8967E-02  0.1065E+01
     14.597  0.7214E-02  0.1066E+01
     14.680  0.4330E-02  0.1066E+01
     14.762  0.1900E-02  0.1067E+01
     14.845  0.6056E-03  0.1067E+01
     14.927  0.1399E-03  0.1067E+01
     15.010  0.2341E-04  0.1067E+01
     15.092  0.2830E-05  0.1067E+01
     15.175  0.2470E-06  0.1067E+01
     15.257  0.1554E-07  0.1067E+01
     15.340  0.7037E-09  0.1067E+01
     15.422  0.2292E-10  0.1067E+01
     15.504  0.5361E-12  0.1067E+01
     15.587  0.8999E-14  0.1067E+01
     15.669  0.1094E-15  0.1067E+01
     15.752  0.0000E+00  0.1067E+01
     15.834  0.0000E+00  0.1067E+01
     15.917  0.0000E+00  0.1067E+01
     15.999  0.0000E+00  0.1067E+01
     16.082  0.0000E+00  0.1067E+01
     16.164  0.0000E+00  0.1067E+01
     16.247  0.0000E+00  0.1067E+01
     16.329  0.0000E+00  0.1067E+01
     16.412  0.0000E+00  0.1067E+01
     16.494  0.0000E+00  0.1067E+01
