    2    2   15    1
  0.2107615E+02  0.3906418E-09  0.3906418E-09  0.3906418E-09  0.5000000E-15
  1.000000000000000E-004
  CAR 
 unknown system                          
      8     60      8
 
  0.6250000E-01  0.6250000E-01  0.6250000E-01  0.3906250E-02
    1       -6.246455   1.000000
    2        4.781476   1.000000
    3        5.237528   0.998810
    4        5.237528   0.998810
    5        7.848803   0.000000
    6        7.979421   0.000000
    7        7.979421   0.000000
    8        8.572896   0.000000
 
  0.1875000E+00  0.6250000E-01  0.6250000E-01  0.1171875E-01
    1       -5.987157   1.000000
    2        3.292263   1.000000
    3        4.461809   1.000000
    4        5.120898   0.999944
    5        7.865425   0.000000
    6        8.218281   0.000000
    7        8.482168   0.000000
    8       10.095913   0.000000
 
  0.3125000E+00  0.6250000E-01  0.6250000E-01  0.1171875E-01
    1       -5.362362   1.000000
    2        1.130215   1.000000
    3        3.983209   1.000000
    4        4.673090   1.000000
    5        7.412563   0.000000
    6        8.709518   0.000000
    7        8.985221   0.000000
    8       11.705620   0.000000
 
  0.4375000E+00  0.6250000E-01  0.6250000E-01  0.1171875E-01
    1       -4.495500   1.000000
    2       -0.693369   1.000000
    3        3.768352   1.000000
    4        4.278956   1.000000
    5        7.099815   0.000000
    6        8.792719   0.000000
    7        8.806382   0.000000
    8       13.006627   0.000000
 
 -0.4375000E+00  0.6250000E-01  0.6250000E-01  0.1171875E-01
    1       -4.070034   1.000000
    2       -1.363939   1.000000
    3        3.813072   1.000000
    4        4.069146   1.000000
    5        7.021546   0.000000
    6        8.610021   0.000000
    7        8.871804   0.000000
    8       13.108409   0.000000
 
 -0.3125000E+00  0.6250000E-01  0.6250000E-01  0.1171875E-01
    1       -4.791372   1.000000
    2       -0.155619   1.000000
    3        4.090100   1.000000
    4        4.091958   1.000000
    5        7.189626   0.000000
    6        8.603957   0.000000
    7        9.110665   0.000000
    8       12.146437   0.000000
 
 -0.1875000E+00  0.6250000E-01  0.6250000E-01  0.1171875E-01
    1       -5.607094   1.000000
    2        1.838475   1.000000
    3        4.362322   1.000000
    4        4.541785   1.000000
    5        7.554511   0.000000
    6        8.431936   0.000000
    7        9.141056   0.000000
    8       10.938889   0.000000
 
 -0.6250000E-01  0.6250000E-01  0.6250000E-01  0.1171875E-01
    1       -6.116100   1.000000
    2        4.029364   1.000000
    3        4.829319   1.000000
    4        4.973370   1.000000
    5        7.698188   0.000000
    6        8.189528   0.000000
    7        8.537011   0.000000
    8        9.346222   0.000000
 
  0.1875000E+00  0.1875000E+00  0.6250000E-01  0.1171875E-01
    1       -5.856616   1.000000
    2        3.134689   1.000000
    3        4.292131   1.000000
    4        4.362136   1.000000
    5        7.293855   0.000000
    6        8.911668   0.000000
    7        9.367974   0.000000
    8        9.825926   0.000000
 
  0.3125000E+00  0.1875000E+00  0.6250000E-01  0.2343750E-01
    1       -5.349651   1.000000
    2        1.669091   1.000000
    3        3.353249   1.000000
    4        4.113173   1.000000
    5        7.455985   0.000000
    6        9.015741   0.000000
    7        9.765053   0.000000
    8       10.145406   0.000000
 
  0.4375000E+00  0.1875000E+00  0.6250000E-01  0.2343750E-01
    1       -4.535627   1.000000
    2       -0.121301   1.000000
    3        2.860151   1.000000
    4        3.721077   1.000000
    5        7.632822   0.000000
    6        9.006055   0.000000
    7       10.173518   0.000000
    8       10.480069   0.000000
 
 -0.4375000E+00  0.1875000E+00  0.6250000E-01  0.2343750E-01
    1       -3.809517   1.000000
    2       -1.279348   1.000000
    3        2.576185   1.000000
    4        3.632635   1.000000
    5        7.683634   0.000000
    6        8.742721   0.000000
    7       10.038458   0.000000
    8       12.425555   0.000000
 
 -0.3125000E+00  0.1875000E+00  0.6250000E-01  0.2343750E-01
    1       -4.244892   1.000000
    2       -0.620000   1.000000
    3        2.511356   1.000000
    4        3.905121   1.000000
    5        7.931080   0.000000
    6        8.678645   0.000000
    7        9.978628   0.000000
    8       11.702270   0.000000
 
 -0.1875000E+00  0.1875000E+00  0.6250000E-01  0.2343750E-01
    1       -5.110587   1.000000
    2        1.042010   1.000000
    3        2.817205   1.000000
    4        4.392365   1.000000
    5        8.244119   0.000000
    6        8.567934   0.000000
    7        9.851201   0.000000
    8       10.347820   0.000000
 
 -0.6250000E-01  0.1875000E+00  0.6250000E-01  0.2343750E-01
    1       -5.730670   1.000000
    2        2.486555   1.000000
    3        3.904647   1.000000
    4        4.751075   1.000000
    5        7.827692   0.000000
    6        8.409379   0.000000
    7        9.187164   0.000000
    8       10.363667   0.000000
 
  0.3125000E+00  0.3125000E+00  0.6250000E-01  0.1171875E-01
    1       -4.961948   1.000000
    2        1.155953   1.000000
    3        3.217036   1.000000
    4        3.334554   1.000000
    5        6.511968   0.000000
    6        8.145877   0.000000
    7       11.162715   0.000000
    8       11.317900   0.000000
 
  0.4375000E+00  0.3125000E+00  0.6250000E-01  0.2343750E-01
    1       -4.236136   1.000000
    2       -0.045299   1.000000
    3        2.460490   1.000000
    4        3.001387   1.000000
    5        6.820163   0.000000
    6        7.988444   0.000000
    7       11.128541   0.000000
    8       12.280813   0.000000
 
 -0.4375000E+00  0.3125000E+00  0.6250000E-01  0.2343750E-01
    1       -3.375034   1.000000
    2       -1.195643   1.000000
    3        1.650844   1.000000
    4        2.970463   1.000000
    5        7.053781   0.000000
    6        9.603544   0.000000
    7       10.714379   0.000000
    8       12.193679   0.000000
 
 -0.3125000E+00  0.3125000E+00  0.6250000E-01  0.2343750E-01
    1       -3.445796   1.000000
    2       -1.103465   1.000000
    3        1.314632   1.000000
    4        3.301187   1.000000
    5        7.437714   0.000000
    6       10.296967   0.000000
    7       11.540631   0.000000
    8       11.899526   0.000000
 
 -0.1875000E+00  0.3125000E+00  0.6250000E-01  0.2343750E-01
    1       -4.306446   1.000000
    2       -0.172040   1.000000
    3        1.890934   1.000000
    4        3.863289   1.000000
    5        8.025397   0.000000
    6        9.219589   0.000000
    7       10.590110   0.000000
    8       10.897902   0.000000
 
 -0.6250000E-01  0.3125000E+00  0.6250000E-01  0.2343750E-01
    1       -5.001914   1.000000
    2        0.472282   1.000000
    3        3.454069   1.000000
    4        4.295565   1.000000
    5        7.691472   0.000000
    6        8.608133   0.000000
    7        9.447929   0.000000
    8       11.105252   0.000000
 
  0.4375000E+00  0.4375000E+00  0.6250000E-01  0.1171875E-01
    1       -3.603391   1.000000
    2       -0.885097   1.000000
    3        2.553606   1.000000
    4        2.759583   1.000000
    5        6.138264   0.000433
    6        6.843267   0.000000
    7       13.393832   0.000000
    8       13.422739   0.000000
 
 -0.4375000E+00  0.4375000E+00  0.6250000E-01  0.2343750E-01
    1       -2.725975   1.000000
    2       -1.844177   1.000000
    3        2.021822   1.000000
    4        2.527998   1.000000
    5        6.561741   0.000000
    6        7.268755   0.000000
    7       13.164465   0.000000
    8       14.120993   0.000000
 
 -0.3125000E+00  0.4375000E+00  0.6250000E-01  0.2343750E-01
    1       -2.828201   1.000000
    2       -1.677969   1.000000
    3        1.324858   1.000000
    4        2.831674   1.000000
    5        6.912907   0.000000
    6        9.447501   0.000000
    7       11.681229   0.000000
    8       12.780169   0.000000
 
 -0.1875000E+00  0.4375000E+00  0.6250000E-01  0.2343750E-01
    1       -3.561532   1.000000
    2       -1.251110   1.000000
    3        1.833931   1.000000
    4        3.410425   1.000000
    5        7.547769   0.000000
    6        9.459596   0.000000
    7       10.955844   0.000000
    8       12.183536   0.000000
 
 -0.6250000E-01  0.4375000E+00  0.6250000E-01  0.2343750E-01
    1       -4.147882   1.000000
    2       -1.084253   1.000000
    3        3.277680   1.000000
    4        3.973618   1.000000
    5        7.482105   0.000000
    6        8.544614   0.000000
    7        9.285676   0.000000
    8       12.747011   0.000000
 
 -0.4375000E+00 -0.4375000E+00  0.6250000E-01  0.1171875E-01
    1       -2.773472   1.000000
    2       -1.859649   1.000000
    3        2.420462   1.000000
    4        2.642041   1.000000
    5        6.141069   0.000403
    6        6.492065   0.000000
    7       14.441991   0.000000
    8       14.494060   0.000000
 
 -0.3125000E+00 -0.4375000E+00  0.6250000E-01  0.2343750E-01
    1       -3.522166   1.000000
    2       -0.947533   1.000000
    3        2.172000   1.000000
    4        2.682702   1.000000
    5        6.642252   0.000000
    6        7.517304   0.000000
    7       12.120755   0.000000
    8       13.403551   0.000000
 
 -0.1875000E+00 -0.4375000E+00  0.6250000E-01  0.2343750E-01
    1       -3.981312   1.000000
    2       -0.666790   1.000000
    3        2.215561   1.000000
    4        3.259854   1.000000
    5        7.316774   0.000000
    6        9.780947   0.000000
    7        9.947143   0.000000
    8       11.166382   0.000000
 
 -0.3125000E+00 -0.3125000E+00  0.6250000E-01  0.1171875E-01
    1       -4.336770   1.000000
    2        0.129071   1.000000
    3        2.819559   1.000000
    4        2.992255   1.000000
    5        6.260444   0.000014
    6        7.407566   0.000000
    7       12.261849   0.000000
    8       12.357134   0.000000
 
 -0.1875000E+00 -0.3125000E+00  0.6250000E-01  0.2343750E-01
    1       -4.848997   1.000000
    2        0.829762   1.000000
    3        2.863036   1.000000
    4        3.489752   1.000000
    5        7.098125   0.000000
    6        8.636420   0.000000
    7       10.210607   0.000000
    8       11.183528   0.000000
 
 -0.1875000E+00 -0.1875000E+00  0.6250000E-01  0.1171875E-01
    1       -5.470550   1.000000
    2        2.167229   1.000000
    3        3.740142   1.000000
    4        3.775481   1.000000
    5        6.870669   0.000000
    6        8.943246   0.000000
    7       10.158507   0.000000
    8       10.314832   0.000000
 
  0.1875000E+00  0.1875000E+00  0.1875000E+00  0.3906250E-02
    1       -5.859892   1.000000
    2        2.592480   1.000000
    3        4.811214   1.000000
    4        4.811214   1.000000
    5        7.413483   0.000000
    6        8.579454   0.000000
    7        8.579454   0.000000
    8       10.720827   0.000000
 
  0.3125000E+00  0.1875000E+00  0.1875000E+00  0.1171875E-01
    1       -5.480660   1.000000
    2        1.757490   1.000000
    3        3.351621   1.000000
    4        4.824399   1.000000
    5        8.066027   0.000000
    6        8.702211   0.000000
    7        8.976455   0.000000
    8       10.884834   0.000000
 
  0.4375000E+00  0.1875000E+00  0.1875000E+00  0.1171875E-01
    1       -4.759364   1.000000
    2        0.417673   1.000000
    3        2.307247   1.000000
    4        4.337458   1.000000
    5        7.962170   0.000000
    6        9.441079   0.000000
    7        9.625264   0.000000
    8       11.170468   0.000000
 
 -0.4375000E+00  0.1875000E+00  0.1875000E+00  0.1171875E-01
    1       -3.901457   1.000000
    2       -1.011710   1.000000
    3        2.147224   1.000000
    4        3.825676   1.000000
    5        7.501642   0.000000
    6        9.585486   0.000000
    7        9.840990   0.000000
    8       13.001108   0.000000
 
 -0.3125000E+00  0.1875000E+00  0.1875000E+00  0.1171875E-01
    1       -3.885990   1.000000
    2       -1.039434   1.000000
    3        2.432718   1.000000
    4        3.519967   1.000000
    5        7.245812   0.000000
    6        9.643890   0.000000
    7       10.178629   0.000000
    8       11.123919   0.000000
 
 -0.1875000E+00  0.1875000E+00  0.1875000E+00  0.1171875E-01
    1       -4.742313   1.000000
    2        0.414554   1.000000
    3        3.027842   1.000000
    4        3.498958   1.000000
    5        7.183690   0.000000
    6        9.305470   0.000000
    7        9.935254   0.000000
    8       10.526713   0.000000
 
  0.3125000E+00  0.3125000E+00  0.1875000E+00  0.1171875E-01
    1       -5.232443   1.000000
    2        1.114362   1.000000
    3        3.822874   1.000000
    4        3.903674   1.000000
    5        7.545123   0.000000
    6        8.835590   0.000000
    7        9.798170   0.000000
    8       10.196879   0.000000
 
  0.4375000E+00  0.3125000E+00  0.1875000E+00  0.2343750E-01
    1       -4.627339   1.000000
    2        0.344859   1.000000
    3        2.362426   1.000000
    4        3.712879   1.000000
    5        8.040541   0.000000
    6        9.018402   0.000000
    7        9.566812   0.000000
    8       11.012521   0.000000
 
 -0.4375000E+00  0.3125000E+00  0.1875000E+00  0.2343750E-01
    1       -3.769226   1.000000
    2       -0.731034   1.000000
    3        1.603725   1.000000
    4        3.169499   1.000000
    5        8.483234   0.000000
    6        8.960729   0.000000
    7       10.205971   0.000000
    8       12.081995   0.000000
 
 -0.3125000E+00  0.3125000E+00  0.1875000E+00  0.2343750E-01
    1       -3.303031   1.000000
    2       -1.318069   1.000000
    3        1.601266   1.000000
    4        2.870205   1.000000
    5        8.032891   0.000000
    6        9.279843   0.000000
    7       10.969869   0.000000
    8       12.196859   0.000000
 
 -0.1875000E+00  0.3125000E+00  0.1875000E+00  0.2343750E-01
    1       -4.041786   1.000000
    2       -0.355541   1.000000
    3        2.013564   1.000000
    4        3.041480   1.000000
    5        7.769324   0.000000
    6        8.968704   0.000000
    7        9.773274   0.000000
    8       12.198750   0.000000
 
  0.4375000E+00  0.4375000E+00  0.1875000E+00  0.1171875E-01
    1       -4.147062   1.000000
    2       -0.294694   1.000000
    3        2.331531   1.000000
    4        3.178791   1.000000
    5        6.822397   0.000000
    6        8.804211   0.000000
    7       10.955635   0.000000
    8       11.330612   0.000000
 
 -0.4375000E+00  0.4375000E+00  0.1875000E+00  0.2343750E-01
    1       -3.371376   1.000000
    2       -1.082585   1.000000
    3        1.782775   1.000000
    4        2.526501   1.000000
    5        7.575117   0.000000
    6        8.569767   0.000000
    7       10.647798   0.000000
    8       13.365355   0.000000
 
 -0.3125000E+00  0.4375000E+00  0.1875000E+00  0.2343750E-01
    1       -2.594590   1.000000
    2       -1.818009   1.000000
    3        1.481568   1.000000
    4        2.046250   1.000000
    5        8.672652   0.000000
    6        9.593811   0.000000
    7       10.201150   0.000000
    8       11.196214   0.000000
 
 -0.1875000E+00  0.4375000E+00  0.1875000E+00  0.2343750E-01
    1       -3.176656   1.000000
    2       -1.280493   1.000000
    3        1.469300   1.000000
    4        2.503150   1.000000
    5        8.768428   0.000000
    6        9.174889   0.000000
    7        9.902374   0.000000
    8       12.333113   0.000000
 
 -0.4375000E+00 -0.4375000E+00  0.1875000E+00  0.1171875E-01
    1       -2.749742   1.000000
    2       -1.793054   1.000000
    3        1.581129   1.000000
    4        2.847088   1.000000
    5        6.408904   0.000000
    6        8.256549   0.000000
    7       13.092858   0.000000
    8       13.252533   0.000000
 
 -0.3125000E+00 -0.4375000E+00  0.1875000E+00  0.2343750E-01
    1       -2.652428   1.000000
    2       -1.826377   1.000000
    3        1.671425   1.000000
    4        2.249691   1.000000
    5        7.475836   0.000000
    6        8.368931   0.000000
    7       11.629802   0.000000
    8       12.713954   0.000000
 
 -0.3125000E+00 -0.3125000E+00  0.1875000E+00  0.1171875E-01
    1       -3.464991   1.000000
    2       -1.042360   1.000000
    3        1.833923   1.000000
    4        2.958790   1.000000
    5        6.551773   0.000000
    6        8.438117   0.000000
    7       12.088017   0.000000
    8       12.211746   0.000000
 
  0.3125000E+00  0.3125000E+00  0.3125000E+00  0.3906250E-02
    1       -5.129603   1.000000
    2        0.450443   1.000000
    3        4.408768   1.000000
    4        4.408768   1.000000
    5        6.960623   0.000000
    6        8.826556   0.000000
    7        8.826556   0.000000
    8       12.760646   0.000000
 
  0.4375000E+00  0.3125000E+00  0.3125000E+00  0.1171875E-01
    1       -4.666991   1.000000
    2       -0.118351   1.000000
    3        2.985013   1.000000
    4        4.322645   1.000000
    5        7.694613   0.000000
    6        9.039390   0.000000
    7        9.092020   0.000000
    8       12.176402   0.000000
 
 -0.4375000E+00  0.3125000E+00  0.3125000E+00  0.1171875E-01
    1       -3.903254   1.000000
    2       -0.661639   1.000000
    3        1.525823   1.000000
    4        3.764288   1.000000
    5        7.440584   0.000000
    6       10.438095   0.000000
    7       10.583158   0.000000
    8       11.916380   0.000000
 
 -0.3125000E+00  0.3125000E+00  0.3125000E+00  0.1171875E-01
    1       -3.113737   1.000000
    2       -1.427848   1.000000
    3        1.206948   1.000000
    4        3.237162   1.000000
    5        6.856877   0.000000
    6       10.664898   0.000000
    7       11.675352   0.000000
    8       11.881041   0.000000
 
  0.4375000E+00  0.4375000E+00  0.3125000E+00  0.1171875E-01
    1       -4.365267   1.000000
    2       -0.656532   1.000000
    3        3.301818   1.000000
    4        3.781571   1.000000
    5        7.448991   0.000000
    6        8.794214   0.000000
    7        9.566823   0.000000
    8       11.550906   0.000000
 
 -0.4375000E+00  0.4375000E+00  0.3125000E+00  0.2343750E-01
    1       -3.768442   1.000000
    2       -1.020680   1.000000
    3        2.045480   1.000000
    4        3.327640   1.000000
    5        8.222030   0.000000
    6        8.593786   0.000000
    7       11.026156   0.000000
    8       11.313212   0.000000
 
 -0.3125000E+00  0.4375000E+00  0.3125000E+00  0.2343750E-01
    1       -2.979368   1.000000
    2       -1.496857   1.000000
    3        1.296028   1.000000
    4        2.642522   1.000000
    5        7.910963   0.000000
    6       10.109276   0.000000
    7       10.857089   0.000000
    8       11.360232   0.000000
 
 -0.4375000E+00 -0.4375000E+00  0.3125000E+00  0.1171875E-01
    1       -3.424108   1.000000
    2       -1.297737   1.000000
    3        1.674439   1.000000
    4        3.333602   1.000000
    5        6.997690   0.000000
    6       10.621568   0.000000
    7       10.919212   0.000000
    8       10.933335   0.000000
 
  0.4375000E+00  0.4375000E+00  0.4375000E+00  0.3906250E-02
    1       -4.277146   1.000000
    2       -1.137459   1.000000
    3        4.192608   1.000000
    4        4.192608   1.000000
    5        6.708755   0.000000
    6        8.707059   0.000000
    7        8.707059   0.000000
    8       13.012734   0.000000
 
 -0.4375000E+00  0.4375000E+00  0.4375000E+00  0.1171875E-01
    1       -3.940626   1.000000
    2       -1.312006   1.000000
    3        2.997513   1.000000
    4        3.935728   1.000000
    5        7.460205   0.000000
    6        8.807224   0.000000
    7        9.267823   0.000000
    8       13.338168   0.000000
