       N       E                     dE             d eps       ncg     rms          rms(c)
DAV:   1     0.493169080947E+01    0.49317E+01   -0.27596E+03   968   0.588E+02
DAV:   2    -0.107994286606E+02   -0.15731E+02   -0.15078E+02  1544   0.728E+01
DAV:   3    -0.109882361786E+02   -0.18881E+00   -0.18881E+00  1128   0.105E+01
DAV:   4    -0.109891559380E+02   -0.91976E-03   -0.91976E-03  1648   0.821E-01
DAV:   5    -0.109891570030E+02   -0.10651E-05   -0.10654E-05  1136   0.172E-02    0.288E+00
DAV:   6    -0.108853890651E+02    0.10377E+00   -0.66075E-02  1152   0.134E+00    0.172E+00
DAV:   7    -0.108361705603E+02    0.49219E-01   -0.12803E-01  1216   0.199E+00    0.143E-01
DAV:   8    -0.108375023557E+02   -0.13318E-02   -0.37904E-03  1112   0.451E-01    0.252E-02
DAV:   9    -0.108376074401E+02   -0.10508E-03   -0.10742E-04   752   0.831E-02
   1 F= -.10837607E+02 E0= -.10837598E+02  d E =-.108376E+02
