unknown system                          
   1.00000000000000     
     0.000000    2.763348    2.763348
     2.763348    0.000000    2.763348
     2.763348    2.763348    0.000000
   Si
     2
Direct
  0.500000  0.500000  0.500000
  0.750000  0.750000  0.750000
 
   36   36   36
 0.82543647892E+00 0.84092438060E+00 0.88847483783E+00 0.97119766630E+00 0.10938466729E+01
 0.12623074777E+01 0.14830519165E+01 0.17625406974E+01 0.21063877769E+01 0.25180104185E+01
 0.29966038584E+01 0.35346249570E+01 0.41154264480E+01 0.47120135512E+01 0.52878516828E+01
 0.58001617336E+01 0.62053786071E+01 0.64657395052E+01 0.65555589699E+01 0.64657312720E+01
 0.62053692853E+01 0.58001675876E+01 0.52878912952E+01 0.47120910810E+01 0.41155215972E+01
 0.35347033114E+01 0.29966400010E+01 0.25180030063E+01 0.21063552381E+01 0.17625055078E+01
 0.14830278442E+01 0.12622969855E+01 0.10938456727E+01 0.97120096965E+00 0.88847877645E+00
 0.84092685077E+00 0.84092438060E+00 0.86793718760E+00 0.92371315468E+00 0.10115519315E+01
 0.11359227906E+01 0.13019831257E+01 0.15150260644E+01 0.17798044457E+01 0.20995895516E+01
 0.24748249008E+01 0.29013906754E+01 0.33687742099E+01 0.38587273414E+01 0.43451202898E+01
 0.47955464368E+01 0.51747854643E+01 0.54496435358E+01 0.55941905758E+01 0.55941914263E+01
 0.54496474866E+01 0.51747993741E+01 0.47955814465E+01 0.43451786285E+01 0.38587912504E+01
 0.33688151711E+01 0.29013917882E+01 0.24747920976E+01 0.20995429169E+01 0.17797633936E+01
 0.15150012417E+01 0.13019752549E+01 0.11359248541E+01 0.10115544696E+01 0.92371103056E+00
 0.86793225054E+00 0.84092185148E+00 0.88847483783E+00 0.92371315468E+00 0.98478249244E+00
 0.10749289088E+01 0.11981848721E+01 0.13589081986E+01 0.15612105434E+01 0.18082178043E+01
 0.21010858129E+01 0.24377604200E+01 0.28116260829E+01 0.32103705368E+01 0.36155172319E+01
 0.40030671958E+01 0.43455040868E+01 0.46150638355E+01 0.47877497634E+01 0.48472423954E+01
 0.47877535647E+01 0.46150740625E+01 0.43455246630E+01 0.40030964849E+01 0.36155418615E+01
 0.32103719116E+01 0.28115963948E+01 0.24377098240E+01 0.21010333368E+01 0.18081786597E+01
 0.15611915359E+01 0.13589084337E+01 0.11981960688E+01 0.10749383413E+01 0.98478126739E+00
 0.92370289247E+00 0.88846534565E+00 0.87696670216E+00 0.97119766630E+00 0.10115519315E+01
 0.10749289088E+01 0.11644026976E+01 0.12835179262E+01 0.14358325342E+01 0.16243253971E+01
 0.18506320559E+01 0.21141036765E+01 0.24107729690E+01 0.27324288567E+01 0.30660896113E+01
 0.33941762491E+01 0.36956116984E+01 0.39479052953E+01 0.41300283886E+01 0.42255892175E+01
 0.42255890302E+01 0.41300294788E+01 0.39479093716E+01 0.36956148985E+01 0.33941689148E+01
 0.30660638628E+01 0.27323867198E+01 0.24107260417E+01 0.21140652506E+01 0.18506106774E+01
 0.16243239529E+01 0.14358486307E+01 0.12835426775E+01 0.11644225960E+01 0.10749336952E+01
 0.10115420564E+01 0.97118352182E+00 0.95160537362E+00 0.95161178846E+00 0.10938466729E+01
 0.11359227906E+01 0.11981848721E+01 0.12835179262E+01 0.13949964378E+01 0.15354215790E+01
 0.17067277268E+01 0.19092570505E+01 0.21409516134E+01 0.23965867256E+01 0.26672404493E+01
 0.29402187195E+01 0.31996149977E+01 0.34275951186E+01 0.36063689422E+01 0.37206201353E+01
 0.37599345099E+01 0.37206169490E+01 0.36063638870E+01 0.34275854626E+01 0.31995946271E+01
 0.29401868331E+01 0.26672060501E+01 0.23965618569E+01 0.21409427135E+01 0.19092645043E+01
 0.17067498666E+01 0.15354546461E+01 0.13950316318E+01 0.12835432981E+01 0.11981926476E+01
 0.11359146127E+01 0.10938318549E+01 0.10696068549E+01 0.10617131525E+01 0.10696175904E+01
 0.12623074777E+01 0.13019831257E+01 0.13589081986E+01 0.14358325342E+01 0.15354215790E+01
 0.16597979051E+01 0.18099915406E+01 0.19853245391E+01 0.21827965398E+01 0.23965866576E+01
 0.26178276068E+01 0.28348077426E+01 0.30337082755E+01 0.31999055422E+01 0.33197561941E+01
 0.33826104731E+01 0.33826089833E+01 0.33197516387E+01 0.31998960792E+01 0.30336908769E+01
 0.28347847876E+01 0.26178099537E+01 0.23965855983E+01 0.21828143952E+01 0.19853559109E+01
 0.18100303488E+01 0.16598385620E+01 0.15354558209E+01 0.14358516712E+01 0.13589097439E+01
 0.13019725051E+01 0.12622931577E+01 0.12374117879E+01 0.12254733100E+01 0.12254775051E+01
 0.12374230374E+01 0.14830519165E+01 0.15150260644E+01 0.15612105434E+01 0.16243253971E+01
 0.17067277268E+01 0.18099915406E+01 0.19344568358E+01 0.20787731178E+01 0.22394889289E+01
 0.24107729516E+01 0.25843837345E+01 0.27500076070E+01 0.28960474814E+01 0.30108701823E+01
 0.30843934317E+01 0.31097204254E+01 0.30843934835E+01 0.30108674673E+01 0.28960393404E+01
 0.27499965624E+01 0.25843788442E+01 0.24107833271E+01 0.22395159644E+01 0.20788105944E+01
 0.19344966533E+01 0.18100259599E+01 0.17067484145E+01 0.16243268919E+01 0.15611961947E+01
 0.15150067125E+01 0.14830370235E+01 0.14625868070E+01 0.14513574520E+01 0.14477980956E+01
 0.14513605461E+01 0.14625948111E+01 0.17625406974E+01 0.17798044457E+01 0.18082178043E+01
 0.18506320559E+01 0.19092570505E+01 0.19853245391E+01 0.20787731178E+01 0.21879593856E+01
 0.23094226012E+01 0.24377606323E+01 0.25657104694E+01 0.26845434014E+01 0.27848541965E+01
 0.28577285485E+01 0.28961215281E+01 0.28961241138E+01 0.28577334162E+01 0.27848564667E+01
 0.26845426607E+01 0.25657116607E+01 0.24377690440E+01 0.23094396580E+01 0.21879826921E+01
 0.20787975352E+01 0.19853417532E+01 0.19092574261E+01 0.18506116698E+01 0.18081842622E+01
 0.17797730804E+01 0.17625231715E+01 0.17533038583E+01 0.17491464751E+01 0.17477127893E+01
 0.17477105593E+01 0.17491429115E+01 0.17533070036E+01 0.21063877769E+01 0.20995895516E+01
 0.21010858129E+01 0.21141036765E+01 0.21409516134E+01 0.21827965398E+01 0.22394889289E+01
 0.23094226012E+01 0.23894405589E+01 0.24748251439E+01 0.25594529588E+01 0.26362227466E+01
 0.26978247461E+01 0.27377976346E+01 0.27516615950E+01 0.27378071161E+01 0.26978373464E+01
 0.26362327394E+01 0.25594586140E+01 0.24748260307E+01 0.23894367320E+01 0.23094168335E+01
 0.22394842045E+01 0.21827891428E+01 0.21409317516E+01 0.21140667501E+01 0.21010405804E+01
 0.20995525566E+01 0.21063705644E+01 0.21176519063E+01 0.21294089703E+01 0.21381070591E+01
 0.21412950801E+01 0.21380969123E+01 0.21293967178E+01 0.21176496113E+01 0.25180104185E+01
 0.24748249008E+01 0.24377604200E+01 0.24107729690E+01 0.23965867256E+01 0.23965866576E+01
 0.24107729516E+01 0.24377606323E+01 0.24748251439E+01 0.25180105165E+01 0.25623617721E+01
 0.26023756890E+01 0.26327137653E+01 0.26490880914E+01 0.26490960234E+01 0.26327331896E+01
 0.26023966412E+01 0.25623735630E+01 0.25180043290E+01 0.24747979158E+01 0.24377195700E+01
 0.24107313043E+01 0.23965508093E+01 0.23965515123E+01 0.24107329717E+01 0.24377214027E+01
 0.24747994627E+01 0.25180053846E+01 0.25623738727E+01 0.26023961927E+01 0.26327324345E+01
 0.26490953732E+01 0.26490874945E+01 0.26327131035E+01 0.26023751780E+01 0.25623615857E+01
 0.29966038584E+01 0.29013906754E+01 0.28116260829E+01 0.27324288567E+01 0.26672404493E+01
 0.26178276068E+01 0.25843837345E+01 0.25657104694E+01 0.25594529588E+01 0.25623617721E+01
 0.25706060756E+01 0.25802090000E+01 0.25876311555E+01 0.25904074817E+01 0.25876494201E+01
 0.25802359907E+01 0.25706242491E+01 0.25623518548E+01 0.25594058112E+01 0.25656363571E+01
 0.25843067340E+01 0.26177671235E+01 0.26671997665E+01 0.27324028248E+01 0.28116142279E+01
 0.29013965720E+01 0.29966256219E+01 0.30906569764E+01 0.31757740689E+01 0.32440002450E+01
 0.32882470725E+01 0.33035813456E+01 0.32882327809E+01 0.32439765473E+01 0.31757456042E+01
 0.30906279733E+01 0.35346249570E+01 0.33687742099E+01 0.32103705368E+01 0.30660896113E+01
 0.29402187195E+01 0.28348077426E+01 0.27500076070E+01 0.26845434014E+01 0.26362227466E+01
 0.26023756890E+01 0.25802090000E+01 0.25671419438E+01 0.25611661444E+01 0.25611760335E+01
 0.25671661628E+01 0.25802294923E+01 0.26023655529E+01 0.26361641686E+01 0.26844462315E+01
 0.27499057002E+01 0.28347339286E+01 0.29401850795E+01 0.30660905332E+01 0.32103969848E+01
 0.33688187852E+01 0.35346770038E+01 0.36990024389E+01 0.38510047264E+01 0.39790108554E+01
 0.40718904455E+01 0.41207936347E+01 0.41207907606E+01 0.40718814996E+01 0.39789932368E+01
 0.38509734449E+01 0.36989565488E+01 0.41154264480E+01 0.38587273414E+01 0.36155172319E+01
 0.33941762491E+01 0.31996149977E+01 0.30337082755E+01 0.28960474814E+01 0.27848541965E+01
 0.26978247461E+01 0.26327137653E+01 0.25876311555E+01 0.25611661444E+01 0.25524484937E+01
 0.25611813760E+01 0.25876477896E+01 0.26327035629E+01 0.26977623963E+01 0.27847455387E+01
 0.28959333768E+01 0.30336336200E+01 0.31995973169E+01 0.33942051845E+01 0.36155741543E+01
 0.38587964953E+01 0.41154931954E+01 0.43738058005E+01 0.46189272168E+01 0.48342470398E+01
 0.50031167838E+01 0.51110908172E+01 0.51482641293E+01 0.51110993345E+01 0.50031258759E+01
 0.48342443725E+01 0.46189021526E+01 0.43737558279E+01 0.47120135512E+01 0.43451202898E+01
 0.40030671958E+01 0.36956116984E+01 0.34275951186E+01 0.31999055422E+01 0.30108701823E+01
 0.28577285485E+01 0.27377976346E+01 0.26490880914E+01 0.25904074817E+01 0.25611760335E+01
 0.25611813760E+01 0.25904155556E+01 0.26490743882E+01 0.27377337662E+01 0.28576146969E+01
 0.30107502190E+01 0.31998349918E+01 0.34275948145E+01 0.36956606320E+01 0.40031336706E+01
 0.43451853094E+01 0.47120675292E+01 0.50888218208E+01 0.54558423310E+01 0.57903191494E+01
 0.60684683703E+01 0.62683562079E+01 0.63729743703E+01 0.63729851585E+01 0.62683826979E+01
 0.60684966672E+01 0.57903344432E+01 0.54558341052E+01 0.50887876958E+01 0.52878516828E+01
 0.47955464368E+01 0.43455040868E+01 0.39479052953E+01 0.36063689422E+01 0.33197561941E+01
 0.30843934317E+01 0.28961215281E+01 0.27516615950E+01 0.26490960234E+01 0.25876494201E+01
 0.25671661628E+01 0.25876477896E+01 0.26490743882E+01 0.27515938895E+01 0.28960043789E+01
 0.30842692126E+01 0.33196871679E+01 0.36063803167E+01 0.39479655991E+01 0.43455647428E+01
 0.47955846894E+01 0.52878700420E+01 0.58048068714E+01 0.63217327766E+01 0.68086765647E+01
 0.72331763473E+01 0.75638199320E+01 0.77741384435E+01 0.78463464880E+01 0.77741584875E+01
 0.75638532209E+01 0.72332127914E+01 0.68087056473E+01 0.63217466053E+01 0.58048040152E+01
 0.58001617336E+01 0.51747854643E+01 0.46150638355E+01 0.41300283886E+01 0.37206201353E+01
 0.33826104731E+01 0.31097204254E+01 0.28961241138E+01 0.27378071161E+01 0.26327331896E+01
 0.25802359907E+01 0.25802294923E+01 0.26327035629E+01 0.27377337662E+01 0.28960043789E+01
 0.31095942901E+01 0.33825417019E+01 0.37206376259E+01 0.41300951871E+01 0.46151165956E+01
 0.51747943152E+01 0.58001398522E+01 0.64721818382E+01 0.71618562341E+01 0.78318468751E+01
 0.84399734392E+01 0.89435224586E+01 0.93040540798E+01 0.94922761971E+01 0.94922758859E+01
 0.93040566743E+01 0.89435352882E+01 0.84399995597E+01 0.78318805663E+01 0.71618901485E+01
 0.64722133888E+01 0.62053786071E+01 0.54496435358E+01 0.47877497634E+01 0.42255892175E+01
 0.37599345099E+01 0.33826089833E+01 0.30843934835E+01 0.28577334162E+01 0.26978373464E+01
 0.26023966412E+01 0.25706242491E+01 0.26023655529E+01 0.26977623963E+01 0.28576146969E+01
 0.30842692126E+01 0.33825417019E+01 0.37599554421E+01 0.42256606874E+01 0.47877995371E+01
 0.54496338484E+01 0.62053278284E+01 0.70366813406E+01 0.79120291735E+01 0.87877827139E+01
 0.96121314565E+01 0.10329997899E+02 0.10888655191E+02 0.11243814773E+02 0.11365694583E+02
 0.11243769547E+02 0.10888594364E+02 0.10329958314E+02 0.96121300666E+01 0.87878114863E+01
 0.79120753535E+01 0.70367382098E+01 0.64657395052E+01 0.55941905758E+01 0.48472423954E+01
 0.42255890302E+01 0.37206169490E+01 0.33197516387E+01 0.30108674673E+01 0.27848564667E+01
 0.26362327394E+01 0.25623735630E+01 0.25623518548E+01 0.26361641686E+01 0.27847455387E+01
 0.30107502190E+01 0.33196871679E+01 0.37206376259E+01 0.42256606874E+01 0.48472914321E+01
 0.55941740708E+01 0.64656760468E+01 0.74470500756E+01 0.85068982935E+01 0.95979076935E+01
 0.10660417394E+02 0.11627541746E+02 0.12431062905E+02 0.13008343693E+02 0.13310484589E+02
 0.13310427792E+02 0.13008202583E+02 0.12430906957E+02 0.11627435574E+02 0.10660382000E+02
 0.95979247975E+01 0.85069463505E+01 0.74471177804E+01 0.65555589699E+01 0.55941914263E+01
 0.47877535647E+01 0.41300294788E+01 0.36063638870E+01 0.31998960792E+01 0.28960393404E+01
 0.26845426607E+01 0.25594586140E+01 0.25180043290E+01 0.25594058112E+01 0.26844462315E+01
 0.28959333768E+01 0.31998349918E+01 0.36063803167E+01 0.41300951871E+01 0.47877995371E+01
 0.55941740708E+01 0.65554956567E+01 0.76632306116E+01 0.88897547998E+01 0.10187806152E+02
 0.11493445182E+02 0.12730801372E+02 0.13817344617E+02 0.14670433296E+02 0.15216856744E+02
 0.15405082484E+02 0.15216706655E+02 0.14670194636E+02 0.13817111572E+02 0.12730647271E+02
 0.11493383522E+02 0.10187807537E+02 0.88897932995E+01 0.76632946785E+01 0.64657312720E+01
 0.54496474866E+01 0.46150740625E+01 0.39479093716E+01 0.34275854626E+01 0.30336908769E+01
 0.27499965624E+01 0.25657116607E+01 0.24748260307E+01 0.24747979158E+01 0.25656363571E+01
 0.27499057002E+01 0.30336336200E+01 0.34275948145E+01 0.39479655991E+01 0.46151165956E+01
 0.54496338484E+01 0.64656760468E+01 0.76632306116E+01 0.90219489514E+01 0.10498931143E+02
 0.12030720014E+02 0.13537363309E+02 0.14926319083E+02 0.16096151571E+02 0.16942675352E+02
 0.17386411606E+02 0.17386334961E+02 0.16942467304E+02 0.16095877771E+02 0.14926068653E+02
 0.13537198684E+02 0.12030643928E+02 0.10498912483E+02 0.90219687071E+01 0.76632818787E+01
 0.62053692853E+01 0.51747993741E+01 0.43455246630E+01 0.36956148985E+01 0.31995946271E+01
 0.28347847876E+01 0.25843788442E+01 0.24377690440E+01 0.23894367320E+01 0.24377195700E+01
 0.25843067340E+01 0.28347339286E+01 0.31995973169E+01 0.36956606320E+01 0.43455647428E+01
 0.51747943152E+01 0.62053278284E+01 0.74470500756E+01 0.88897547998E+01 0.10498931143E+02
 0.12216480328E+02 0.13964143545E+02 0.15646048162E+02 0.17143427731E+02 0.18322219307E+02
 0.19075287577E+02 0.19334183748E+02 0.19075187066E+02 0.18322028815E+02 0.17143190126E+02
 0.15645830646E+02 0.13963992224E+02 0.12216395450E+02 0.10498892742E+02 0.88897559799E+01
 0.74470861899E+01 0.58001675876E+01 0.47955814465E+01 0.40030964849E+01 0.33941689148E+01
 0.29401868331E+01 0.26178099537E+01 0.24107833271E+01 0.23094396580E+01 0.23094168335E+01
 0.24107313043E+01 0.26177671235E+01 0.29401850795E+01 0.33942051845E+01 0.40031336706E+01
 0.47955846894E+01 0.58001398522E+01 0.70366813406E+01 0.85068982935E+01 0.10187806152E+02
 0.12030720014E+02 0.13964143545E+02 0.15895749228E+02 0.17698089492E+02 0.19214101652E+02
 0.20309086867E+02 0.20883582672E+02 0.20883567155E+02 0.20309023776E+02 0.19213970041E+02
 0.17697908315E+02 0.15895570682E+02 0.13964007293E+02 0.12030631918E+02 0.10187758191E+02
 0.85068898141E+01 0.70367057575E+01 0.52878912952E+01 0.43451786285E+01 0.36155418615E+01
 0.30660638628E+01 0.26672060501E+01 0.23965855983E+01 0.22395159644E+01 0.21879826921E+01
 0.22394842045E+01 0.23965508093E+01 0.26671997665E+01 0.30660905332E+01 0.36155741543E+01
 0.43451853094E+01 0.52878700420E+01 0.64721818382E+01 0.79120291735E+01 0.95979076935E+01
 0.11493445182E+02 0.13537363309E+02 0.15646048162E+02 0.17698089492E+02 0.19522762500E+02
 0.20961394292E+02 0.21884194133E+02 0.22202482474E+02 0.21884215791E+02 0.20961382537E+02
 0.19522673314E+02 0.17697939934E+02 0.15645892956E+02 0.13537241332E+02 0.11493363713E+02
 0.95978629635E+01 0.79120221634E+01 0.64722032977E+01 0.47120910810E+01 0.38587912504E+01
 0.32103719116E+01 0.27323867198E+01 0.23965618569E+01 0.21828143952E+01 0.20788105944E+01
 0.20787975352E+01 0.21827891428E+01 0.23965515123E+01 0.27324028248E+01 0.32103969848E+01
 0.38587964953E+01 0.47120675292E+01 0.58048068714E+01 0.71618562341E+01 0.87877827139E+01
 0.10660417394E+02 0.12730801372E+02 0.14926319083E+02 0.17143427731E+02 0.19214101652E+02
 0.20961394292E+02 0.22230574388E+02 0.22899859667E+02 0.22899899173E+02 0.22230645516E+02
 0.20961408402E+02 0.19214020819E+02 0.17143290719E+02 0.14926184550E+02 0.12730697865E+02
 0.10660347138E+02 0.87877477887E+01 0.71618608347E+01 0.58048367859E+01 0.41155215972E+01
 0.33688151711E+01 0.28115963948E+01 0.24107260417E+01 0.21409427135E+01 0.19853559109E+01
 0.19344966533E+01 0.19853417532E+01 0.21409317516E+01 0.24107329717E+01 0.28116142279E+01
 0.33688187852E+01 0.41154931954E+01 0.50888218208E+01 0.63217327766E+01 0.78318468751E+01
 0.96121314565E+01 0.11627541746E+02 0.13817344617E+02 0.16096151571E+02 0.18322219307E+02
 0.20309086867E+02 0.21884194133E+02 0.22899859667E+02 0.23251317225E+02 0.22899954938E+02
 0.21884289924E+02 0.20309096412E+02 0.18322140309E+02 0.16096038544E+02 0.13817238181E+02
 0.11627453396E+02 0.96120699391E+01 0.78318298140E+01 0.63217623230E+01 0.50888693667E+01
 0.35347033114E+01 0.29013917882E+01 0.24377098240E+01 0.21140652506E+01 0.19092645043E+01
 0.18100303488E+01 0.18100259599E+01 0.19092574261E+01 0.21140667501E+01 0.24377214027E+01
 0.29013965720E+01 0.35346770038E+01 0.43738058005E+01 0.54558423310E+01 0.68086765647E+01
 0.84399734392E+01 0.10329997899E+02 0.12431062905E+02 0.14670433296E+02 0.16942675352E+02
 0.19075287577E+02 0.20883582672E+02 0.22202482474E+02 0.22899899173E+02 0.22899954938E+02
 0.22202599028E+02 0.20883665493E+02 0.19075292558E+02 0.16942625405E+02 0.14670360137E+02
 0.12430978241E+02 0.10329917693E+02 0.84399321863E+01 0.68086985507E+01 0.54559080428E+01
 0.43738677798E+01 0.29966400010E+01 0.24747920976E+01 0.21010333368E+01 0.18506106774E+01
 0.17067498666E+01 0.16598385620E+01 0.17067484145E+01 0.18506116698E+01 0.21010405804E+01
 0.24747994627E+01 0.29966256219E+01 0.36990024389E+01 0.46189272168E+01 0.57903191494E+01
 0.72331763473E+01 0.89435224586E+01 0.10888655191E+02 0.13008343693E+02 0.15216856744E+02
 0.17386411606E+02 0.19334183748E+02 0.20883567155E+02 0.21884215791E+02 0.22230645516E+02
 0.21884289924E+02 0.20883665493E+02 0.19334258602E+02 0.17386449053E+02 0.15216855279E+02
 0.13008297663E+02 0.10888579395E+02 0.89434655386E+01 0.72331875541E+01 0.57903969259E+01
 0.46190200887E+01 0.36990607127E+01 0.25180030063E+01 0.20995429169E+01 0.18081786597E+01
 0.16243239529E+01 0.15354546461E+01 0.15354558209E+01 0.16243268919E+01 0.18081842622E+01
 0.20995525566E+01 0.25180053846E+01 0.30906569764E+01 0.38510047264E+01 0.48342470398E+01
 0.60684683703E+01 0.75638199320E+01 0.93040540798E+01 0.11243814773E+02 0.13310484589E+02
 0.15405082484E+02 0.17386334961E+02 0.19075187066E+02 0.20309023776E+02 0.20961382537E+02
 0.20961408402E+02 0.20309096412E+02 0.19075292558E+02 0.17386449053E+02 0.15405166891E+02
 0.13310502093E+02 0.11243767504E+02 0.93039967218E+01 0.75638217434E+01 0.60685503232E+01
 0.48343634344E+01 0.38510921340E+01 0.30906899349E+01 0.21063552381E+01 0.17797633936E+01
 0.15611915359E+01 0.14358486307E+01 0.13950316318E+01 0.14358516712E+01 0.15611961947E+01
 0.17797730804E+01 0.21063705644E+01 0.25623738727E+01 0.31757740689E+01 0.39790108554E+01
 0.50031167838E+01 0.62683562079E+01 0.77741384435E+01 0.94922761971E+01 0.11365694583E+02
 0.13310427792E+02 0.15216706655E+02 0.16942467304E+02 0.18322028815E+02 0.19213970041E+02
 0.19522673314E+02 0.19214020819E+02 0.18322140309E+02 0.16942625405E+02 0.15216855279E+02
 0.13310502093E+02 0.11365679934E+02 0.94922261194E+01 0.77741325285E+01 0.62684327273E+01
 0.50032423753E+01 0.39791177179E+01 0.31758213623E+01 0.25623726487E+01 0.17625055078E+01
 0.15150012417E+01 0.13589084337E+01 0.12835426775E+01 0.12835432981E+01 0.13589097439E+01
 0.15150067125E+01 0.17625231715E+01 0.21176519063E+01 0.26023961927E+01 0.32440002450E+01
 0.40718904455E+01 0.51110908172E+01 0.63729743703E+01 0.78463464880E+01 0.94922758859E+01
 0.11243769547E+02 0.13008202583E+02 0.14670194636E+02 0.16095877771E+02 0.17143190126E+02
 0.17697908315E+02 0.17697939934E+02 0.17143290719E+02 0.16096038544E+02 0.14670360137E+02
 0.13008297663E+02 0.11243767504E+02 0.94922261194E+01 0.78463314439E+01 0.63730396407E+01
 0.51112125389E+01 0.40720040809E+01 0.32440562278E+01 0.26023941469E+01 0.21176268798E+01
 0.14830278442E+01 0.13019752549E+01 0.11981960688E+01 0.11644225960E+01 0.11981926476E+01
 0.13019725051E+01 0.14830370235E+01 0.17533038583E+01 0.21294089703E+01 0.26327324345E+01
 0.32882470725E+01 0.41207936347E+01 0.51482641293E+01 0.63729851585E+01 0.77741584875E+01
 0.93040566743E+01 0.10888594364E+02 0.12430906957E+02 0.13817111572E+02 0.14926068653E+02
 0.15645830646E+02 0.15895570682E+02 0.15645892956E+02 0.14926184550E+02 0.13817238181E+02
 0.12430978241E+02 0.10888579395E+02 0.93039967218E+01 0.77741325285E+01 0.63730396407E+01
 0.51483791540E+01 0.41209084615E+01 0.32883094176E+01 0.26327321349E+01 0.21293756873E+01
 0.17532750123E+01 0.12622969855E+01 0.11359248541E+01 0.10749383413E+01 0.10749336952E+01
 0.11359146127E+01 0.12622931577E+01 0.14625868070E+01 0.17491464751E+01 0.21381070591E+01
 0.26490953732E+01 0.33035813456E+01 0.41207907606E+01 0.51110993345E+01 0.62683826979E+01
 0.75638532209E+01 0.89435352882E+01 0.10329958314E+02 0.11627435574E+02 0.12730647271E+02
 0.13537198684E+02 0.13963992224E+02 0.13964007293E+02 0.13537241332E+02 0.12730697865E+02
 0.11627453396E+02 0.10329917693E+02 0.89434655386E+01 0.75638217434E+01 0.62684327273E+01
 0.51112125389E+01 0.41209084615E+01 0.33036511707E+01 0.26491017330E+01 0.21380721666E+01
 0.17491079899E+01 0.14625696639E+01 0.10938456727E+01 0.10115544696E+01 0.98478126739E+00
 0.10115420564E+01 0.10938318549E+01 0.12374117879E+01 0.14513574520E+01 0.17477127893E+01
 0.21412950801E+01 0.26490874945E+01 0.32882327809E+01 0.40718814996E+01 0.50031258759E+01
 0.60684966672E+01 0.72332127914E+01 0.84399995597E+01 0.96121300666E+01 0.10660382000E+02
 0.11493383522E+02 0.12030643928E+02 0.12216395450E+02 0.12030631918E+02 0.11493363713E+02
 0.10660347138E+02 0.96120699391E+01 0.84399321863E+01 0.72331875541E+01 0.60685503232E+01
 0.50032423753E+01 0.40720040809E+01 0.32883094176E+01 0.26491017330E+01 0.21412645922E+01
 0.17476704641E+01 0.14513310954E+01 0.12374104049E+01 0.97120096965E+00 0.92371103056E+00
 0.92370289247E+00 0.97118352182E+00 0.10696068549E+01 0.12254733100E+01 0.14477980956E+01
 0.17477105593E+01 0.21380969123E+01 0.26327131035E+01 0.32439765473E+01 0.39789932368E+01
 0.48342443725E+01 0.57903344432E+01 0.68087056473E+01 0.78318805663E+01 0.87878114863E+01
 0.95979247975E+01 0.10187807537E+02 0.10498912483E+02 0.10498892742E+02 0.10187758191E+02
 0.95978629635E+01 0.87877477887E+01 0.78318298140E+01 0.68086985507E+01 0.57903969259E+01
 0.48343634344E+01 0.39791177179E+01 0.32440562278E+01 0.26327321349E+01 0.21380721666E+01
 0.17476704641E+01 0.14477668511E+01 0.12254638245E+01 0.10696176397E+01 0.88847877645E+00
 0.86793225054E+00 0.88846534565E+00 0.95160537362E+00 0.10617131525E+01 0.12254775051E+01
 0.14513605461E+01 0.17491429115E+01 0.21293967178E+01 0.26023751780E+01 0.31757456042E+01
 0.38509734449E+01 0.46189021526E+01 0.54558341052E+01 0.63217466053E+01 0.71618901485E+01
 0.79120753535E+01 0.85069463505E+01 0.88897932995E+01 0.90219687071E+01 0.88897559799E+01
 0.85068898141E+01 0.79120221634E+01 0.71618608347E+01 0.63217623230E+01 0.54559080428E+01
 0.46190200887E+01 0.38510921340E+01 0.31758213623E+01 0.26023941469E+01 0.21293756873E+01
 0.17491079899E+01 0.14513310954E+01 0.12254638245E+01 0.10617175891E+01 0.95162108077E+00
 0.84092685077E+00 0.84092185148E+00 0.87696670216E+00 0.95161178846E+00 0.10696175904E+01
 0.12374230374E+01 0.14625948111E+01 0.17533070036E+01 0.21176496113E+01 0.25623615857E+01
 0.30906279733E+01 0.36989565488E+01 0.43737558279E+01 0.50887876958E+01 0.58048040152E+01
 0.64722133888E+01 0.70367382098E+01 0.74471177804E+01 0.76632946785E+01 0.76632818787E+01
 0.74470861899E+01 0.70367057575E+01 0.64722032977E+01 0.58048367859E+01 0.50888693667E+01
 0.43738677798E+01 0.36990607127E+01 0.30906899349E+01 0.25623726487E+01 0.21176268798E+01
 0.17532750123E+01 0.14625696639E+01 0.12374104049E+01 0.10696176397E+01 0.95162108077E+00
 0.87697798366E+00 0.84092460022E+00 0.86793728779E+00 0.92371329617E+00 0.10115521050E+01
 0.11359228661E+01 0.13019831064E+01 0.15150260765E+01 0.17798045050E+01 0.20995895728E+01
 0.24748249132E+01 0.29013907876E+01 0.33687743650E+01 0.38587273275E+01 0.43451199829E+01
 0.47955458330E+01 0.51747845460E+01 0.54496423841E+01 0.55941895989E+01 0.55941911770E+01
 0.54496481544E+01 0.51748005865E+01 0.47955825329E+01 0.43451789245E+01 0.38587903055E+01
 0.33688130363E+01 0.29013891690E+01 0.24747899750E+01 0.20995419141E+01 0.17797635762E+01
 0.15150023810E+01 0.13019770034E+01 0.11359267293E+01 0.10115560149E+01 0.92371209696E+00
 0.86793295969E+00 0.84092230429E+00 0.86793728779E+00 0.90265467426E+00 0.96274135276E+00
 0.10513114840E+01 0.11722803350E+01 0.13299401379E+01 0.15284030460E+01 0.17708497505E+01
 0.20585180191E+01 0.23894403280E+01 0.27570924649E+01 0.31492865685E+01 0.35477501380E+01
 0.39288078541E+01 0.42653896793E+01 0.45302485654E+01 0.46998775022E+01 0.47583082864E+01
 0.46998805369E+01 0.45302578140E+01 0.42654102383E+01 0.39288401078E+01 0.35477830159E+01
 0.31493021056E+01 0.27570800225E+01 0.23894047844E+01 0.20584743484E+01 0.17708128034E+01
 0.15283819310E+01 0.13299362994E+01 0.11722868593E+01 0.10513167815E+01 0.96273771782E+00
 0.90264401311E+00 0.86792828062E+00 0.85659041762E+00 0.92371329617E+00 0.96274135276E+00
 0.10238402423E+01 0.11098567969E+01 0.12241813484E+01 0.13703380984E+01 0.15513904973E+01
 0.17691303569E+01 0.20230784114E+01 0.23094224571E+01 0.26201194165E+01 0.29424427057E+01
 0.32592401509E+01 0.35500783377E+01 0.37932907250E+01 0.39687244263E+01 0.40607278389E+01
 0.40607267262E+01 0.39687234902E+01 0.37932941942E+01 0.35500863559E+01 0.32592460896E+01
 0.29424374441E+01 0.26200987373E+01 0.23093902713E+01 0.20230437537E+01 0.17691026306E+01
 0.15513764866E+01 0.13703395396E+01 0.12241926602E+01 0.11098669001E+01 0.10238399602E+01
 0.96273034433E+00 0.92369984534E+00 0.90471716989E+00 0.90472308790E+00 0.10115521050E+01
 0.10513114840E+01 0.11098567969E+01 0.11898281712E+01 0.12942007335E+01 0.14258476769E+01
 0.15869045426E+01 0.17779586842E+01 0.19971683195E+01 0.22394889100E+01 0.24962171163E+01
 0.27550367893E+01 0.30006804133E+01 0.32162318974E+01 0.33849960250E+01 0.34927183821E+01
 0.35297606021E+01 0.34927130230E+01 0.33849891983E+01 0.32162250988E+01 0.30006703053E+01
 0.27550202689E+01 0.24961958437E+01 0.22394674691E+01 0.19971506774E+01 0.17779482486E+01
 0.15869049537E+01 0.14258598925E+01 0.12942194418E+01 0.11898436098E+01 0.11098613656E+01
 0.10513047261E+01 0.10115402091E+01 0.98853562858E+00 0.98101567569E+00 0.98854436422E+00
 0.11359228661E+01 0.11722803350E+01 0.12241813484E+01 0.12942007335E+01 0.13850257895E+01
 0.14989781439E+01 0.16373779287E+01 0.17998227467E+01 0.19835144049E+01 0.21827965139E+01
 0.23890525081E+01 0.25910576507E+01 0.27758073761E+01 0.29297856264E+01 0.30405732072E+01
 0.30985844073E+01 0.30985817319E+01 0.30405666343E+01 0.29297766444E+01 0.27757948115E+01
 0.25910415052E+01 0.23890377890E+01 0.21827895121E+01 0.19835169097E+01 0.17998330273E+01
 0.16373950468E+01 0.14990010354E+01 0.13850493353E+01 0.12942171998E+01 0.12241864668E+01
 0.11722760075E+01 0.11359143743E+01 0.11129551002E+01 0.11018723833E+01 0.11018753320E+01
 0.11129626166E+01 0.13019831064E+01 0.13299401379E+01 0.13703380984E+01 0.14258476769E+01
 0.14989781439E+01 0.15915886056E+01 0.17043256744E+01 0.18360716420E+01 0.19835143788E+01
 0.21409515139E+01 0.23004157678E+01 0.24521620613E+01 0.25855102354E+01 0.26899961725E+01
 0.27567195100E+01 0.27796696795E+01 0.27567190140E+01 0.26899935419E+01 0.25855035140E+01
 0.24521523718E+01 0.23004090491E+01 0.21409545312E+01 0.19835289853E+01 0.18360945641E+01
 0.17043524853E+01 0.15916148366E+01 0.14989979000E+01 0.14258558898E+01 0.13703353268E+01
 0.13299323535E+01 0.13019759663E+01 0.12840091423E+01 0.12740726431E+01 0.12709062507E+01
 0.12740749817E+01 0.12840138092E+01 0.15150260765E+01 0.15284030460E+01 0.15513904973E+01
 0.15869045426E+01 0.16373779287E+01 0.17043256744E+01 0.17879261031E+01 0.18866736270E+01
 0.19971682773E+01 0.21141036237E+01 0.22305024580E+01 0.23382300710E+01 0.24287857920E+01
 0.24943223004E+01 0.25287587947E+01 0.25287612827E+01 0.24943268064E+01 0.24287870586E+01
 0.23382270442E+01 0.22304998319E+01 0.21141073339E+01 0.19971807838E+01 0.18866933851E+01
 0.17879490112E+01 0.17043453459E+01 0.16373868261E+01 0.15868987091E+01 0.15513741041E+01
 0.15283861493E+01 0.15150165657E+01 0.15082732492E+01 0.15054806933E+01 0.15046250402E+01
 0.15046239231E+01 0.15054788193E+01 0.15082748445E+01 0.17798045050E+01 0.17708497505E+01
 0.17691303569E+01 0.17779586842E+01 0.17998227467E+01 0.18360716420E+01 0.18866736270E+01
 0.19500600376E+01 0.20230784050E+01 0.21010858718E+01 0.21782239237E+01 0.22479156781E+01
 0.23035940179E+01 0.23395947020E+01 0.23520558687E+01 0.23396014305E+01 0.23036014289E+01
 0.22479186749E+01 0.21782225816E+01 0.21010831336E+01 0.20230771446E+01 0.19500627356E+01
 0.18866807551E+01 0.18360783344E+01 0.17998202408E+01 0.17779421196E+01 0.17691045204E+01
 0.17708257895E+01 0.17797914964E+01 0.17922448174E+01 0.18044537513E+01 0.18132260653E+01
 0.18164022220E+01 0.18132196348E+01 0.18044467098E+01 0.17922452004E+01 0.20995895728E+01
 0.20585180191E+01 0.20230784114E+01 0.19971683195E+01 0.19835144049E+01 0.19835143788E+01
 0.19971682773E+01 0.20230784050E+01 0.20585180466E+01 0.20995896001E+01 0.21415175442E+01
 0.21791258702E+01 0.22075033670E+01 0.22227705644E+01 0.22227753138E+01 0.22075138088E+01
 0.21791341321E+01 0.21415173965E+01 0.20995787188E+01 0.20584985340E+01 0.20230572696E+01
 0.19971534755E+01 0.19835067907E+01 0.19835061163E+01 0.19971517852E+01 0.20230554073E+01
 0.20584974273E+01 0.20995788843E+01 0.21415187291E+01 0.21791361111E+01 0.22075158570E+01
 0.22227770060E+01 0.22227716832E+01 0.22075039219E+01 0.21791260498E+01 0.21415175618E+01
 0.24748249132E+01 0.23894403280E+01 0.23094224571E+01 0.22394889100E+01 0.21827965139E+01
 0.21409515139E+01 0.21141036237E+01 0.21010858718E+01 0.20995896001E+01 0.21063877310E+01