   2   2   0   0
  0.2110118E+02  0.3907964E-09  0.3907964E-09  0.3907964E-09  0.5000000E-15
  1.000000000000000E-004
  CAR 
 unknown system                          
     16.47412928     -8.25016352  301      5.65677398      1.00000000
     -8.250  0.0000E+00  0.0000E+00
     -8.168  0.0000E+00  0.0000E+00
     -8.085  0.0000E+00  0.0000E+00
     -8.003  0.0000E+00  0.0000E+00
     -7.921  0.0000E+00  0.0000E+00
     -7.838  0.0000E+00  0.0000E+00
     -7.756  0.0000E+00  0.0000E+00
     -7.673  0.0000E+00  0.0000E+00
     -7.591  0.0000E+00  0.0000E+00
     -7.508  0.0000E+00  0.0000E+00
     -7.426  0.3508E-18  0.2891E-19
     -7.344  0.3333E-16  0.2776E-17
     -7.261  0.2734E-14  0.2281E-15
     -7.179  0.1609E-12  0.1349E-13
     -7.096  0.6784E-11  0.5726E-12
     -7.014  0.2052E-09  0.1748E-10
     -6.932  0.4460E-08  0.3850E-09
     -6.849  0.6987E-07  0.6143E-08
     -6.767  0.7920E-06  0.7141E-07
     -6.684  0.6537E-05  0.6102E-06
     -6.602  0.3966E-04  0.3879E-05
     -6.519  0.1793E-03  0.1866E-04
     -6.437  0.6148E-03  0.6933E-04
     -6.355  0.1635E-02  0.2041E-03
     -6.272  0.3455E-02  0.4888E-03
     -6.190  0.5962E-02  0.9801E-03
     -6.107  0.8689E-02  0.1696E-02
     -6.025  0.1121E-01  0.2620E-02
     -5.943  0.1350E-01  0.3732E-02
     -5.860  0.1571E-01  0.5027E-02
     -5.778  0.1762E-01  0.6479E-02
     -5.695  0.1883E-01  0.8030E-02
     -5.613  0.1971E-01  0.9655E-02
     -5.530  0.2132E-01  0.1141E-01
     -5.448  0.2384E-01  0.1338E-01
     -5.366  0.2591E-01  0.1551E-01
     -5.283  0.2644E-01  0.1769E-01
     -5.201  0.2633E-01  0.1986E-01
     -5.118  0.2718E-01  0.2210E-01
     -5.036  0.2920E-01  0.2451E-01
     -4.954  0.3154E-01  0.2711E-01
     -4.871  0.3381E-01  0.2989E-01
     -4.789  0.3594E-01  0.3285E-01
     -4.706  0.3731E-01  0.3593E-01
     -4.624  0.3733E-01  0.3901E-01
     -4.542  0.3654E-01  0.4202E-01
     -4.459  0.3711E-01  0.4508E-01
     -4.377  0.4125E-01  0.4848E-01
     -4.294  0.4820E-01  0.5245E-01
     -4.212  0.5417E-01  0.5691E-01
     -4.129  0.5668E-01  0.6158E-01
     -4.047  0.5694E-01  0.6628E-01
     -3.965  0.5702E-01  0.7098E-01
     -3.882  0.5670E-01  0.7565E-01
     -3.800  0.5432E-01  0.8012E-01
     -3.717  0.5021E-01  0.8426E-01
     -3.635  0.4799E-01  0.8822E-01
     -3.553  0.5070E-01  0.9240E-01
     -3.470  0.5595E-01  0.9701E-01
     -3.388  0.5761E-01  0.1018E+00
     -3.305  0.5234E-01  0.1061E+00
     -3.223  0.4250E-01  0.1096E+00
     -3.140  0.3303E-01  0.1123E+00
     -3.058  0.2718E-01  0.1145E+00
     -2.976  0.2588E-01  0.1167E+00
     -2.893  0.2895E-01  0.1191E+00
     -2.811  0.3463E-01  0.1219E+00
     -2.728  0.3892E-01  0.1251E+00
     -2.646  0.3758E-01  0.1282E+00
     -2.564  0.2971E-01  0.1307E+00
     -2.481  0.1869E-01  0.1322E+00
     -2.399  0.9153E-02  0.1330E+00
     -2.316  0.3470E-02  0.1332E+00
     -2.234  0.1313E-02  0.1333E+00
     -2.152  0.1900E-02  0.1335E+00
     -2.069  0.5948E-02  0.1340E+00
     -1.987  0.1499E-01  0.1352E+00
     -1.904  0.2785E-01  0.1375E+00
     -1.822  0.3846E-01  0.1407E+00
     -1.739  0.4078E-01  0.1441E+00
     -1.657  0.3598E-01  0.1470E+00
     -1.575  0.3177E-01  0.1496E+00
     -1.492  0.3509E-01  0.1525E+00
     -1.410  0.4717E-01  0.1564E+00
     -1.327  0.6338E-01  0.1616E+00
     -1.245  0.7671E-01  0.1680E+00
     -1.163  0.8292E-01  0.1748E+00
     -1.080  0.8145E-01  0.1815E+00
     -0.998  0.7273E-01  0.1875E+00
     -0.915  0.5954E-01  0.1924E+00
     -0.833  0.4861E-01  0.1964E+00
     -0.750  0.4460E-01  0.2001E+00
     -0.668  0.4384E-01  0.2037E+00
     -0.586  0.3943E-01  0.2070E+00
     -0.503  0.3110E-01  0.2095E+00
     -0.421  0.2504E-01  0.2116E+00
     -0.338  0.2556E-01  0.2137E+00
     -0.256  0.3126E-01  0.2163E+00
     -0.174  0.3729E-01  0.2193E+00
     -0.091  0.3849E-01  0.2225E+00
     -0.009  0.3295E-01  0.2252E+00
      0.074  0.2414E-01  0.2272E+00
      0.156  0.1784E-01  0.2287E+00
      0.239  0.1740E-01  0.2301E+00
      0.321  0.2175E-01  0.2319E+00
      0.403  0.2610E-01  0.2341E+00
      0.486  0.2560E-01  0.2362E+00
      0.568  0.1994E-01  0.2378E+00
      0.651  0.1363E-01  0.2389E+00
      0.733  0.1090E-01  0.2398E+00
      0.815  0.1211E-01  0.2408E+00
      0.898  0.1561E-01  0.2421E+00
      0.980  0.2082E-01  0.2438E+00
      1.063  0.2784E-01  0.2461E+00
      1.145  0.3575E-01  0.2491E+00
      1.227  0.4310E-01  0.2526E+00
      1.310  0.4922E-01  0.2567E+00
      1.392  0.5509E-01  0.2612E+00
      1.475  0.6290E-01  0.2664E+00
      1.557  0.7302E-01  0.2724E+00
      1.640  0.8143E-01  0.2791E+00
      1.722  0.8341E-01  0.2860E+00
      1.804  0.7913E-01  0.2925E+00
      1.887  0.7343E-01  0.2986E+00
      1.969  0.7060E-01  0.3044E+00
      2.052  0.7086E-01  0.3102E+00
      2.134  0.7177E-01  0.3162E+00
      2.216  0.7247E-01  0.3221E+00
      2.299  0.7564E-01  0.3284E+00
      2.381  0.8415E-01  0.3353E+00
      2.464  0.9553E-01  0.3432E+00
      2.546  0.1020E+00  0.3516E+00
      2.629  0.9968E-01  0.3598E+00
      2.711  0.9473E-01  0.3676E+00
      2.793  0.9506E-01  0.3754E+00
      2.876  0.9959E-01  0.3836E+00
      2.958  0.1011E+00  0.3920E+00
      3.041  0.9747E-01  0.4000E+00
      3.123  0.9470E-01  0.4078E+00
      3.205  0.9870E-01  0.4160E+00
      3.288  0.1057E+00  0.4247E+00
      3.370  0.1056E+00  0.4334E+00
      3.453  0.9445E-01  0.4412E+00
      3.535  0.7973E-01  0.4477E+00
      3.617  0.7280E-01  0.4537E+00
      3.700  0.7779E-01  0.4601E+00
      3.782  0.8857E-01  0.4674E+00
      3.865  0.9503E-01  0.4753E+00
      3.947  0.9180E-01  0.4828E+00
      4.030  0.8097E-01  0.4895E+00
      4.112  0.6899E-01  0.4952E+00
      4.194  0.6171E-01  0.5003E+00
      4.277  0.5992E-01  0.5052E+00
      4.359  0.5826E-01  0.5100E+00
      4.442  0.5113E-01  0.5142E+00
      4.524  0.3989E-01  0.5175E+00
      4.606  0.3103E-01  0.5201E+00
      4.689  0.2820E-01  0.5224E+00
      4.771  0.2861E-01  0.5248E+00
      4.854  0.2724E-01  0.5270E+00
      4.936  0.2256E-01  0.5289E+00
      5.019  0.1693E-01  0.5303E+00
      5.101  0.1264E-01  0.5313E+00
      5.183  0.9712E-02  0.5321E+00
      5.266  0.7089E-02  0.5327E+00
      5.348  0.4433E-02  0.5331E+00
      5.431  0.2219E-02  0.5332E+00
      5.513  0.8556E-03  0.5333E+00
      5.595  0.2508E-03  0.5333E+00
      5.678  0.7704E-04  0.5333E+00
      5.760  0.1559E-03  0.5333E+00
      5.843  0.6637E-03  0.5334E+00
      5.925  0.2166E-02  0.5336E+00
      6.008  0.5199E-02  0.5340E+00
      6.090  0.9343E-02  0.5348E+00
      6.172  0.1311E-01  0.5359E+00
      6.255  0.1574E-01  0.5372E+00
      6.337  0.1876E-01  0.5387E+00
      6.420  0.2413E-01  0.5407E+00
      6.502  0.3111E-01  0.5433E+00
      6.584  0.3668E-01  0.5463E+00
      6.667  0.3997E-01  0.5496E+00
      6.749  0.4359E-01  0.5532E+00
      6.832  0.4917E-01  0.5572E+00
      6.914  0.5469E-01  0.5617E+00
      6.996  0.5787E-01  0.5665E+00
      7.079  0.5932E-01  0.5714E+00
      7.161  0.6187E-01  0.5765E+00
      7.244  0.6926E-01  0.5822E+00
      7.326  0.8406E-01  0.5891E+00
      7.409  0.1034E+00  0.5976E+00
      7.491  0.1178E+00  0.6073E+00
      7.573  0.1189E+00  0.6171E+00
      7.656  0.1078E+00  0.6260E+00
      7.738  0.9397E-01  0.6338E+00
      7.821  0.8569E-01  0.6408E+00
      7.903  0.8469E-01  0.6478E+00
      7.985  0.8592E-01  0.6549E+00
      8.068  0.8349E-01  0.6618E+00
      8.150  0.7709E-01  0.6681E+00
      8.233  0.7161E-01  0.6740E+00
      8.315  0.7247E-01  0.6800E+00
      8.398  0.8309E-01  0.6869E+00
      8.480  0.1026E+00  0.6953E+00
      8.562  0.1238E+00  0.7055E+00
      8.645  0.1366E+00  0.7168E+00
      8.727  0.1366E+00  0.7280E+00
      8.810  0.1286E+00  0.7386E+00
      8.892  0.1202E+00  0.7485E+00
      8.974  0.1143E+00  0.7580E+00
      9.057  0.1085E+00  0.7669E+00
      9.139  0.1015E+00  0.7753E+00
      9.222  0.9495E-01  0.7831E+00
      9.304  0.9022E-01  0.7905E+00
      9.386  0.8735E-01  0.7977E+00
      9.469  0.8633E-01  0.8048E+00
      9.551  0.8624E-01  0.8119E+00
      9.634  0.8602E-01  0.8190E+00
      9.716  0.8631E-01  0.8261E+00
      9.799  0.8774E-01  0.8334E+00
      9.881  0.8904E-01  0.8407E+00
      9.963  0.9016E-01  0.8481E+00
     10.046  0.9375E-01  0.8559E+00
     10.128  0.9963E-01  0.8641E+00
     10.211  0.1016E+00  0.8724E+00
     10.293  0.9438E-01  0.8802E+00
     10.375  0.8099E-01  0.8869E+00
     10.458  0.6915E-01  0.8926E+00
     10.540  0.6309E-01  0.8978E+00
     10.623  0.6131E-01  0.9029E+00
     10.705  0.6188E-01  0.9080E+00
     10.788  0.6693E-01  0.9135E+00
     10.870  0.7855E-01  0.9199E+00
     10.952  0.9253E-01  0.9276E+00
     11.035  0.1014E+00  0.9359E+00
     11.117  0.1012E+00  0.9443E+00
     11.200  0.9235E-01  0.9519E+00
     11.282  0.7721E-01  0.9582E+00
     11.364  0.6080E-01  0.9633E+00
     11.447  0.4936E-01  0.9673E+00
     11.529  0.4627E-01  0.9711E+00
     11.612  0.4873E-01  0.9751E+00
     11.694  0.5001E-01  0.9793E+00
     11.777  0.4685E-01  0.9831E+00
     11.859  0.4299E-01  0.9867E+00
     11.941  0.4503E-01  0.9904E+00
     12.024  0.5658E-01  0.9950E+00
     12.106  0.7417E-01  0.1001E+01
     12.189  0.8700E-01  0.1008E+01
     12.271  0.8502E-01  0.1015E+01
     12.353  0.6855E-01  0.1021E+01
     12.436  0.4711E-01  0.1025E+01
     12.518  0.3094E-01  0.1027E+01
     12.601  0.2502E-01  0.1029E+01
     12.683  0.2721E-01  0.1032E+01
     12.765  0.3055E-01  0.1034E+01
     12.848  0.3035E-01  0.1037E+01
     12.930  0.2856E-01  0.1039E+01
     13.013  0.2904E-01  0.1041E+01
     13.095  0.3197E-01  0.1044E+01
     13.178  0.3540E-01  0.1047E+01
     13.260  0.3841E-01  0.1050E+01
     13.342  0.3956E-01  0.1053E+01
     13.425  0.3570E-01  0.1056E+01
     13.507  0.2596E-01  0.1059E+01
     13.590  0.1443E-01  0.1060E+01
     13.672  0.5997E-02  0.1060E+01
     13.754  0.2028E-02  0.1060E+01
     13.837  0.1296E-02  0.1061E+01
     13.919  0.2658E-02  0.1061E+01
     14.002  0.5408E-02  0.1061E+01
     14.084  0.8180E-02  0.1062E+01
     14.167  0.9302E-02  0.1063E+01
     14.249  0.8786E-02  0.1063E+01
     14.331  0.8396E-02  0.1064E+01
     14.414  0.8923E-02  0.1065E+01
     14.496  0.8961E-02  0.1066E+01
     14.579  0.7187E-02  0.1066E+01
     14.661  0.4299E-02  0.1066E+01
     14.743  0.1880E-02  0.1067E+01
     14.826  0.5973E-03  0.1067E+01
     14.908  0.1376E-03  0.1067E+01
     14.991  0.2295E-04  0.1067E+01
     15.073  0.2767E-05  0.1067E+01
     15.156  0.2409E-06  0.1067E+01
     15.238  0.1513E-07  0.1067E+01
     15.320  0.6842E-09  0.1067E+01
     15.403  0.2226E-10  0.1067E+01
     15.485  0.5202E-12  0.1067E+01
     15.568  0.8731E-14  0.1067E+01
     15.650  0.1052E-15  0.1067E+01
     15.732  0.0000E+00  0.1067E+01
     15.815  0.0000E+00  0.1067E+01
     15.897  0.0000E+00  0.1067E+01
     15.980  0.0000E+00  0.1067E+01
     16.062  0.0000E+00  0.1067E+01
     16.144  0.0000E+00  0.1067E+01
     16.227  0.0000E+00  0.1067E+01
     16.309  0.0000E+00  0.1067E+01
     16.392  0.0000E+00  0.1067E+01
     16.474  0.0000E+00  0.1067E+01
