    2    2   15    1
  0.2110118E+02  0.3907964E-09  0.3907964E-09  0.3907964E-09  0.5000000E-15
  1.000000000000000E-004
  CAR 
 unknown system                          
      8     60      8
 
  0.6250000E-01  0.6250000E-01  0.6250000E-01  0.3906250E-02
    1       -6.250164   1.000000
    2        4.769788   1.000000
    3        5.226185   0.998836
    4        5.226185   0.998836
    5        7.834146   0.000000
    6        7.967266   0.000000
    7        7.967266   0.000000
    8        8.551247   0.000000
 
  0.1875000E+00  0.6250000E-01  0.6250000E-01  0.1171875E-01
    1       -5.991137   1.000000
    2        3.280959   1.000000
    3        4.451434   1.000000
    4        5.109514   0.999946
    5        7.849802   0.000000
    6        8.205954   0.000000
    7        8.468906   0.000000
    8       10.075871   0.000000
 
  0.3125000E+00  0.6250000E-01  0.6250000E-01  0.1171875E-01
    1       -5.367031   1.000000
    2        1.120871   1.000000
    3        3.973082   1.000000
    4        4.662187   1.000000
    5        7.396911   0.000000
    6        8.697237   0.000000
    7        8.972636   0.000000
    8       11.687974   0.000000
 
  0.4375000E+00  0.6250000E-01  0.6250000E-01  0.1171875E-01
    1       -4.501289   1.000000
    2       -0.700744   1.000000
    3        3.758239   1.000000
    4        4.268436   1.000000
    5        7.084256   0.000000
    6        8.781251   0.000000
    7        8.794940   0.000000
    8       12.991358   0.000000
 
 -0.4375000E+00  0.6250000E-01  0.6250000E-01  0.1171875E-01
    1       -4.076560   1.000000
    2       -1.370365   1.000000
    3        3.802781   1.000000
    4        4.058889   1.000000
    5        7.005988   0.000000
    6        8.598920   0.000000
    7        8.860445   0.000000
    8       13.094435   0.000000
 
 -0.3125000E+00  0.6250000E-01  0.6250000E-01  0.1171875E-01
    1       -4.796743   1.000000
    2       -0.163628   1.000000
    3        4.079518   1.000000
    4        4.081790   1.000000
    5        7.174192   0.000000
    6        8.592381   0.000000
    7        9.098610   0.000000
    8       12.131936   0.000000
 
 -0.1875000E+00  0.6250000E-01  0.6250000E-01  0.1171875E-01
    1       -5.611486   1.000000
    2        1.828460   1.000000
    3        4.352000   1.000000
    4        4.530827   1.000000
    5        7.539368   0.000000
    6        8.419054   0.000000
    7        9.127973   0.000000
    8       10.923101   0.000000
 
 -0.6250000E-01  0.6250000E-01  0.6250000E-01  0.1171875E-01
    1       -6.119944   1.000000
    2        4.017546   1.000000
    3        4.818554   1.000000
    4        4.962093   1.000000
    5        7.686162   0.000000
    6        8.174129   0.000000
    7        8.524145   0.000000
    8        9.325708   0.000000
 
  0.1875000E+00  0.1875000E+00  0.6250000E-01  0.1171875E-01
    1       -5.860731   1.000000
    2        3.122772   1.000000
    3        4.282005   1.000000
    4        4.351548   1.000000
    5        7.282437   0.000000
    6        8.895063   0.000000
    7        9.354226   0.000000
    8        9.809962   0.000000
 
  0.3125000E+00  0.1875000E+00  0.6250000E-01  0.2343750E-01
    1       -5.354311   1.000000
    2        1.658276   1.000000
    3        3.344097   1.000000
    4        4.102880   1.000000
    5        7.444354   0.000000
    6        8.999059   0.000000
    7        9.753659   0.000000
    8       10.131114   0.000000
 
  0.4375000E+00  0.1875000E+00  0.6250000E-01  0.2343750E-01
    1       -4.541258   1.000000
    2       -0.129972   1.000000
    3        2.851003   1.000000
    4        3.711324   1.000000
    5        7.620379   0.000000
    6        8.991845   0.000000
    7       10.159229   0.000000
    8       10.467387   0.000000
 
 -0.4375000E+00  0.1875000E+00  0.6250000E-01  0.2343750E-01
    1       -3.816284   1.000000
    2       -1.286374   1.000000
    3        2.567171   1.000000
    4        3.623079   1.000000
    5        7.670521   0.000000
    6        8.730342   0.000000
    7       10.024902   0.000000
    8       12.410234   0.000000
 
 -0.3125000E+00  0.1875000E+00  0.6250000E-01  0.2343750E-01
    1       -4.250938   1.000000
    2       -0.628009   1.000000
    3        2.502622   1.000000
    4        3.895169   1.000000
    5        7.916750   0.000000
    6        8.667107   0.000000
    7        9.964849   0.000000
    8       11.687839   0.000000
 
 -0.1875000E+00  0.1875000E+00  0.6250000E-01  0.2343750E-01
    1       -5.115526   1.000000
    2        1.031918   1.000000
    3        2.808679   1.000000
    4        4.381763   1.000000
    5        8.229757   0.000000
    6        8.554609   0.000000
    7        9.837208   0.000000
    8       10.334641   0.000000
 
 -0.6250000E-01  0.1875000E+00  0.6250000E-01  0.2343750E-01
    1       -5.734923   1.000000
    2        2.475540   1.000000
    3        3.894896   1.000000
    4        4.740014   1.000000
    5        7.815119   0.000000
    6        8.393639   0.000000
    7        9.173668   0.000000
    8       10.348087   0.000000
 
  0.3125000E+00  0.3125000E+00  0.6250000E-01  0.1171875E-01
    1       -4.967004   1.000000
    2        1.144764   1.000000
    3        3.208042   1.000000
    4        3.325420   1.000000
    5        6.501539   0.000000
    6        8.134617   0.000000
    7       11.146771   0.000000
    8       11.302420   0.000000
 
  0.4375000E+00  0.3125000E+00  0.6250000E-01  0.2343750E-01
    1       -4.242002   1.000000
    2       -0.055385   1.000000
    3        2.452472   1.000000
    4        2.992689   1.000000
    5        6.809561   0.000000
    6        7.977382   0.000000
    7       11.112749   0.000000
    8       12.264371   0.000000
 
 -0.4375000E+00  0.3125000E+00  0.6250000E-01  0.2343750E-01
    1       -3.382072   1.000000
    2       -1.204239   1.000000
    3        1.643810   1.000000
    4        2.961779   1.000000
    5        7.043143   0.000000
    6        9.591016   0.000000
    7       10.698964   0.000000
    8       12.177254   0.000000
 
 -0.3125000E+00  0.3125000E+00  0.6250000E-01  0.2343750E-01
    1       -3.452827   1.000000
    2       -1.112106   1.000000
    3        1.308149   1.000000
    4        3.292060   1.000000
    5        7.426399   0.000000
    6       10.283042   0.000000
    7       11.524364   0.000000
    8       11.886429   0.000000
 
 -0.1875000E+00  0.3125000E+00  0.6250000E-01  0.2343750E-01
    1       -4.312344   1.000000
    2       -0.181301   1.000000
    3        1.883540   1.000000
    4        3.853425   1.000000
    5        8.012420   0.000000
    6        9.206581   0.000000
    7       10.574931   0.000000
    8       10.884156   0.000000
 
 -0.6250000E-01  0.3125000E+00  0.6250000E-01  0.2343750E-01
    1       -5.006998   1.000000
    2        0.463380   1.000000
    3        3.444377   1.000000
    4        4.285031   1.000000
    5        7.676536   0.000000
    6        8.595744   0.000000
    7        9.435061   0.000000
    8       11.091592   0.000000
 
  0.4375000E+00  0.4375000E+00  0.6250000E-01  0.1171875E-01
    1       -3.609900   1.000000
    2       -0.894485   1.000000
    3        2.545402   1.000000
    4        2.751000   1.000000
    5        6.128570   0.000425
    6        6.833464   0.000000
    7       13.375686   0.000000
    8       13.405389   0.000000
 
 -0.4375000E+00  0.4375000E+00  0.6250000E-01  0.2343750E-01
    1       -2.733514   1.000000
    2       -1.852626   1.000000
    3        2.014483   1.000000
    4        2.519816   1.000000
    5        6.551804   0.000000
    6        7.258087   0.000000
    7       13.147121   0.000000
    8       14.101272   0.000000
 
 -0.3125000E+00  0.4375000E+00  0.6250000E-01  0.2343750E-01
    1       -2.835938   1.000000
    2       -1.686373   1.000000
    3        1.318594   1.000000
    4        2.823135   1.000000
    5        6.902500   0.000000
    6        9.434960   0.000000
    7       11.665350   0.000000
    8       12.762489   0.000000
 
 -0.1875000E+00  0.4375000E+00  0.6250000E-01  0.2343750E-01
    1       -3.568543   1.000000
    2       -1.258767   1.000000
    3        1.826190   1.000000
    4        3.401164   1.000000
    5        7.535994   0.000000
    6        9.446113   0.000000
    7       10.940749   0.000000
    8       12.168472   0.000000
 
 -0.6250000E-01  0.4375000E+00  0.6250000E-01  0.2343750E-01
    1       -4.154178   1.000000
    2       -1.091256   1.000000
    3        3.267886   1.000000
    4        3.963527   1.000000
    5        7.466884   0.000000
    6        8.533633   0.000000
    7        9.273447   0.000000
    8       12.731769   0.000000
 
 -0.4375000E+00 -0.4375000E+00  0.6250000E-01  0.1171875E-01
    1       -2.780875   1.000000
    2       -1.868025   1.000000
    3        2.412400   1.000000
    4        2.633568   1.000000
    5        6.131634   0.000393
    6        6.482348   0.000000
    7       14.422788   0.000000
    8       14.474129   0.000000
 
 -0.3125000E+00 -0.4375000E+00  0.6250000E-01  0.2343750E-01
    1       -3.528823   1.000000
    2       -0.956883   1.000000
    3        2.164420   1.000000
    4        2.674366   1.000000
    5        6.632039   0.000000
    6        7.506501   0.000000
    7       12.104255   0.000000
    8       13.385621   0.000000
 
 -0.1875000E+00 -0.4375000E+00  0.6250000E-01  0.2343750E-01
    1       -3.987607   1.000000
    2       -0.675399   1.000000
    3        2.207372   1.000000
    4        3.250824   1.000000
    5        7.305599   0.000000
    6        9.767685   0.000000
    7        9.932616   0.000000
    8       11.151513   0.000000
 
 -0.3125000E+00 -0.3125000E+00  0.6250000E-01  0.1171875E-01
    1       -4.342492   1.000000
    2        0.118709   1.000000
    3        2.811053   1.000000
    4        2.983452   1.000000
    5        6.250421   0.000013
    6        7.397324   0.000000
    7       12.244816   0.000000
    8       12.340798   0.000000
 
 -0.1875000E+00 -0.3125000E+00  0.6250000E-01  0.2343750E-01
    1       -4.854196   1.000000
    2        0.819201   1.000000
    3        2.854462   1.000000
    4        3.480371   1.000000
    5        7.087046   0.000000
    6        8.624192   0.000000
    7       10.195776   0.000000
    8       11.168197   0.000000
 
 -0.1875000E+00 -0.1875000E+00  0.6250000E-01  0.1171875E-01
    1       -5.475070   1.000000
    2        2.155483   1.000000
    3        3.730436   1.000000
    4        3.765900   1.000000
    5        6.859746   0.000000
    6        8.929280   0.000000
    7       10.144198   0.000000
    8       10.300180   0.000000
 
  0.1875000E+00  0.1875000E+00  0.1875000E+00  0.3906250E-02
    1       -5.864010   1.000000
    2        2.581970   1.000000
    3        4.800326   1.000000
    4        4.800326   1.000000
    5        7.397795   0.000000
    6        8.566777   0.000000
    7        8.566777   0.000000
    8       10.699941   0.000000
 
  0.3125000E+00  0.1875000E+00  0.1875000E+00  0.1171875E-01
    1       -5.485187   1.000000
    2        1.747032   1.000000
    3        3.342500   1.000000
    4        4.813308   1.000000
    5        8.050304   0.000000
    6        8.689547   0.000000
    7        8.963221   0.000000
    8       10.868043   0.000000
 
  0.4375000E+00  0.1875000E+00  0.1875000E+00  0.1171875E-01
    1       -4.764718   1.000000
    2        0.408086   1.000000
    3        2.299322   1.000000
    4        4.326945   1.000000
    5        7.948349   0.000000
    6        9.427874   0.000000
    7        9.611431   0.000000
    8       11.153824   0.000000
 
 -0.4375000E+00  0.1875000E+00  0.1875000E+00  0.1171875E-01
    1       -3.908004   1.000000
    2       -1.019348   1.000000
    3        2.138980   1.000000
    4        3.815782   1.000000
    5        7.489298   0.000000
    6        9.571076   0.000000
    7        9.828297   0.000000
    8       12.983772   0.000000
 
 -0.3125000E+00  0.1875000E+00  0.1875000E+00  0.1171875E-01
    1       -3.892535   1.000000
    2       -1.047056   1.000000
    3        2.424001   1.000000
    4        3.510490   1.000000
    5        7.234344   0.000000
    6        9.628827   0.000000
    7       10.165729   0.000000
    8       11.109619   0.000000
 
 -0.1875000E+00  0.1875000E+00  0.1875000E+00  0.1171875E-01
    1       -4.747657   1.000000
    2        0.404978   1.000000
    3        3.018578   1.000000
    4        3.489595   1.000000
    5        7.172483   0.000000
    6        9.291373   0.000000
    7        9.921275   0.000000
    8       10.512831   0.000000
 
  0.3125000E+00  0.3125000E+00  0.1875000E+00  0.1171875E-01
    1       -5.237245   1.000000
    2        1.104643   1.000000
    3        3.812511   1.000000
    4        3.893876   1.000000
    5        7.532632   0.000000
    6        8.819974   0.000000
    7        9.784707   0.000000
    8       10.184793   0.000000
 
  0.4375000E+00  0.3125000E+00  0.1875000E+00  0.2343750E-01
    1       -4.632821   1.000000
    2        0.335015   1.000000
    3        2.354447   1.000000
    4        3.703221   1.000000
    5        8.028344   0.000000
    6        9.003427   0.000000
    7        9.554974   0.000000
    8       10.997541   0.000000
 
 -0.4375000E+00  0.3125000E+00  0.1875000E+00  0.2343750E-01
    1       -3.775781   1.000000
    2       -0.740096   1.000000
    3        1.596767   1.000000
    4        3.160675   1.000000
    5        8.470559   0.000000
    6        8.948024   0.000000
    7       10.192020   0.000000
    8       12.066217   0.000000
 
 -0.3125000E+00  0.3125000E+00  0.1875000E+00  0.2343750E-01
    1       -3.310286   1.000000
    2       -1.326249   1.000000
    3        1.594093   1.000000
    4        2.861839   1.000000
    5        8.021072   0.000000
    6        9.266738   0.000000
    7       10.955332   0.000000
    8       12.179746   0.000000
 
 -0.1875000E+00  0.3125000E+00  0.1875000E+00  0.2343750E-01
    1       -4.047935   1.000000
    2       -0.365136   1.000000
    3        2.006078   1.000000
    4        3.032846   1.000000
    5        7.757728   0.000000
    6        8.956640   0.000000
    7        9.758739   0.000000
    8       12.182495   0.000000
 
  0.4375000E+00  0.4375000E+00  0.1875000E+00  0.1171875E-01
    1       -4.153077   1.000000
    2       -0.304136   1.000000
    3        2.323475   1.000000
    4        3.169741   1.000000
    5        6.811943   0.000000
    6        8.792166   0.000000
    7       10.939002   0.000000
    8       11.316176   0.000000
 
 -0.4375000E+00  0.4375000E+00  0.1875000E+00  0.2343750E-01
    1       -3.378297   1.000000
    2       -1.091769   1.000000
    3        1.775726   1.000000
    4        2.518603   1.000000
    5        7.563925   0.000000
    6        8.558005   0.000000
    7       10.632699   0.000000
    8       13.346934   0.000000
 
 -0.3125000E+00  0.4375000E+00  0.1875000E+00  0.2343750E-01
    1       -2.602533   1.000000
    2       -1.826582   1.000000
    3        1.475122   1.000000
    4        2.039078   1.000000
    5        8.660683   0.000000
    6        9.581834   0.000000
    7       10.185921   0.000000
    8       11.180901   0.000000
 
 -0.1875000E+00  0.4375000E+00  0.1875000E+00  0.2343750E-01
    1       -3.183927   1.000000
    2       -1.289370   1.000000
    3        1.462684   1.000000
    4        2.495345   1.000000
    5        8.756398   0.000000
    6        9.162143   0.000000
    7        9.888145   0.000000
    8       12.317001   0.000000
 
 -0.4375000E+00 -0.4375000E+00  0.1875000E+00  0.1171875E-01
    1       -2.757401   1.000000
    2       -1.801459   1.000000
    3        1.574503   1.000000
    4        2.838386   1.000000
    5        6.399181   0.000000
    6        8.244928   0.000000
    7       13.076096   0.000000
    8       13.233860   0.000000
 
 -0.3125000E+00 -0.4375000E+00  0.1875000E+00  0.2343750E-01
    1       -2.660183   1.000000
    2       -1.834912   1.000000
    3        1.664681   1.000000
    4        2.242100   1.000000
    5        7.464869   0.000000
    6        8.357219   0.000000
    7       11.614058   0.000000
    8       12.697233   0.000000
 
 -0.3125000E+00 -0.3125000E+00  0.1875000E+00  0.1171875E-01
    1       -3.471786   1.000000
    2       -1.051441   1.000000
    3        1.826824   1.000000
    4        2.949977   1.000000
    5        6.541811   0.000000
    6        8.426400   0.000000
    7       12.070346   0.000000
    8       12.196497   0.000000
 
  0.3125000E+00  0.3125000E+00  0.3125000E+00  0.3906250E-02
    1       -5.134555   1.000000
    2        0.441884   1.000000
    3        4.398201   1.000000
    4        4.398201   1.000000
    5        6.944986   0.000000
    6        8.814537   0.000000
    7        8.814537   0.000000
    8       12.741510   0.000000
 
  0.4375000E+00  0.3125000E+00  0.3125000E+00  0.1171875E-01
    1       -4.672494   1.000000
    2       -0.126689   1.000000
    3        2.975801   1.000000
    4        4.312115   1.000000
    5        7.679592   0.000000
    6        9.027087   0.000000
    7        9.079849   0.000000
    8       12.159633   0.000000
 
 -0.4375000E+00  0.3125000E+00  0.3125000E+00  0.1171875E-01
    1       -3.909684   1.000000
    2       -0.670500   1.000000
    3        1.518945   1.000000
    4        3.754497   1.000000
    5        7.428889   0.000000
    6       10.424085   0.000000
    7       10.568184   0.000000
    8       11.898869   0.000000
 
 -0.3125000E+00  0.3125000E+00  0.3125000E+00  0.1171875E-01
    1       -3.121212   1.000000
    2       -1.436262   1.000000
    3        1.200741   1.000000
    4        3.228010   1.000000
    5        6.846444   0.000000
    6       10.651817   0.000000
    7       11.660185   0.000000
    8       11.863263   0.000000
 
  0.4375000E+00  0.4375000E+00  0.3125000E+00  0.1171875E-01
    1       -4.371184   1.000000
    2       -0.664213   1.000000
    3        3.291918   1.000000
    4        3.771784   1.000000
    5        7.435609   0.000000
    6        8.780922   0.000000
    7        9.554465   0.000000
    8       11.536693   0.000000
 
 -0.4375000E+00  0.4375000E+00  0.3125000E+00  0.2343750E-01
    1       -3.775115   1.000000
    2       -1.028625   1.000000
    3        2.037384   1.000000
    4        3.318594   1.000000
    5        8.208760   0.000000
    6        8.581930   0.000000
    7       11.010045   0.000000
    8       11.299891   0.000000
 
 -0.3125000E+00  0.4375000E+00  0.3125000E+00  0.2343750E-01
    1       -2.986961   1.000000
    2       -1.505423   1.000000
    3        1.289726   1.000000
    4        2.634429   1.000000
    5        7.899422   0.000000
    6       10.096194   0.000000
    7       10.842393   0.000000
    8       11.344526   0.000000
 
 -0.4375000E+00 -0.4375000E+00  0.3125000E+00  0.1171875E-01
    1       -3.431246   1.000000
    2       -1.305648   1.000000
    3        1.667112   1.000000
    4        3.324341   1.000000
    5        6.986969   0.000000
    6       10.608165   0.000000
    7       10.905481   0.000000
    8       10.916431   0.000000
 
  0.4375000E+00  0.4375000E+00  0.4375000E+00  0.3906250E-02
    1       -4.283317   1.000000
    2       -1.144169   1.000000
    3        4.182178   1.000000
    4        4.182178   1.000000
    5        6.693157   0.000000
    6        8.695846   0.000000
    7        8.695846   0.000000
    8       12.999366   0.000000
 
 -0.4375000E+00  0.4375000E+00  0.4375000E+00  0.1171875E-01
    1       -3.947269   1.000000
    2       -1.318725   1.000000
    3        2.988027   1.000000
    4        3.925675   1.000000
    5        7.446053   0.000000
    6        8.794839   0.000000
    7        9.255976   0.000000
    8       13.322179   0.000000
