       N       E                     dE             d eps       ncg     rms          rms(c)
DAV:   1     0.475446741230E+01    0.47545E+01   -0.27433E+03   960   0.586E+02
DAV:   2    -0.108073692502E+02   -0.15562E+02   -0.15003E+02  1536   0.740E+01
DAV:   3    -0.109868889115E+02   -0.17952E+00   -0.17952E+00  1176   0.103E+01
DAV:   4    -0.109877275407E+02   -0.83863E-03   -0.83863E-03  1560   0.771E-01
DAV:   5    -0.109877280977E+02   -0.55700E-06   -0.55765E-06  1264   0.178E-02    0.288E+00
DAV:   6    -0.108844107488E+02    0.10332E+00   -0.65725E-02  1160   0.133E+00    0.172E+00
DAV:   7    -0.108353585926E+02    0.49052E-01   -0.12748E-01  1200   0.198E+00    0.143E-01
DAV:   8    -0.108366898202E+02   -0.13312E-02   -0.37879E-03  1136   0.452E-01    0.252E-02
DAV:   9    -0.108367956065E+02   -0.10579E-03   -0.10757E-04   784   0.829E-02
   1 F= -.10836796E+02 E0= -.10836786E+02  d E =-.108368E+02
