unknown system                          
   1.00000000000000     
     0.000000    2.763622    2.763622
     2.763622    0.000000    2.763622
     2.763622    2.763622    0.000000
   Si
     2
Direct
  0.500000  0.500000  0.500000
  0.750000  0.750000  0.750000
 
   36   36   36
 0.82513     0.84061     0.88815     0.97084      1.0935      1.2619      1.4826      1.7620      2.1058      2.5174    
  2.9959      3.5338      4.1146      4.7111      5.2869      5.7992      6.2044      6.4647      6.5546      6.4647    
  6.2044      5.7992      5.2870      4.7112      4.1147      3.5339      2.9959      2.5173      2.1058      1.7620    
  1.4826      1.2619      1.0935     0.97085     0.88815     0.84061     0.84061     0.86761     0.92337      1.0112    
  1.1355      1.3015      1.5145      1.7793      2.0990      2.4742      2.9007      3.3680      3.8579      4.3442    
  4.7946      5.1738      5.4486      5.5932      5.5932      5.4487      5.1738      4.7946      4.3443      3.8579    
  3.3680      2.9007      2.4741      2.0989      1.7792      1.5145      1.3015      1.1355      1.0112     0.92337    
 0.86761     0.84061     0.88815     0.92337     0.98442      1.0745      1.1978      1.3584      1.5607      1.8077    
  2.1005      2.4371      2.8109      3.2096      3.6147      4.0022      4.3446      4.6141      4.7868      4.8463    
  4.7868      4.6141      4.3446      4.0022      3.6147      3.2096      2.8109      2.4370      2.1004      1.8076    
  1.5607      1.3584      1.1978      1.0746     0.98442     0.92336     0.88814     0.87664     0.97084      1.0112    
  1.0745      1.1640      1.2831      1.4353      1.6238      1.8501      2.1135      2.4101      2.7317      3.0653    
  3.3934      3.6947      3.9470      4.1291      4.2247      4.2247      4.1291      3.9470      3.6948      3.3933    
  3.0653      2.7317      2.4100      2.1134      1.8500      1.6238      1.4354      1.2831      1.1640      1.0745    
  1.0112     0.97083     0.95126     0.95127      1.0935      1.1355      1.1978      1.2831      1.3945      1.5349    
  1.7062      1.9087      2.1403      2.3959      2.6665      2.9395      3.1988      3.4268      3.6055      3.7198    
  3.7591      3.7198      3.6055      3.4268      3.1988      2.9394      2.6665      2.3959      2.1403      1.9087    
  1.7062      1.5349      1.3946      1.2831      1.1978      1.1355      1.0934      1.0692      1.0613      1.0692    
  1.2619      1.3015      1.3584      1.4353      1.5349      1.6592      1.8094      1.9847      2.1821      2.3959    
  2.6171      2.8341      3.0329      3.1991      3.3190      3.3818      3.3818      3.3190      3.1991      3.0329    
  2.8340      2.6171      2.3959      2.1822      1.9847      1.8094      1.6593      1.5349      1.4354      1.3584    
  1.3015      1.2619      1.2370      1.2251      1.2251      1.2370      1.4826      1.5145      1.5607      1.6238    
  1.7062      1.8094      1.9338      2.0781      2.2388      2.4101      2.5837      2.7493      2.8953      3.0101    
  3.0836      3.1090      3.0836      3.0101      2.8953      2.7493      2.5837      2.4101      2.2389      2.0782    
  1.9339      1.8094      1.7062      1.6238      1.5607      1.5145      1.4826      1.4621      1.4509      1.4473    
  1.4509      1.4621      1.7620      1.7793      1.8077      1.8501      1.9087      1.9847      2.0781      2.1873    
  2.3088      2.4371      2.5650      2.6839      2.7842      2.8570      2.8954      2.8954      2.8570      2.7842    
  2.6839      2.5650      2.4371      2.3088      2.1873      2.0782      1.9847      1.9087      1.8500      1.8076    
  1.7792      1.7620      1.7528      1.7486      1.7472      1.7472      1.7486      1.7528      2.1058      2.0990    
  2.1005      2.1135      2.1403      2.1821      2.2388      2.3088      2.3888      2.4742      2.5588      2.6356    
  2.6972      2.7371      2.7510      2.7372      2.6972      2.6356      2.5588      2.4742      2.3888      2.3088    
  2.2388      2.1821      2.1403      2.1134      2.1004      2.0989      2.1058      2.1171      2.1288      2.1375    
  2.1407      2.1375      2.1288      2.1171      2.5174      2.4742      2.4371      2.4101      2.3959      2.3959    
  2.4101      2.4371      2.4742      2.5174      2.5617      2.6017      2.6321      2.6485      2.6485      2.6321    
  2.6018      2.5617      2.5173      2.4741      2.4370      2.4100      2.3959      2.3959      2.4101      2.4370    
  2.4741      2.5173      2.5617      2.6018      2.6321      2.6485      2.6485      2.6321      2.6017      2.5617    
  2.9959      2.9007      2.8109      2.7317      2.6665      2.6171      2.5837      2.5650      2.5588      2.5617    
  2.5700      2.5796      2.5870      2.5898      2.5870      2.5796      2.5700      2.5617      2.5587      2.5650    
  2.5836      2.6171      2.6665      2.7317      2.8109      2.9007      2.9959      3.0899      3.1751      3.2433    
  3.2876      3.3029      3.2875      3.2433      3.1750      3.0899      3.5338      3.3680      3.2096      3.0653    
  2.9395      2.8341      2.7493      2.6839      2.6356      2.6017      2.5796      2.5665      2.5606      2.5606    
  2.5666      2.5796      2.6017      2.6355      2.6838      2.7492      2.8340      2.9394      3.0653      3.2096    
  3.3680      3.5339      3.6982      3.8502      3.9783      4.0712      4.1201      4.1201      4.0711      3.9782    
  3.8502      3.6982      4.1146      3.8579      3.6147      3.3934      3.1988      3.0329      2.8953      2.7842    
  2.6972      2.6321      2.5870      2.5606      2.5519      2.5606      2.5870      2.6321      2.6971      2.7841    
  2.8952      3.0329      3.1988      3.3934      3.6147      3.8579      4.1146      4.3730      4.6181      4.8335    
  5.0024      5.1103      5.1475      5.1104      5.0024      4.8335      4.6181      4.3729      4.7111      4.3442    
  4.0022      3.6947      3.4268      3.1991      3.0101      2.8570      2.7371      2.6485      2.5898      2.5606    
  2.5606      2.5898      2.6485      2.7371      2.8569      3.0100      3.1990      3.4268      3.6948      4.0022    
  4.3443      4.7112      5.0879      5.4550      5.7895      6.0677      6.2676      6.3723      6.3723      6.2677    
  6.0677      5.7895      5.4550      5.0879      5.2869      4.7946      4.3446      3.9470      3.6055      3.3190    
  3.0836      2.8954      2.7510      2.6485      2.5870      2.5666      2.5870      2.6485      2.7509      2.8953    
  3.0835      3.3189      3.6055      3.9471      4.3446      4.7946      5.2869      5.8039      6.3209      6.8079    
  7.2325      7.5632      7.7735      7.8458      7.7735      7.5632      7.2325      6.8079      6.3209      5.8039    
  5.7992      5.1738      4.6141      4.1291      3.7198      3.3818      3.1090      2.8954      2.7372      2.6321    
  2.5796      2.5796      2.6321      2.7371      2.8953      3.1088      3.3817      3.7198      4.1292      4.6142    
  5.1738      5.7992      6.4713      7.1610      7.8311      8.4393      8.9430      9.3036      9.4919      9.4919    
  9.3036      8.9430      8.4394      7.8311      7.1610      6.4713      6.2044      5.4486      4.7868      4.2247    
  3.7591      3.3818      3.0836      2.8570      2.6972      2.6018      2.5700      2.6017      2.6971      2.8569    
  3.0835      3.3817      3.7591      4.2247      4.7868      5.4486      6.2043      7.0357      7.9112      8.7871    
  9.6116      10.330      10.888      11.244      11.366      11.244      10.888      10.330      9.6116      8.7871    
  7.9112      7.0358      6.4647      5.5932      4.8463      4.2247      3.7198      3.3190      3.0101      2.7842    
  2.6356      2.5617      2.5617      2.6355      2.7841      3.0100      3.3189      3.7198      4.2247      4.8463    
  5.5932      6.4647      7.4461      8.5061      9.5973      10.660      11.627      12.431      13.008      13.311    
  13.311      13.008      12.431      11.627      10.660      9.5973      8.5061      7.4462      6.5546      5.5932    
  4.7868      4.1291      3.6055      3.1991      2.8953      2.6839      2.5588      2.5173      2.5587      2.6838    
  2.8952      3.1990      3.6055      4.1292      4.7868      5.5932      6.5545      7.6623      8.8890      10.187    
  11.493      12.731      13.818      14.671      15.217      15.406      15.217      14.671      13.817      12.731    
  11.493      10.187      8.8890      7.6624      6.4647      5.4487      4.6141      3.9470      3.4268      3.0329    
  2.7493      2.5650      2.4742      2.4741      2.5650      2.7492      3.0329      3.4268      3.9471      4.6142    
  5.4486      6.4647      7.6623      9.0212      10.498      12.030      13.537      14.927      16.097      16.944    
  17.388      17.387      16.943      16.097      14.926      13.537      12.030      10.498      9.0212      7.6623    
  6.2044      5.1738      4.3446      3.6948      3.1988      2.8340      2.5837      2.4371      2.3888      2.4370    
  2.5836      2.8340      3.1988      3.6948      4.3446      5.1738      6.2043      7.4461      8.8890      10.498    
  12.216      13.964      15.647      17.144      18.324      19.077      19.336      19.077      18.323      17.144    
  15.646      13.964      12.216      10.498      8.8890      7.4462      5.7992      4.7946      4.0022      3.3933    
  2.9394      2.6171      2.4101      2.3088      2.3088      2.4100      2.6171      2.9394      3.3934      4.0022    
  4.7946      5.7992      7.0357      8.5061      10.187      12.030      13.964      15.896      17.699      19.216    
  20.311      20.886      20.886      20.311      19.216      17.699      15.896      13.964      12.030      10.187    
  8.5061      7.0358      5.2870      4.3443      3.6147      3.0653      2.6665      2.3959      2.2389      2.1873    
  2.2388      2.3959      2.6665      3.0653      3.6147      4.3443      5.2869      6.4713      7.9112      9.5973    
  11.493      13.537      15.647      17.699      19.524      20.963      21.887      22.205      21.887      20.963    
  19.524      17.699      15.646      13.537      11.493      9.5972      7.9112      6.4713      4.7112      3.8579    
  3.2096      2.7317      2.3959      2.1822      2.0782      2.0782      2.1821      2.3959      2.7317      3.2096    
  3.8579      4.7112      5.8039      7.1610      8.7871      10.660      12.731      14.927      17.144      19.216    
  20.963      22.233      22.903      22.903      22.233      20.963      19.216      17.144      14.927      12.731    
  10.660      8.7870      7.1610      5.8039      4.1147      3.3680      2.8109      2.4100      2.1403      1.9847    
  1.9339      1.9847      2.1403      2.4101      2.8109      3.3680      4.1146      5.0879      6.3209      7.8311    
  9.6116      11.627      13.818      16.097      18.324      20.311      21.887      22.903      23.254      22.903    
  21.887      20.311      18.323      16.097      13.817      11.627      9.6115      7.8311      6.3209      5.0880    
  3.5339      2.9007      2.4370      2.1134      1.9087      1.8094      1.8094      1.9087      2.1134      2.4370    
  2.9007      3.5339      4.3730      5.4550      6.8079      8.4393      10.330      12.431      14.671      16.944    
  19.077      20.886      22.205      22.903      22.903      22.205      20.886      19.077      16.944      14.671    
  12.431      10.330      8.4393      6.8079      5.4551      4.3730      2.9959      2.4741      2.1004      1.8500    
  1.7062      1.6593      1.7062      1.8500      2.1004      2.4741      2.9959      3.6982      4.6181      5.7895    
  7.2325      8.9430      10.888      13.008      15.217      17.388      19.336      20.886      21.887      22.233    
  21.887      20.886      19.336      17.388      15.217      13.008      10.888      8.9429      7.2325      5.7896    
  4.6182      3.6983      2.5173      2.0989      1.8076      1.6238      1.5349      1.5349      1.6238      1.8076    
  2.0989      2.5173      3.0899      3.8502      4.8335      6.0677      7.5632      9.3036      11.244      13.311    
  15.406      17.387      19.077      20.311      20.963      20.963      20.311      19.077      17.388      15.406    
  13.311      11.244      9.3035      7.5632      6.0678      4.8336      3.8503      3.0900      2.1058      1.7792    
  1.5607      1.4354      1.3946      1.4354      1.5607      1.7792      2.1058      2.5617      3.1751      3.9783    
  5.0024      6.2676      7.7735      9.4919      11.366      13.311      15.217      16.943      18.323      19.216    
  19.524      19.216      18.323      16.944      15.217      13.311      11.366      9.4918      7.7735      6.2677    
  5.0025      3.9784      3.1751      2.5617      1.7620      1.5145      1.3584      1.2831      1.2831      1.3584    
  1.5145      1.7620      2.1171      2.6018      3.2433      4.0712      5.1103      6.3723      7.8458      9.4919    
  11.244      13.008      14.671      16.097      17.144      17.699      17.699      17.144      16.097      14.671    
  13.008      11.244      9.4918      7.8457      6.3723      5.1105      4.0713      3.2434      2.6018      2.1170    
  1.4826      1.3015      1.1978      1.1640      1.1978      1.3015      1.4826      1.7528      2.1288      2.6321    
  3.2876      4.1201      5.1475      6.3723      7.7735      9.3036      10.888      12.431      13.817      14.926    
  15.646      15.896      15.646      14.927      13.817      12.431      10.888      9.3035      7.7735      6.3723    
  5.1476      4.1202      3.2876      2.6321      2.1288      1.7528      1.2619      1.1355      1.0746      1.0745    
  1.1355      1.2619      1.4621      1.7486      2.1375      2.6485      3.3029      4.1201      5.1104      6.2677    
  7.5632      8.9430      10.330      11.627      12.731      13.537      13.964      13.964      13.537      12.731    
  11.627      10.330      8.9429      7.5632      6.2677      5.1105      4.1202      3.3030      2.6485      2.1375    
  1.7486      1.4621      1.0935      1.0112     0.98442      1.0112      1.0934      1.2370      1.4509      1.7472    
  2.1407      2.6485      3.2875      4.0711      5.0024      6.0677      7.2325      8.4394      9.6116      10.660    
  11.493      12.030      12.216      12.030      11.493      10.660      9.6115      8.4393      7.2325      6.0678    
  5.0025      4.0713      3.2876      2.6485      2.1407      1.7472      1.4509      1.2370     0.97085     0.92337    
 0.92336     0.97083      1.0692      1.2251      1.4473      1.7472      2.1375      2.6321      3.2433      3.9782    
  4.8335      5.7895      6.8079      7.8311      8.7871      9.5973      10.187      10.498      10.498      10.187    
  9.5972      8.7870      7.8311      6.8079      5.7896      4.8336      3.9784      3.2434      2.6321      2.1375    
  1.7472      1.4473      1.2251      1.0692     0.88815     0.86761     0.88814     0.95126      1.0613      1.2251    
  1.4509      1.7486      2.1288      2.6017      3.1750      3.8502      4.6181      5.4550      6.3209      7.1610    
  7.9112      8.5061      8.8890      9.0212      8.8890      8.5061      7.9112      7.1610      6.3209      5.4551    
  4.6182      3.8503      3.1751      2.6018      2.1288      1.7486      1.4509      1.2251      1.0613     0.95127    
 0.84061     0.84061     0.87664     0.95127      1.0692      1.2370      1.4621      1.7528      2.1171      2.5617    
  3.0899      3.6982      4.3729      5.0879      5.8039      6.4713      7.0358      7.4462      7.6624      7.6623    
  7.4462      7.0358      6.4713      5.8039      5.0880      4.3730      3.6983      3.0900      2.5617      2.1170    
  1.7528      1.4621      1.2370      1.0692     0.95127     0.87665     0.84061     0.86761     0.92337      1.0112    
  1.1355      1.3015      1.5145      1.7793      2.0990      2.4742      2.9007      3.3680      3.8579      4.3442    
  4.7946      5.1738      5.4486      5.5932      5.5932      5.4487      5.1738      4.7946      4.3443      3.8579    
  3.3680      2.9007      2.4741      2.0989      1.7792      1.5145      1.3015      1.1355      1.0112     0.92337    
 0.86761     0.84061     0.86761     0.90232     0.96239      1.0509      1.1719      1.3295      1.5279      1.7703    
  2.0579      2.3888      2.7564      3.1485      3.5469      3.9279      4.2645      4.5293      4.6989      4.7573    
  4.6989      4.5293      4.2645      3.9280      3.5469      3.1485      2.7564      2.3887      2.0579      1.7703    
  1.5279      1.3295      1.1719      1.0509     0.96238     0.90231     0.86760     0.85627     0.92337     0.96239    
  1.0235      1.1095      1.2238      1.3699      1.5509      1.7686      2.0225      2.3088      2.6194      2.9417    
  3.2584      3.5492      3.7924      3.9678      4.0598      4.0598      3.9678      3.7924      3.5492      3.2584    
  2.9417      2.6194      2.3087      2.0224      1.7685      1.5509      1.3699      1.2238      1.1095      1.0235    
 0.96238     0.92336     0.90438     0.90439      1.0112      1.0509      1.1095      1.1894      1.2937      1.4254    
  1.5864      1.7774      1.9966      2.2388      2.4955      2.7543      2.9999      3.2154      3.3842      3.4919    
  3.5289      3.4919      3.3842      3.2154      2.9999      2.7543      2.4955      2.2388      1.9965      1.7774    
  1.5864      1.4254      1.2938      1.1894      1.1095      1.0509      1.0112     0.98818     0.98066     0.98819    
  1.1355      1.1719      1.2238      1.2937      1.3845      1.4985      1.6368      1.7992      1.9829      2.1821    
  2.3884      2.5903      2.7751      2.9290      3.0398      3.0978      3.0978      3.0398      2.9290      2.7751    
  2.5903      2.3884      2.1821      1.9829      1.7993      1.6368      1.4985      1.3846      1.2938      1.2238    
  1.1719      1.1355      1.1126      1.1015      1.1015      1.1126      1.3015      1.3295      1.3699      1.4254    
  1.4985      1.5911      1.7038      1.8355      1.9829      2.1403      2.2998      2.4515      2.5848      2.6893    
  2.7560      2.7789      2.7560      2.6893      2.5848      2.4515      2.2997      2.1403      1.9829      1.8355    
  1.7038      1.5911      1.4985      1.4254      1.3699      1.3295      1.3015      1.2836      1.2736      1.2705    
  1.2736      1.2836      1.5145      1.5279      1.5509      1.5864      1.6368      1.7038      1.7873      1.8861    
  1.9966      2.1135      2.2299      2.3376      2.4281      2.4937      2.5281      2.5281      2.4937      2.4281    
  2.3376      2.2299      2.1135      1.9966      1.8861      1.7874      1.7038      1.6368      1.5864      1.5509    
  1.5279      1.5145      1.5078      1.5050      1.5042      1.5042      1.5050      1.5078      1.7793      1.7703    
  1.7686      1.7774      1.7992      1.8355      1.8861      1.9495      2.0225      2.1005      2.1776      2.2473    
  2.3030      2.3390      2.3514      2.3390      2.3030      2.2473      2.1776      2.1005      2.0225      1.9495    
  1.8861      1.8355      1.7992      1.7774      1.7685      1.7703      1.7792      1.7917      1.8039      1.8127    
  1.8159      1.8127      1.8039      1.7917      2.0990      2.0579      2.0225      1.9966      1.9829      1.9829    
  1.9966      2.0225      2.0579      2.0990      2.1409      2.1785      2.2069      2.2222      2.2222      2.2069    
  2.1785      2.1409      2.0990      2.0579      2.0224      1.9965      1.9829      1.9829      1.9965      2.0224    
  2.0579      2.0990      2.1409      2.1785      2.2069      2.2222      2.2222      2.2069      2.1785      2.1409    
  2.4742      2.3888      2.3088      2.2388      2.1821      2.1403      2.1135      2.1005      2.0990      2.1058    
  2.1171      2.1288      2.1375      2.1407      2.1375      2.1288      2.1171      2.1058      2.0989      2.1004    
  2.1134      2.1403      2.1821      2.2388      2.3088      2.3888      2.4742      2.5588      2.6356      2.6972    
  2.7372      2.7510      2.7371      2.6972      2.6356      2.5588      2.9007      2.7564      2.6194      2.4955    
  2.3884      2.2998      2.2299      2.1776      2.1409      2.1171      2.1030      2.0957      2.0927      2.0927    
  2.0957      2.1030      2.1170      2.1409      2.1775      2.2298      2.2997      2.3884      2.4955      2.6194    
  2.7564      2.9007      3.0445      3.1781      3.2912      3.3735      3.4169      3.4168      3.3734      3.2912    
  3.1781      3.0444      3.3680      3.1485      2.9417      2.7543      2.5903      2.4515      2.3376      2.2473    
  2.1785      2.1288      2.0957      2.0768      2.0707      2.0768      2.0957      2.1288      2.1785      2.2472    
  2.3375      2.4515      2.5904      2.7543      2.9417      3.1486      3.3680      3.5903      3.8027      3.9905    
  4.1386      4.2337      4.2665      4.2337      4.1386      3.9905      3.8027      3.5903      3.8579      3.5469    
  3.2584      2.9999      2.7751      2.5848      2.4281      2.3030      2.2069      2.1375      2.0927      2.0707    
  2.0707      2.0927      2.1375      2.2068      2.3029      2.4281      2.5848      2.7751      3.0000      3.2585    
  3.5470      3.8579      4.1795      4.4955      4.7860      5.0297      5.2060      5.2986      5.2987      5.2060    
  5.0297      4.7860      4.4955      4.1795      4.3442      3.9279      3.5492      3.2154      2.9290      2.6893    
  2.4937      2.3390      2.2222      2.1407      2.0927      2.0768      2.0927      2.1407      2.2221      2.3389    
  2.4936      2.6893      2.9291      3.2155      3.5493      3.9280      4.3443      4.7848      5.2299      5.6539    
  6.0277      6.3216      6.5099      6.5747      6.5099      6.3217      6.0278      5.6540      5.2299      4.7848    
  4.7946      4.2645      3.7924      3.3842      3.0398      2.7560      2.5281      2.3514      2.2222      2.1375    
  2.0957      2.0957      2.1375      2.2221      2.3513      2.5280      2.7560      3.0399      3.3842      3.7925    
  4.2645      4.7946      5.3693      5.9659      6.5534      7.0937      7.5465      7.8738      8.0456      8.0456    
  7.8738      7.5465      7.0937      6.5534      5.9659      5.3693      5.1738      4.5293      3.9678      3.4919    
  3.0978      2.7789      2.5281      2.3390      2.2069      2.1288      2.1030      2.1288      2.2068      2.3389    
  2.5280      2.7790      3.0979      3.4919      3.9679      4.5293      5.1738      5.8895      6.6527      7.4276    
  8.1682      8.8219      9.3363      9.6657      9.7792      9.6657      9.3363      8.8219      8.1682      7.4276    
  6.6527      5.8895      5.4486      4.6989      4.0598      3.5289      3.0978      2.7560      2.4937      2.3030    
  2.1785      2.1171      2.1170      2.1785      2.3029      2.4936      2.7560      3.0979      3.5290      4.0598    
  4.6989      5.4486      6.3011      7.2341      8.2098      9.1753      10.067      10.816      11.359      11.644    
  11.644      11.359      10.816      10.067      9.1752      8.2098      7.2341      6.3011      5.5932      4.7573    
  4.0598      3.4919      3.0398      2.6893      2.4281      2.2473      2.1409      2.1058      2.1409      2.2472    
  2.4281      2.6893      3.0399      3.4919      4.0598      4.7573      5.5932      6.5656      7.6571      8.8310    
  10.031      11.185      12.209      13.019      13.540      13.720      13.540      13.019      12.209      11.185    
  10.031      8.8309      7.6571      6.5656      5.5932      4.6989      3.9678      3.3842      2.9290      2.5848    
  2.3376      2.1776      2.0990      2.0989      2.1775      2.3375      2.5848      2.9291      3.3842      3.9679    
  4.6989      5.5932      6.6569      7.8801      9.2312      10.655      12.076      13.399      14.520      15.338    
  15.770      15.770      15.338      14.520      13.399      12.076      10.655      9.2311      7.8800      6.6569    
  5.4487      4.5293      3.7924      3.2154      2.7751      2.4515      2.2299      2.1005      2.0579      2.1004    
  2.2298      2.4515      2.7751      3.2155      3.7925      4.5293      5.4486      6.5656      7.8801      9.3694    
  10.985      12.652      14.272      15.725      16.887      17.640      17.901      17.640      16.887      15.725    
  14.271      12.652      10.985      9.3693      7.8800      6.5656      5.1738      4.2645      3.5492      2.9999    
  2.5903      2.2997      2.1135      2.0225      2.0224      2.1134      2.2997      2.5904      3.0000      3.5493    
  4.2645      5.1738      6.3011      7.6571      9.2312      10.985      12.852      14.734      16.508      18.032    
  19.155      19.751      19.751      19.155      18.032      16.508      14.734      12.852      10.985      9.2311    
  7.6571      6.3011      4.7946      3.9280      3.2584      2.7543      2.3884      2.1403      1.9966      1.9495    
  1.9965      2.1403      2.3884      2.7543      3.2585      3.9280      4.7946      5.8895      7.2341      8.8310    
  10.655      12.652      14.734      16.781      18.642      20.144      21.122      21.461      21.122      20.144    
  18.642      16.780      14.734      12.652      10.655      8.8309      7.2341      5.8895      4.3443      3.5469    
  2.9417      2.4955      2.1821      1.9829      1.8861      1.8861      1.9829      2.1821      2.4955      2.9417    
  3.5470      4.3443      5.3693      6.6527      8.2098      10.031      12.076      14.272      16.508      18.642    
  20.488      21.852      22.578      22.578      21.852      20.488      18.642      16.508      14.271      12.076    
  10.031      8.2097      6.6527      5.3693      3.8579      3.1485      2.6194      2.2388      1.9829      1.8355    
  1.7874      1.8355      1.9829      2.2388      2.6194      3.1486      3.8579      4.7848      5.9659      7.4276    
  9.1753      11.185      13.399      15.725      18.032      20.144      21.852      22.966      23.354      22.966    
  21.852      20.144      18.032      15.725      13.399      11.185      9.1752      7.4276      5.9660      4.7849    
  3.3680      2.7564      2.3087      1.9965      1.7993      1.7038      1.7038      1.7992      1.9965      2.3088    
  2.7564      3.3680      4.1795      5.2299      6.5534      8.1682      10.067      12.209      14.520      16.887    
  19.155      21.122      22.578      23.354      23.354      22.578      21.122      19.155      16.887      14.520    
  12.209      10.067      8.1682      6.5534      5.2300      4.1796      2.9007      2.3887      2.0224      1.7774    
  1.6368      1.5911      1.6368      1.7774      2.0224      2.3888      2.9007      3.5903      4.4955      5.6539    
  7.0937      8.8219      10.816      13.019      15.338      17.640      19.751      21.461      22.578      22.966    
  22.578      21.462      19.752      17.640      15.338      13.019      10.816      8.8219      7.0938      5.6541    
  4.4956      3.5903      2.4741      2.0579      1.7685      1.5864      1.4985      1.4985      1.5864      1.7685    
  2.0579      2.4742      3.0445      3.8027      4.7860      6.0277      7.5465      9.3363      11.359      13.540    
  15.770      17.901      19.751      21.122      21.852      21.852      21.122      19.752      17.902      15.770    
  13.540      11.359      9.3363      7.5466      6.0279      4.7862      3.8027      3.0445      2.0989      1.7703    
  1.5509      1.4254      1.3846      1.4254      1.5509      1.7703      2.0990      2.5588      3.1781      3.9905    
  5.0297      6.3216      7.8738      9.6657      11.644      13.720      15.770      17.640      19.155      20.144    
  20.488      20.144      19.155      17.640      15.770      13.720      11.644      9.6657      7.8738      6.3218    
  5.0298      3.9906      3.1781      2.5588      1.7792      1.5279      1.3699      1.2938      1.2938      1.3699    
  1.5279      1.7792      2.1409      2.6356      3.2912      4.1386      5.2060      6.5099      8.0456      9.7792    
  11.644      13.540      15.338      16.887      18.032      18.642      18.642      18.032      16.887      15.338    
  13.540      11.644      9.7792      8.0456      6.5100      5.2061      4.1387      3.2912      2.6355      2.1409    
  1.5145      1.3295      1.2238      1.1894      1.2238      1.3295      1.5145      1.7917      2.1785      2.6972    
  3.3735      4.2337      5.2986      6.5747      8.0456      9.6657      11.359      13.019      14.520      15.725    
  16.508      16.780      16.508      15.725      14.520      13.019      11.359      9.6657      8.0456      6.5749    
  5.2988      4.2338      3.3735      2.6971      2.1785      1.7917      1.3015      1.1719      1.1095      1.1095    
  1.1719      1.3015      1.5078      1.8039      2.2069      2.7372      3.4169      4.2665      5.2987      6.5099    
  7.8738      9.3363      10.816      12.209      13.399      14.271      14.734      14.734      14.271      13.399    
  12.209      10.816      9.3363      7.8738      6.5100      5.2988      4.2666      3.4169      2.7371      2.2069    
  1.8039      1.5078      1.1355      1.0509      1.0235      1.0509      1.1355      1.2836      1.5050      1.8127    
  2.2222      2.7510      3.4168      4.2337      5.2060      6.3217      7.5465      8.8219      10.067      11.185    
  12.076      12.652      12.852      12.652      12.076      11.185      10.067      8.8219      7.5466      6.3218    
  5.2061      4.2338      3.4169      2.7510      2.2221      1.8126      1.5050      1.2836      1.0112     0.96238    