   2   2   0   0
  0.2110746E+02  0.3908352E-09  0.3908352E-09  0.3908352E-09  0.5000000E-15
  1.000000000000000E-004
  CAR 
 unknown system                          
     16.46913808     -8.25109175  301      5.65416186      1.00000000
     -8.251  0.0000E+00  0.0000E+00
     -8.169  0.0000E+00  0.0000E+00
     -8.086  0.0000E+00  0.0000E+00
     -8.004  0.0000E+00  0.0000E+00
     -7.921  0.0000E+00  0.0000E+00
     -7.839  0.0000E+00  0.0000E+00
     -7.757  0.0000E+00  0.0000E+00
     -7.674  0.0000E+00  0.0000E+00
     -7.592  0.0000E+00  0.0000E+00
     -7.509  0.0000E+00  0.0000E+00
     -7.427  0.3509E-18  0.2891E-19
     -7.345  0.3298E-16  0.2747E-17
     -7.262  0.2712E-14  0.2262E-15
     -7.180  0.1596E-12  0.1338E-13
     -7.097  0.6729E-11  0.5679E-12
     -7.015  0.2036E-09  0.1734E-10
     -6.933  0.4427E-08  0.3821E-09
     -6.850  0.6937E-07  0.6099E-08
     -6.768  0.7868E-06  0.7093E-07
     -6.685  0.6499E-05  0.6064E-06
     -6.603  0.3946E-04  0.3858E-05
     -6.521  0.1785E-03  0.1857E-04
     -6.438  0.6126E-03  0.6904E-04
     -6.356  0.1630E-02  0.2034E-03
     -6.273  0.3447E-02  0.4874E-03
     -6.191  0.5953E-02  0.9779E-03
     -6.109  0.8680E-02  0.1693E-02
     -6.026  0.1120E-01  0.2616E-02
     -5.944  0.1349E-01  0.3728E-02
     -5.861  0.1571E-01  0.5022E-02
     -5.779  0.1761E-01  0.6473E-02
     -5.697  0.1883E-01  0.8025E-02
     -5.614  0.1971E-01  0.9650E-02
     -5.532  0.2132E-01  0.1141E-01
     -5.449  0.2383E-01  0.1337E-01
     -5.367  0.2591E-01  0.1551E-01
     -5.285  0.2645E-01  0.1768E-01
     -5.202  0.2634E-01  0.1985E-01
     -5.120  0.2718E-01  0.2209E-01
     -5.037  0.2920E-01  0.2450E-01
     -4.955  0.3154E-01  0.2710E-01
     -4.873  0.3382E-01  0.2989E-01
     -4.790  0.3594E-01  0.3285E-01
     -4.708  0.3732E-01  0.3592E-01
     -4.625  0.3734E-01  0.3900E-01
     -4.543  0.3655E-01  0.4201E-01
     -4.461  0.3712E-01  0.4507E-01
     -4.378  0.4126E-01  0.4847E-01
     -4.296  0.4821E-01  0.5244E-01
     -4.213  0.5418E-01  0.5691E-01
     -4.131  0.5669E-01  0.6158E-01
     -4.049  0.5697E-01  0.6627E-01
     -3.966  0.5704E-01  0.7097E-01
     -3.884  0.5671E-01  0.7565E-01
     -3.801  0.5433E-01  0.8012E-01
     -3.719  0.5022E-01  0.8426E-01
     -3.637  0.4801E-01  0.8822E-01
     -3.554  0.5072E-01  0.9240E-01
     -3.472  0.5596E-01  0.9701E-01
     -3.389  0.5763E-01  0.1018E+00
     -3.307  0.5234E-01  0.1061E+00
     -3.225  0.4250E-01  0.1096E+00
     -3.142  0.3304E-01  0.1123E+00
     -3.060  0.2719E-01  0.1145E+00
     -2.977  0.2589E-01  0.1167E+00
     -2.895  0.2896E-01  0.1191E+00
     -2.813  0.3464E-01  0.1219E+00
     -2.730  0.3893E-01  0.1251E+00
     -2.648  0.3758E-01  0.1282E+00
     -2.565  0.2971E-01  0.1307E+00
     -2.483  0.1868E-01  0.1322E+00
     -2.401  0.9147E-02  0.1330E+00
     -2.318  0.3468E-02  0.1332E+00
     -2.236  0.1313E-02  0.1333E+00
     -2.153  0.1905E-02  0.1335E+00
     -2.071  0.5962E-02  0.1340E+00
     -1.989  0.1502E-01  0.1352E+00
     -1.906  0.2787E-01  0.1375E+00
     -1.824  0.3847E-01  0.1407E+00
     -1.741  0.4078E-01  0.1441E+00
     -1.659  0.3597E-01  0.1470E+00
     -1.577  0.3175E-01  0.1496E+00
     -1.494  0.3507E-01  0.1525E+00
     -1.412  0.4715E-01  0.1564E+00
     -1.329  0.6337E-01  0.1616E+00
     -1.247  0.7672E-01  0.1680E+00
     -1.165  0.8295E-01  0.1748E+00
     -1.082  0.8148E-01  0.1815E+00
     -1.000  0.7277E-01  0.1875E+00
     -0.917  0.5957E-01  0.1924E+00
     -0.835  0.4862E-01  0.1964E+00
     -0.753  0.4459E-01  0.2001E+00
     -0.670  0.4383E-01  0.2037E+00
     -0.588  0.3944E-01  0.2070E+00
     -0.505  0.3113E-01  0.2095E+00
     -0.423  0.2507E-01  0.2116E+00
     -0.341  0.2557E-01  0.2137E+00
     -0.258  0.3126E-01  0.2163E+00
     -0.176  0.3729E-01  0.2193E+00
     -0.093  0.3849E-01  0.2225E+00
     -0.011  0.3297E-01  0.2252E+00
      0.071  0.2415E-01  0.2272E+00
      0.154  0.1784E-01  0.2287E+00
      0.236  0.1740E-01  0.2301E+00
      0.319  0.2174E-01  0.2319E+00
      0.401  0.2609E-01  0.2341E+00
      0.483  0.2559E-01  0.2362E+00
      0.566  0.1995E-01  0.2378E+00
      0.648  0.1365E-01  0.2389E+00
      0.731  0.1092E-01  0.2398E+00
      0.813  0.1212E-01  0.2408E+00
      0.895  0.1561E-01  0.2421E+00
      0.978  0.2079E-01  0.2438E+00
      1.060  0.2777E-01  0.2461E+00
      1.143  0.3564E-01  0.2491E+00
      1.225  0.4295E-01  0.2526E+00
      1.307  0.4910E-01  0.2567E+00
      1.390  0.5500E-01  0.2612E+00
      1.472  0.6285E-01  0.2664E+00
      1.555  0.7300E-01  0.2724E+00
      1.637  0.8145E-01  0.2791E+00
      1.719  0.8347E-01  0.2860E+00
      1.802  0.7920E-01  0.2925E+00
      1.884  0.7347E-01  0.2985E+00
      1.967  0.7060E-01  0.3044E+00
      2.049  0.7086E-01  0.3102E+00
      2.131  0.7179E-01  0.3161E+00
      2.214  0.7249E-01  0.3221E+00
      2.296  0.7563E-01  0.3283E+00
      2.379  0.8411E-01  0.3353E+00
      2.461  0.9548E-01  0.3431E+00
      2.543  0.1020E+00  0.3515E+00
      2.626  0.9972E-01  0.3597E+00
      2.708  0.9476E-01  0.3676E+00
      2.791  0.9505E-01  0.3754E+00
      2.873  0.9959E-01  0.3836E+00
      2.955  0.1012E+00  0.3919E+00
      3.038  0.9755E-01  0.4000E+00
      3.120  0.9475E-01  0.4078E+00
      3.203  0.9869E-01  0.4159E+00
      3.285  0.1057E+00  0.4246E+00
      3.367  0.1057E+00  0.4333E+00
      3.450  0.9454E-01  0.4411E+00
      3.532  0.7983E-01  0.4477E+00
      3.615  0.7283E-01  0.4537E+00
      3.697  0.7777E-01  0.4601E+00
      3.779  0.8854E-01  0.4674E+00
      3.862  0.9505E-01  0.4752E+00
      3.944  0.9187E-01  0.4828E+00
      4.027  0.8106E-01  0.4895E+00
      4.109  0.6906E-01  0.4952E+00
      4.191  0.6175E-01  0.5003E+00
      4.274  0.5994E-01  0.5052E+00
      4.356  0.5828E-01  0.5100E+00
      4.439  0.5119E-01  0.5142E+00
      4.521  0.3995E-01  0.5175E+00
      4.603  0.3107E-01  0.5201E+00
      4.686  0.2822E-01  0.5224E+00
      4.768  0.2862E-01  0.5248E+00
      4.851  0.2726E-01  0.5270E+00
      4.933  0.2259E-01  0.5289E+00
      5.015  0.1695E-01  0.5303E+00
      5.098  0.1266E-01  0.5313E+00
      5.180  0.9723E-02  0.5321E+00
      5.263  0.7099E-02  0.5327E+00
      5.345  0.4443E-02  0.5331E+00
      5.427  0.2226E-02  0.5332E+00
      5.510  0.8595E-03  0.5333E+00
      5.592  0.2522E-03  0.5333E+00
      5.675  0.7698E-04  0.5333E+00
      5.757  0.1535E-03  0.5333E+00
      5.839  0.6547E-03  0.5334E+00
      5.922  0.2143E-02  0.5336E+00
      6.004  0.5161E-02  0.5340E+00
      6.087  0.9300E-02  0.5348E+00
      6.169  0.1308E-01  0.5358E+00
      6.251  0.1572E-01  0.5371E+00
      6.334  0.1872E-01  0.5387E+00
      6.416  0.2407E-01  0.5407E+00
      6.499  0.3105E-01  0.5432E+00
      6.581  0.3666E-01  0.5462E+00
      6.663  0.3997E-01  0.5495E+00
      6.746  0.4358E-01  0.5531E+00
      6.828  0.4916E-01  0.5572E+00
      6.911  0.5471E-01  0.5617E+00
      6.993  0.5792E-01  0.5665E+00
      7.075  0.5936E-01  0.5714E+00
      7.158  0.6186E-01  0.5765E+00
      7.240  0.6921E-01  0.5822E+00
      7.323  0.8399E-01  0.5891E+00
      7.405  0.1033E+00  0.5976E+00
      7.487  0.1178E+00  0.6073E+00
      7.570  0.1189E+00  0.6171E+00
      7.652  0.1080E+00  0.6260E+00
      7.735  0.9406E-01  0.6337E+00
      7.817  0.8572E-01  0.6408E+00
      7.899  0.8467E-01  0.6478E+00
      7.982  0.8592E-01  0.6549E+00
      8.064  0.8353E-01  0.6617E+00
      8.147  0.7715E-01  0.6681E+00
      8.229  0.7164E-01  0.6740E+00
      8.311  0.7243E-01  0.6800E+00
      8.394  0.8296E-01  0.6868E+00
      8.476  0.1024E+00  0.6953E+00
      8.559  0.1236E+00  0.7054E+00
      8.641  0.1365E+00  0.7167E+00
      8.723  0.1367E+00  0.7279E+00
      8.806  0.1287E+00  0.7386E+00
      8.888  0.1204E+00  0.7485E+00
      8.971  0.1145E+00  0.7579E+00
      9.053  0.1086E+00  0.7669E+00
      9.135  0.1015E+00  0.7752E+00
      9.218  0.9498E-01  0.7830E+00
      9.300  0.9024E-01  0.7905E+00
      9.383  0.8735E-01  0.7977E+00
      9.465  0.8630E-01  0.8048E+00
      9.547  0.8622E-01  0.8119E+00
      9.630  0.8604E-01  0.8190E+00
      9.712  0.8636E-01  0.8261E+00
      9.795  0.8780E-01  0.8333E+00
      9.877  0.8910E-01  0.8407E+00
      9.959  0.9020E-01  0.8481E+00
     10.042  0.9376E-01  0.8558E+00
     10.124  0.9962E-01  0.8640E+00
     10.207  0.1016E+00  0.8724E+00
     10.289  0.9443E-01  0.8802E+00
     10.371  0.8105E-01  0.8869E+00
     10.454  0.6921E-01  0.8926E+00
     10.536  0.6314E-01  0.8978E+00
     10.619  0.6136E-01  0.9028E+00
     10.701  0.6191E-01  0.9079E+00
     10.783  0.6693E-01  0.9134E+00
     10.866  0.7852E-01  0.9199E+00
     10.948  0.9249E-01  0.9275E+00
     11.031  0.1014E+00  0.9359E+00
     11.113  0.1012E+00  0.9442E+00
     11.195  0.9239E-01  0.9518E+00
     11.278  0.7728E-01  0.9582E+00
     11.360  0.6088E-01  0.9632E+00
     11.443  0.4941E-01  0.9673E+00
     11.525  0.4630E-01  0.9711E+00
     11.607  0.4873E-01  0.9751E+00
     11.690  0.5001E-01  0.9793E+00
     11.772  0.4687E-01  0.9831E+00
     11.855  0.4301E-01  0.9867E+00
     11.937  0.4503E-01  0.9904E+00
     12.019  0.5656E-01  0.9950E+00
     12.102  0.7415E-01  0.1001E+01
     12.184  0.8699E-01  0.1008E+01
     12.267  0.8504E-01  0.1015E+01
     12.349  0.6861E-01  0.1021E+01
     12.432  0.4718E-01  0.1025E+01
     12.514  0.3098E-01  0.1027E+01
     12.596  0.2504E-01  0.1029E+01
     12.679  0.2721E-01  0.1032E+01
     12.761  0.3055E-01  0.1034E+01
     12.844  0.3035E-01  0.1037E+01
     12.926  0.2856E-01  0.1039E+01
     13.008  0.2903E-01  0.1041E+01
     13.091  0.3198E-01  0.1044E+01
     13.173  0.3544E-01  0.1047E+01
     13.256  0.3845E-01  0.1050E+01
     13.338  0.3958E-01  0.1053E+01
     13.420  0.3571E-01  0.1056E+01
     13.503  0.2597E-01  0.1059E+01
     13.585  0.1444E-01  0.1060E+01
     13.668  0.6003E-02  0.1060E+01
     13.750  0.2032E-02  0.1060E+01
     13.832  0.1302E-02  0.1061E+01
     13.915  0.2668E-02  0.1061E+01
     13.997  0.5422E-02  0.1061E+01
     14.080  0.8188E-02  0.1062E+01
     14.162  0.9302E-02  0.1063E+01
     14.244  0.8782E-02  0.1063E+01
     14.327  0.8395E-02  0.1064E+01
     14.409  0.8925E-02  0.1065E+01
     14.492  0.8959E-02  0.1066E+01
     14.574  0.7180E-02  0.1066E+01
     14.656  0.4292E-02  0.1066E+01
     14.739  0.1875E-02  0.1067E+01
     14.821  0.5952E-03  0.1067E+01
     14.904  0.1370E-03  0.1067E+01
     14.986  0.2284E-04  0.1067E+01
     15.068  0.2752E-05  0.1067E+01
     15.151  0.2395E-06  0.1067E+01
     15.233  0.1503E-07  0.1067E+01
     15.316  0.6794E-09  0.1067E+01
     15.398  0.2209E-10  0.1067E+01
     15.480  0.5163E-12  0.1067E+01
     15.563  0.8661E-14  0.1067E+01
     15.645  0.1053E-15  0.1067E+01
     15.728  0.0000E+00  0.1067E+01
     15.810  0.0000E+00  0.1067E+01
     15.892  0.0000E+00  0.1067E+01
     15.975  0.0000E+00  0.1067E+01
     16.057  0.0000E+00  0.1067E+01
     16.140  0.0000E+00  0.1067E+01
     16.222  0.0000E+00  0.1067E+01
     16.304  0.0000E+00  0.1067E+01
     16.387  0.0000E+00  0.1067E+01
     16.469  0.0000E+00  0.1067E+01
