    2    2   15    1
  0.2110746E+02  0.3908352E-09  0.3908352E-09  0.3908352E-09  0.5000000E-15
  1.000000000000000E-004
  CAR 
 unknown system                          
      8     60      8
 
  0.6250000E-01  0.6250000E-01  0.6250000E-01  0.3906250E-02
    1       -6.251092   1.000000
    2        4.766861   1.000000
    3        5.223345   0.998842
    4        5.223345   0.998842
    5        7.830466   0.000000
    6        7.964222   0.000000
    7        7.964222   0.000000
    8        8.545836   0.000000
 
  0.1875000E+00  0.6250000E-01  0.6250000E-01  0.1171875E-01
    1       -5.992134   1.000000
    2        3.278128   1.000000
    3        4.448836   1.000000
    4        5.106677   0.999946
    5        7.845888   0.000000
    6        8.202867   0.000000
    7        8.465585   0.000000
    8       10.070854   0.000000
 
  0.3125000E+00  0.6250000E-01  0.6250000E-01  0.1171875E-01
    1       -5.368200   1.000000
    2        1.118530   1.000000
    3        3.970546   1.000000
    4        4.659457   1.000000
    5        7.392990   0.000000
    6        8.694162   0.000000
    7        8.969484   0.000000
    8       11.683551   0.000000
 
  0.4375000E+00  0.6250000E-01  0.6250000E-01  0.1171875E-01
    1       -4.502739   1.000000
    2       -0.702591   1.000000
    3        3.755708   1.000000
    4        4.265802   1.000000
    5        7.080359   0.000000
    6        8.778378   0.000000
    7        8.792074   0.000000
    8       12.987531   0.000000
 
 -0.4375000E+00  0.6250000E-01  0.6250000E-01  0.1171875E-01
    1       -4.078192   1.000000
    2       -1.371974   1.000000
    3        3.800206   1.000000
    4        4.056321   1.000000
    5        7.002109   0.000000
    6        8.596150   0.000000
    7        8.857601   0.000000
    8       13.090932   0.000000
 
 -0.3125000E+00  0.6250000E-01  0.6250000E-01  0.1171875E-01
    1       -4.798088   1.000000
    2       -0.165633   1.000000
    3        4.076868   1.000000
    4        4.079245   1.000000
    5        7.170326   0.000000
    6        8.589482   0.000000
    7        9.095591   0.000000
    8       12.128302   0.000000
 
 -0.1875000E+00  0.6250000E-01  0.6250000E-01  0.1171875E-01
    1       -5.612585   1.000000
    2        1.825952   1.000000
    3        4.349416   1.000000
    4        4.528083   1.000000
    5        7.535574   0.000000
    6        8.415828   0.000000
    7        9.124696   0.000000
    8       10.919142   0.000000
 
 -0.6250000E-01  0.6250000E-01  0.6250000E-01  0.1171875E-01
    1       -6.120906   1.000000
    2        4.014586   1.000000
    3        4.815859   1.000000
    4        4.959269   1.000000
    5        7.683150   0.000000
    6        8.170268   0.000000
    7        8.520923   0.000000
    8        9.320576   0.000000
 
  0.1875000E+00  0.1875000E+00  0.6250000E-01  0.1171875E-01
    1       -5.861761   1.000000
    2        3.119787   1.000000
    3        4.279470   1.000000
    4        4.348898   1.000000
    5        7.279578   0.000000
    6        8.890900   0.000000
    7        9.350783   0.000000
    8        9.805962   0.000000
 
  0.3125000E+00  0.1875000E+00  0.6250000E-01  0.2343750E-01
    1       -5.355477   1.000000
    2        1.655567   1.000000
    3        3.341806   1.000000
    4        4.100304   1.000000
    5        7.441441   0.000000
    6        8.994880   0.000000
    7        9.750804   0.000000
    8       10.127535   0.000000
 
  0.4375000E+00  0.1875000E+00  0.6250000E-01  0.2343750E-01
    1       -4.542668   1.000000
    2       -0.132143   1.000000
    3        2.848713   1.000000
    4        3.708894   1.000000
    5        7.617285   0.000000
    6        8.988306   0.000000
    7       10.155660   0.000000
    8       10.464222   0.000000
 
 -0.4375000E+00  0.1875000E+00  0.6250000E-01  0.2343750E-01
    1       -3.817978   1.000000
    2       -1.288134   1.000000
    3        2.564915   1.000000
    4        3.620687   1.000000
    5        7.667235   0.000000
    6        8.727242   0.000000
    7       10.021507   0.000000
    8       12.406398   0.000000
 
 -0.3125000E+00  0.1875000E+00  0.6250000E-01  0.2343750E-01
    1       -4.252451   1.000000
    2       -0.630015   1.000000
    3        2.500440   1.000000
    4        3.892677   1.000000
    5        7.913162   0.000000
    6        8.664220   0.000000
    7        9.961398   0.000000
    8       11.684224   0.000000
 
 -0.1875000E+00  0.1875000E+00  0.6250000E-01  0.2343750E-01
    1       -5.116762   1.000000
    2        1.029391   1.000000
    3        2.806545   1.000000
    4        4.379108   1.000000
    5        8.226160   0.000000
    6        8.551275   0.000000
    7        9.833706   0.000000
    8       10.331365   0.000000
 
 -0.6250000E-01  0.1875000E+00  0.6250000E-01  0.2343750E-01
    1       -5.735987   1.000000
    2        2.472781   1.000000
    3        3.892454   1.000000
    4        4.737244   1.000000
    5        7.811969   0.000000
    6        8.389697   0.000000
    7        9.170288   0.000000
    8       10.344182   0.000000
 
  0.3125000E+00  0.3125000E+00  0.6250000E-01  0.1171875E-01
    1       -4.968270   1.000000
    2        1.141962   1.000000
    3        3.205790   1.000000
    4        3.323133   1.000000
    5        6.498927   0.000000
    6        8.131795   0.000000
    7       11.142779   0.000000
    8       11.298543   0.000000
 
  0.4375000E+00  0.3125000E+00  0.6250000E-01  0.2343750E-01
    1       -4.243470   1.000000
    2       -0.057911   1.000000
    3        2.450465   1.000000
    4        2.990511   1.000000
    5        6.806905   0.000000
    6        7.974610   0.000000
    7       11.108794   0.000000
    8       12.260253   0.000000
 
 -0.4375000E+00  0.3125000E+00  0.6250000E-01  0.2343750E-01
    1       -3.383835   1.000000
    2       -1.206392   1.000000
    3        1.642050   1.000000
    4        2.959605   1.000000
    5        7.040478   0.000000
    6        9.587877   0.000000
    7       10.695103   0.000000
    8       12.173140   0.000000
 
 -0.3125000E+00  0.3125000E+00  0.6250000E-01  0.2343750E-01
    1       -3.454586   1.000000
    2       -1.114270   1.000000
    3        1.306525   1.000000
    4        3.289777   1.000000
    5        7.423564   0.000000
    6       10.279563   0.000000
    7       11.520298   0.000000
    8       11.883158   0.000000
 
 -0.1875000E+00  0.3125000E+00  0.6250000E-01  0.2343750E-01
    1       -4.313821   1.000000
    2       -0.183621   1.000000
    3        1.881689   1.000000
    4        3.850955   1.000000
    5        8.009169   0.000000
    6        9.203323   0.000000
    7       10.571129   0.000000
    8       10.880712   0.000000
 
 -0.6250000E-01  0.3125000E+00  0.6250000E-01  0.2343750E-01
    1       -5.008270   1.000000
    2        0.461150   1.000000
    3        3.441950   1.000000
    4        4.282394   1.000000
    5        7.672794   0.000000
    6        8.592642   0.000000
    7        9.431839   0.000000
    8       11.088171   0.000000
 
  0.4375000E+00  0.4375000E+00  0.6250000E-01  0.1171875E-01
    1       -3.611529   1.000000
    2       -0.896836   1.000000
    3        2.543348   1.000000
    4        2.748851   1.000000
    5        6.126141   0.000423
    6        6.831007   0.000000
    7       13.371141   0.000000
    8       13.401042   0.000000
 
 -0.4375000E+00  0.4375000E+00  0.6250000E-01  0.2343750E-01
    1       -2.735401   1.000000
    2       -1.854741   1.000000
    3        2.012646   1.000000
    4        2.517768   1.000000
    5        6.549314   0.000000
    6        7.255416   0.000000
    7       13.142780   0.000000
    8       14.096341   0.000000
 
 -0.3125000E+00  0.4375000E+00  0.6250000E-01  0.2343750E-01
    1       -2.837874   1.000000
    2       -1.688477   1.000000
    3        1.317026   1.000000
    4        2.820998   1.000000
    5        6.899893   0.000000
    6        9.431818   0.000000
    7       11.661372   0.000000
    8       12.758060   0.000000
 
 -0.1875000E+00  0.4375000E+00  0.6250000E-01  0.2343750E-01
    1       -3.570298   1.000000
    2       -1.260684   1.000000
    3        1.824252   1.000000
    4        3.398847   1.000000
    5        7.533057   0.000000
    6        9.442748   0.000000
    7       10.936997   0.000000
    8       12.164698   0.000000
 
 -0.6250000E-01  0.4375000E+00  0.6250000E-01  0.2343750E-01
    1       -4.155754   1.000000
    2       -1.093010   1.000000
    3        3.265434   1.000000
    4        3.961001   1.000000
    5        7.463071   0.000000
    6        8.530882   0.000000
    7        9.270384   0.000000
    8       12.727950   0.000000
 
 -0.4375000E+00 -0.4375000E+00  0.6250000E-01  0.1171875E-01
    1       -2.782728   1.000000
    2       -1.870122   1.000000
    3        2.410382   1.000000
    4        2.631446   1.000000
    5        6.129270   0.000390
    6        6.479913   0.000000
    7       14.417981   0.000000
    8       14.469138   0.000000
 
 -0.3125000E+00 -0.4375000E+00  0.6250000E-01  0.2343750E-01
    1       -3.530488   1.000000
    2       -0.959223   1.000000
    3        2.162524   1.000000
    4        2.672280   1.000000
    5        6.629483   0.000000
    6        7.503815   0.000000
    7       12.100133   0.000000
    8       13.381164   0.000000
 
 -0.1875000E+00 -0.4375000E+00  0.6250000E-01  0.2343750E-01
    1       -3.989183   1.000000
    2       -0.677555   1.000000
    3        2.205322   1.000000
    4        3.248563   1.000000
    5        7.302799   0.000000
    6        9.764355   0.000000
    7        9.928985   0.000000
    8       11.147790   0.000000
 
 -0.3125000E+00 -0.3125000E+00  0.6250000E-01  0.1171875E-01
    1       -4.343924   1.000000
    2        0.116114   1.000000
    3        2.808923   1.000000
    4        2.981248   1.000000
    5        6.247910   0.000013
    6        7.394757   0.000000
    7       12.240550   0.000000
    8       12.336706   0.000000
 
 -0.1875000E+00 -0.3125000E+00  0.6250000E-01  0.2343750E-01
    1       -4.855497   1.000000
    2        0.816556   1.000000
    3        2.852315   1.000000
    4        3.478022   1.000000
    5        7.084271   0.000000
    6        8.621126   0.000000
    7       10.192063   0.000000
    8       11.164358   0.000000
 
 -0.1875000E+00 -0.1875000E+00  0.6250000E-01  0.1171875E-01
    1       -5.476201   1.000000
    2        2.152543   1.000000
    3        3.728006   1.000000
    4        3.763503   1.000000
    5        6.857015   0.000000
    6        8.925786   0.000000
    7       10.140625   0.000000
    8       10.296517   0.000000
 
  0.1875000E+00  0.1875000E+00  0.1875000E+00  0.3906250E-02
    1       -5.865041   1.000000
    2        2.579338   1.000000
    3        4.797600   1.000000
    4        4.797600   1.000000
    5        7.393865   0.000000
    6        8.563602   0.000000
    7        8.563602   0.000000
    8       10.694712   0.000000
 
  0.3125000E+00  0.1875000E+00  0.1875000E+00  0.1171875E-01
    1       -5.486321   1.000000
    2        1.744413   1.000000
    3        3.340217   1.000000
    4        4.810531   1.000000
    5        8.046365   0.000000
    6        8.686376   0.000000
    7        8.959906   0.000000
    8       10.863837   0.000000
 
  0.4375000E+00  0.1875000E+00  0.1875000E+00  0.1171875E-01
    1       -4.766059   1.000000
    2        0.405685   1.000000
    3        2.297337   1.000000
    4        4.324313   1.000000
    5        7.944885   0.000000
    6        9.424567   0.000000
    7        9.607966   0.000000
    8       11.149653   0.000000
 
 -0.4375000E+00  0.1875000E+00  0.1875000E+00  0.1171875E-01
    1       -3.909642   1.000000
    2       -1.021261   1.000000
    3        2.136917   1.000000
    4        3.813307   1.000000
    5        7.486209   0.000000
    6        9.567470   0.000000
    7        9.825118   0.000000
    8       12.979408   0.000000
 
 -0.3125000E+00  0.1875000E+00  0.1875000E+00  0.1171875E-01
    1       -3.894173   1.000000
    2       -1.048965   1.000000
    3        2.421818   1.000000
    4        3.508118   1.000000
    5        7.231471   0.000000
    6        9.625054   0.000000
    7       10.162497   0.000000
    8       11.106038   0.000000
 
 -0.1875000E+00  0.1875000E+00  0.1875000E+00  0.1171875E-01
    1       -4.748995   1.000000
    2        0.402579   1.000000
    3        3.016259   1.000000
    4        3.487250   1.000000
    5        7.169675   0.000000
    6        9.287837   0.000000
    7        9.917779   0.000000
    8       10.509354   0.000000
 
  0.3125000E+00  0.3125000E+00  0.1875000E+00  0.1171875E-01
    1       -5.238447   1.000000
    2        1.102208   1.000000
    3        3.809917   1.000000
    4        3.891423   1.000000
    5        7.529502   0.000000
    6        8.816063   0.000000
    7        9.781335   0.000000
    8       10.181765   0.000000
 
  0.4375000E+00  0.3125000E+00  0.1875000E+00  0.2343750E-01
    1       -4.634193   1.000000
    2        0.332550   1.000000
    3        2.352449   1.000000
    4        3.700803   1.000000
    5        8.025289   0.000000
    6        8.999673   0.000000
    7        9.552010   0.000000
    8       10.993789   0.000000
 
 -0.4375000E+00  0.3125000E+00  0.1875000E+00  0.2343750E-01
    1       -3.777421   1.000000
    2       -0.742365   1.000000
    3        1.595028   1.000000
    4        3.158467   1.000000
    5        8.467385   0.000000
    6        8.944847   0.000000
    7       10.188526   0.000000
    8       12.062262   0.000000
 
 -0.3125000E+00  0.3125000E+00  0.1875000E+00  0.2343750E-01
    1       -3.312102   1.000000
    2       -1.328297   1.000000
    3        1.592297   1.000000
    4        2.859744   1.000000
    5        8.018111   0.000000
    6        9.263456   0.000000
    7       10.951690   0.000000
    8       12.175456   0.000000
 
 -0.1875000E+00  0.3125000E+00  0.1875000E+00  0.2343750E-01
    1       -4.049474   1.000000
    2       -0.367539   1.000000
    3        2.004204   1.000000
    4        3.030684   1.000000
    5        7.754823   0.000000
    6        8.953616   0.000000
    7        9.755100   0.000000
    8       12.178424   0.000000
 
  0.4375000E+00  0.4375000E+00  0.1875000E+00  0.1171875E-01
    1       -4.154582   1.000000
    2       -0.306500   1.000000
    3        2.321460   1.000000
    4        3.167479   1.000000
    5        6.809325   0.000000
    6        8.789148   0.000000
    7       10.934842   0.000000
    8       11.312560   0.000000
 
 -0.4375000E+00  0.4375000E+00  0.1875000E+00  0.2343750E-01
    1       -3.380030   1.000000
    2       -1.094068   1.000000
    3        1.773961   1.000000
    4        2.516625   1.000000
    5        7.561122   0.000000
    6        8.555059   0.000000
    7       10.628918   0.000000
    8       13.342320   0.000000
 
 -0.3125000E+00  0.4375000E+00  0.1875000E+00  0.2343750E-01
    1       -2.604522   1.000000
    2       -1.828728   1.000000
    3        1.473508   1.000000
    4        2.037282   1.000000
    5        8.657685   0.000000
    6        9.578833   0.000000
    7       10.182106   0.000000
    8       11.177065   0.000000
 
 -0.1875000E+00  0.4375000E+00  0.1875000E+00  0.2343750E-01
    1       -3.185747   1.000000
    2       -1.291593   1.000000
    3        1.461027   1.000000
    4        2.493391   1.000000
    5        8.753383   0.000000
    6        9.158951   0.000000
    7        9.884582   0.000000
    8       12.312964   0.000000
 
 -0.4375000E+00 -0.4375000E+00  0.1875000E+00  0.1171875E-01
    1       -2.759319   1.000000
    2       -1.803564   1.000000
    3        1.572844   1.000000
    4        2.836207   1.000000
    5        6.396745   0.000000
    6        8.242017   0.000000
    7       13.071898   0.000000
    8       13.229184   0.000000
 
 -0.3125000E+00 -0.4375000E+00  0.1875000E+00  0.2343750E-01
    1       -2.662125   1.000000
    2       -1.837049   1.000000
    3        1.662992   1.000000
    4        2.240200   1.000000
    5        7.462121   0.000000
    6        8.354285   0.000000
    7       11.610114   0.000000
    8       12.693045   0.000000
 
 -0.3125000E+00 -0.3125000E+00  0.1875000E+00  0.1171875E-01
    1       -3.473487   1.000000
    2       -1.053715   1.000000
    3        1.825047   1.000000
    4        2.947771   1.000000
    5        6.539315   0.000000
    6        8.423464   0.000000
    7       12.065921   0.000000
    8       12.192678   0.000000
 
  0.3125000E+00  0.3125000E+00  0.3125000E+00  0.3906250E-02
    1       -5.135794   1.000000
    2        0.439740   1.000000
    3        4.395555   1.000000
    4        4.395555   1.000000
    5        6.941070   0.000000
    6        8.811527   0.000000
    7        8.811527   0.000000
    8       12.736714   0.000000
 
  0.4375000E+00  0.3125000E+00  0.3125000E+00  0.1171875E-01
    1       -4.673872   1.000000
    2       -0.128777   1.000000
    3        2.973495   1.000000
    4        4.309478   1.000000
    5        7.675829   0.000000
    6        9.024006   0.000000
    7        9.076800   0.000000
    8       12.155414   0.000000
 
 -0.4375000E+00  0.3125000E+00  0.3125000E+00  0.1171875E-01
    1       -3.911294   1.000000
    2       -0.672719   1.000000
    3        1.517223   1.000000
    4        3.752046   1.000000
    5        7.425959   0.000000
    6       10.420575   0.000000
    7       10.564432   0.000000
    8       11.894482   0.000000
 
 -0.3125000E+00  0.3125000E+00  0.3125000E+00  0.1171875E-01
    1       -3.123084   1.000000
    2       -1.438369   1.000000
    3        1.199186   1.000000
    4        3.225718   1.000000
    5        6.843830   0.000000
    6       10.648540   0.000000
    7       11.656390   0.000000
    8       11.858817   0.000000
 
  0.4375000E+00  0.4375000E+00  0.3125000E+00  0.1171875E-01
    1       -4.372665   1.000000
    2       -0.666137   1.000000
    3        3.289440   1.000000
    4        3.769334   1.000000
    5        7.432256   0.000000
    6        8.777595   0.000000
    7        9.551370   0.000000
    8       11.533133   0.000000
 
 -0.4375000E+00  0.4375000E+00  0.3125000E+00  0.2343750E-01
    1       -3.776785   1.000000
    2       -1.030615   1.000000
    3        2.035357   1.000000
    4        3.316329   1.000000
    5        8.205434   0.000000
    6        8.578963   0.000000
    7       11.006011   0.000000
    8       11.296556   0.000000
 
 -0.3125000E+00  0.4375000E+00  0.3125000E+00  0.2343750E-01
    1       -2.988862   1.000000
    2       -1.507567   1.000000
    3        1.288149   1.000000
    4        2.632403   1.000000
    5        7.896531   0.000000
    6       10.092916   0.000000
    7       10.838712   0.000000
    8       11.340592   0.000000
 
 -0.4375000E+00 -0.4375000E+00  0.3125000E+00  0.1171875E-01
    1       -3.433033   1.000000
    2       -1.307630   1.000000
    3        1.665278   1.000000
    4        3.322022   1.000000
    5        6.984282   0.000000
    6       10.604803   0.000000
    7       10.902042   0.000000
    8       10.912202   0.000000
 
  0.4375000E+00  0.4375000E+00  0.4375000E+00  0.3906250E-02
    1       -4.284862   1.000000
    2       -1.145850   1.000000
    3        4.179567   1.000000
    4        4.179567   1.000000
    5        6.689251   0.000000
    6        8.693037   0.000000
    7        8.693037   0.000000
    8       12.996015   0.000000
 
 -0.4375000E+00  0.4375000E+00  0.4375000E+00  0.1171875E-01
    1       -3.948932   1.000000
    2       -1.320408   1.000000
    3        2.985652   1.000000
    4        3.923158   1.000000
    5        7.442508   0.000000
    6        8.791738   0.000000
    7        9.253009   0.000000
    8       13.318172   0.000000
