 running on    8 total cores
 distrk:  each k-point on    8 cores,    1 groups
 distr:  one band on    1 cores,    8 groups
 using from now: INCAR     
 vasp.5.4.4.18Apr17-6-g9f103f2a35 (build Dec 09 2018 21:25:21) complex          
  
 POSCAR found type information on POSCAR  Si
 POSCAR found :  1 types and       2 ions
 scaLAPACK will be used

 ----------------------------------------------------------------------------- 
|                                                                             |
|           W    W    AA    RRRRR   N    N  II  N    N   GGGG   !!!           |
|           W    W   A  A   R    R  NN   N  II  NN   N  G    G  !!!           |
|           W    W  A    A  R    R  N N  N  II  N N  N  G       !!!           |
|           W WW W  AAAAAA  RRRRR   N  N N  II  N  N N  G  GGG   !            |
|           WW  WW  A    A  R   R   N   NN  II  N   NN  G    G                |
|           W    W  A    A  R    R  N    N  II  N    N   GGGG   !!!           |
|                                                                             |
|      For optimal performance we recommend to set                            |
|        NCORE= 4 - approx SQRT( number of cores)                             |
|      NCORE specifies how many cores store one orbital (NPAR=cpu/NCORE).     |
|      This setting can  greatly improve the performance of VASP for DFT.     |
|      The default,   NCORE=1            might be grossly inefficient         |
|      on modern multi-core architectures or massively parallel machines.     |
|      Do your own testing !!!!                                               |
|      Unfortunately you need to use the default for GW and RPA calculations. |
|      (for HF NCORE is supported but not extensively tested yet)             |
|                                                                             |
 ----------------------------------------------------------------------------- 

 LDA part: xc-table for Pade appr. of Perdew
 POSCAR, INCAR and KPOINTS ok, starting setup
 FFT: planning ...
 WAVECAR not read
 entering main loop
       N       E                     dE             d eps       ncg     rms          rms(c)
DAV:   1     0.475257649401E+01    0.47526E+01   -0.27428E+03   960   0.586E+02
DAV:   2    -0.108069951935E+02   -0.15560E+02   -0.15001E+02  1536   0.739E+01
DAV:   3    -0.109865237687E+02   -0.17953E+00   -0.17953E+00  1176   0.103E+01
DAV:   4    -0.109873625630E+02   -0.83879E-03   -0.83879E-03  1560   0.771E-01
DAV:   5    -0.109873631213E+02   -0.55832E-06   -0.55797E-06  1264   0.178E-02    0.288E+00
DAV:   6    -0.108841584893E+02    0.10320E+00   -0.65637E-02  1160   0.133E+00    0.172E+00
DAV:   7    -0.108351478988E+02    0.49011E-01   -0.12735E-01  1200   0.198E+00    0.143E-01
DAV:   8    -0.108364791844E+02   -0.13313E-02   -0.37856E-03  1136   0.451E-01    0.252E-02
DAV:   9    -0.108365850535E+02   -0.10587E-03   -0.10764E-04   784   0.830E-02
   1 F= -.10836585E+02 E0= -.10836575E+02  d E =-.108366E+02
 curvature:   0.00 expect dE= 0.000E+00 dE for cont linesearch  0.000E+00
 trial: gam= 0.00000 g(F)=  0.349E-44 g(S)=  0.000E+00 ort = 0.000E+00 (trialstep = 0.100E+01)
 search vector abs. value=  0.100E-09
 reached required accuracy - stopping structural energy minimisation
 writing wavefunctions
