<?xml version="1.0" encoding="ISO-8859-1"?>
<modeling>
 <generator>
  <i name="program" type="string">vasp </i>
  <i name="version" type="string">5.4.4.18Apr17-6-g9f103f2a35  </i>
  <i name="subversion" type="string">(build Dec 09 2018 21:25:21) complex            parallel </i>
  <i name="platform" type="string">IFC18.0.1.163_CrayMPICH7.7.0_MKL18.0.1.163 </i>
  <i name="date" type="string">2019 03 23 </i>
  <i name="time" type="string">21:25:26 </i>
 </generator>
 <incar>
  <i type="string" name="PREC">normal</i>
  <i type="int" name="IBRION">     2</i>
  <i name="EDIFF">      0.00040000</i>
  <i name="EDIFFG">     -0.01000000</i>
  <i type="int" name="NSW">    15</i>
  <i type="int" name="ISIF">     2</i>
  <i name="ENCUT">    350.00000000</i>
  <i type="int" name="NBANDS">     8</i>
  <i type="logical" name="LREAL"> F  </i>
  <i type="int" name="ISMEAR">     0</i>
  <i name="SIGMA">      0.20000000</i>
  <v type="int" name="KPOINT_BSE">    -1     0     0     0</v>
 </incar>
 <structure name="primitive_cell" >
  <crystal>
   <varray name="basis" >
    <v>       0.00000000       2.76362200       2.76362200 </v>
    <v>       2.76362200       0.00000000       2.76362200 </v>
    <v>       2.76362200       2.76362200       0.00000000 </v>
   </varray>
   <i name="volume">     42.21491503 </i>
   <varray name="rec_basis" >
    <v>      -0.18092199       0.18092199       0.18092199 </v>
    <v>       0.18092199      -0.18092199       0.18092199 </v>
    <v>       0.18092199       0.18092199      -0.18092199 </v>
   </varray>
  </crystal>
  <varray name="positions" >
   <v>      -0.50000000      -0.50000000      -0.50000000 </v>
   <v>      -0.25000000      -0.25000000      -0.25000000 </v>
  </varray>
 </structure>
 <varray name="primitive_index" >
  <v type="int" >        1 </v>
  <v type="int" >        2 </v>
 </varray>
 <kpoints>
  <generation param="Monkhorst-Pack">
   <v type="int" name="divisions">       8        8        8 </v>
   <v name="usershift">      0.00000000       0.00000000       0.00000000 </v>
   <v name="genvec1">      0.12500000       0.00000000      -0.00000000 </v>
   <v name="genvec2">      0.00000000       0.12500000       0.00000000 </v>
   <v name="genvec3">     -0.00000000      -0.00000000       0.12500000 </v>
   <v name="shift">      0.50000000       0.50000000       0.50000000 </v>
  </generation>
  <varray name="kpointlist" >
   <v>       0.06250000       0.06250000       0.06250000 </v>
   <v>       0.18750000       0.06250000       0.06250000 </v>
   <v>       0.31250000       0.06250000       0.06250000 </v>
   <v>       0.43750000       0.06250000       0.06250000 </v>
   <v>      -0.43750000       0.06250000       0.06250000 </v>
   <v>      -0.31250000       0.06250000       0.06250000 </v>
   <v>      -0.18750000       0.06250000       0.06250000 </v>
   <v>      -0.06250000       0.06250000       0.06250000 </v>
   <v>       0.18750000       0.18750000       0.06250000 </v>
   <v>       0.31250000       0.18750000       0.06250000 </v>
   <v>       0.43750000       0.18750000       0.06250000 </v>
   <v>      -0.43750000       0.18750000       0.06250000 </v>
   <v>      -0.31250000       0.18750000       0.06250000 </v>
   <v>      -0.18750000       0.18750000       0.06250000 </v>
   <v>      -0.06250000       0.18750000       0.06250000 </v>
   <v>       0.31250000       0.31250000       0.06250000 </v>
   <v>       0.43750000       0.31250000       0.06250000 </v>
   <v>      -0.43750000       0.31250000       0.06250000 </v>
   <v>      -0.31250000       0.31250000       0.06250000 </v>
   <v>      -0.18750000       0.31250000       0.06250000 </v>
   <v>      -0.06250000       0.31250000       0.06250000 </v>
   <v>       0.43750000       0.43750000       0.06250000 </v>
   <v>      -0.43750000       0.43750000       0.06250000 </v>
   <v>      -0.31250000       0.43750000       0.06250000 </v>
   <v>      -0.18750000       0.43750000       0.06250000 </v>
   <v>      -0.06250000       0.43750000       0.06250000 </v>
   <v>      -0.43750000      -0.43750000       0.06250000 </v>
   <v>      -0.31250000      -0.43750000       0.06250000 </v>
   <v>      -0.18750000      -0.43750000       0.06250000 </v>
   <v>      -0.31250000      -0.31250000       0.06250000 </v>
   <v>      -0.18750000      -0.31250000       0.06250000 </v>
   <v>      -0.18750000      -0.18750000       0.06250000 </v>
   <v>       0.18750000       0.18750000       0.18750000 </v>
   <v>       0.31250000       0.18750000       0.18750000 </v>
   <v>       0.43750000       0.18750000       0.18750000 </v>
   <v>      -0.43750000       0.18750000       0.18750000 </v>
   <v>      -0.31250000       0.18750000       0.18750000 </v>
   <v>      -0.18750000       0.18750000       0.18750000 </v>
   <v>       0.31250000       0.31250000       0.18750000 </v>
   <v>       0.43750000       0.31250000       0.18750000 </v>
   <v>      -0.43750000       0.31250000       0.18750000 </v>
   <v>      -0.31250000       0.31250000       0.18750000 </v>
   <v>      -0.18750000       0.31250000       0.18750000 </v>
   <v>       0.43750000       0.43750000       0.18750000 </v>
   <v>      -0.43750000       0.43750000       0.18750000 </v>
   <v>      -0.31250000       0.43750000       0.18750000 </v>
   <v>      -0.18750000       0.43750000       0.18750000 </v>
   <v>      -0.43750000      -0.43750000       0.18750000 </v>
   <v>      -0.31250000      -0.43750000       0.18750000 </v>
   <v>      -0.31250000      -0.31250000       0.18750000 </v>
   <v>       0.31250000       0.31250000       0.31250000 </v>
   <v>       0.43750000       0.31250000       0.31250000 </v>
   <v>      -0.43750000       0.31250000       0.31250000 </v>
   <v>      -0.31250000       0.31250000       0.31250000 </v>
   <v>       0.43750000       0.43750000       0.31250000 </v>
   <v>      -0.43750000       0.43750000       0.31250000 </v>
   <v>      -0.31250000       0.43750000       0.31250000 </v>
   <v>      -0.43750000      -0.43750000       0.31250000 </v>
   <v>       0.43750000       0.43750000       0.43750000 </v>
   <v>      -0.43750000       0.43750000       0.43750000 </v>
  </varray>
  <varray name="weights" >
   <v>       0.00390625 </v>
   <v>       0.01171875 </v>
   <v>       0.01171875 </v>
   <v>       0.01171875 </v>
   <v>       0.01171875 </v>
   <v>       0.01171875 </v>
   <v>       0.01171875 </v>
   <v>       0.01171875 </v>
   <v>       0.01171875 </v>
   <v>       0.02343750 </v>
   <v>       0.02343750 </v>
   <v>       0.02343750 </v>
   <v>       0.02343750 </v>
   <v>       0.02343750 </v>
   <v>       0.02343750 </v>
   <v>       0.01171875 </v>
   <v>       0.02343750 </v>
   <v>       0.02343750 </v>
   <v>       0.02343750 </v>
   <v>       0.02343750 </v>
   <v>       0.02343750 </v>
   <v>       0.01171875 </v>
   <v>       0.02343750 </v>
   <v>       0.02343750 </v>
   <v>       0.02343750 </v>
   <v>       0.02343750 </v>
   <v>       0.01171875 </v>
   <v>       0.02343750 </v>
   <v>       0.02343750 </v>
   <v>       0.01171875 </v>
   <v>       0.02343750 </v>
   <v>       0.01171875 </v>
   <v>       0.00390625 </v>
   <v>       0.01171875 </v>
   <v>       0.01171875 </v>
   <v>       0.01171875 </v>
   <v>       0.01171875 </v>
   <v>       0.01171875 </v>
   <v>       0.01171875 </v>
   <v>       0.02343750 </v>
   <v>       0.02343750 </v>
   <v>       0.02343750 </v>
   <v>       0.02343750 </v>
   <v>       0.01171875 </v>
   <v>       0.02343750 </v>
   <v>       0.02343750 </v>
   <v>       0.02343750 </v>
   <v>       0.01171875 </v>
   <v>       0.02343750 </v>
   <v>       0.01171875 </v>
   <v>       0.00390625 </v>
   <v>       0.01171875 </v>
   <v>       0.01171875 </v>
   <v>       0.01171875 </v>
   <v>       0.01171875 </v>
   <v>       0.02343750 </v>
   <v>       0.02343750 </v>
   <v>       0.01171875 </v>
   <v>       0.00390625 </v>
   <v>       0.01171875 </v>
  </varray>
 </kpoints>
 <parameters>
  <separator name="general" >
   <i type="string" name="SYSTEM">unknown system</i>
   <i type="logical" name="LCOMPAT"> F  </i>
  </separator>
  <separator name="electronic" >
   <i type="string" name="PREC">normal</i>
   <i name="ENMAX">    350.00000000</i>
   <i name="ENAUG">    322.06900000</i>
   <i name="EDIFF">      0.00040000</i>
   <i type="int" name="IALGO">    38</i>
   <i type="int" name="IWAVPR">    11</i>
   <i type="int" name="NBANDS">     8</i>
   <i name="NELECT">      8.00000000</i>
   <i type="int" name="TURBO">     0</i>
   <i type="int" name="IRESTART">     0</i>
   <i type="int" name="NREBOOT">     0</i>
   <i type="int" name="NMIN">     0</i>
   <i name="EREF">      0.00000000</i>
   <separator name="electronic smearing" >
    <i type="int" name="ISMEAR">     0</i>
    <i name="SIGMA">      0.20000000</i>
    <i name="KSPACING">      0.50000000</i>
    <i type="logical" name="KGAMMA"> T  </i>
   </separator>
   <separator name="electronic projectors" >
    <i type="logical" name="LREAL"> F  </i>
    <v name="ROPT">      0.00000000</v>
    <i type="int" name="LMAXPAW">  -100</i>
    <i type="int" name="LMAXMIX">     2</i>
    <i type="logical" name="NLSPLINE"> F  </i>
   </separator>
   <separator name="electronic startup" >
    <i type="int" name="ISTART">     0</i>
    <i type="int" name="ICHARG">     2</i>
    <i type="int" name="INIWAV">     1</i>
   </separator>
   <separator name="electronic spin" >
    <i type="int" name="ISPIN">     1</i>
    <i type="logical" name="LNONCOLLINEAR"> F  </i>
    <v name="MAGMOM">      1.00000000      1.00000000</v>
    <i name="NUPDOWN">     -1.00000000</i>
    <i type="logical" name="LSORBIT"> F  </i>
    <v name="SAXIS">      0.00000000      0.00000000      1.00000000</v>
    <i type="logical" name="LSPIRAL"> F  </i>
    <v name="QSPIRAL">      0.00000000      0.00000000      0.00000000</v>
    <i type="logical" name="LZEROZ"> F  </i>
   </separator>
   <separator name="electronic exchange-correlation" >
    <i type="logical" name="LASPH"> F  </i>
    <i type="logical" name="LMETAGGA"> F  </i>
   </separator>
   <separator name="electronic convergence" >
    <i type="int" name="NELM">    60</i>
    <i type="int" name="NELMDL">    -5</i>
    <i type="int" name="NELMIN">     2</i>
    <i name="ENINI">    350.00000000</i>
    <separator name="electronic convergence detail" >
     <i type="logical" name="LDIAG"> T  </i>
     <i type="logical" name="LSUBROT"> F  </i>
     <i name="WEIMIN">      0.00100000</i>
     <i name="EBREAK">      0.00001250</i>
     <i name="DEPER">      0.30000000</i>
     <i type="int" name="NRMM">     4</i>
     <i name="TIME">      0.40000000</i>
    </separator>
   </separator>
   <separator name="electronic mixer" >
    <i name="AMIX">      0.40000000</i>
    <i name="BMIX">      1.00000000</i>
    <i name="AMIN">      0.10000000</i>
    <i name="AMIX_MAG">      1.60000000</i>
    <i name="BMIX_MAG">      1.00000000</i>
    <separator name="electronic mixer details" >
     <i type="int" name="IMIX">     4</i>
     <i type="logical" name="MIXFIRST"> F  </i>
     <i type="int" name="MAXMIX">   -45</i>
     <i name="WC">    100.00000000</i>
     <i type="int" name="INIMIX">     1</i>
     <i type="int" name="MIXPRE">     1</i>
     <i type="int" name="MREMOVE">     5</i>
    </separator>
   </separator>
   <separator name="electronic dipolcorrection" >
    <i type="logical" name="LDIPOL"> F  </i>
    <i type="logical" name="LMONO"> F  </i>
    <i type="int" name="IDIPOL">     0</i>
    <i name="EPSILON">      1.00000000</i>
    <v name="DIPOL">   -100.00000000   -100.00000000   -100.00000000</v>
    <i name="EFIELD">      0.00000000</i>
   </separator>
  </separator>
  <separator name="grids" >
   <i type="int" name="NGX">    18</i>
   <i type="int" name="NGY">    18</i>
   <i type="int" name="NGZ">    18</i>
   <i type="int" name="NGXF">    36</i>
   <i type="int" name="NGYF">    36</i>
   <i type="int" name="NGZF">    36</i>
   <i type="logical" name="ADDGRID"> F  </i>
  </separator>
  <separator name="ionic" >
   <i type="int" name="NSW">    15</i>
   <i type="int" name="IBRION">     2</i>
   <i type="int" name="MDALGO">     0</i>
   <i type="int" name="ISIF">     2</i>
   <i name="PSTRESS">      0.00000000</i>
   <i name="EDIFFG">     -0.01000000</i>
   <i type="int" name="NFREE">     1</i>
   <i name="POTIM">      0.50000000</i>
   <i name="SMASS">     -3.00000000</i>
   <i name="SCALEE">      1.00000000</i>
  </separator>
  <separator name="ionic md" >
   <i name="TEBEG">      0.00010000</i>
   <i name="TEEND">      0.00010000</i>
   <i type="int" name="NBLOCK">     1</i>
   <i type="int" name="KBLOCK">    15</i>
   <i type="int" name="NPACO">   256</i>
   <i name="APACO">     16.00000000</i>
  </separator>
  <separator name="symmetry" >
   <i type="int" name="ISYM">     2</i>
   <i name="SYMPREC">      0.00001000</i>
  </separator>
  <separator name="dos" >
   <i type="int" name="LORBIT">     0</i>
   <v name="RWIGS">     -1.00000000</v>
   <i type="int" name="NEDOS">   301</i>
   <i name="EMIN">     10.00000000</i>
   <i name="EMAX">    -10.00000000</i>
   <i name="EFERMI">      0.00000000</i>
  </separator>
  <separator name="writing" >
   <i type="int" name="NWRITE">     2</i>
   <i type="logical" name="LWAVE"> T  </i>
   <i type="logical" name="LDOWNSAMPLE"> F  </i>
   <i type="logical" name="LCHARG"> T  </i>
   <i type="logical" name="LPARD"> F  </i>
   <i type="logical" name="LVTOT"> F  </i>
   <i type="logical" name="LVHAR"> F  </i>
   <i type="logical" name="LELF"> F  </i>
   <i type="logical" name="LOPTICS"> F  </i>
   <v name="STM">      0.00000000      0.00000000      0.00000000      0.00000000      0.00000000      0.00000000      0.00000000</v>
  </separator>
  <separator name="performance" >
   <i type="int" name="NPAR">     8</i>
   <i type="int" name="NSIM">     4</i>
   <i type="int" name="NBLK">    -1</i>
   <i type="logical" name="LPLANE"> T  </i>
   <i type="logical" name="LSCALAPACK"> T  </i>
   <i type="logical" name="LSCAAWARE"> F  </i>
   <i type="logical" name="LSCALU"> F  </i>
   <i type="logical" name="LASYNC"> F  </i>
   <i type="logical" name="LORBITALREAL"> F  </i>
  </separator>
  <separator name="miscellaneous" >
   <i type="int" name="IDIOT">     3</i>
   <i type="int" name="ISPECIAL">     0</i>
   <i type="logical" name="LMUSIC"> F  </i>
   <v name="POMASS">     28.08500000</v>
   <v name="DARWINR">      0.00000000</v>
   <v name="DARWINV">      1.00000000</v>
   <i type="logical" name="LCORR"> T  </i>
  </separator>
  <i type="logical" name="GGA_COMPAT"> T  </i>
  <i type="logical" name="LBERRY"> F  </i>
  <i type="int" name="ICORELEVEL">     0</i>
  <i type="logical" name="LDAU"> F  </i>
  <i type="int" name="I_CONSTRAINED_M">     0</i>
  <separator name="electronic exchange-correlation" >
   <i type="string" name="GGA">--</i>
   <i type="int" name="VOSKOWN">     0</i>
   <i type="logical" name="LHFCALC"> F  </i>
   <i type="string" name="PRECFOCK"></i>
   <i type="logical" name="LSYMGRAD"> F  </i>
   <i type="logical" name="LHFONE"> F  </i>
   <i type="logical" name="LRHFCALC"> F  </i>
   <i type="logical" name="LTHOMAS"> F  </i>
   <i type="logical" name="LMODELHF"> F  </i>
   <i name="ENCUT4O">     -1.00000000</i>
   <i type="int" name="EXXOEP">     0</i>
   <i type="int" name="FOURORBIT">     0</i>
   <i name="AEXX">      0.00000000</i>
   <i name="HFALPHA">      0.00000000</i>
   <i name="MCALPHA">      0.00000000</i>
   <i name="ALDAX">      1.00000000</i>
   <i name="AGGAX">      1.00000000</i>
   <i name="ALDAC">      1.00000000</i>
   <i name="AGGAC">      1.00000000</i>
   <i type="int" name="NKREDX">     1</i>
   <i type="int" name="NKREDY">     1</i>
   <i type="int" name="NKREDZ">     1</i>
   <i type="logical" name="SHIFTRED"> F  </i>
   <i type="logical" name="ODDONLY"> F  </i>
   <i type="logical" name="EVENONLY"> F  </i>
   <i type="int" name="LMAXFOCK">     0</i>
   <i type="int" name="NMAXFOCKAE">     0</i>
   <i type="logical" name="LFOCKAEDFT"> F  </i>
   <i name="HFSCREEN">      0.00000000</i>
   <i name="HFSCREENC">      0.00000000</i>
   <i type="int" name="NBANDSGWLOW">     0</i>
  </separator>
  <separator name="vdW DFT" >
   <i type="logical" name="LUSE_VDW"> F  </i>
   <i name="Zab_VDW">     -0.84910000</i>
   <i name="PARAM1">      0.12340000</i>
   <i name="PARAM2">      1.00000000</i>
   <i name="PARAM3">      0.00000000</i>
  </separator>
  <separator name="model GW" >
   <i type="int" name="MODEL_GW">     0</i>
   <i name="MODEL_EPS0">     12.66447451</i>
   <i name="MODEL_ALPHA">      1.00000000</i>
  </separator>
  <separator name="linear response parameters" >
   <i type="logical" name="LEPSILON"> F  </i>
   <i type="logical" name="LRPA"> F  </i>
   <i type="logical" name="LNABLA"> F  </i>
   <i type="logical" name="LVEL"> F  </i>
   <i type="int" name="KINTER">     0</i>
   <i name="CSHIFT">      0.10000000</i>
   <i name="OMEGAMAX">     -1.00000000</i>
   <i name="DEG_THRESHOLD">      0.00200000</i>
   <i name="RTIME">     -0.10000000</i>
   <i name="WPLASMAI">      0.00000000</i>
   <v name="DFIELD">      0.00000000      0.00000000      0.00000000</v>
   <v name="WPLASMA">      0.00000000      0.00000000      0.00000000      0.00000000      0.00000000      0.00000000      0.00000000      0.00000000      0.00000000</v>
  </separator>
  <separator name="orbital magnetization" >
   <i type="logical" name="NUCIND"> F  </i>
   <v name="MAGPOS">      0.00000000      0.00000000      0.00000000</v>
   <i type="logical" name="LNICSALL"> T  </i>
   <i type="logical" name="ORBITALMAG"> F  </i>
   <i type="logical" name="LMAGBLOCH"> F  </i>
   <i type="logical" name="LCHIMAG"> F  </i>
   <i type="logical" name="LGAUGE"> T  </i>
   <i type="int" name="MAGATOM">     0</i>
   <v name="MAGDIPOL">      0.00000000      0.00000000      0.00000000</v>
   <v name="AVECCONST">      0.00000000      0.00000000      0.00000000</v>
  </separator>
  <separator name="response functions" >
   <i type="logical" name="LADDER"> F  </i>
   <i type="logical" name="LRPAFORCE"> F  </i>
   <i type="logical" name="LFXC"> F  </i>
   <i type="logical" name="LHARTREE"> T  </i>
   <i type="int" name="IBSE">     0</i>
   <v type="int" name="KPOINT">    -1     0     0     0</v>
   <i type="logical" name="LTCTE"> F  </i>
   <i type="logical" name="LTETE"> F  </i>
   <i type="logical" name="LTRIPLET"> F  </i>
   <i type="logical" name="LFXCEPS"> F  </i>
   <i type="logical" name="LFXHEG"> F  </i>
   <i type="int" name="NATURALO">     2</i>
   <i type="logical" name="L2ORDER"> F  </i>
   <i type="logical" name="LMP2LT"> F  </i>
   <i type="logical" name="LUSEW"> F  </i>
   <i name="ENCUTGW">     -2.00000000</i>
   <i name="ENCUTGWSOFT">     -2.00000000</i>
   <i name="ENCUTLF">     -1.00000000</i>
   <i type="int" name="LMAXMP2">    -1</i>
   <i name="SCISSOR">      0.00000000</i>
   <i type="int" name="NOMEGA">     0</i>
   <i type="int" name="NOMEGAR">     0</i>
   <i type="int" name="NBANDSGW">    -1</i>
   <i type="int" name="NBANDSO">    -1</i>
   <i type="int" name="NBANDSV">    -1</i>
   <i type="int" name="NELM">     1</i>
   <i type="int" name="NELMHF">     1</i>
   <i type="int" name="DIM">     3</i>
   <i type="int" name="ANTIRES">     0</i>
   <i name="OMEGAMAX">    -30.00000000</i>
   <i name="OMEGAMIN">    -30.00000000</i>
   <i name="OMEGATL">   -200.00000000</i>
   <i type="int" name="OMEGAGRID">   140</i>
   <i name="CSHIFT">     -0.10000000</i>
   <i type="logical" name="SELFENERGY"> F  </i>
   <i type="logical" name="LSPECTRAL"> F  </i>
   <i type="logical" name="LSPECTRALGW"> F  </i>
   <i type="logical" name="LSINGLES"> F  </i>
   <i type="logical" name="LFERMIGW"> F  </i>
   <i type="logical" name="ODDONLYGW"> F  </i>
   <i type="logical" name="EVENONLYGW"> F  </i>
   <i type="int" name="NKREDLFX">     1</i>
   <i type="int" name="NKREDLFY">     1</i>
   <i type="int" name="NKREDLFZ">     1</i>
   <i type="int" name="MAXMEM">  2800</i>
   <i type="int" name="TELESCOPE">     0</i>
   <i type="int" name="TAUPAR">     1</i>
   <i type="int" name="OMEGAPAR">    -1</i>
   <i name="LAMBDA">      1.00000000</i>
  </separator>
  <separator name="External order field" >
   <i name="OFIELD_KAPPA">      0.00000000</i>
   <v name="OFIELD_K">      0.00000000      0.00000000      0.00000000</v>
   <i name="OFIELD_Q6_NEAR">      0.00000000</i>
   <i name="OFIELD_Q6_FAR">      0.00000000</i>
   <i name="OFIELD_A">      0.00000000</i>
  </separator>
 </parameters>
 <atominfo>
  <atoms>       2 </atoms>
  <types>       1 </types>
  <array name="atoms" >
   <dimension dim="1">ion</dimension>
   <field type="string">element</field>
   <field type="int">atomtype</field>
   <set>
    <rc><c>Si</c><c>   1</c></rc>
    <rc><c>Si</c><c>   1</c></rc>
   </set>
  </array>
  <array name="atomtypes" >
   <dimension dim="1">type</dimension>
   <field type="int">atomspertype</field>
   <field type="string">element</field>
   <field>mass</field>
   <field>valence</field>
   <field type="string">pseudopotential</field>
   <set>
    <rc><c>   2</c><c>Si</c><c>     28.08500000</c><c>      4.00000000</c><c> PAW_PBE Si 05Jan2001                   </c></rc>
   </set>
  </array>
 </atominfo>
 <structure name="initialpos" >
  <crystal>
   <varray name="basis" >
    <v>       0.00000000       2.76362200       2.76362200 </v>
    <v>       2.76362200       0.00000000       2.76362200 </v>
    <v>       2.76362200       2.76362200       0.00000000 </v>
   </varray>
   <i name="volume">     42.21491503 </i>
   <varray name="rec_basis" >
    <v>      -0.18092199       0.18092199       0.18092199 </v>
    <v>       0.18092199      -0.18092199       0.18092199 </v>
    <v>       0.18092199       0.18092199      -0.18092199 </v>
   </varray>
  </crystal>
  <varray name="positions" >
   <v>       0.50000000       0.50000000       0.50000000 </v>
   <v>       0.75000000       0.75000000       0.75000000 </v>
  </varray>
 </structure>
 <calculation>
  <scstep>
   <time name="dav">    0.80    0.80</time>
   <time name="total">    0.84    0.86</time>
   <energy>
    <i name="alphaZ">      3.18968577 </i>
    <i name="ewald">   -224.54227466 </i>
    <i name="hartreedc">    -11.81477032 </i>
    <i name="XCdc">    -18.80786641 </i>
    <i name="pawpsdc">     65.95520812 </i>
    <i name="pawaedc">    -30.76852678 </i>
    <i name="eentropy">     -0.00732046 </i>
    <i name="bandstr">     15.41718709 </i>
    <i name="atom">    206.13125414 </i>
    <i name="e_fr_energy">      4.75257649 </i>
    <i name="e_wo_entrp">      4.75989695 </i>
    <i name="e_0_energy">      4.75623672 </i>
   </energy>
  </scstep>
  <scstep>
   <time name="dav">    1.24    1.25</time>
   <time name="total">    1.24    1.25</time>
   <energy>
    <i name="e_fr_energy">    -10.80699519 </i>
    <i name="e_wo_entrp">    -10.80699399 </i>
    <i name="e_0_energy">    -10.80699459 </i>
   </energy>
  </scstep>
  <scstep>
   <time name="dav">    0.96    0.97</time>
   <time name="total">    0.97    0.97</time>
   <energy>
    <i name="e_fr_energy">    -10.98652377 </i>
    <i name="e_wo_entrp">    -10.98652317 </i>
    <i name="e_0_energy">    -10.98652347 </i>
   </energy>
  </scstep>
  <scstep>
   <time name="dav">    1.26    1.28</time>
   <time name="total">    1.27    1.29</time>
   <energy>
    <i name="e_fr_energy">    -10.98736256 </i>
    <i name="e_wo_entrp">    -10.98736197 </i>
    <i name="e_0_energy">    -10.98736226 </i>
   </energy>
  </scstep>
  <scstep>
   <time name="dav">    1.03    1.05</time>
   <time name="total">    1.09    1.11</time>
   <energy>
    <i name="e_fr_energy">    -10.98736312 </i>
    <i name="e_wo_entrp">    -10.98736252 </i>
    <i name="e_0_energy">    -10.98736282 </i>
   </energy>
  </scstep>
  <scstep>
   <time name="dav">    0.94    0.94</time>
   <time name="total">    1.04    1.05</time>
   <energy>
    <i name="e_fr_energy">    -10.88415849 </i>
    <i name="e_wo_entrp">    -10.88415508 </i>
    <i name="e_0_energy">    -10.88415679 </i>
   </energy>
  </scstep>
  <scstep>
   <time name="dav">    0.97    0.97</time>
   <time name="total">    1.07    1.08</time>
   <energy>
    <i name="e_fr_energy">    -10.83514790 </i>
    <i name="e_wo_entrp">    -10.83512280 </i>
    <i name="e_0_energy">    -10.83513535 </i>
   </energy>
  </scstep>
  <scstep>
   <time name="dav">    0.92    0.92</time>
   <time name="total">    1.02    1.03</time>
   <energy>
    <i name="e_fr_energy">    -10.83647918 </i>
    <i name="e_wo_entrp">    -10.83645975 </i>
    <i name="e_0_energy">    -10.83646947 </i>
   </energy>
  </scstep>
  <scstep>
   <time name="dav">    0.70    0.70</time>
   <time name="total">    0.74    0.75</time>
   <energy>
    <i name="alphaZ">      3.18968577 </i>
    <i name="ewald">   -224.54227466 </i>
    <i name="hartreedc">    -15.54465969 </i>
    <i name="XCdc">    -18.20294390 </i>
    <i name="pawpsdc">     72.71228554 </i>
    <i name="pawaedc">    -37.70467852 </i>
    <i name="eentropy">     -0.00001918 </i>
    <i name="bandstr">      3.12476545 </i>
    <i name="atom">    206.13125414 </i>
    <i name="e_fr_energy">    -10.83658505 </i>
    <i name="e_wo_entrp">    -10.83656587 </i>
    <i name="e_0_energy">    -10.83657546 </i>
   </energy>
  </scstep>
  <structure>
   <crystal>
    <varray name="basis" >
     <v>       0.00000000       2.76362200       2.76362200 </v>
     <v>       2.76362200       0.00000000       2.76362200 </v>
     <v>       2.76362200       2.76362200       0.00000000 </v>
    </varray>
    <i name="volume">     42.21491503 </i>
    <varray name="rec_basis" >
     <v>      -0.18092199       0.18092199       0.18092199 </v>
     <v>       0.18092199      -0.18092199       0.18092199 </v>
     <v>       0.18092199       0.18092199      -0.18092199 </v>
    </varray>
   </crystal>
   <varray name="positions" >
    <v>       0.50000000       0.50000000       0.50000000 </v>
    <v>       0.75000000       0.75000000       0.75000000 </v>
   </varray>
  </structure>
  <varray name="forces" >
   <v>      -0.00000000      -0.00000000      -0.00000000 </v>
   <v>       0.00000000       0.00000000       0.00000000 </v>
  </varray>
  <varray name="stress" >
   <v>     -26.68319449      -0.00000000       0.00000000 </v>
   <v>      -0.00000000     -26.68319449      -0.00000000 </v>
   <v>       0.00000000       0.00000000     -26.68319449 </v>
  </varray>
  <energy>
   <i name="e_fr_energy">    -10.83658505 </i>
   <i name="e_wo_entrp">    -10.83657546 </i>
   <i name="e_0_energy">     -0.00001918 </i>
  </energy>
  <time name="totalsc">   10.86   11.51</time>
  <eigenvalues>
   <array>
    <dimension dim="1">band</dimension>
    <dimension dim="2">kpoint</dimension>
    <dimension dim="3">spin</dimension>
    <field>eigene</field>
    <field>occ</field>
    <set>
     <set comment="spin 1">
      <set comment="kpoint 1">
       <r>   -6.2511    1.0000 </r>
       <r>    4.7669    1.0000 </r>
       <r>    5.2233    0.9988 </r>
       <r>    5.2233    0.9988 </r>
       <r>    7.8305    0.0000 </r>
       <r>    7.9642    0.0000 </r>
       <r>    7.9642    0.0000 </r>
       <r>    8.5458    0.0000 </r>
      </set>
      <set comment="kpoint 2">
       <r>   -5.9921    1.0000 </r>
       <r>    3.2781    1.0000 </r>
       <r>    4.4488    1.0000 </r>
       <r>    5.1067    0.9999 </r>
       <r>    7.8459    0.0000 </r>
       <r>    8.2029    0.0000 </r>
       <r>    8.4656    0.0000 </r>
       <r>   10.0709    0.0000 </r>
      </set>
      <set comment="kpoint 3">
       <r>   -5.3682    1.0000 </r>
       <r>    1.1185    1.0000 </r>
       <r>    3.9705    1.0000 </r>
       <r>    4.6595    1.0000 </r>
       <r>    7.3930    0.0000 </r>
       <r>    8.6942    0.0000 </r>
       <r>    8.9695    0.0000 </r>
       <r>   11.6836    0.0000 </r>
      </set>
      <set comment="kpoint 4">
       <r>   -4.5027    1.0000 </r>
       <r>   -0.7026    1.0000 </r>
       <r>    3.7557    1.0000 </r>
       <r>    4.2658    1.0000 </r>
       <r>    7.0804    0.0000 </r>
       <r>    8.7784    0.0000 </r>
       <r>    8.7921    0.0000 </r>
       <r>   12.9875    0.0000 </r>
      </set>
      <set comment="kpoint 5">
       <r>   -4.0782    1.0000 </r>
       <r>   -1.3720    1.0000 </r>
       <r>    3.8002    1.0000 </r>
       <r>    4.0563    1.0000 </r>
       <r>    7.0021    0.0000 </r>
       <r>    8.5962    0.0000 </r>
       <r>    8.8576    0.0000 </r>
       <r>   13.0909    0.0000 </r>
      </set>
      <set comment="kpoint 6">
       <r>   -4.7981    1.0000 </r>
       <r>   -0.1656    1.0000 </r>
       <r>    4.0769    1.0000 </r>
       <r>    4.0792    1.0000 </r>
       <r>    7.1703    0.0000 </r>
       <r>    8.5895    0.0000 </r>
       <r>    9.0956    0.0000 </r>
       <r>   12.1283    0.0000 </r>
      </set>
      <set comment="kpoint 7">
       <r>   -5.6126    1.0000 </r>
       <r>    1.8260    1.0000 </r>
       <r>    4.3494    1.0000 </r>
       <r>    4.5281    1.0000 </r>
       <r>    7.5356    0.0000 </r>
       <r>    8.4158    0.0000 </r>
       <r>    9.1247    0.0000 </r>
       <r>   10.9191    0.0000 </r>
      </set>
      <set comment="kpoint 8">
       <r>   -6.1209    1.0000 </r>
       <r>    4.0146    1.0000 </r>
       <r>    4.8159    1.0000 </r>
       <r>    4.9593    1.0000 </r>
       <r>    7.6831    0.0000 </r>
       <r>    8.1703    0.0000 </r>
       <r>    8.5209    0.0000 </r>
       <r>    9.3206    0.0000 </r>
      </set>
      <set comment="kpoint 9">
       <r>   -5.8618    1.0000 </r>
       <r>    3.1198    1.0000 </r>
       <r>    4.2795    1.0000 </r>
       <r>    4.3489    1.0000 </r>
       <r>    7.2796    0.0000 </r>
       <r>    8.8909    0.0000 </r>
       <r>    9.3508    0.0000 </r>
       <r>    9.8060    0.0000 </r>
      </set>
      <set comment="kpoint 10">
       <r>   -5.3555    1.0000 </r>
       <r>    1.6556    1.0000 </r>
       <r>    3.3418    1.0000 </r>
       <r>    4.1003    1.0000 </r>
       <r>    7.4414    0.0000 </r>
       <r>    8.9949    0.0000 </r>
       <r>    9.7508    0.0000 </r>
       <r>   10.1275    0.0000 </r>
      </set>
      <set comment="kpoint 11">
       <r>   -4.5427    1.0000 </r>
       <r>   -0.1321    1.0000 </r>
       <r>    2.8487    1.0000 </r>
       <r>    3.7089    1.0000 </r>
       <r>    7.6173    0.0000 </r>
       <r>    8.9883    0.0000 </r>
       <r>   10.1557    0.0000 </r>
       <r>   10.4642    0.0000 </r>
      </set>
      <set comment="kpoint 12">
       <r>   -3.8180    1.0000 </r>
       <r>   -1.2881    1.0000 </r>
       <r>    2.5649    1.0000 </r>
       <r>    3.6207    1.0000 </r>
       <r>    7.6672    0.0000 </r>
       <r>    8.7272    0.0000 </r>
       <r>   10.0215    0.0000 </r>
       <r>   12.4064    0.0000 </r>
      </set>
      <set comment="kpoint 13">
       <r>   -4.2525    1.0000 </r>
       <r>   -0.6300    1.0000 </r>
       <r>    2.5004    1.0000 </r>
       <r>    3.8927    1.0000 </r>
       <r>    7.9132    0.0000 </r>
       <r>    8.6642    0.0000 </r>
       <r>    9.9614    0.0000 </r>
       <r>   11.6842    0.0000 </r>
      </set>
      <set comment="kpoint 14">
       <r>   -5.1168    1.0000 </r>
       <r>    1.0294    1.0000 </r>
       <r>    2.8065    1.0000 </r>
       <r>    4.3791    1.0000 </r>
       <r>    8.2262    0.0000 </r>
       <r>    8.5513    0.0000 </r>
       <r>    9.8337    0.0000 </r>
       <r>   10.3314    0.0000 </r>
      </set>
      <set comment="kpoint 15">
       <r>   -5.7360    1.0000 </r>
       <r>    2.4728    1.0000 </r>
       <r>    3.8925    1.0000 </r>
       <r>    4.7372    1.0000 </r>
       <r>    7.8120    0.0000 </r>
       <r>    8.3897    0.0000 </r>
       <r>    9.1703    0.0000 </r>
       <r>   10.3442    0.0000 </r>
      </set>
      <set comment="kpoint 16">
       <r>   -4.9683    1.0000 </r>
       <r>    1.1420    1.0000 </r>
       <r>    3.2058    1.0000 </r>
       <r>    3.3231    1.0000 </r>
       <r>    6.4989    0.0000 </r>
       <r>    8.1318    0.0000 </r>
       <r>   11.1428    0.0000 </r>
       <r>   11.2985    0.0000 </r>
      </set>
      <set comment="kpoint 17">
       <r>   -4.2435    1.0000 </r>
       <r>   -0.0579    1.0000 </r>
       <r>    2.4505    1.0000 </r>
       <r>    2.9905    1.0000 </r>
       <r>    6.8069    0.0000 </r>
       <r>    7.9746    0.0000 </r>
       <r>   11.1088    0.0000 </r>
       <r>   12.2603    0.0000 </r>
      </set>
      <set comment="kpoint 18">
       <r>   -3.3838    1.0000 </r>
       <r>   -1.2064    1.0000 </r>
       <r>    1.6420    1.0000 </r>
       <r>    2.9596    1.0000 </r>
       <r>    7.0405    0.0000 </r>
       <r>    9.5879    0.0000 </r>
       <r>   10.6951    0.0000 </r>
       <r>   12.1731    0.0000 </r>
      </set>
      <set comment="kpoint 19">
       <r>   -3.4546    1.0000 </r>
       <r>   -1.1143    1.0000 </r>
       <r>    1.3065    1.0000 </r>
       <r>    3.2898    1.0000 </r>
       <r>    7.4236    0.0000 </r>
       <r>   10.2796    0.0000 </r>
       <r>   11.5203    0.0000 </r>
       <r>   11.8832    0.0000 </r>
      </set>
      <set comment="kpoint 20">
       <r>   -4.3138    1.0000 </r>
       <r>   -0.1836    1.0000 </r>
       <r>    1.8817    1.0000 </r>
       <r>    3.8510    1.0000 </r>
       <r>    8.0092    0.0000 </r>
       <r>    9.2033    0.0000 </r>
       <r>   10.5711    0.0000 </r>
       <r>   10.8807    0.0000 </r>
      </set>
      <set comment="kpoint 21">
       <r>   -5.0083    1.0000 </r>
       <r>    0.4612    1.0000 </r>
       <r>    3.4420    1.0000 </r>
       <r>    4.2824    1.0000 </r>
       <r>    7.6728    0.0000 </r>
       <r>    8.5926    0.0000 </r>
       <r>    9.4318    0.0000 </r>
       <r>   11.0882    0.0000 </r>
      </set>
      <set comment="kpoint 22">
       <r>   -3.6115    1.0000 </r>
       <r>   -0.8968    1.0000 </r>
       <r>    2.5433    1.0000 </r>
       <r>    2.7489    1.0000 </r>
       <r>    6.1261    0.0004 </r>
       <r>    6.8310    0.0000 </r>
       <r>   13.3711    0.0000 </r>
       <r>   13.4010    0.0000 </r>
      </set>
      <set comment="kpoint 23">
       <r>   -2.7354    1.0000 </r>
       <r>   -1.8547    1.0000 </r>
       <r>    2.0126    1.0000 </r>
       <r>    2.5178    1.0000 </r>
       <r>    6.5493    0.0000 </r>
       <r>    7.2554    0.0000 </r>
       <r>   13.1428    0.0000 </r>
       <r>   14.0963    0.0000 </r>
      </set>
      <set comment="kpoint 24">
       <r>   -2.8379    1.0000 </r>
       <r>   -1.6885    1.0000 </r>
       <r>    1.3170    1.0000 </r>
       <r>    2.8210    1.0000 </r>
       <r>    6.8999    0.0000 </r>
       <r>    9.4318    0.0000 </r>
       <r>   11.6614    0.0000 </r>
       <r>   12.7581    0.0000 </r>
      </set>
      <set comment="kpoint 25">
       <r>   -3.5703    1.0000 </r>
       <r>   -1.2607    1.0000 </r>
       <r>    1.8243    1.0000 </r>
       <r>    3.3988    1.0000 </r>
       <r>    7.5331    0.0000 </r>
       <r>    9.4427    0.0000 </r>
       <r>   10.9370    0.0000 </r>
       <r>   12.1647    0.0000 </r>
      </set>
      <set comment="kpoint 26">
       <r>   -4.1558    1.0000 </r>
       <r>   -1.0930    1.0000 </r>
       <r>    3.2654    1.0000 </r>
       <r>    3.9610    1.0000 </r>
       <r>    7.4631    0.0000 </r>
       <r>    8.5309    0.0000 </r>
       <r>    9.2704    0.0000 </r>
       <r>   12.7279    0.0000 </r>
      </set>
      <set comment="kpoint 27">
       <r>   -2.7827    1.0000 </r>
       <r>   -1.8701    1.0000 </r>
       <r>    2.4104    1.0000 </r>
       <r>    2.6314    1.0000 </r>
       <r>    6.1293    0.0004 </r>
       <r>    6.4799    0.0000 </r>
       <r>   14.4180    0.0000 </r>
       <r>   14.4691    0.0000 </r>
      </set>
      <set comment="kpoint 28">
       <r>   -3.5305    1.0000 </r>
       <r>   -0.9592    1.0000 </r>
       <r>    2.1625    1.0000 </r>
       <r>    2.6723    1.0000 </r>
       <r>    6.6295    0.0000 </r>
       <r>    7.5038    0.0000 </r>
       <r>   12.1001    0.0000 </r>
       <r>   13.3812    0.0000 </r>
      </set>
      <set comment="kpoint 29">
       <r>   -3.9892    1.0000 </r>
       <r>   -0.6776    1.0000 </r>
       <r>    2.2053    1.0000 </r>
       <r>    3.2486    1.0000 </r>
       <r>    7.3028    0.0000 </r>
       <r>    9.7644    0.0000 </r>
       <r>    9.9290    0.0000 </r>
       <r>   11.1478    0.0000 </r>
      </set>
      <set comment="kpoint 30">
       <r>   -4.3439    1.0000 </r>
       <r>    0.1161    1.0000 </r>
       <r>    2.8089    1.0000 </r>
       <r>    2.9812    1.0000 </r>
       <r>    6.2479    0.0000 </r>
       <r>    7.3948    0.0000 </r>
       <r>   12.2405    0.0000 </r>
       <r>   12.3367    0.0000 </r>
      </set>
      <set comment="kpoint 31">
       <r>   -4.8555    1.0000 </r>
       <r>    0.8166    1.0000 </r>
       <r>    2.8523    1.0000 </r>
       <r>    3.4780    1.0000 </r>
       <r>    7.0843    0.0000 </r>
       <r>    8.6211    0.0000 </r>
       <r>   10.1921    0.0000 </r>
       <r>   11.1644    0.0000 </r>
      </set>
      <set comment="kpoint 32">
       <r>   -5.4762    1.0000 </r>
       <r>    2.1525    1.0000 </r>
       <r>    3.7280    1.0000 </r>
       <r>    3.7635    1.0000 </r>
       <r>    6.8570    0.0000 </r>
       <r>    8.9258    0.0000 </r>
       <r>   10.1406    0.0000 </r>
       <r>   10.2965    0.0000 </r>
      </set>
      <set comment="kpoint 33">
       <r>   -5.8650    1.0000 </r>
       <r>    2.5793    1.0000 </r>
       <r>    4.7976    1.0000 </r>
       <r>    4.7976    1.0000 </r>
       <r>    7.3939    0.0000 </r>
       <r>    8.5636    0.0000 </r>
       <r>    8.5636    0.0000 </r>
       <r>   10.6947    0.0000 </r>
      </set>
      <set comment="kpoint 34">
       <r>   -5.4863    1.0000 </r>
       <r>    1.7444    1.0000 </r>
       <r>    3.3402    1.0000 </r>
       <r>    4.8105    1.0000 </r>
       <r>    8.0464    0.0000 </r>
       <r>    8.6864    0.0000 </r>
       <r>    8.9599    0.0000 </r>
       <r>   10.8638    0.0000 </r>
      </set>
      <set comment="kpoint 35">
       <r>   -4.7661    1.0000 </r>
       <r>    0.4057    1.0000 </r>
       <r>    2.2973    1.0000 </r>
       <r>    4.3243    1.0000 </r>
       <r>    7.9449    0.0000 </r>
       <r>    9.4246    0.0000 </r>
       <r>    9.6080    0.0000 </r>
       <r>   11.1497    0.0000 </r>
      </set>
      <set comment="kpoint 36">
       <r>   -3.9096    1.0000 </r>
       <r>   -1.0213    1.0000 </r>
       <r>    2.1369    1.0000 </r>
       <r>    3.8133    1.0000 </r>
       <r>    7.4862    0.0000 </r>
       <r>    9.5675    0.0000 </r>
       <r>    9.8251    0.0000 </r>
       <r>   12.9794    0.0000 </r>
      </set>
      <set comment="kpoint 37">
       <r>   -3.8942    1.0000 </r>
       <r>   -1.0490    1.0000 </r>
       <r>    2.4218    1.0000 </r>
       <r>    3.5081    1.0000 </r>
       <r>    7.2315    0.0000 </r>
       <r>    9.6251    0.0000 </r>
       <r>   10.1625    0.0000 </r>
       <r>   11.1060    0.0000 </r>
      </set>
      <set comment="kpoint 38">
       <r>   -4.7490    1.0000 </r>
       <r>    0.4026    1.0000 </r>
       <r>    3.0163    1.0000 </r>
       <r>    3.4873    1.0000 </r>
       <r>    7.1697    0.0000 </r>
       <r>    9.2878    0.0000 </r>
       <r>    9.9178    0.0000 </r>
       <r>   10.5094    0.0000 </r>
      </set>
      <set comment="kpoint 39">
       <r>   -5.2384    1.0000 </r>
       <r>    1.1022    1.0000 </r>
       <r>    3.8099    1.0000 </r>
       <r>    3.8914    1.0000 </r>
       <r>    7.5295    0.0000 </r>
       <r>    8.8161    0.0000 </r>
       <r>    9.7813    0.0000 </r>
       <r>   10.1818    0.0000 </r>
      </set>
      <set comment="kpoint 40">
       <r>   -4.6342    1.0000 </r>
       <r>    0.3325    1.0000 </r>
       <r>    2.3524    1.0000 </r>
       <r>    3.7008    1.0000 </r>
       <r>    8.0253    0.0000 </r>
       <r>    8.9997    0.0000 </r>
       <r>    9.5520    0.0000 </r>
       <r>   10.9938    0.0000 </r>
      </set>
      <set comment="kpoint 41">
       <r>   -3.7774    1.0000 </r>
       <r>   -0.7424    1.0000 </r>
       <r>    1.5950    1.0000 </r>
       <r>    3.1585    1.0000 </r>
       <r>    8.4674    0.0000 </r>
       <r>    8.9448    0.0000 </r>
       <r>   10.1885    0.0000 </r>
       <r>   12.0623    0.0000 </r>
      </set>
      <set comment="kpoint 42">
       <r>   -3.3121    1.0000 </r>
       <r>   -1.3283    1.0000 </r>
       <r>    1.5923    1.0000 </r>
       <r>    2.8597    1.0000 </r>
       <r>    8.0181    0.0000 </r>
       <r>    9.2635    0.0000 </r>
       <r>   10.9517    0.0000 </r>
       <r>   12.1755    0.0000 </r>
      </set>
      <set comment="kpoint 43">
       <r>   -4.0495    1.0000 </r>
       <r>   -0.3675    1.0000 </r>
       <r>    2.0042    1.0000 </r>
       <r>    3.0307    1.0000 </r>
       <r>    7.7548    0.0000 </r>
       <r>    8.9536    0.0000 </r>
       <r>    9.7551    0.0000 </r>
       <r>   12.1784    0.0000 </r>
      </set>
      <set comment="kpoint 44">
       <r>   -4.1546    1.0000 </r>
       <r>   -0.3065    1.0000 </r>
       <r>    2.3215    1.0000 </r>
       <r>    3.1675    1.0000 </r>
       <r>    6.8093    0.0000 </r>
       <r>    8.7891    0.0000 </r>
       <r>   10.9348    0.0000 </r>
       <r>   11.3126    0.0000 </r>
      </set>
      <set comment="kpoint 45">
       <r>   -3.3800    1.0000 </r>
       <r>   -1.0941    1.0000 </r>
       <r>    1.7740    1.0000 </r>
       <r>    2.5166    1.0000 </r>
       <r>    7.5611    0.0000 </r>
       <r>    8.5551    0.0000 </r>
       <r>   10.6289    0.0000 </r>
       <r>   13.3423    0.0000 </r>
      </set>
      <set comment="kpoint 46">
       <r>   -2.6045    1.0000 </r>
       <r>   -1.8287    1.0000 </r>
       <r>    1.4735    1.0000 </r>
       <r>    2.0373    1.0000 </r>
       <r>    8.6577    0.0000 </r>
       <r>    9.5788    0.0000 </r>
       <r>   10.1821    0.0000 </r>
       <r>   11.1771    0.0000 </r>
      </set>
      <set comment="kpoint 47">
       <r>   -3.1857    1.0000 </r>
       <r>   -1.2916    1.0000 </r>
       <r>    1.4610    1.0000 </r>
       <r>    2.4934    1.0000 </r>
       <r>    8.7534    0.0000 </r>
       <r>    9.1590    0.0000 </r>
       <r>    9.8846    0.0000 </r>
       <r>   12.3130    0.0000 </r>
      </set>
      <set comment="kpoint 48">
       <r>   -2.7593    1.0000 </r>
       <r>   -1.8036    1.0000 </r>
       <r>    1.5728    1.0000 </r>
       <r>    2.8362    1.0000 </r>
       <r>    6.3967    0.0000 </r>
       <r>    8.2420    0.0000 </r>
       <r>   13.0719    0.0000 </r>
       <r>   13.2292    0.0000 </r>
      </set>
      <set comment="kpoint 49">
       <r>   -2.6621    1.0000 </r>
       <r>   -1.8370    1.0000 </r>
       <r>    1.6630    1.0000 </r>
       <r>    2.2402    1.0000 </r>
       <r>    7.4621    0.0000 </r>
       <r>    8.3543    0.0000 </r>
       <r>   11.6101    0.0000 </r>
       <r>   12.6930    0.0000 </r>
      </set>
      <set comment="kpoint 50">
       <r>   -3.4735    1.0000 </r>
       <r>   -1.0537    1.0000 </r>
       <r>    1.8250    1.0000 </r>
       <r>    2.9478    1.0000 </r>
       <r>    6.5393    0.0000 </r>
       <r>    8.4235    0.0000 </r>
       <r>   12.0659    0.0000 </r>
       <r>   12.1927    0.0000 </r>
      </set>
      <set comment="kpoint 51">
       <r>   -5.1358    1.0000 </r>
       <r>    0.4397    1.0000 </r>
       <r>    4.3956    1.0000 </r>
       <r>    4.3956    1.0000 </r>
       <r>    6.9411    0.0000 </r>
       <r>    8.8115    0.0000 </r>
       <r>    8.8115    0.0000 </r>
       <r>   12.7367    0.0000 </r>
      </set>
      <set comment="kpoint 52">
       <r>   -4.6739    1.0000 </r>
       <r>   -0.1288    1.0000 </r>
       <r>    2.9735    1.0000 </r>
       <r>    4.3095    1.0000 </r>
       <r>    7.6758    0.0000 </r>
       <r>    9.0240    0.0000 </r>
       <r>    9.0768    0.0000 </r>
       <r>   12.1554    0.0000 </r>
      </set>
      <set comment="kpoint 53">
       <r>   -3.9113    1.0000 </r>
       <r>   -0.6727    1.0000 </r>
       <r>    1.5172    1.0000 </r>
       <r>    3.7520    1.0000 </r>
       <r>    7.4260    0.0000 </r>
       <r>   10.4206    0.0000 </r>
       <r>   10.5644    0.0000 </r>
       <r>   11.8945    0.0000 </r>
      </set>
      <set comment="kpoint 54">
       <r>   -3.1231    1.0000 </r>
       <r>   -1.4384    1.0000 </r>
       <r>    1.1992    1.0000 </r>
       <r>    3.2257    1.0000 </r>
       <r>    6.8438    0.0000 </r>
       <r>   10.6485    0.0000 </r>
       <r>   11.6564    0.0000 </r>
       <r>   11.8588    0.0000 </r>
      </set>
      <set comment="kpoint 55">
       <r>   -4.3727    1.0000 </r>
       <r>   -0.6661    1.0000 </r>
       <r>    3.2894    1.0000 </r>
       <r>    3.7693    1.0000 </r>
       <r>    7.4323    0.0000 </r>
       <r>    8.7776    0.0000 </r>
       <r>    9.5514    0.0000 </r>
       <r>   11.5331    0.0000 </r>
      </set>
      <set comment="kpoint 56">
       <r>   -3.7768    1.0000 </r>
       <r>   -1.0306    1.0000 </r>
       <r>    2.0354    1.0000 </r>
       <r>    3.3163    1.0000 </r>
       <r>    8.2054    0.0000 </r>
       <r>    8.5790    0.0000 </r>
       <r>   11.0060    0.0000 </r>
       <r>   11.2966    0.0000 </r>
      </set>
      <set comment="kpoint 57">
       <r>   -2.9889    1.0000 </r>
       <r>   -1.5076    1.0000 </r>
       <r>    1.2881    1.0000 </r>
       <r>    2.6324    1.0000 </r>
       <r>    7.8965    0.0000 </r>
       <r>   10.0929    0.0000 </r>
       <r>   10.8387    0.0000 </r>
       <r>   11.3406    0.0000 </r>
      </set>
      <set comment="kpoint 58">
       <r>   -3.4330    1.0000 </r>
       <r>   -1.3076    1.0000 </r>
       <r>    1.6653    1.0000 </r>
       <r>    3.3220    1.0000 </r>
       <r>    6.9843    0.0000 </r>
       <r>   10.6048    0.0000 </r>
       <r>   10.9020    0.0000 </r>
       <r>   10.9122    0.0000 </r>
      </set>
      <set comment="kpoint 59">
       <r>   -4.2849    1.0000 </r>
       <r>   -1.1458    1.0000 </r>
       <r>    4.1796    1.0000 </r>
       <r>    4.1796    1.0000 </r>
       <r>    6.6893    0.0000 </r>
       <r>    8.6930    0.0000 </r>
       <r>    8.6930    0.0000 </r>
       <r>   12.9960    0.0000 </r>
      </set>
      <set comment="kpoint 60">
       <r>   -3.9489    1.0000 </r>
       <r>   -1.3204    1.0000 </r>
       <r>    2.9857    1.0000 </r>
       <r>    3.9232    1.0000 </r>
       <r>    7.4425    0.0000 </r>
       <r>    8.7917    0.0000 </r>
       <r>    9.2530    0.0000 </r>
       <r>   13.3182    0.0000 </r>
      </set>
     </set>
    </set>
   </array>
  </eigenvalues>
  <separator name="orbital magnetization" >
   <v name="MAGDIPOLOUT">      0.00000000      0.00000000      0.00000000</v>
  </separator>
  <dos>
   <i name="efermi">      5.65416186 </i>
   <total>
    <array>
     <dimension dim="1">gridpoints</dimension>
     <dimension dim="2">spin</dimension>
     <field>energy</field>
     <field>total</field>
     <field>integrated</field>
     <set>
      <set comment="spin 1">
       <r>    -8.2511     0.0000     0.0000 </r>
       <r>    -8.1687     0.0000     0.0000 </r>
       <r>    -8.0863     0.0000     0.0000 </r>
       <r>    -8.0039     0.0000     0.0000 </r>
       <r>    -7.9215     0.0000     0.0000 </r>
       <r>    -7.8391     0.0000     0.0000 </r>
       <r>    -7.7567     0.0000     0.0000 </r>
       <r>    -7.6743     0.0000     0.0000 </r>
       <r>    -7.5919     0.0000     0.0000 </r>
       <r>    -7.5095     0.0000     0.0000 </r>
       <r>    -7.4271     0.0000     0.0000 </r>
       <r>    -7.3447     0.0000     0.0000 </r>
       <r>    -7.2623     0.0000     0.0000 </r>
       <r>    -7.1799     0.0000     0.0000 </r>
       <r>    -7.0975     0.0000     0.0000 </r>
       <r>    -7.0151     0.0000     0.0000 </r>
       <r>    -6.9327     0.0000     0.0000 </r>
       <r>    -6.8503     0.0000     0.0000 </r>
       <r>    -6.7679     0.0000     0.0000 </r>
       <r>    -6.6855     0.0001     0.0000 </r>
       <r>    -6.6031     0.0006     0.0001 </r>
       <r>    -6.5207     0.0027     0.0003 </r>
       <r>    -6.4383     0.0092     0.0010 </r>
       <r>    -6.3559     0.0245     0.0031 </r>
       <r>    -6.2735     0.0517     0.0073 </r>
       <r>    -6.1911     0.0893     0.0147 </r>
       <r>    -6.1087     0.1302     0.0254 </r>
       <r>    -6.0263     0.1680     0.0392 </r>
       <r>    -5.9439     0.2024     0.0559 </r>
       <r>    -5.8615     0.2356     0.0753 </r>
       <r>    -5.7791     0.2642     0.0971 </r>
       <r>    -5.6967     0.2825     0.1204 </r>
       <r>    -5.6143     0.2957     0.1447 </r>
       <r>    -5.5319     0.3198     0.1711 </r>
       <r>    -5.4495     0.3575     0.2006 </r>
       <r>    -5.3671     0.3886     0.2326 </r>
       <r>    -5.2847     0.3968     0.2653 </r>
       <r>    -5.2023     0.3950     0.2978 </r>
       <r>    -5.1199     0.4077     0.3314 </r>
       <r>    -5.0375     0.4380     0.3675 </r>
       <r>    -4.9551     0.4731     0.4065 </r>
       <r>    -4.8727     0.5072     0.4483 </r>
       <r>    -4.7903     0.5391     0.4927 </r>
       <r>    -4.7079     0.5598     0.5389 </r>
       <r>    -4.6255     0.5601     0.5850 </r>
       <r>    -4.5431     0.5483     0.6302 </r>
       <r>    -4.4607     0.5568     0.6761 </r>
       <r>    -4.3783     0.6189     0.7271 </r>
       <r>    -4.2959     0.7231     0.7866 </r>
       <r>    -4.2135     0.8127     0.8536 </r>
       <r>    -4.1311     0.8504     0.9237 </r>
       <r>    -4.0487     0.8545     0.9941 </r>
       <r>    -3.9663     0.8557     1.0646 </r>
       <r>    -3.8839     0.8507     1.1347 </r>
       <r>    -3.8015     0.8150     1.2019 </r>
       <r>    -3.7190     0.7533     1.2639 </r>
       <r>    -3.6366     0.7201     1.3233 </r>
       <r>    -3.5542     0.7608     1.3860 </r>
       <r>    -3.4718     0.8394     1.4551 </r>
       <r>    -3.3894     0.8644     1.5263 </r>
       <r>    -3.3070     0.7852     1.5910 </r>
       <r>    -3.2246     0.6376     1.6436 </r>
       <r>    -3.1422     0.4956     1.6844 </r>
       <r>    -3.0598     0.4078     1.7180 </r>
       <r>    -2.9774     0.3884     1.7500 </r>
       <r>    -2.8950     0.4344     1.7858 </r>
       <r>    -2.8126     0.5196     1.8286 </r>
       <r>    -2.7302     0.5839     1.8767 </r>
       <r>    -2.6478     0.5637     1.9232 </r>
       <r>    -2.5654     0.4456     1.9599 </r>
       <r>    -2.4830     0.2802     1.9830 </r>
       <r>    -2.4006     0.1372     1.9943 </r>
       <r>    -2.3182     0.0520     1.9986 </r>
       <r>    -2.2358     0.0197     2.0002 </r>
       <r>    -2.1534     0.0286     2.0026 </r>
       <r>    -2.0710     0.0894     2.0099 </r>
       <r>    -1.9886     0.2253     2.0285 </r>
       <r>    -1.9062     0.4181     2.0630 </r>
       <r>    -1.8238     0.5771     2.1105 </r>
       <r>    -1.7414     0.6117     2.1609 </r>
       <r>    -1.6590     0.5395     2.2054 </r>
       <r>    -1.5766     0.4762     2.2446 </r>
       <r>    -1.4942     0.5260     2.2880 </r>
       <r>    -1.4118     0.7073     2.3462 </r>
       <r>    -1.3294     0.9505     2.4246 </r>
       <r>    -1.2470     1.1508     2.5194 </r>
       <r>    -1.1646     1.2442     2.6219 </r>
       <r>    -1.0822     1.2222     2.7226 </r>
       <r>    -0.9998     1.0915     2.8126 </r>
       <r>    -0.9174     0.8935     2.8862 </r>
       <r>    -0.8350     0.7293     2.9463 </r>
       <r>    -0.7526     0.6689     3.0014 </r>
       <r>    -0.6702     0.6574     3.0556 </r>
       <r>    -0.5878     0.5916     3.1043 </r>
       <r>    -0.5054     0.4669     3.1428 </r>
       <r>    -0.4230     0.3760     3.1738 </r>
       <r>    -0.3406     0.3836     3.2054 </r>
       <r>    -0.2582     0.4689     3.2440 </r>
       <r>    -0.1758     0.5593     3.2901 </r>
       <r>    -0.0934     0.5774     3.3377 </r>
       <r>    -0.0110     0.4945     3.3784 </r>
       <r>     0.0714     0.3623     3.4083 </r>
       <r>     0.1538     0.2677     3.4303 </r>
       <r>     0.2362     0.2611     3.4519 </r>
       <r>     0.3186     0.3261     3.4787 </r>
       <r>     0.4010     0.3914     3.5110 </r>
       <r>     0.4834     0.3839     3.5426 </r>
       <r>     0.5658     0.2992     3.5673 </r>
       <r>     0.6482     0.2047     3.5841 </r>
       <r>     0.7306     0.1637     3.5976 </r>
       <r>     0.8130     0.1818     3.6126 </r>
       <r>     0.8954     0.2342     3.6319 </r>
       <r>     0.9778     0.3119     3.6576 </r>
       <r>     1.0602     0.4166     3.6919 </r>
       <r>     1.1426     0.5346     3.7360 </r>
       <r>     1.2250     0.6443     3.7891 </r>
       <r>     1.3074     0.7365     3.8498 </r>
       <r>     1.3898     0.8250     3.9177 </r>
       <r>     1.4722     0.9427     3.9954 </r>
       <r>     1.5546     1.0949     4.0856 </r>
       <r>     1.6370     1.2218     4.1863 </r>
       <r>     1.7194     1.2520     4.2895 </r>
       <r>     1.8018     1.1879     4.3874 </r>
       <r>     1.8842     1.1020     4.4782 </r>
       <r>     1.9666     1.0591     4.5654 </r>
       <r>     2.0490     1.0630     4.6530 </r>
       <r>     2.1314     1.0768     4.7418 </r>
       <r>     2.2138     1.0874     4.8314 </r>
       <r>     2.2962     1.1344     4.9248 </r>
       <r>     2.3786     1.2616     5.0288 </r>
       <r>     2.4610     1.4323     5.1468 </r>
       <r>     2.5434     1.5298     5.2729 </r>
       <r>     2.6258     1.4958     5.3961 </r>
       <r>     2.7082     1.4213     5.5133 </r>
       <r>     2.7906     1.4258     5.6307 </r>
       <r>     2.8730     1.4939     5.7538 </r>
       <r>     2.9554     1.5177     5.8789 </r>
       <r>     3.0378     1.4632     5.9995 </r>
       <r>     3.1202     1.4212     6.1166 </r>
       <r>     3.2026     1.4803     6.2386 </r>
       <r>     3.2850     1.5859     6.3692 </r>
       <r>     3.3674     1.5853     6.4999 </r>
       <r>     3.4498     1.4182     6.6167 </r>
       <r>     3.5322     1.1975     6.7154 </r>
       <r>     3.6146     1.0925     6.8054 </r>
       <r>     3.6970     1.1666     6.9015 </r>
       <r>     3.7794     1.3281     7.0110 </r>
       <r>     3.8618     1.4258     7.1285 </r>
       <r>     3.9442     1.3780     7.2420 </r>
       <r>     4.0266     1.2160     7.3422 </r>
       <r>     4.1090     1.0359     7.4276 </r>
       <r>     4.1914     0.9262     7.5039 </r>
       <r>     4.2738     0.8990     7.5780 </r>
       <r>     4.3562     0.8742     7.6500 </r>
       <r>     4.4386     0.7678     7.7133 </r>
       <r>     4.5210     0.5993     7.7627 </r>
       <r>     4.6034     0.4661     7.8011 </r>
       <r>     4.6858     0.4232     7.8359 </r>
       <r>     4.7682     0.4293     7.8713 </r>
       <r>     4.8506     0.4089     7.9050 </r>
       <r>     4.9330     0.3388     7.9329 </r>
       <r>     5.0154     0.2543     7.9539 </r>
       <r>     5.0978     0.1899     7.9695 </r>
       <r>     5.1802     0.1458     7.9815 </r>
       <r>     5.2626     0.1065     7.9903 </r>
       <r>     5.3450     0.0666     7.9958 </r>
       <r>     5.4274     0.0334     7.9986 </r>
       <r>     5.5098     0.0129     7.9996 </r>
       <r>     5.5922     0.0038     7.9999 </r>
       <r>     5.6746     0.0012     8.0000 </r>
       <r>     5.7570     0.0023     8.0002 </r>
       <r>     5.8394     0.0098     8.0010 </r>
       <r>     5.9218     0.0322     8.0037 </r>
       <r>     6.0042     0.0774     8.0100 </r>
       <r>     6.0866     0.1395     8.0215 </r>
       <r>     6.1690     0.1961     8.0377 </r>
       <r>     6.2514     0.2358     8.0571 </r>
       <r>     6.3338     0.2808     8.0803 </r>
       <r>     6.4162     0.3611     8.1100 </r>
       <r>     6.4986     0.4658     8.1484 </r>
       <r>     6.5810     0.5499     8.1937 </r>
       <r>     6.6634     0.5996     8.2431 </r>
       <r>     6.7458     0.6537     8.2970 </r>
       <r>     6.8282     0.7374     8.3577 </r>
       <r>     6.9106     0.8207     8.4254 </r>
       <r>     6.9930     0.8688     8.4970 </r>
       <r>     7.0755     0.8904     8.5703 </r>
       <r>     7.1579     0.9279     8.6468 </r>
       <r>     7.2403     1.0381     8.7323 </r>
       <r>     7.3227     1.2598     8.8361 </r>
       <r>     7.4051     1.5500     8.9639 </r>
       <r>     7.4875     1.7671     9.1095 </r>
       <r>     7.5699     1.7842     9.2565 </r>
       <r>     7.6523     1.6193     9.3899 </r>
       <r>     7.7347     1.4108     9.5062 </r>
       <r>     7.8171     1.2858     9.6121 </r>
       <r>     7.8995     1.2700     9.7168 </r>
       <r>     7.9819     1.2887     9.8230 </r>
       <r>     8.0643     1.2529     9.9262 </r>
       <r>     8.1467     1.1572    10.0216 </r>
       <r>     8.2291     1.0746    10.1101 </r>
       <r>     8.3115     1.0865    10.1997 </r>
       <r>     8.3939     1.2444    10.3022 </r>
       <r>     8.4763     1.5364    10.4288 </r>
       <r>     8.5587     1.8541    10.5816 </r>
       <r>     8.6411     2.0473    10.7503 </r>
       <r>     8.7235     2.0498    10.9192 </r>
       <r>     8.8059     1.9310    11.0783 </r>
       <r>     8.8883     1.8062    11.2271 </r>
       <r>     8.9707     1.7169    11.3686 </r>
       <r>     9.0531     1.6283    11.5028 </r>
       <r>     9.1355     1.5223    11.6282 </r>
       <r>     9.2179     1.4246    11.7456 </r>
       <r>     9.3003     1.3536    11.8571 </r>
       <r>     9.3827     1.3102    11.9651 </r>
       <r>     9.4651     1.2944    12.0717 </r>
       <r>     9.5475     1.2933    12.1783 </r>
       <r>     9.6299     1.2906    12.2847 </r>
       <r>     9.7123     1.2954    12.3914 </r>
       <r>     9.7947     1.3170    12.4999 </r>
       <r>     9.8771     1.3366    12.6101 </r>
       <r>     9.9595     1.3531    12.7216 </r>
       <r>    10.0419     1.4064    12.8374 </r>
       <r>    10.1243     1.4943    12.9606 </r>
       <r>    10.2067     1.5238    13.0861 </r>
       <r>    10.2891     1.4164    13.2029 </r>
       <r>    10.3715     1.2158    13.3030 </r>
       <r>    10.4539     1.0381    13.3886 </r>
       <r>    10.5363     0.9471    13.4666 </r>
       <r>    10.6187     0.9205    13.5425 </r>
       <r>    10.7011     0.9287    13.6190 </r>
       <r>    10.7835     1.0039    13.7017 </r>
       <r>    10.8659     1.1778    13.7988 </r>
       <r>    10.9483     1.3873    13.9131 </r>
       <r>    11.0307     1.5203    14.0384 </r>
       <r>    11.1131     1.5187    14.1635 </r>
       <r>    11.1955     1.3859    14.2777 </r>
       <r>    11.2779     1.1591    14.3732 </r>
       <r>    11.3603     0.9131    14.4485 </r>
       <r>    11.4427     0.7412    14.5095 </r>
       <r>    11.5251     0.6944    14.5668 </r>
       <r>    11.6075     0.7310    14.6270 </r>
       <r>    11.6899     0.7502    14.6888 </r>
       <r>    11.7723     0.7030    14.7467 </r>
       <r>    11.8547     0.6452    14.7999 </r>
       <r>    11.9371     0.6755    14.8556 </r>
       <r>    12.0195     0.8485    14.9255 </r>
       <r>    12.1019     1.1122    15.0171 </r>
       <r>    12.1843     1.3048    15.1246 </r>
       <r>    12.2667     1.2757    15.2298 </r>
       <r>    12.3491     1.0291    15.3146 </r>
       <r>    12.4315     0.7076    15.3729 </r>
       <r>    12.5139     0.4648    15.4112 </r>
       <r>    12.5963     0.3756    15.4421 </r>
       <r>    12.6787     0.4082    15.4757 </r>
       <r>    12.7611     0.4582    15.5135 </r>
       <r>    12.8435     0.4553    15.5510 </r>
       <r>    12.9259     0.4283    15.5863 </r>
       <r>    13.0083     0.4355    15.6222 </r>
       <r>    13.0907     0.4798    15.6617 </r>
       <r>    13.1731     0.5316    15.7055 </r>
       <r>    13.2555     0.5767    15.7531 </r>
       <r>    13.3379     0.5937    15.8020 </r>
       <r>    13.4203     0.5357    15.8461 </r>
       <r>    13.5027     0.3896    15.8782 </r>
       <r>    13.5851     0.2166    15.8961 </r>
       <r>    13.6675     0.0900    15.9035 </r>
       <r>    13.7499     0.0305    15.9060 </r>
       <r>    13.8323     0.0195    15.9076 </r>
       <r>    13.9147     0.0400    15.9109 </r>
       <r>    13.9971     0.0813    15.9176 </r>
       <r>    14.0795     0.1228    15.9277 </r>
       <r>    14.1619     0.1395    15.9392 </r>
       <r>    14.2443     0.1317    15.9501 </r>
       <r>    14.3267     0.1259    15.9605 </r>
       <r>    14.4091     0.1339    15.9715 </r>
       <r>    14.4915     0.1344    15.9826 </r>
       <r>    14.5739     0.1077    15.9914 </r>
       <r>    14.6563     0.0644    15.9967 </r>
       <r>    14.7387     0.0281    15.9991 </r>
       <r>    14.8211     0.0089    15.9998 </r>
       <r>    14.9035     0.0021    16.0000 </r>
       <r>    14.9859     0.0003    16.0000 </r>
       <r>    15.0683     0.0000    16.0000 </r>
       <r>    15.1507     0.0000    16.0000 </r>
       <r>    15.2331     0.0000    16.0000 </r>
       <r>    15.3155     0.0000    16.0000 </r>
       <r>    15.3979     0.0000    16.0000 </r>
       <r>    15.4803     0.0000    16.0000 </r>
       <r>    15.5627     0.0000    16.0000 </r>
       <r>    15.6451     0.0000    16.0000 </r>
       <r>    15.7275     0.0000    16.0000 </r>
       <r>    15.8099     0.0000    16.0000 </r>
       <r>    15.8923     0.0000    16.0000 </r>
       <r>    15.9747     0.0000    16.0000 </r>
       <r>    16.0571     0.0000    16.0000 </r>
       <r>    16.1395     0.0000    16.0000 </r>
       <r>    16.2219     0.0000    16.0000 </r>
       <r>    16.3043     0.0000    16.0000 </r>
       <r>    16.3867     0.0000    16.0000 </r>
       <r>    16.4691     0.0000    16.0000 </r>
      </set>
     </set>
    </array>
   </total>
  </dos>
 </calculation>
 <structure name="finalpos" >
  <crystal>
   <varray name="basis" >
    <v>       0.00000000       2.76362200       2.76362200 </v>
    <v>       2.76362200       0.00000000       2.76362200 </v>
    <v>       2.76362200       2.76362200       0.00000000 </v>
   </varray>
   <i name="volume">     42.21491503 </i>
   <varray name="rec_basis" >
    <v>      -0.18092199       0.18092199       0.18092199 </v>
    <v>       0.18092199      -0.18092199       0.18092199 </v>
    <v>       0.18092199       0.18092199      -0.18092199 </v>
   </varray>
  </crystal>
  <varray name="positions" >
   <v>       0.50000000       0.50000000       0.50000000 </v>
   <v>       0.75000000       0.75000000       0.75000000 </v>
  </varray>
 </structure>
</modeling>
