unknown system                          
   1.00000000000000     
    -2.450000    2.450000    1.274000
     2.450000   -2.450000    1.274000
     2.450000    2.450000   -1.274000
   Si
     2
Direct
  0.250000  0.750000  0.500000
  0.000000  0.000000  0.000000
 
   32   32   32
 -5.2469     -4.0749     -.92952      3.2343      7.2608      10.209      11.622      11.573      10.529      9.1066    
  7.7143      6.4901      5.4999      4.7592      4.2546      3.9638      3.8690      3.9638      4.2546      4.7592    
  5.4999      6.4902      7.7143      9.1066      10.529      11.573      11.622      10.209      7.2608      3.2343    
 -.92956     -4.0749     -4.0749     -4.7051     -3.0622     0.33322      4.4590      8.1948      10.712      11.691    
  11.318      10.118      8.6866      7.3352      6.1745      5.2554      4.5838      4.1427      3.9098      3.8694    
  4.0175      4.3634      4.9266      5.7289      6.7790      8.0512      9.4664      10.854      11.737      11.515    
  9.7993      6.6290      2.5720     -1.3714     -.92956     -3.0623     -3.1536     -1.1763      2.2386      6.0638    
  9.2759      11.199      11.664      10.959      9.6365      8.2234      6.9297      5.8453      5.0055      4.4079    
  4.0324      3.8576      3.8701      4.0685      4.4646      5.0791      5.9325      7.0281      8.3311      9.7512    
  11.087      11.829      11.424      9.5700      6.4058      2.5720      3.2343     0.33320     -1.1763     -.80283    
  1.3279      4.5248      7.8178      10.330      11.564      11.497      10.495      9.1089      7.7353      6.5143    
  5.5156      4.7602      4.2381      3.9278      3.8090      3.8708      4.1144      4.5536      5.2098      6.1014    
  7.2263      8.5413      9.9486      11.226      11.869      11.389      9.5700      6.6290      7.2608      4.4590    
  2.2386      1.3279      2.0379      4.1246      6.8922      9.4815      11.197      11.723      11.169      9.9493    
  8.5565      7.2412      6.1052      5.1982      4.5284      4.0806      3.8324      3.7655      3.8711      4.1530    
  4.6267      5.3132      6.2281      7.3641      8.6716      10.050      11.272      11.869      11.424      9.7993    
  10.209      8.1948      6.0638      4.5248      4.1246      5.0127      6.8719      9.0539      10.850      11.758    
  11.637      10.696      9.3611      8.0012      6.7608      5.7180      4.9046      4.3185      3.9408      3.7495    
  3.7282      3.8707      4.1829      4.6809      5.3846      6.3066      7.4347      8.7159      10.050      11.226    
  11.829      11.515      11.622      10.712      9.2759      7.8178      6.8922      6.8719      7.7787      9.2690    
  10.784      11.785      11.960      11.314      10.123      8.7688      7.4653      6.3125      5.3668      4.6450    
  4.1373      3.8231      3.6816      3.6986      3.8700      4.2032      4.7141      5.4211      6.3332      7.4347    
  8.6716      9.9486      11.087      11.737      11.573      11.691      11.199      10.330      9.4815      9.0539    
  9.2690      10.061      11.102      11.948      12.235      11.819      10.815      9.5210      8.1997      6.9715    
  5.9136      5.0640      4.4277      3.9905      3.7314      3.6312      3.6779      3.8693      4.2134      4.7253    
  5.4211      6.3066      7.3641      8.5413      9.7512      10.854      10.529      11.318      11.664      11.564    
  11.197      10.850      10.784      11.102      11.690      12.269      12.521      12.241      11.417      10.234    
  8.9422      7.6804      6.5399      5.5784      4.8192      4.2594      3.8826      3.6685      3.6001      3.6672    
  3.8690      4.2134      4.7141      5.3846      6.2281      7.2263      8.3311      9.4664      9.1066      10.118    
  10.959      11.497      11.723      11.758      11.785      11.948      12.269      12.620      12.788      12.578    
  11.913      10.878      9.6662      8.4193      7.2353      6.1877      5.3182      4.6396      4.1447      3.8166    
  3.6366      3.5896      3.6672      3.8693      4.2032      4.6809      5.3132      6.1014      7.0281      8.0512    
  7.7143      8.6866      9.6364      10.495      11.169      11.637      11.960      12.235      12.521      12.788    
  12.921      12.779      12.270      11.414      10.336      9.1594      7.9811      6.8845      5.9276      5.1407    
  4.5301      4.0867      3.7944      3.6366      3.6001      3.6779      3.8700      4.1829      4.6267      5.2098    
  5.9325      6.7790      6.4902      7.3352      8.2234      9.1089      9.9493      10.696      11.314      11.819    
  12.241      12.578      12.779      12.755      12.430      11.790      10.905      9.8609      8.7475      7.6514    
  6.6428      5.7684      5.0509      4.4933      4.0867      3.8166      3.6685      3.6312      3.6986      3.8707    
  4.1530      4.5536      5.0791      5.7289      5.4999      6.1745      6.9298      7.7353      8.5565      9.3611    
  10.123      10.815      11.417      11.913      12.270      12.430      12.334      11.956      11.319      10.473    
  9.4919      8.4577      7.4469      6.5197      5.7148      5.0509      4.5301      4.1447      3.8826      3.7314    
  3.6816      3.7282      3.8711      4.1144      4.4646      4.9266      4.7592      5.2554      5.8453      6.5143    
  7.2412      8.0011      8.7688      9.5210      10.234      10.878      11.414      11.790      11.956      11.872    
  11.527      10.940      10.161      9.2585      8.3082      7.3777      6.5197      5.7684      5.1407      4.6396    
  4.2594      3.9905      3.8231      3.7495      3.7655      3.8708      4.0685      4.3634      4.2546      4.5838    
  5.0055      5.5156      6.1052      6.7608      7.4653      8.1997      8.9422      9.6662      10.336      10.905    
  11.319      11.527      11.493      11.209      10.695      9.9967      9.1787      8.3082      7.4469      6.6428    
  5.9276      5.3182      4.8192      4.4277      4.1373      3.9408      3.8324      3.8090      3.8701      4.0175    
  3.9638      4.1427      4.4079      4.7602      5.1982      5.7180      6.3125      6.9715      7.6804      8.4193    
  9.1594      9.8609      10.473      10.940      11.209      11.246      11.041      10.610      9.9967      9.2585    
  8.4577      7.6514      6.8845      6.1877      5.5784      5.0640      4.6450      4.3185      4.0806      3.9278    
  3.8576      3.8694      3.8690      3.9098      4.0324      4.2381      4.5284      4.9046      5.3669      5.9136    
  6.5399      7.2353      7.9811      8.7475      9.4919      10.161      10.695      11.041      11.160      11.041    
  10.695      10.161      9.4919      8.7475      7.9811      7.2353      6.5399      5.9136      5.3668      4.9046    
  4.5284      4.2381      4.0324      3.9098      3.9638      3.8694      3.8576      3.9278      4.0806      4.3185    
  4.6450      5.0640      5.5784      6.1877      6.8845      7.6514      8.4577      9.2585      9.9967      10.610    
  11.041      11.246      11.209      10.940      10.473      9.8609      9.1594      8.4193      7.6804      6.9715    
  6.3125      5.7180      5.1982      4.7602      4.4079      4.1427      4.2546      4.0175      3.8700      3.8090    
  3.8324      3.9408      4.1373      4.4277      4.8192      5.3182      5.9276      6.6428      7.4469      8.3083    
  9.1787      9.9967      10.695      11.209      11.493      11.527      11.319      10.905      10.336      9.6662    
  8.9422      8.1997      7.4653      6.7608      6.1052      5.5156      5.0055      4.5838      4.7592      4.3634    
  4.0685      3.8707      3.7654      3.7495      3.8231      3.9905      4.2594      4.6396      5.1407      5.7684    
  6.5197      7.3777      8.3083      9.2585      10.161      10.940      11.527      11.872      11.956      11.790    
  11.414      10.878      10.234      9.5210      8.7688      8.0012      7.2412      6.5143      5.8453      5.2554    
  5.4999      4.9266      4.4646      4.1144      3.8710      3.7281      3.6816      3.7314      3.8826      4.1447    
  4.5301      5.0509      5.7148      6.5197      7.4469      8.4577      9.4919      10.473      11.319      11.956    
  12.334      12.430      12.270      11.913      11.417      10.815      10.123      9.3611      8.5565      7.7353    
  6.9297      6.1745      6.4901      5.7289      5.0791      4.5536      4.1530      3.8707      3.6985      3.6312    
  3.6685      3.8166      4.0867      4.4933      5.0509      5.7684      6.6428      7.6514      8.7475      9.8609    
  10.905      11.790      12.430      12.755      12.779      12.578      12.241      11.819      11.314      10.696    
  9.9493      9.1089      8.2234      7.3352      7.7143      6.7790      5.9324      5.2098      4.6267      4.1829    
  3.8700      3.6778      3.6000      3.6366      3.7944      4.0867      4.5301      5.1407      5.9276      6.8845    
  7.9811      9.1594      10.336      11.414      12.270      12.779      12.921      12.788      12.521      12.235    
  11.960      11.637      11.169      10.495      9.6365      8.6866      9.1066      8.0512      7.0281      6.1014    
  5.3132      4.6809      4.2032      3.8692      3.6672      3.5895      3.6366      3.8166      4.1447      4.6396    
  5.3182      6.1877      7.2353      8.4193      9.6662      10.878      11.913      12.578      12.788      12.620    
  12.269      11.948      11.785      11.758      11.723      11.497      10.959      10.118      10.529      9.4664    
  8.3311      7.2263      6.2281      5.3846      4.7141      4.2134      3.8690      3.6672      3.6000      3.6685    
  3.8826      4.2594      4.8192      5.5784      6.5399      7.6804      8.9422      10.234      11.417      12.241    
  12.521      12.269      11.690      11.102      10.784      10.850      11.197      11.564      11.664      11.318    
  11.573      10.854      9.7513      8.5413      7.3641      6.3066      5.4210      4.7253      4.2134      3.8692    
  3.6778      3.6312      3.7314      3.9905      4.4277      5.0640      5.9136      6.9715      8.1997      9.5210    
  10.815      11.819      12.235      11.948      11.102      10.061      9.2690      9.0539      9.4815      10.330    
  11.199      11.691      11.622      11.737      11.087      9.9486      8.6716      7.4347      6.3332      5.4210    
  4.7141      4.2032      3.8700      3.6985      3.6816      3.8231      4.1373      4.6450      5.3669      6.3125    
  7.4653      8.7688      10.123      11.314      11.960      11.785      10.784      9.2690      7.7787      6.8719    
  6.8922      7.8178      9.2759      10.712      10.209      11.515      11.829      11.226      10.050      8.7159    
  7.4347      6.3066      5.3846      4.6809      4.1829      3.8707      3.7281      3.7495      3.9408      4.3185    
  4.9046      5.7180      6.7608      8.0011      9.3611      10.696      11.637      11.758      10.850      9.0539    
  6.8719      5.0127      4.1246      4.5248      6.0638      8.1948      7.2608      9.7994      11.424      11.869    
  11.272      10.050      8.6716      7.3641      6.2281      5.3132      4.6267      4.1530      3.8710      3.7654    
  3.8324      4.0806      4.5284      5.1982      6.1052      7.2412      8.5565      9.9493      11.169      11.723    
  11.197      9.4815      6.8922      4.1246      2.0379      1.3279      2.2386      4.4590      3.2343      6.6290    
  9.5700      11.389      11.869      11.226      9.9486      8.5413      7.2263      6.1014      5.2098      4.5536    
  4.1144      3.8707      3.8090      3.9278      4.2381      4.7602      5.5156      6.5143      7.7353      9.1089    
  10.495      11.497      11.564      10.330      7.8178      4.5248      1.3279     -.80283     -1.1763     0.33322    
 -.92952      2.5720      6.4059      9.5700      11.424      11.829      11.087      9.7513      8.3311      7.0281    
  5.9324      5.0791      4.4646      4.0685      3.8700      3.8576      4.0324      4.4079      5.0055      5.8453    
  6.9298      8.2234      9.6364      10.959      11.664      11.199      9.2759      6.0638      2.2386     -1.1763    
 -3.1536     -3.0622     -4.0749     -1.3713      2.5720      6.6290      9.7994      11.515      11.737      10.854    
  9.4664      8.0512      6.7790      5.7289      4.9266      4.3634      4.0175      3.8694      3.9098      4.1427    
  4.5838      5.2554      6.1745      7.3352      8.6866      10.118      11.318      11.691      10.712      8.1948    
  4.4590     0.33320     -3.0623     -4.7051     -4.0749     -3.2054     -.42645      3.4079      7.2104      10.058    
  11.465      11.457      10.451      9.0391      7.6412      6.4020      5.3919      4.6298      4.1030      3.7885    
  3.6672      3.7309      3.9848      4.4460      5.1375      6.0760      7.2523      8.6099      10.030      11.177    
  11.461      10.400      7.8629      4.2211     0.31861     -2.7600     -3.2054     -4.0750     -2.7601     0.31867    
  4.2212      7.8629      10.399      11.461      11.177      10.030      8.6098      7.2522      6.0760      5.1375    
  4.4459      3.9847      3.7309      3.6673      3.7885      4.1030      4.6298      5.3920      6.4021      7.6412    
  9.0391      10.451      11.457      11.465      10.058      7.2104      3.4079     -.42638     -.34434     -2.6713    
 -3.0622     -1.3984      1.7813      5.5051      8.7504      10.797      11.409      10.818      9.5497      8.1450    
  6.8437      5.7431      4.8849      4.2693      3.8766      3.6843      3.6779      3.8550      4.2267      4.8138    
  5.6384      6.7082      7.9949      9.4164      10.799      11.671      11.473      9.8616      6.9126      3.1941    
  3.6168     0.55534     -1.2313     -1.1764     0.69014      3.7520      7.0630      9.7157      11.146      11.260    
  10.376      9.0300      7.6615      6.4308      5.4159      4.6436      4.1062      3.7821      3.6502      3.6986    
  3.9277      4.3510      4.9905      5.8666      6.9816      8.2983      9.7257      11.066      11.835      11.522    
  9.8677      7.0285      7.5456      4.6154      2.1457     0.91688      1.3279      3.2233      5.9578      8.6655    
  10.595      11.353      10.982      9.8595      8.4912      7.1764      6.0286      5.1060      4.4217      3.9620    
  3.7044      3.6296      3.7282      4.0036      4.4710      5.1527      6.0667      7.2095      8.5370      9.9527    
  11.248      11.955      11.630      10.089      10.489      8.3819      6.0426      4.2056      3.4867      4.1246    
  5.8741      8.1109      10.093      11.249      11.357      10.571      9.2978      7.9515      6.7068      5.6511    
  4.8238      4.2266      3.8413      3.6457      3.6226      3.7654      4.0797      4.5820      5.2936      6.2295    
  7.3811      8.6990      10.086      11.338      12.030      11.786      11.956      10.993      9.4026      7.6916    
  6.4583      6.1511      6.8719      8.3276      9.9581      11.175      11.590      11.138      10.053      8.7288    
  7.4303      6.2694      5.3113      4.5786      4.0642      3.7476      3.6076      3.6295      3.8090      4.1533    
  4.6793      5.4069      6.3473      7.4875      8.7755      10.116      11.329      12.045      11.979      12.086    
  11.501      10.444      9.3324      8.6190      8.5983      9.2690      10.331      11.321      11.815      11.598    
  10.729      9.4860      8.1782      6.9479      5.8804      5.0206      4.3779      3.9394      3.6838      3.5915    
  3.6502      3.8575      4.2219      4.7594      5.4875      6.4141      7.5228      8.7617      10.042      11.214    
  10.990      11.809      12.122      11.907      11.346      10.752      10.442      10.581      11.101      11.731    
  12.121      12.007      11.319      10.203      8.9292      7.6704      6.5236      5.5534      4.7883      4.2278    
  3.8558      3.6517      3.5980      3.6843      3.9097      4.2829      4.8185      5.5316      6.4264      7.4848    
  8.6573      9.8639      9.5904      10.659      11.518      12.013      12.123      11.977      11.791      11.760    
  11.952      12.269      12.490      12.385      11.826      10.855      9.6593      8.4166      7.2289      6.1744    
  5.3000      4.6215      4.1325      3.8160      3.6527      3.6272      3.7309      3.9637      4.3338      4.8542    
  5.5367      6.3831      7.3749      8.4671      8.2000      9.2330      10.230      11.102      11.733      12.095    
  12.264      12.367      12.504      12.678      12.788      12.678      12.224      11.407      10.336      9.1594    
  7.9772      6.8748      5.9142      5.1284      4.5250      4.0948      3.8213      3.6870      3.6784      3.7885    
  4.0175      4.3724      4.8642      5.5022      6.2862      7.1985      6.9638      7.8684      8.8074      9.7278    
  10.577      11.286      11.816      12.197      12.484      12.706      12.833      12.779      12.452      11.813    
  10.915      9.8608      8.7392      7.6364      6.6246      5.7526      5.0439      4.5016      4.1160      3.8717    
  3.7537      3.7502      3.8551      4.0685      4.3965      4.8479      5.4296      6.1401      5.9516      6.6821    
  7.4876      8.3323      9.1754      9.9789      10.709      11.331      11.834      12.224      12.486      12.575    
  12.430      12.013      11.341      10.471      9.4732      8.4286      7.4137      6.4896      5.6955      5.0493    
  4.5523      4.1957      3.9663      3.8511      3.8400      3.9277      4.1144      4.4047      4.8055      5.3218    
  5.1841      5.7298      6.3662      7.0744      7.8280      8.5971      9.3521      10.068      10.720      11.284    
  11.729      12.018      12.106      11.956      11.558      10.932      10.126      9.2070      8.2499      7.3222    
  6.4762      5.7454      5.1450      4.6764      4.3325      4.1026      3.9761      3.9446      4.0036      4.1531    
  4.3965      4.7390      4.6516      5.0228      5.4846      6.0303      6.6468      7.3164      8.0178      8.7290    
  9.4273      10.088      10.680      11.164      11.494      11.626      11.527      11.191      10.638      9.9155    
  9.0861      8.2168      7.3680      6.5864      5.9019      5.3292      4.8711      4.5229      4.2769      4.1248    
  4.0602      4.0797      4.1830      4.3724      4.3338      4.5474      4.8453      5.2270      5.6886      6.2227    
  6.8186      7.4627      8.1388      8.8266      9.4999      10.124      10.653      11.039      11.234      11.209    
  10.955      10.492      9.8624      9.1225      8.3337      7.5511      6.8175      6.1613      5.5977      5.1317    
  4.7620      4.4839      4.2922      4.1829      4.1534      4.2032      4.2134      4.2829      4.4313      4.6594    
  4.9676      5.3550      5.8190      6.3550      6.9555      7.6088      8.2970      8.9928      9.6581      10.245    
  10.701      10.977      11.041      10.881      10.513      9.9744      9.3169      8.5968      7.8651      7.1624    
  6.5163      5.9432      5.4510      5.0424      4.7168      4.4727      4.3081      4.2219      4.2828      4.2134    
  4.2219      4.3081      4.4726      4.7168      5.0425      5.4511      5.9432      6.5163      7.1624      7.8651    
  8.5968      9.3169      9.9744      10.513      10.881      11.041      10.977      10.701      10.245      9.6581    
  8.9928      8.2970      7.6088      6.9554      6.3549      5.8190      5.3551      4.9677      4.6594      4.4312    
  4.5474      4.3338      4.2032      4.1533      4.1829      4.2923      4.4839      4.7620      5.1317      5.5977    
  6.1613      6.8175      7.5511      8.3337      9.1225      9.8624      10.492      10.955      11.209      11.234    
  11.039      10.653      10.124      9.4999      8.8266      8.1388      7.4627      6.8186      6.2226      5.6886    
  5.2270      4.8454      5.0228      4.6515      4.3723      4.1829      4.0797      4.0603      4.1248      4.2769    
  4.5230      4.8711      5.3292      5.9019      6.5864      7.3680      8.2168      9.0861      9.9155      10.638    
  11.191      11.527      11.626      11.494      11.164      10.680      10.088      9.4273      8.7290      8.0178    
  7.3163      6.6468      6.0303      5.4847      5.7298      5.1841      4.7390      4.3965      4.1530      4.0036    
  3.9446      3.9761      4.1027      4.3325      4.6763      5.1450      5.7454      6.4762      7.3222      8.2499    
  9.2070      10.126      10.932      11.558      11.956      12.106      12.018      11.729      11.284      10.720    
  10.068      9.3521      8.5971      7.8281      7.0744      6.3662      6.6820      5.9517      5.3219      4.8055    
  4.4046      4.1143      3.9277      3.8400      3.8511      3.9663      4.1957      4.5523      5.0493      5.6955    
  6.4896      7.4137      8.4286      9.4732      10.471      11.341      12.013      12.430      12.575      12.486    
  12.224      11.834      11.331      10.709      9.9790      9.1755      8.3323      7.4875      7.8684      6.9638    
  6.1400      5.4295      4.8479      4.3965      4.0685      3.8550      3.7502      3.7537      3.8717      4.1159    
  4.5016      5.0439      5.7526      6.6246      7.6364      8.7392      9.8608      10.915      11.813      12.452    
  12.779      12.833      12.706      12.484      12.197      11.817      11.286      10.577      9.7278      8.8074    
  9.2331      8.2000      7.1984      6.2862      5.5023      4.8642      4.3724      4.0174      3.7885      3.6784    
  3.6870      3.8212      4.0948      4.5250      5.1284      5.9142      6.8748      7.9772      9.1594      10.336    
  11.407      12.224      12.678      12.788      12.678      12.504      12.367      12.264      12.095      11.733    
  11.102      10.230      10.659      9.5904      8.4672      7.3750      6.3831      5.5367      4.8542      4.3338    
  3.9637      3.7309      3.6272      3.6527      3.8160      4.1325      4.6214      5.3000      6.1745      7.2289    
  8.4166      9.6593      10.855      11.826      12.385      12.490      12.269      11.952      11.760      11.791    
  11.977      12.123      12.013      11.518      11.809      10.990      9.8640      8.6574      7.4848      6.4263    
  5.5316      4.8186      4.2829      3.9097      3.6843      3.5980      3.6517      3.8558      4.2278      4.7883    
  5.5534      6.5236      7.6704      8.9293      10.203      11.319      12.007      12.121      11.731      11.102    
  10.581      10.442      10.752      11.346      11.907      12.121      12.086      11.979      11.214      10.042    
  8.7617      7.5228      6.4141      5.4875      4.7594      4.2219      3.8576      3.6502      3.5915      3.6838    
  3.9394      4.3779      5.0206      5.8803      6.9479      8.1783      9.4860      10.729      11.598      11.815    
  11.321      10.331      9.2690      8.5984      8.6190      9.3324      10.444      11.501      10.993      11.956    
  12.045      11.329      10.116      8.7756      7.4875      6.3472      5.4069      4.6794      4.1534      3.8090    
  3.6295      3.6077      3.7476      4.0642      4.5786      5.3113      6.2695      7.4303      8.7288      10.053    
  11.138      11.590      11.175      9.9580      8.3276      6.8720      6.1511      6.4583      7.6915      9.4026    
  8.3820      10.489      11.786      12.030      11.338      10.086      8.6990      7.3811      6.2295      5.2936    
  4.5819      4.0797      3.7654      3.6226      3.6456      3.8413      4.2266      4.8238      5.6511      6.7067    
  7.9515      9.2978      10.571      11.357      11.249      10.093      8.1109      5.8742      4.1246      3.4867    
  4.2056      6.0426      4.6153      7.5455      10.089      11.630      11.955      11.248      9.9527      8.5370    
  7.2095      6.0667      5.1527      4.4711      4.0036      3.7282      3.6295      3.7043      3.9620      4.4217    
  5.1059      6.0285      7.1764      8.4912      9.8594      10.982      11.354      10.595      8.6655      5.9577    
  3.2233      1.3281     0.91706      2.1457     0.55532      3.6168      7.0286      9.8677      11.522      11.835    
  11.066      9.7257      8.2982      6.9815      5.8666      4.9905      4.3510      3.9277      3.6986      3.6502    
  3.7821      4.1062      4.6436      5.4159      6.4308      7.6615      9.0300      10.376      11.260      11.146    
  9.7157      7.0630      3.7520     0.69030     -1.1762     -1.2313     -2.6712     -.34423      3.1941      6.9126    
  9.8616      11.473      11.671      10.799      9.4163      7.9949      6.7083      5.6384      4.8137      4.2267    
  3.8551      3.6779      3.6843      3.8765      4.2694      4.8850      5.7431      6.8436      8.1450      9.5498    
  10.818      11.409      10.796      8.7504      5.5052      1.7813     -1.3984     -3.0622     -.92945     -.34430    
  1.8899      5.0629      8.2335      10.583      11.670      11.502      10.448      9.0422      7.6542      6.4187    
  5.4043      4.6309      4.0871      3.7502      3.6001      3.6272      3.8351      4.2393      4.8624      5.7230    
  6.8192      8.1076      9.4907      10.741      11.353      10.853      9.0529      6.2002      2.9780     0.31868    
 -.42643     -1.3715     -.42643      2.0971      5.3985      8.5149      10.674      11.520      11.150      9.9935    
  8.5888      7.2430      6.0707      5.1286      4.4274      3.9517      3.6785      3.5896      3.6784      3.9517    
  4.4274      5.1286      6.0706      7.2430      8.5888      9.9935      11.150      11.520      10.674      8.5150    
  5.3985      2.0971      1.8899     -.34432     -.92949     0.31868      2.9781      6.2003      9.0528      10.853    
  11.353      10.741      9.4907      8.1075      6.8192      5.7231      4.8624      4.2393      3.8351      3.6272    
  3.6001      3.7501      4.0871      4.6310      5.4043      6.4186      7.6542      9.0423      10.448      11.502    
  11.670      10.583      8.2336      5.0629      5.2576      2.3928     0.55534     0.33318      1.7813      4.3963    
  7.3301      9.7306      11.039      11.129      10.271      8.9594      7.6152      6.3981      5.3882      4.6149    
  4.0728      3.7409      3.5980      3.6312      3.8400      4.2367      4.8426      5.6795      6.7536      8.0366    
  9.4497      10.840      11.801      11.833      10.636      8.2780      8.6573      5.9607      3.5356      2.1457    
  2.2386      3.7520      6.1389      8.6012      10.408      11.148      10.817      9.7472      8.4176      7.1278    
  5.9937      5.0770      4.3939      3.9329      3.6719      3.5915      3.6816      3.9445      4.3949      5.0546    
  5.9430      7.0612      8.3731      9.7930      11.156      12.050      12.025      10.851      11.208      9.3179    
  7.0693      5.1554      4.2056      4.5249      5.9578      7.9559      9.8142      10.953      11.114      10.403    
  9.1894      7.8812      6.6608      5.6188      4.7989      4.2059      3.8236      3.6299      3.6076      3.7494    
  4.0602      4.5560      5.2582      6.1834      7.3272      8.6472      10.054      11.382      12.240      12.239    
  12.444      11.649      10.155      8.4189      7.0253      6.4583      6.8921      8.1109      9.6050      10.795    
  11.264      10.903      9.9005      8.6293      7.3667      6.2287      5.2849      4.5622      4.0561      3.7476    
  3.6158      3.6457      3.8324      4.1829      4.7137      5.4450      6.3897      7.5383      8.8442      10.218    
  11.505      12.357      12.378      12.596      12.089      11.032      9.8126      8.8942      8.6190      9.0539    
  9.9580      10.894      11.425      11.297      10.524      9.3506      8.0888      6.8912      5.8460      5.0024    
  4.3735      3.9484      3.7071      3.6299      3.7044      3.9278      4.3081      4.8617      5.6065      6.5515    
  7.6830      8.9525      10.274      11.513      11.397      12.281      12.646      12.437      11.805      11.057    
  10.530      10.442      10.784      11.321      11.711      11.663      11.066      10.029      8.8071      7.5888    
  6.4723      5.5252      4.7797      4.2382      3.8860      3.7031      3.6720      3.7821      4.0324      4.4313    
  4.9938      5.7352      6.6606      7.7532      8.9649      10.217      10.046      11.155      12.047      12.548    
  12.612      12.353      11.993      11.757      11.760      11.948      12.121      12.040      11.547      10.646    
  9.5020      8.3022      7.1506      6.1259      5.2774      4.6237      4.1602      3.8706      3.7360      3.7409    
  3.8766      4.1427      4.5474      5.1040      5.8246      6.7109      7.7445      8.8799      8.7009      9.7707    
  10.794      11.673      12.276      12.560      12.596      12.526      12.481      12.504      12.521      12.385    
  11.953      11.180      10.147      9.0080      7.8627      6.7945      5.8657      5.1109      4.5391      4.1420    
  3.9031      3.8054      3.8351      3.9848      4.2545      4.6516      5.1871      5.8700      6.6996      7.6569    
  7.4946      8.4368      9.4028      10.334      11.171      11.830      12.266      12.510      12.636      12.702    
  12.706      12.578      12.224      11.589      10.705      9.6732      8.5824      7.5137      6.5374      5.7021    
  5.0315      4.5289      4.1846      3.9833      3.9097      3.9518      4.1030      4.3634      4.7390      5.2387    
  5.8689      6.6268      6.4961      7.2657      8.1004      8.9599      9.7982      10.572      11.239      11.760    
  12.133      12.378      12.504      12.486      12.270      11.813      11.121      10.252      9.2719      8.2553    