unknown system                          
   1.00000000000000     
    -2.450000    2.450000    1.274000
     2.450000   -2.450000    1.274000
     2.450000    2.450000   -1.274000
   Si
     2
Direct
  0.250000  0.750000  0.500000
  0.000000  0.000000  0.000000
 
   32   32   32
 -.52463769588E+01 -.40749087372E+01 -.93074977363E+00 0.32317688593E+01 0.72576497030E+01
 0.10206416809E+02 0.11620350314E+02 0.11572736782E+02 0.10529618585E+02 0.91081669783E+01
 0.77162345135E+01 0.64919947170E+01 0.55013902275E+01 0.47602980051E+01 0.42553574974E+01
 0.39643203901E+01 0.38694936821E+01 0.39643331206E+01 0.42553584118E+01 0.47602868563E+01
 0.55013906185E+01 0.64920060258E+01 0.77162336562E+01 0.91081556635E+01 0.10529619227E+02
 0.11572745720E+02 0.11620345839E+02 0.10206407241E+02 0.72576598777E+01 0.32317860489E+01
 -.93075914666E+00 -.40749344011E+01 -.40749344011E+01 -.47041398195E+01 -.30614202385E+01
 0.33310256481E+00 0.44576938896E+01 0.81927653224E+01 0.10710152925E+02 0.11689815682E+02
 0.11318170948E+02 0.10118581488E+02 0.86880260876E+01 0.73368413107E+01 0.61761268402E+01
 0.52567162237E+01 0.45848079211E+01 0.41433240039E+01 0.39102465252E+01 0.38698429835E+01
 0.40181333445E+01 0.43642890027E+01 0.49278848941E+01 0.57306364438E+01 0.67810451746E+01
 0.80532881260E+01 0.94680286896E+01 0.10854794703E+02 0.11735815143E+02 0.11512386165E+02
 0.97955155135E+01 0.66249235220E+01 0.25687842278E+01 -.13729988861E+01 -.93075914666E+00
 -.30614409487E+01 -.31515404892E+01 -.11740620786E+01 0.22399091708E+01 0.60638668153E+01
 0.92750627054E+01 0.11198183566E+02 0.11663391927E+02 0.10958476110E+02 0.96371587646E+01
 0.82246638711E+01 0.69311707854E+01 0.58466040729E+01 0.50065873268E+01 0.44086793463E+01
 0.40329558779E+01 0.38580536425E+01 0.38705169659E+01 0.40691545153E+01 0.44655845396E+01
 0.50805412232E+01 0.59343776029E+01 0.70303667158E+01 0.83333491235E+01 0.97528967498E+01
 0.11087398851E+02 0.11827644306E+02 0.11421050853E+02 0.95656591688E+01 0.64014628531E+01
 0.25687842278E+01 0.32317860489E+01 0.33309688706E+00 -.11740743907E+01 -.79924611569E+00
 0.13315916316E+01 0.45274627822E+01 0.78189357938E+01 0.10330130793E+02 0.11563223862E+02
 0.11496105794E+02 0.10495137787E+02 0.91094389453E+01 0.77362658229E+01 0.65154334762E+01
 0.55166830527E+01 0.47610635458E+01 0.42387656816E+01 0.39282037405E+01 0.38093768458E+01
 0.38712385874E+01 0.41151208432E+01 0.45546970312E+01 0.52113815069E+01 0.61035115619E+01
 0.72287437592E+01 0.85436400404E+01 0.99502000991E+01 0.11226187640E+02 0.11867833734E+02
 0.11385946867E+02 0.95656591688E+01 0.66249235220E+01 0.72576598777E+01 0.44577052012E+01
 0.22399082604E+01 0.13315886601E+01 0.20427911681E+01 0.41293133581E+01 0.68955932533E+01
 0.94831908108E+01 0.11196913427E+02 0.11722699325E+02 0.11168781134E+02 0.99490964542E+01
 0.85568451750E+01 0.72419758310E+01 0.61061229441E+01 0.51990787415E+01 0.45291266618E+01
 0.40810815876E+01 0.38327801513E+01 0.37658087833E+01 0.38715267568E+01 0.41537542130E+01
 0.46278044756E+01 0.53148373976E+01 0.62303261876E+01 0.73665859940E+01 0.86740443033E+01
 0.10051154369E+02 0.11272319438E+02 0.11867833734E+02 0.11421050853E+02 0.97955155135E+01
 0.10206407241E+02 0.81927675903E+01 0.60638714123E+01 0.45274661187E+01 0.41293180652E+01
 0.50182898130E+01 0.68768824150E+01 0.90572996980E+01 0.10851218164E+02 0.11757976502E+02
 0.11635882266E+02 0.10694910672E+02 0.93606003695E+01 0.80012145256E+01 0.67612788362E+01
 0.57186708830E+01 0.49052363187E+01 0.43190058010E+01 0.39411419502E+01 0.37497578894E+01
 0.37284845150E+01 0.38711882160E+01 0.41836898713E+01 0.46820269578E+01 0.53862882703E+01
 0.63088169994E+01 0.74372924280E+01 0.87183123934E+01 0.10051154369E+02 0.11226187640E+02
 0.11827644306E+02 0.11512386165E+02 0.11620345839E+02 0.10710145855E+02 0.92750578654E+01
 0.78189344787E+01 0.68955989726E+01 0.68768913984E+01 0.77840438382E+01 0.92733420494E+01
 0.10786252694E+02 0.11785235166E+02 0.11959156995E+02 0.11312898857E+02 0.10121652472E+02
 0.87680483045E+01 0.74651394875E+01 0.63127773744E+01 0.53673211224E+01 0.46454478766E+01
 0.41376557710E+01 0.38233429878E+01 0.36818092100E+01 0.36988536382E+01 0.38704795711E+01
 0.42039212508E+01 0.47152572461E+01 0.54227931163E+01 0.63354471303E+01 0.74372924280E+01
 0.86740443033E+01 0.99502000991E+01 0.11087398851E+02 0.11735815143E+02 0.11572745720E+02
 0.11689819116E+02 0.11198179590E+02 0.10330121762E+02 0.94831854948E+01 0.90573054099E+01
 0.92733516601E+01 0.10065021810E+02 0.11104380343E+02 0.11949130552E+02 0.12234657926E+02
 0.11817633340E+02 0.10812940640E+02 0.95192158789E+01 0.81985778460E+01 0.69710207134E+01
 0.59136728299E+01 0.50642677924E+01 0.44279944512E+01 0.39907290861E+01 0.37315535057E+01
 0.36313635321E+01 0.36781304111E+01 0.38697226937E+01 0.42141094537E+01 0.47264927609E+01
 0.54227931163E+01 0.63088169994E+01 0.73665859940E+01 0.85436400404E+01 0.97528967498E+01
 0.10854794703E+02 0.10529619227E+02 0.11318179868E+02 0.11663400624E+02 0.11563223389E+02
 0.11196903926E+02 0.10851211044E+02 0.10786256543E+02 0.11104388136E+02 0.11692166188E+02
 0.12269415240E+02 0.12520369150E+02 0.12238460788E+02 0.11414319268E+02 0.10231195375E+02
 0.89400746743E+01 0.76790401220E+01 0.65392645468E+01 0.55782700425E+01 0.48192336273E+01
 0.42595337583E+01 0.38827125441E+01 0.36686372584E+01 0.36002178253E+01 0.36674557161E+01
 0.38694435220E+01 0.42141094537E+01 0.47152572461E+01 0.53862882703E+01 0.62303261876E+01
 0.72287437592E+01 0.83333491235E+01 0.94680286896E+01 0.91081556635E+01 0.10118576689E+02
 0.10958482509E+02 0.11496116291E+02 0.11722702345E+02 0.11757969457E+02 0.11785227978E+02
 0.11949131990E+02 0.12269420673E+02 0.12619844070E+02 0.12786549310E+02 0.12575192162E+02
 0.11909905095E+02 0.10874541361E+02 0.96630044242E+01 0.84168073107E+01 0.72337048842E+01
 0.61868394770E+01 0.53178504128E+01 0.46395206754E+01 0.41447298466E+01 0.38166372489E+01
 0.36366594586E+01 0.35897144894E+01 0.36674557161E+01 0.38697226937E+01 0.42039212508E+01
 0.46820269578E+01 0.53148373976E+01 0.61035115619E+01 0.70303667158E+01 0.80532881260E+01
 0.77162336562E+01 0.86880158394E+01 0.96371503502E+01 0.10495139709E+02 0.11168790505E+02
 0.11635888102E+02 0.11959153439E+02 0.12234651568E+02 0.12520368975E+02 0.12786553374E+02
 0.12918937688E+02 0.12775483756E+02 0.12265735366E+02 0.11409030947E+02 0.10331681800E+02
 0.91557714615E+01 0.79784390485E+01 0.68827501089E+01 0.59266776057E+01 0.51402401134E+01
 0.45298705972E+01 0.40866087137E+01 0.37944303848E+01 0.36366594586E+01 0.36002178253E+01
 0.36781304111E+01 0.38704795711E+01 0.41836898713E+01 0.46278044756E+01 0.52113815069E+01
 0.59343776029E+01 0.67810451746E+01 0.64920060258E+01 0.73368457667E+01 0.82246575595E+01
 0.91094289142E+01 0.99490934932E+01 0.10694917407E+02 0.11312906145E+02 0.11817632367E+02
 0.12238455395E+02 0.12575191803E+02 0.12775487833E+02 0.12750942848E+02 0.12424944217E+02
 0.11784828609E+02 0.10899524047E+02 0.98562003032E+01 0.87437509552E+01 0.76486162461E+01
 0.66409587157E+01 0.57673475213E+01 0.50503065370E+01 0.44930534745E+01 0.40866087137E+01
 0.38166372489E+01 0.36686372584E+01 0.36313635321E+01 0.36988536382E+01 0.38711882160E+01
 0.41537542130E+01 0.45546970312E+01 0.50805412232E+01 0.57306364438E+01 0.55013906185E+01
 0.61761364740E+01 0.69311797447E+01 0.77362646263E+01 0.85568353803E+01 0.93605939274E+01
 0.10121656568E+02 0.10812947721E+02 0.11414319019E+02 0.11909900411E+02 0.12265735865E+02
 0.12424948949E+02 0.12328365304E+02 0.11949913725E+02 0.11312751610E+02 0.10467445266E+02
 0.94870981145E+01 0.84538660822E+01 0.74441162784E+01 0.65178074935E+01 0.57137447256E+01
 0.50503065370E+01 0.45298705972E+01 0.41447298466E+01 0.38827125441E+01 0.37315535057E+01
 0.36818092100E+01 0.37284845150E+01 0.38715267568E+01 0.41151208432E+01 0.44655845396E+01
 0.49278848941E+01 0.47602868563E+01 0.52567104563E+01 0.58466102836E+01 0.65154449164E+01
 0.72419789914E+01 0.80012064608E+01 0.87680408793E+01 0.95192182385E+01 0.10231200965E+02
 0.10874540394E+02 0.11409026724E+02 0.11784829968E+02 0.11949918615E+02 0.11865852499E+02
 0.11520280969E+02 0.10933342900E+02 0.10154792639E+02 0.92536083105E+01 0.83043792928E+01
 0.73748903442E+01 0.65178074935E+01 0.57673475213E+01 0.51402401134E+01 0.46395206754E+01
 0.42595337583E+01 0.39907290861E+01 0.38233429878E+01 0.37497578894E+01 0.37658087833E+01
 0.38712385874E+01 0.40691545153E+01 0.43642890027E+01 0.42553584118E+01 0.45847973954E+01
 0.50065771032E+01 0.55166852425E+01 0.61061341041E+01 0.67612843516E+01 0.74651340579E+01
 0.81985717041E+01 0.89400762659E+01 0.96630081763E+01 0.10331679962E+02 0.10899520244E+02
 0.11312752944E+02 0.11520284924E+02 0.11486608270E+02 0.11202358515E+02 0.10688205135E+02
 0.99909442896E+01 0.91737832028E+01 0.83043792928E+01 0.74441162784E+01 0.66409587157E+01
 0.59266776057E+01 0.53178504128E+01 0.48192336273E+01 0.44279944512E+01 0.41376557710E+01
 0.39411419502E+01 0.38327801513E+01 0.38093768458E+01 0.38705169659E+01 0.40181333445E+01
 0.39643331206E+01 0.41433301503E+01 0.44086716073E+01 0.47610518661E+01 0.51990772515E+01
 0.57186792805E+01 0.63127831685E+01 0.69710180279E+01 0.76790361564E+01 0.84168085861E+01
 0.91557740270E+01 0.98561985901E+01 0.10467441989E+02 0.10933343225E+02 0.11202360846E+02
 0.11239210184E+02 0.11033677271E+02 0.10603544807E+02 0.99909442896E+01 0.92536083105E+01
 0.84538660822E+01 0.76486162461E+01 0.68827501089E+01 0.61868394770E+01 0.55782700425E+01
 0.50642677924E+01 0.46454478766E+01 0.43190058010E+01 0.40810815876E+01 0.39282037405E+01
 0.38580536425E+01 0.38698429835E+01 0.38694936821E+01 0.39102583927E+01 0.40329652978E+01
 0.42387623652E+01 0.45291165215E+01 0.49052320809E+01 0.53673256105E+01 0.59136777298E+01
 0.65392639157E+01 0.72337023770E+01 0.79784398971E+01 0.87437534488E+01 0.94870976897E+01
 0.10154789927E+02 0.10688204193E+02 0.11033678353E+02 0.11153384465E+02 0.11033677271E+02
 0.10688205135E+02 0.10154792639E+02 0.94870981145E+01 0.87437509552E+01 0.79784390485E+01
 0.72337048842E+01 0.65392645468E+01 0.59136728299E+01 0.53673211224E+01 0.49052363187E+01
 0.45291266618E+01 0.42387656816E+01 0.40329558779E+01 0.39102465252E+01 0.39643203901E+01
 0.38698384857E+01 0.38580615759E+01 0.39282140747E+01 0.40810831779E+01 0.43189989575E+01
 0.46454420977E+01 0.50642689900E+01 0.55782740518E+01 0.61868397452E+01 0.68827475236E+01
 0.76486163822E+01 0.84538692965E+01 0.92536094702E+01 0.99909419569E+01 0.10603543300E+02
 0.11033678353E+02 0.11239210184E+02 0.11202358515E+02 0.10933342900E+02 0.10467445266E+02
 0.98562003032E+01 0.91557714615E+01 0.84168073107E+01 0.76790401220E+01 0.69710207134E+01
 0.63127773744E+01 0.57186708830E+01 0.51990787415E+01 0.47610635458E+01 0.44086793463E+01
 0.41433240039E+01 0.42553574974E+01 0.40181228920E+01 0.38705087184E+01 0.38093791048E+01
 0.38327894538E+01 0.39411474718E+01 0.41376522319E+01 0.44279883222E+01 0.48192333732E+01
 0.53178542428E+01 0.59266777332E+01 0.66409549368E+01 0.74441156894E+01 0.83043832017E+01
 0.91737850684E+01 0.99909419569E+01 0.10688204193E+02 0.11202360846E+02 0.11486608270E+02
 0.11520280969E+02 0.11312751610E+02 0.10899524047E+02 0.10331681800E+02 0.96630044242E+01
 0.89400746743E+01 0.81985778460E+01 0.74651394875E+01 0.67612788362E+01 0.61061229441E+01
 0.55166830527E+01 0.50065873268E+01 0.45848079211E+01 0.47602980051E+01 0.43642939804E+01
 0.40691484213E+01 0.38712281110E+01 0.37658056540E+01 0.37497650495E+01 0.38233503443E+01
 0.39907275413E+01 0.42595281621E+01 0.46395208168E+01 0.51402444022E+01 0.57673470827E+01
 0.65178026154E+01 0.73748894463E+01 0.83043832017E+01 0.92536094702E+01 0.10154789927E+02
 0.10933343225E+02 0.11520284924E+02 0.11865852499E+02 0.11949913725E+02 0.11784828609E+02
 0.11409030947E+02 0.10874541361E+02 0.10231195375E+02 0.95192158789E+01 0.87680483045E+01
 0.80012145256E+01 0.72419758310E+01 0.65154334762E+01 0.58466040729E+01 0.52567162237E+01
 0.55013902275E+01 0.49278945261E+01 0.44655942792E+01 0.41151196435E+01 0.38715161498E+01
 0.37284779842E+01 0.36818139495E+01 0.37315604499E+01 0.38827114211E+01 0.41447251277E+01
 0.45298718941E+01 0.50503113219E+01 0.57137439964E+01 0.65178026154E+01 0.74441156894E+01
 0.84538692965E+01 0.94870976897E+01 0.10467441989E+02 0.11312752944E+02 0.11949918615E+02
 0.12328365304E+02 0.12424944217E+02 0.12265735366E+02 0.11909905095E+02 0.11414319268E+02
 0.10812940640E+02 0.10121652472E+02 0.93606003695E+01 0.85568451750E+01 0.77362658229E+01
 0.69311707854E+01 0.61761268402E+01 0.64919947170E+01 0.57306301674E+01 0.50805475608E+01
 0.45547089091E+01 0.41537571337E+01 0.38711795413E+01 0.36988462043E+01 0.36313661854E+01
 0.36686425170E+01 0.38166356909E+01 0.40866046263E+01 0.44930553525E+01 0.50503113219E+01
 0.57673470827E+01 0.66409549368E+01 0.76486163822E+01 0.87437534488E+01 0.98561985901E+01
 0.10899520244E+02 0.11784829968E+02 0.12424948949E+02 0.12750942848E+02 0.12775483756E+02
 0.12575192162E+02 0.12238460788E+02 0.11817633340E+02 0.11312898857E+02 0.10694910672E+02
 0.99490964542E+01 0.91094389453E+01 0.82246638711E+01 0.73368413107E+01 0.77162345135E+01
 0.67810348978E+01 0.59343674042E+01 0.52113833479E+01 0.46278154499E+01 0.41836955046E+01
 0.38704740110E+01 0.36781237506E+01 0.36002190988E+01 0.36366633007E+01 0.37944285304E+01
 0.40866046263E+01 0.45298718941E+01 0.51402444022E+01 0.59266777332E+01 0.68827475236E+01
 0.79784398971E+01 0.91557740270E+01 0.10331679962E+02 0.11409026724E+02 0.12265735865E+02
 0.12775487833E+02 0.12918937688E+02 0.12786549310E+02 0.12520369150E+02 0.12234657926E+02
 0.11959156995E+02 0.11635882266E+02 0.11168781134E+02 0.10495137787E+02 0.96371587646E+01
 0.86880260876E+01 0.91081669783E+01 0.80532940267E+01 0.70303603690E+01 0.61035000318E+01
 0.53148343535E+01 0.46820349676E+01 0.42039282620E+01 0.38697199502E+01 0.36674500061E+01
 0.35897152822E+01 0.36366633007E+01 0.38166356909E+01 0.41447251277E+01 0.46395208168E+01
 0.53178542428E+01 0.61868397452E+01 0.72337023770E+01 0.84168085861E+01 0.96630081763E+01
 0.10874540394E+02 0.11909900411E+02 0.12575191803E+02 0.12786553374E+02 0.12619844070E+02
 0.12269415240E+02 0.11949130552E+02 0.11785235166E+02 0.11757976502E+02 0.11722699325E+02
 0.11496105794E+02 0.10958476110E+02 0.10118581488E+02 0.10529618585E+02 0.94680376370E+01
 0.83333591513E+01 0.72287432805E+01 0.62303153154E+01 0.53862810103E+01 0.47152621822E+01
 0.42141169603E+01 0.38694419058E+01 0.36674500061E+01 0.36002190988E+01 0.36686425170E+01
 0.38827114211E+01 0.42595281621E+01 0.48192333732E+01 0.55782740518E+01 0.65392639157E+01
 0.76790361564E+01 0.89400762659E+01 0.10231200965E+02 0.11414319019E+02 0.12238455395E+02
 0.12520368975E+02 0.12269420673E+02 0.11692166188E+02 0.11104380343E+02 0.10786252694E+02
 0.10851218164E+02 0.11196913427E+02 0.11563223862E+02 0.11663391927E+02 0.11318170948E+02
 0.11572736782E+02 0.10854787471E+02 0.97529008282E+01 0.85436530353E+01 0.73665913723E+01
 0.63088074125E+01 0.54227833933E+01 0.47264964110E+01 0.42141169603E+01 0.38697199502E+01
 0.36781237506E+01 0.36313661854E+01 0.37315604499E+01 0.39907275413E+01 0.44279883222E+01
 0.50642689900E+01 0.59136777298E+01 0.69710180279E+01 0.81985717041E+01 0.95192182385E+01
 0.10812947721E+02 0.11817632367E+02 0.12234651568E+02 0.11949131990E+02 0.11104388136E+02
 0.10065021810E+02 0.92733420494E+01 0.90572996980E+01 0.94831908108E+01 0.10330130793E+02
 0.11198183566E+02 0.11689815682E+02 0.11620350314E+02 0.11735808098E+02 0.11087385134E+02
 0.99501988893E+01 0.86740590685E+01 0.74373014567E+01 0.63354381479E+01 0.54227833933E+01
 0.47152621822E+01 0.42039282620E+01 0.38704740110E+01 0.36988462043E+01 0.36818139495E+01
 0.38233503443E+01 0.41376522319E+01 0.46454420977E+01 0.53673256105E+01 0.63127831685E+01
 0.74651340579E+01 0.87680408793E+01 0.10121656568E+02 0.11312906145E+02 0.11959153439E+02
 0.11785227978E+02 0.10786256543E+02 0.92733516601E+01 0.77840438382E+01 0.68768824150E+01
 0.68955932533E+01 0.78189357938E+01 0.92750627054E+01 0.10710152925E+02 0.10206416809E+02
 0.11512399157E+02 0.11827639739E+02 0.11226169121E+02 0.10051149764E+02 0.87183277456E+01
 0.74373014567E+01 0.63088074125E+01 0.53862810103E+01 0.46820349676E+01 0.41836955046E+01
 0.38711795413E+01 0.37284779842E+01 0.37497650495E+01 0.39411474718E+01 0.43189989575E+01
 0.49052320809E+01 0.57186792805E+01 0.67612843516E+01 0.80012064608E+01 0.93605939274E+01
 0.10694917407E+02 0.11635888102E+02 0.11757969457E+02 0.10851211044E+02 0.90573054099E+01
 0.68768913984E+01 0.50182898130E+01 0.41293133581E+01 0.45274627822E+01 0.60638668153E+01
 0.81927653224E+01 0.72576497030E+01 0.97955268707E+01 0.11421070391E+02 0.11867830838E+02
 0.11272299140E+02 0.10051149764E+02 0.86740590685E+01 0.73665913723E+01 0.62303153154E+01
 0.53148343535E+01 0.46278154499E+01 0.41537571337E+01 0.38715161498E+01 0.37658056540E+01
 0.38327894538E+01 0.40810831779E+01 0.45291165215E+01 0.51990772515E+01 0.61061341041E+01
 0.72419789914E+01 0.85568353803E+01 0.99490934932E+01 0.11168790505E+02 0.11722702345E+02
 0.11196903926E+02 0.94831854948E+01 0.68955989726E+01 0.41293180652E+01 0.20427911681E+01
 0.13315916316E+01 0.22399091708E+01 0.44576938896E+01 0.32317688593E+01 0.66249072208E+01
 0.95656714738E+01 0.11385968859E+02 0.11867830838E+02 0.11226169121E+02 0.99501988893E+01
 0.85436530353E+01 0.72287432805E+01 0.61035000318E+01 0.52113833479E+01 0.45547089091E+01
 0.41151196435E+01 0.38712281110E+01 0.38093791048E+01 0.39282140747E+01 0.42387623652E+01
 0.47610518661E+01 0.55166852425E+01 0.65154449164E+01 0.77362646263E+01 0.91094289142E+01
 0.10495139709E+02 0.11496116291E+02 0.11563223389E+02 0.10330121762E+02 0.78189344787E+01
 0.45274661187E+01 0.13315886601E+01 -.79924611569E+00 -.11740620786E+01 0.33310256481E+00
 -.93074977363E+00 0.25687636045E+01 0.64014442521E+01 0.95656714738E+01 0.11421070391E+02
 0.11827639739E+02 0.11087385134E+02 0.97529008282E+01 0.83333591513E+01 0.70303603690E+01
 0.59343674042E+01 0.50805475608E+01 0.44655942792E+01 0.40691484213E+01 0.38705087184E+01
 0.38580615759E+01 0.40329652978E+01 0.44086716073E+01 0.50065771032E+01 0.58466102836E+01
 0.69311797447E+01 0.82246575595E+01 0.96371503502E+01 0.10958482509E+02 0.11663400624E+02
 0.11198179590E+02 0.92750578654E+01 0.60638714123E+01 0.22399082604E+01 -.11740743907E+01
 -.31515404892E+01 -.30614202385E+01 -.40749087372E+01 -.13729881277E+01 0.25687636045E+01
 0.66249072208E+01 0.97955268707E+01 0.11512399157E+02 0.11735808098E+02 0.10854787471E+02
 0.94680376370E+01 0.80532940267E+01 0.67810348978E+01 0.57306301674E+01 0.49278945261E+01
 0.43642939804E+01 0.40181228920E+01 0.38698384857E+01 0.39102583927E+01 0.41433301503E+01
 0.45847973954E+01 0.52567104563E+01 0.61761364740E+01 0.73368457667E+01 0.86880158394E+01
 0.10118576689E+02 0.11318179868E+02 0.11689819116E+02 0.10710145855E+02 0.81927675903E+01
 0.44577052012E+01 0.33309688706E+00 -.30614409487E+01 -.47041398195E+01 -.40748842872E+01
 -.32060349735E+01 -.42834299372E+00 0.34048270633E+01 0.72068305603E+01 0.10054668963E+02
 0.11463274487E+02 0.11455919877E+02 0.10451180199E+02 0.90405967343E+01 0.76430053156E+01
 0.64037751397E+01 0.53933374230E+01 0.46307433759E+01 0.41036010564E+01 0.37889124573E+01
 0.36674779025E+01 0.37311958120E+01 0.39852938496E+01 0.44467937975E+01 0.51386654090E+01
 0.60774850930E+01 0.72538583215E+01 0.86112253468E+01 0.10030675403E+02 0.11176506347E+02
 0.11459453686E+02 0.10397249263E+02 0.78604934780E+01 0.42192137663E+01 0.31762944910E+00
 -.27601790071E+01 -.32060591024E+01 -.40750091645E+01 -.27602560664E+01 0.31767553212E+00
 0.42192681665E+01 0.78604415536E+01 0.10397169227E+02 0.11459484631E+02 0.11176610947E+02
 0.10030699261E+02 0.86111477472E+01 0.72538107664E+01 0.60775252111E+01 0.51386991411E+01
 0.44467536944E+01 0.39852473387E+01 0.37312160287E+01 0.36675229459E+01 0.37889078983E+01
 0.41035617829E+01 0.46307383247E+01 0.53933810214E+01 0.64038178803E+01 0.76430110629E+01
 0.90405827514E+01 0.10451179866E+02 0.11455929518E+02 0.11463256534E+02 0.10054618142E+02
 0.72068108229E+01 0.34048905932E+01 -.42826193033E+00 -.34635791449E+00 -.26715952753E+01
 -.30614165670E+01 -.13973789828E+01 0.17817389055E+01 0.55046069873E+01 0.87491667534E+01
 0.10795151528E+02 0.11407871155E+02 0.10818310168E+02 0.95503520346E+01 0.81462009531E+01
 0.68450271167E+01 0.57443872163E+01 0.48858922171E+01 0.42699716523E+01 0.38769745171E+01
 0.36845754407E+01 0.36781391967E+01 0.38554496804E+01 0.42274256081E+01 0.48149060291E+01
 0.56400094867E+01 0.67102043138E+01 0.79969670572E+01 0.94179443541E+01 0.10799036322E+02
 0.11670146925E+02 0.11470102737E+02 0.98575961060E+01 0.69083019013E+01 0.31905014421E+01
 0.36134052347E+01 0.55398298742E+00 -.12305259045E+01 -.11741647511E+01 0.69268619486E+00
 0.37538505245E+01 0.70637820138E+01 0.97154712762E+01 0.11144982053E+02 0.11259453839E+02
 0.10375895881E+02 0.90305652764E+01 0.76624790582E+01 0.64318849916E+01 0.54169286289E+01
 0.46443775315E+01 0.41067290274E+01 0.37823824287E+01 0.36504287439E+01 0.36988514620E+01
 0.39282238776E+01 0.43518771566E+01 0.49917783904E+01 0.58684270625E+01 0.69837623374E+01
 0.83004663995E+01 0.97272762582E+01 0.11066567660E+02 0.11833617248E+02 0.11519117682E+02
 0.98633550414E+01 0.70239947906E+01 0.75415518391E+01 0.46128912545E+01 0.21455208776E+01
 0.91907015447E+00 0.13315860751E+01 0.32271931084E+01 0.59607738897E+01 0.86670687283E+01
 0.10594971341E+02 0.11353057787E+02 0.10981924167E+02 0.98593186333E+01 0.84915028553E+01
 0.71770840118E+01 0.60294734868E+01 0.51068087189E+01 0.44223104840E+01 0.39623874299E+01
 0.37046049284E+01 0.36297556220E+01 0.37284759946E+01 0.40041097271E+01 0.44719802310E+01
 0.51542085311E+01 0.60687046012E+01 0.72118732495E+01 0.85392901967E+01 0.99543510097E+01
 0.11248284086E+02 0.11953997784E+02 0.11626805867E+02 0.10084330062E+02 0.10485360616E+02
 0.83788846052E+01 0.60413001407E+01 0.42068105873E+01 0.34901585435E+01 0.41293066752E+01
 0.58787440158E+01 0.81142408324E+01 0.10094840774E+02 0.11248854143E+02 0.11356285038E+02
 0.10570218702E+02 0.92973817110E+01 0.79515731878E+01 0.67072358251E+01 0.56517569027E+01
 0.48244205878E+01 0.42270151110E+01 0.38415855063E+01 0.36458439022E+01 0.36227767179E+01
 0.37657313490E+01 0.40803273400E+01 0.45829991118E+01 0.52951574917E+01 0.62316296622E+01
 0.73836179311E+01 0.87014916484E+01 0.10087233905E+02 0.11338097264E+02 0.12028614974E+02
 0.11783295527E+02 0.11953309959E+02 0.10990577037E+02 0.94006693375E+01 0.76915568107E+01
 0.64606342815E+01 0.61552717703E+01 0.68768591277E+01 0.83320444515E+01 0.99609823422E+01
 0.11175768061E+02 0.11589534057E+02 0.11136873251E+02 0.10052128279E+02 0.87281556719E+01
 0.74301813776E+01 0.62696901732E+01 0.53117802239E+01 0.45790489310E+01 0.40644827070E+01
 0.37477805345E+01 0.36077701932E+01 0.36297314072E+01 0.38093598774E+01 0.41539983306E+01
 0.46804642946E+01 0.54085789265E+01 0.63495430568E+01 0.74900878083E+01 0.87780081326E+01
 0.10118017840E+02 0.11329347461E+02 0.12043848704E+02 0.11978122158E+02 0.12084787054E+02
 0.11499386771E+02 0.10443280987E+02 0.93331758546E+01 0.86217432943E+01 0.86024550027E+01
 0.92733749779E+01 0.10334468196E+02 0.11322786862E+02 0.11814920721E+02 0.11596502529E+02
 0.10726832149E+02 0.94844831333E+01 0.81772545806E+01 0.69475330536E+01 0.58804356033E+01
 0.50208775695E+01 0.43781823454E+01 0.39395339409E+01 0.36838829793E+01 0.35916506945E+01
 0.36504246954E+01 0.38579668768E+01 0.42226202510E+01 0.47605711689E+01 0.54892859812E+01
 0.64164053423E+01 0.75254592085E+01 0.87642139276E+01 0.10043519495E+02 0.11215065898E+02
 0.10991210119E+02 0.11808552954E+02 0.12120459034E+02 0.11906010150E+02 0.11345175748E+02
 0.10753361199E+02 0.10444769660E+02 0.10584359885E+02 0.11104347918E+02 0.11732848164E+02
 0.12121544477E+02 0.12005598374E+02 0.11316647581E+02 0.10200872453E+02 0.89273179952E+01
 0.76691228409E+01 0.65230085185E+01 0.55533133518E+01 0.47883627042E+01 0.42279162943E+01
 0.38559055844E+01 0.36518199409E+01 0.35981218065E+01 0.36845336053E+01 0.39102151707E+01
 0.42836772938E+01 0.48198169171E+01 0.55334055248E+01 0.64287456183E+01 0.74874606657E+01
 0.86598259147E+01 0.98657592962E+01 0.95922376204E+01 0.10659575924E+02 0.11517807516E+02
 0.12011807146E+02 0.12121949525E+02 0.11976835997E+02 0.11792091191E+02 0.11761502805E+02
 0.11953487444E+02 0.12269433130E+02 0.12489530734E+02 0.12382819833E+02 0.11823005961E+02
 0.10851535960E+02 0.96564209183E+01 0.84143365992E+01 0.72274311090E+01 0.61736881544E+01
 0.52997338696E+01 0.46214060532E+01 0.41325256039E+01 0.38160237463E+01 0.36528081290E+01
 0.36273797845E+01 0.37311958606E+01 0.39642780217E+01 0.43347061626E+01 0.48555171345E+01
 0.55385737647E+01 0.63854610079E+01 0.73775032084E+01 0.84695604889E+01 0.82022800718E+01
 0.92346922017E+01 0.10231287403E+02 0.11102388522E+02 0.11732225686E+02 0.12093844954E+02
 0.12263057470E+02 0.12366876009E+02 0.12503458704E+02 0.12677086938E+02 0.12786531676E+02
 0.12675903569E+02 0.12220898867E+02 0.11403208591E+02 0.10332270387E+02 0.91560759956E+01
 0.79746659626E+01 0.68731991783E+01 0.59133141666E+01 0.51279606716E+01 0.45248018241E+01
 0.40947833985E+01 0.38212948764E+01 0.36870920002E+01 0.36786822274E+01 0.37889159445E+01
 0.40180981801E+01 0.43733342660E+01 0.48655951373E+01 0.55040970502E+01 0.62884598349E+01
 0.72009158803E+01 0.69660130959E+01 0.78704613013E+01 0.88089963042E+01 0.97286371342E+01
 0.10577435859E+02 0.11285310781E+02 0.11815291257E+02 0.12195687857E+02 0.12482021932E+02
 0.12703880556E+02 0.12830094955E+02 0.12775491718E+02 0.12447774790E+02 0.11808245512E+02
 0.10910109832E+02 0.98564189790E+01 0.87355774903E+01 0.76337376468E+01 0.66228659129E+01
 0.57515659394E+01 0.50433877215E+01 0.45014152789E+01 0.41159291448E+01 0.38718010656E+01
 0.37538954819E+01 0.37505181875E+01 0.38555166484E+01 0.40691682424E+01 0.43974557748E+01
 0.48492542932E+01 0.54313618610E+01 0.61421844507E+01 0.59535749268E+01 0.66840833993E+01
 0.74894064606E+01 0.83336158339E+01 0.91760747941E+01 0.99787484836E+01 0.10708198850E+02
 0.11328918597E+02 0.11831858578E+02 0.12220921971E+02 0.12482177683E+02 0.12570422099E+02
 0.12424943085E+02 0.12007056280E+02 0.11334941281E+02 0.10465428296E+02 0.94685142872E+01
 0.84248534794E+01 0.74110298845E+01 0.64878235379E+01 0.56944233461E+01 0.50487540313E+01
 0.45521541181E+01 0.41957762002E+01 0.39665034147E+01 0.38513524631E+01 0.38403556021E+01
 0.39282577009E+01 0.41151403389E+01 0.44057076449E+01 0.48068456688E+01 0.53234738016E+01
 0.51856354133E+01 0.57315604775E+01 0.63679766286E+01 0.70759431624E+01 0.78291369955E+01
 0.85974764723E+01 0.93516412950E+01 0.10066086483E+02 0.10717835426E+02 0.11280323238E+02
 0.11724695991E+02 0.12013521101E+02 0.12100866520E+02 0.11949916831E+02 0.11551751260E+02
 0.10925875304E+02 0.10120180237E+02 0.92022673696E+01 0.82461591203E+01 0.73194649695E+01
 0.64744535106E+01 0.57443758500E+01 0.51445086606E+01 0.46762952659E+01 0.43326653178E+01
 0.41029408542E+01 0.39764865512E+01 0.39450630768E+01 0.40042178885E+01 0.41538248007E+01
 0.43974567268E+01 0.47402662673E+01 0.46527500165E+01 0.50241602115E+01 0.54861576251E+01
 0.60317946142E+01 0.66481334072E+01 0.73171833604E+01 0.80178792316E+01 0.87281314074E+01
 0.94254664915E+01 0.10085131358E+02 0.10676334624E+02 0.11159598346E+02 0.11488826076E+02
 0.11619456789E+02 0.11520284680E+02 0.11183964638E+02 0.10631626576E+02 0.99098227078E+01
 0.90812830653E+01 0.82129821983E+01 0.73652622720E+01 0.65846087475E+01 0.59009538852E+01
 0.53288695863E+01 0.48711647168E+01 0.45232932698E+01 0.42773893103E+01 0.41253409119E+01
 0.40608121421E+01 0.40803588553E+01 0.41837424640E+01 0.43733695818E+01 0.43347289948E+01
 0.45483923870E+01 0.48465060011E+01 0.52283304804E+01 0.56898903846E+01 0.62237250727E+01
 0.68191325264E+01 0.74625571785E+01 0.81376641247E+01 0.88243901843E+01 0.94965717781E+01
 0.10119175288E+02 0.10647746697E+02 0.11032591559E+02 0.11227816704E+02 0.11202354745E+02
 0.10948694666E+02 0.10486002189E+02 0.98566695385E+01 0.91177137941E+01 0.83299806690E+01
 0.75484223422E+01 0.68157919567E+01 0.61604534069E+01 0.55975414149E+01 0.51320538259E+01
 0.47625511773E+01 0.44845248721E+01 0.42928995334E+01 0.41835503724E+01 0.41540640541E+01
 0.42040125246E+01 0.42141486910E+01 0.42837158441E+01 0.44321671997E+01 0.46604133646E+01
 0.49687100762E+01 0.53560570944E+01 0.58198115830E+01 0.63552952126E+01 0.69550521247E+01
 0.76074583396E+01 0.82945195762E+01 0.89891839083E+01 0.96534625961E+01 0.10239398057E+02
 0.10694367973E+02 0.10970235646E+02 0.11033681701E+02 0.10874154175E+02 0.10506688979E+02
 0.99687354461E+01 0.93121535023E+01 0.85930405151E+01 0.78625185394E+01 0.71608569567E+01
 0.65156664574E+01 0.59432708740E+01 0.54515995235E+01 0.50432005991E+01 0.47176903198E+01
 0.44734863551E+01 0.43088829717E+01 0.42226194272E+01 0.42836723285E+01 0.42141867866E+01
 0.42226832581E+01 0.43088898323E+01 0.44734450275E+01 0.47176777373E+01 0.50432426840E+01
 0.54516429026E+01 0.59432734420E+01 0.65156519062E+01 0.71608600355E+01 0.78625289650E+01
 0.85930331432E+01 0.93121371108E+01 0.99687350772E+01 0.10506701451E+02 0.10874155489E+02
 0.11033668446E+02 0.10970228756E+02 0.10694376720E+02 0.10239406297E+02 0.96534583762E+01
 0.89891825215E+01 0.82945393676E+01 0.76074827019E+01 0.69550415738E+01 0.63552458109E+01
 0.58197751377E+01 0.53560755301E+01 0.49687472632E+01 0.46603964243E+01 0.44320949513E+01
 0.45484294705E+01 0.43346999659E+01 0.42039480999E+01 0.41540374939E+01 0.41835810930E+01
 0.42929392342E+01 0.44845299452E+01 0.47625339932E+01 0.51320528114E+01 0.55975637535E+01
 0.61604699923E+01 0.68157840400E+01 0.75484082210E+01 0.83299842882E+01 0.91177265951E+01
 0.98566671624E+01 0.10485987307E+02 0.10948691630E+02 0.11202364426E+02 0.11227813343E+02
 0.11032571663E+02 0.10647742123E+02 0.10119200256E+02 0.94965951696E+01 0.88243872829E+01
 0.81376590374E+01 0.74625758567E+01 0.68191457050E+01 0.62236896435E+01 0.56898298831E+01