 vasp.5.4.4.18Apr17-6-g9f103f2a35 (build Dec 09 2018 21:25:21) complex          
  
 executed on IFC18.0.1.163_CrayMP date 2019.03.20  09:27:28
 running on    8 total cores
 distrk:  each k-point on    8 cores,    1 groups
 distr:  one band on NCORES_PER_BAND=   1 cores,    8 groups


--------------------------------------------------------------------------------------------------------


 INCAR:
 POTCAR:   PAW_PBE Si 05Jan2001                   

 ----------------------------------------------------------------------------- 
|                                                                             |
|           W    W    AA    RRRRR   N    N  II  N    N   GGGG   !!!           |
|           W    W   A  A   R    R  NN   N  II  NN   N  G    G  !!!           |
|           W    W  A    A  R    R  N N  N  II  N N  N  G       !!!           |
|           W WW W  AAAAAA  RRRRR   N  N N  II  N  N N  G  GGG   !            |
|           WW  WW  A    A  R   R   N   NN  II  N   NN  G    G                |
|           W    W  A    A  R    R  N    N  II  N    N   GGGG   !!!           |
|                                                                             |
|      For optimal performance we recommend to set                            |
|        NCORE= 4 - approx SQRT( number of cores)                             |
|      NCORE specifies how many cores store one orbital (NPAR=cpu/NCORE).     |
|      This setting can  greatly improve the performance of VASP for DFT.     |
|      The default,   NCORE=1            might be grossly inefficient         |
|      on modern multi-core architectures or massively parallel machines.     |
|      Do your own testing !!!!                                               |
|      Unfortunately you need to use the default for GW and RPA calculations. |
|      (for HF NCORE is supported but not extensively tested yet)             |
|                                                                             |
 ----------------------------------------------------------------------------- 

 POTCAR:   PAW_PBE Si 05Jan2001                   
   VRHFIN =Si: s2p2                                                             
   LEXCH  = PE                                                                  
   EATOM  =   103.0669 eV,    7.5752 Ry                                         
                                                                                
   TITEL  = PAW_PBE Si 05Jan2001                                                
   LULTRA =        F    use ultrasoft PP ?                                      
   IUNSCR =        1    unscreen: 0-lin 1-nonlin 2-no                           
   RPACOR =    1.500    partial core radius                                     
   POMASS =   28.085; ZVAL   =    4.000    mass and valenz                      
   RCORE  =    1.900    outmost cutoff radius                                   
   RWIGS  =    2.480; RWIGS  =    1.312    wigner-seitz radius (au A)           
   ENMAX  =  245.345; ENMIN  =  184.009 eV                                      
   ICORE  =        2    local potential                                         
   LCOR   =        T    correct aug charges                                     
   LPAW   =        T    paw PP                                                  
   EAUG   =  322.069                                                            
   DEXC   =    -.007                                                            
   RMAX   =    2.944    core radius for proj-oper                               
   RAUG   =    1.300    factor for augmentation sphere                          
   RDEP   =    1.993    radius for radial grids                                 
   QCUT   =   -4.246; QGAM   =    8.493    optimization parameters              
                                                                                
   Description                                                                  
     l     E      TYP  RCUT    TYP  RCUT                                        
     0   .000     23  1.900                                                     
     0   .000     23  1.900                                                     
     1   .000     23  1.900                                                     
     1   .000     23  1.900                                                     
     2   .000      7  1.900                                                     
  local pseudopotential read in
  partial core-charges read in
  atomic valenz-charges read in
  non local Contribution for L=           0  read in
    real space projection operators read in
  non local Contribution for L=           0  read in
    real space projection operators read in
  non local Contribution for L=           1  read in
    real space projection operators read in
  non local Contribution for L=           1  read in
    real space projection operators read in
    PAW grid and wavefunctions read in
 
   number of l-projection  operators is LMAX  =           4
   number of lm-projection operators is LMMAX =           8
 
 PAW_PBE Si 05Jan2001                   :
 energy of atom  1       EATOM= -103.0669
 kinetic energy error for atom=    0.0021 (will be added to EATOM!!)
 
 
 POSCAR: Si2                                     
  positions in direct lattice
  No initial velocities read in
 exchange correlation table for  LEXCH =        8
   RHO(1)=    0.500       N(1)  =     2000
   RHO(2)=  100.500       N(2)  =     4000
 


--------------------------------------------------------------------------------------------------------


 ion  position               nearest neighbor table
   1  0.250  0.750  0.500-   2 2.53   2 2.53   2 2.53   2 2.53   2 3.11   2 3.11   2 3.11   2 3.11

   2  0.000  0.000  0.000-   1 2.53   1 2.53   1 2.53   1 2.53   1 3.11   1 3.11   1 3.11   1 3.11

 
  LATTYP: Found a body centered tetragonal cell.
 ALAT       =     4.9000000000
 C/A-ratio  =     0.5200000000
  
  Lattice vectors:
  
 A1 = (  -2.4500000000,   2.4500000000,   1.2740000000)
 A2 = (   2.4500000000,  -2.4500000000,   1.2740000000)
 A3 = (   2.4500000000,   2.4500000000,  -1.2740000000)


Analysis of symmetry for initial positions (statically):
=====================================================================
 Subroutine PRICEL returns:
 Original cell was already a primitive cell.
 

 Routine SETGRP: Setting up the symmetry group for a 
 body centered tetragonal supercell.


 Subroutine GETGRP returns: Found 16 space group operations
 (whereof  8 operations were pure point group operations)
 out of a pool of 16 trial point group operations.


The static configuration has the point symmetry D_2d.
 The point group associated with its full space group is D_4h.


Analysis of symmetry for dynamics (positions and initial velocities):
=====================================================================
 Subroutine PRICEL returns:
 Original cell was already a primitive cell.
 

 Routine SETGRP: Setting up the symmetry group for a 
 body centered tetragonal supercell.


 Subroutine GETGRP returns: Found 16 space group operations
 (whereof  8 operations were pure point group operations)
 out of a pool of 16 trial point group operations.


The dynamic configuration has the point symmetry D_2d.
 The point group associated with its full space group is D_4h.


 Subroutine INISYM returns: Found 16 space group operations
 (whereof  8 operations are pure point group operations),
 and found     1 'primitive' translations

 
 
 KPOINTS: Automatic kpoint scheme                 

Automatic generation of k-mesh.
Space group operators:
 irot       det(A)        alpha          n_x          n_y          n_z        tau_x        tau_y        tau_z
    1     1.000000     0.000000     1.000000     0.000000     0.000000     0.000000     0.000000     0.000000
    2    -1.000000    90.000000    -0.000000    -0.000000    -1.000000     0.000000     0.000000     0.000000
    3     1.000000   180.000000    -0.000000    -0.000000    -1.000000     0.000000     0.000000     0.000000
    4    -1.000000    90.000000    -0.000000     0.000000     1.000000     0.000000     0.000000     0.000000
    5    -1.000000   180.000000     0.000000    -1.000000     0.000000     0.000000     0.000000     0.000000
    6     1.000000   180.000000     0.707107     0.707107    -0.000000     0.000000     0.000000     0.000000
    7    -1.000000   180.000000     1.000000     0.000000     0.000000     0.000000     0.000000     0.000000
    8     1.000000   180.000000     0.707107    -0.707107     0.000000     0.000000     0.000000     0.000000
    9    -1.000000     0.000000     1.000000     0.000000     0.000000     0.250000     0.750000     0.500000
   10     1.000000    90.000000    -0.000000    -0.000000    -1.000000     0.250000     0.750000     0.500000
   11    -1.000000   180.000000    -0.000000    -0.000000    -1.000000     0.250000     0.750000     0.500000
   12     1.000000    90.000000    -0.000000     0.000000     1.000000     0.250000     0.750000     0.500000
   13     1.000000   180.000000     0.000000    -1.000000     0.000000     0.250000     0.750000     0.500000
   14    -1.000000   180.000000     0.707107     0.707107    -0.000000     0.250000     0.750000     0.500000
   15     1.000000   180.000000     1.000000     0.000000     0.000000     0.250000     0.750000     0.500000
   16    -1.000000   180.000000     0.707107    -0.707107     0.000000     0.250000     0.750000     0.500000
 
 Subroutine IBZKPT returns following result:
 ===========================================
 
 Found      3 irreducible k-points:
 
 Following reciprocal coordinates:
            Coordinates               Weight
  0.250000  0.250000  0.250000     32.000000
 -0.250000  0.250000  0.250000     64.000000
 -0.250000 -0.250000  0.250000     32.000000
 
 Following cartesian coordinates:
            Coordinates               Weight
  0.102041  0.102041  0.196232     32.000000
  0.102041  0.000000  0.000000     64.000000
 -0.000000  0.000000 -0.196232     32.000000
 


--------------------------------------------------------------------------------------------------------




 Dimension of arrays:
   k-points           NKPTS =      3   k-points in BZ     NKDIM =      3   number of bands    NBANDS=      8
   number of dos      NEDOS =    301   number of ions     NIONS =      2
   non local maximal  LDIM  =      4   non local SUM 2l+1 LMDIM =      8
   total plane-waves  NPLWV =   4096
   max r-space proj   IRMAX =      1   max aug-charges    IRDMAX=   4676
   dimension x,y,z NGX =    16 NGY =   16 NGZ =   16
   dimension x,y,z NGXF=    32 NGYF=   32 NGZF=   32
   support grid    NGXF=    32 NGYF=   32 NGZF=   32
   ions per type =               2
   NGX,Y,Z   is equivalent  to a cutoff of   7.21,  7.21,  7.21 a.u.
   NGXF,Y,Z  is equivalent  to a cutoff of  14.41, 14.41, 14.41 a.u.

 SYSTEM =  unknown system                          
 POSCAR =  Si2                                     

 Startparameter for this run:
   NWRITE =      2    write-flag & timer
   PREC   = normal    normal or accurate (medium, high low for compatibility)
   ISTART =      0    job   : 0-new  1-cont  2-samecut
   ICHARG =      2    charge: 1-file 2-atom 10-const
   ISPIN  =      1    spin polarized calculation?
   LNONCOLLINEAR =      F non collinear calculations
   LSORBIT =      F    spin-orbit coupling
   INIWAV =      1    electr: 0-lowe 1-rand  2-diag
   LASPH  =      F    aspherical Exc in radial PAW
   METAGGA=      F    non-selfconsistent MetaGGA calc.

 Electronic Relaxation 1
   ENCUT  =  300.0 eV  22.05 Ry    4.70 a.u.   5.21  5.21  5.21*2*pi/ulx,y,z
   ENINI  =  300.0     initial cutoff
   ENAUG  =  322.1 eV  augmentation charge cutoff
   NELM   =     60;   NELMIN=  2; NELMDL= -5     # of ELM steps 
   EDIFF  = 0.4E-03   stopping-criterion for ELM
   LREAL  =      F    real-space projection
   NLSPLINE    = F    spline interpolate recip. space projectors
   LCOMPAT=      F    compatible to vasp.4.4
   GGA_COMPAT  = T    GGA compatible to vasp.4.4-vasp.4.6
   LMAXPAW     = -100 max onsite density
   LMAXMIX     =    2 max onsite mixed and CHGCAR
   VOSKOWN=      0    Vosko Wilk Nusair interpolation
   ROPT   =    0.00000
 Ionic relaxation
   EDIFFG = -.1E-01   stopping-criterion for IOM
   NSW    =     15    number of steps for IOM
   NBLOCK =      1;   KBLOCK =     15    inner block; outer block 
   IBRION =      2    ionic relax: 0-MD 1-quasi-New 2-CG
   NFREE  =      1    steps in history (QN), initial steepest desc. (CG)
   ISIF   =      3    stress and relaxation
   IWAVPR =     11    prediction:  0-non 1-charg 2-wave 3-comb
   ISYM   =      2    0-nonsym 1-usesym 2-fastsym
   LCORR  =      T    Harris-Foulkes like correction to forces

   POTIM  = 0.5000    time-step for ionic-motion
   TEIN   =    0.0    initial temperature
   TEBEG  =    0.0;   TEEND  =   0.0 temperature during run
   SMASS  =  -3.00    Nose mass-parameter (am)
   estimated Nose-frequenzy (Omega)   =  0.10E-29 period in steps =****** mass=  -0.311E-27a.u.
   SCALEE = 1.0000    scale energy and forces
   NPACO  =    256;   APACO  = 16.0  distance and # of slots for P.C.
   PSTRESS=    0.0 pullay stress

  Mass of Ions in am
   POMASS =  28.09
  Ionic Valenz
   ZVAL   =   4.00
  Atomic Wigner-Seitz radii
   RWIGS  =  -1.00
  virtual crystal weights 
   VCA    =   1.00
   NELECT =       8.0000    total number of electrons
   NUPDOWN=      -1.0000    fix difference up-down

 DOS related values:
   EMIN   =  10.00;   EMAX   =-10.00  energy-range for DOS
   EFERMI =   0.00
   ISMEAR =     0;   SIGMA  =   0.20  broadening in eV -4-tet -1-fermi 0-gaus

 Electronic relaxation 2 (details)
   IALGO  =     38    algorithm
   LDIAG  =      T    sub-space diagonalisation (order eigenvalues)
   LSUBROT=      F    optimize rotation matrix (better conditioning)
   TURBO    =      0    0=normal 1=particle mesh
   IRESTART =      0    0=no restart 2=restart with 2 vectors
   NREBOOT  =      0    no. of reboots
   NMIN     =      0    reboot dimension
   EREF     =   0.00    reference energy to select bands
   IMIX   =      4    mixing-type and parameters
     AMIX     =   0.40;   BMIX     =  1.00
     AMIX_MAG =   1.60;   BMIX_MAG =  1.00
     AMIN     =   0.10
     WC   =   100.;   INIMIX=   1;  MIXPRE=   1;  MAXMIX= -45

 Intra band minimization:
   WEIMIN = 0.0010     energy-eigenvalue tresh-hold
   EBREAK =  0.13E-04  absolut break condition
   DEPER  =   0.30     relativ break condition  

   TIME   =   0.40     timestep for ELM

  volume/ion in A,a.u.               =      15.29       103.21
  Fermi-wavevector in a.u.,A,eV,Ry     =   1.046930  1.978411 14.912834  1.096062
  Thomas-Fermi vector in A             =   2.181789
 
 Write flags
   LWAVE        =      T    write WAVECAR
   LDOWNSAMPLE  =      F    k-point downsampling of WAVECAR
   LCHARG       =      T    write CHGCAR
   LVTOT        =      F    write LOCPOT, total local potential
   LVHAR        =      F    write LOCPOT, Hartree potential only
   LELF         =      F    write electronic localiz. function (ELF)
   LORBIT       =      0    0 simple, 1 ext, 2 COOP (PROOUT), +10 PAW based schemes


 Dipole corrections
   LMONO  =      F    monopole corrections only (constant potential shift)
   LDIPOL =      F    correct potential (dipole corrections)
   IDIPOL =      0    1-x, 2-y, 3-z, 4-all directions 
   EPSILON=  1.0000000 bulk dielectric constant

 Exchange correlation treatment:
   GGA     =    --    GGA type
   LEXCH   =     8    internal setting for exchange type
   VOSKOWN=      0    Vosko Wilk Nusair interpolation
   LHFCALC =     F    Hartree Fock is set to
   LHFONE  =     F    Hartree Fock one center treatment
   AEXX    =    0.0000 exact exchange contribution

 Linear response parameters
   LEPSILON=     F    determine dielectric tensor
   LRPA    =     F    only Hartree local field effects (RPA)
   LNABLA  =     F    use nabla operator in PAW spheres
   LVEL    =     F    velocity operator in full k-point grid
   LINTERFAST=   F  fast interpolation
   KINTER  =     0    interpolate to denser k-point grid
   CSHIFT  =0.1000    complex shift for real part using Kramers Kronig
   OMEGAMAX=  -1.0    maximum frequency
   DEG_THRESHOLD= 0.2000000E-02 threshold for treating states as degnerate
   RTIME   =   -0.100 relaxation time in fs
  (WPLASMAI=    0.000 imaginary part of plasma frequency in eV, 0.658/RTIME)
   DFIELD  = 0.0000000 0.0000000 0.0000000 field for delta impulse in time
 
 Orbital magnetization related:
   ORBITALMAG=     F  switch on orbital magnetization
   LCHIMAG   =     F  perturbation theory with respect to B field
   DQ        =  0.001000  dq finite difference perturbation B field
   LLRAUG    =     F  two centre corrections for induced B field



--------------------------------------------------------------------------------------------------------


 conjugate gradient relaxation of ions
 charge density and potential will be updated during run
 non-spin polarized calculation
 Variant of blocked Davidson
 Davidson routine will perform the subspace rotation
 perform sub-space diagonalisation
    after iterative eigenvector-optimisation
 modified Broyden-mixing scheme, WC =      100.0
 initial mixing is a Kerker type mixing with AMIX =  0.4000 and BMIX =      1.0000
 Hartree-type preconditioning will be used
 using additional bands            4
 reciprocal scheme for non local part
 use partial core corrections
 calculate Harris-corrections to forces 
   (improved forces if not selfconsistent)
 use gradient corrections 
 use of overlap-Matrix (Vanderbilt PP)
 Gauss-broadening in eV      SIGMA  =   0.20


--------------------------------------------------------------------------------------------------------


  energy-cutoff  :      300.00
  volume of cell :       30.59
      direct lattice vectors                 reciprocal lattice vectors
    -2.450000000  2.450000000  1.274000000     0.000000000  0.204081633  0.392464678
     2.450000000 -2.450000000  1.274000000     0.204081633  0.000000000  0.392464678
     2.450000000  2.450000000 -1.274000000     0.204081633  0.204081633 -0.000000000

  length of vectors
     3.691622408  3.691622408  3.691622408     0.442354876  0.442354876  0.288615013


 
 k-points in units of 2pi/SCALE and weight: Automatic kpoint scheme                 
   0.10204082  0.10204082  0.19623234       0.250
   0.10204082  0.00000000 -0.00000000       0.500
   0.00000000  0.00000000 -0.19623234       0.250
 
 k-points in reciprocal lattice and weights: Automatic kpoint scheme                 
   0.25000000  0.25000000  0.25000000       0.250
  -0.25000000  0.25000000  0.25000000       0.500
  -0.25000000 -0.25000000  0.25000000       0.250
 
 position of ions in fractional coordinates (direct lattice) 
   0.25000000  0.75000000  0.50000000
   0.00000000  0.00000000  0.00000000
 
 position of ions in cartesian coordinates  (Angst):
   2.45000000  0.00000000  0.63700000
   0.00000000  0.00000000  0.00000000
 


--------------------------------------------------------------------------------------------------------


 k-point  1 :   0.2500 0.2500 0.2500  plane waves:     360
 k-point  2 :  -0.2500 0.2500 0.2500  plane waves:     361
 k-point  3 :  -0.2500-0.2500 0.2500  plane waves:     344

 maximum and minimum number of plane-waves per node :       361      344

 maximum number of plane-waves:       361
 maximum index in each direction: 
   IXMAX=    5   IYMAX=    5   IZMAX=    4
   IXMIN=   -5   IYMIN=   -5   IZMIN=   -5


 serial   3D FFT for wavefunctions
 parallel 3D FFT for charge:
    minimum data exchange during FFTs selected (reduces bandwidth)


 total amount of memory used by VASP MPI-rank0    30638. kBytes
=======================================================================

   base      :      30000. kBytes
   nonl-proj :         82. kBytes
   fftplans  :        160. kBytes
   grid      :        372. kBytes
   one-center:          6. kBytes
   wavefun   :         18. kBytes
 
     INWAV:  cpu time    0.0000: real time    0.0004
 Broyden mixing: mesh for mixing (old mesh)
   NGX = 11   NGY = 11   NGZ = 11
  (NGX  = 32   NGY  = 32   NGZ  = 32)
  gives a total of   1331 points

 initial charge density was supplied:
 charge density of overlapping atoms calculated
 number of electron       8.0000000 magnetization 
 keeping initial charge density in first step


--------------------------------------------------------------------------------------------------------


 Maximum index for augmentation-charges          547 (set IRDMAX)


--------------------------------------------------------------------------------------------------------


 First call to EWALD:  gamma=   0.567
 Maximum number of real-space cells 4x 4x 3
 Maximum number of reciprocal cells 3x 3x 3

    FEWALD:  cpu time    0.0080: real time    0.0073


--------------------------------------- Iteration      1(   1)  ---------------------------------------


    POTLOK:  cpu time    0.0280: real time    0.0382
    SETDIJ:  cpu time    0.0080: real time    0.0088
     EDDAV:  cpu time    0.0280: real time    0.0323
       DOS:  cpu time    0.0040: real time    0.0409
    --------------------------------------------
      LOOP:  cpu time    0.0680: real time    0.1209

 eigenvalue-minimisations  :    48
 total energy-change (2. order) :-0.2927717E+01  (-0.2734838E+03)
 number of electron       8.0000000 magnetization 
 augmentation part        8.0000000 magnetization 

 Free energy of the ion-electron system (eV)
  ---------------------------------------------------
  alpha Z        PSCENC =         4.40202223
  Ewald energy   TEWEN  =      -265.18101312
  -Hartree energ DENC   =        -2.30415367
  -exchange      EXHF   =         0.00000000
  -V(xc)+E(xc)   XCENC  =       -17.81548033
  PAW double counting   =        65.95520812      -30.76852678
  entropy T*S    EENTRO =        -0.00357647
  eigenvalues    EBANDS =        36.65811746
  atomic energy  EATOM  =       206.12968587
  Solvation  Ediel_sol  =         0.00000000
  ---------------------------------------------------
  free energy    TOTEN  =        -2.92771669 eV

  energy without entropy =       -2.92414022  energy(sigma->0) =       -2.92592846


--------------------------------------------------------------------------------------------------------




--------------------------------------- Iteration      1(   2)  ---------------------------------------


     EDDAV:  cpu time    0.0400: real time    0.0718
       DOS:  cpu time    0.0000: real time    0.0016
    --------------------------------------------
      LOOP:  cpu time    0.0400: real time    0.0734

 eigenvalue-minimisations  :    64
 total energy-change (2. order) :-0.9043102E+01  (-0.8365186E+01)
 number of electron       8.0000000 magnetization 
 augmentation part        8.0000000 magnetization 

 Free energy of the ion-electron system (eV)
  ---------------------------------------------------
  alpha Z        PSCENC =         4.40202223
  Ewald energy   TEWEN  =      -265.18101312
  -Hartree energ DENC   =        -2.30415367
  -exchange      EXHF   =         0.00000000
  -V(xc)+E(xc)   XCENC  =       -17.81548033
  PAW double counting   =        65.95520812      -30.76852678
  entropy T*S    EENTRO =        -0.05641896
  eigenvalues    EBANDS =        27.66785751
  atomic energy  EATOM  =       206.12968587
  Solvation  Ediel_sol  =         0.00000000
  ---------------------------------------------------
  free energy    TOTEN  =       -11.97081912 eV

  energy without entropy =      -11.91440017  energy(sigma->0) =      -11.94260965


--------------------------------------------------------------------------------------------------------




--------------------------------------- Iteration      1(   3)  ---------------------------------------


     EDDAV:  cpu time    0.0440: real time    0.0553
       DOS:  cpu time    0.0040: real time    0.0018
    --------------------------------------------
      LOOP:  cpu time    0.0480: real time    0.0569

 eigenvalue-minimisations  :    72
 total energy-change (2. order) :-0.7748379E-01  (-0.7748379E-01)
 number of electron       8.0000000 magnetization 
 augmentation part        8.0000000 magnetization 

 Free energy of the ion-electron system (eV)
  ---------------------------------------------------
  alpha Z        PSCENC =         4.40202223
  Ewald energy   TEWEN  =      -265.18101312
  -Hartree energ DENC   =        -2.30415367
  -exchange      EXHF   =         0.00000000
  -V(xc)+E(xc)   XCENC  =       -17.81548033
  PAW double counting   =        65.95520812      -30.76852678
  entropy T*S    EENTRO =        -0.05641896
  eigenvalues    EBANDS =        27.59037372
  atomic energy  EATOM  =       206.12968587
  Solvation  Ediel_sol  =         0.00000000
  ---------------------------------------------------
  free energy    TOTEN  =       -12.04830292 eV

  energy without entropy =      -11.99188396  energy(sigma->0) =      -12.02009344


--------------------------------------------------------------------------------------------------------




--------------------------------------- Iteration      1(   4)  ---------------------------------------


     EDDAV:  cpu time    0.0440: real time    0.0522
       DOS:  cpu time    0.0000: real time    0.0014
    --------------------------------------------
      LOOP:  cpu time    0.0440: real time    0.0537

 eigenvalue-minimisations  :    72
 total energy-change (2. order) :-0.1102472E-03  (-0.1102478E-03)
 number of electron       8.0000000 magnetization 
 augmentation part        8.0000000 magnetization 

 Free energy of the ion-electron system (eV)
  ---------------------------------------------------
  alpha Z        PSCENC =         4.40202223
  Ewald energy   TEWEN  =      -265.18101312
  -Hartree energ DENC   =        -2.30415367
  -exchange      EXHF   =         0.00000000
  -V(xc)+E(xc)   XCENC  =       -17.81548033
  PAW double counting   =        65.95520812      -30.76852678
  entropy T*S    EENTRO =        -0.05641896
  eigenvalues    EBANDS =        27.59026347
  atomic energy  EATOM  =       206.12968587
  Solvation  Ediel_sol  =         0.00000000
  ---------------------------------------------------
  free energy    TOTEN  =       -12.04841316 eV

  energy without entropy =      -11.99199420  energy(sigma->0) =      -12.02020368


--------------------------------------------------------------------------------------------------------




--------------------------------------- Iteration      1(   5)  ---------------------------------------


     EDDAV:  cpu time    0.0400: real time    0.0481
       DOS:  cpu time    0.0000: real time    0.0017
    CHARGE:  cpu time    0.0120: real time    0.0106
    MIXING:  cpu time    0.0000: real time    0.0021
    --------------------------------------------
      LOOP:  cpu time    0.0520: real time    0.0626

 eigenvalue-minimisations  :    64
 total energy-change (2. order) :-0.1892005E-07  (-0.1956589E-07)
 number of electron       7.9999991 magnetization 
 augmentation part       -0.4719345 magnetization 

 Broyden mixing:
  rms(total) = 0.13919E+00    rms(broyden)= 0.13919E+00
  rms(prec ) = 0.32034E+00
  weight for this iteration     100.00

 Free energy of the ion-electron system (eV)
  ---------------------------------------------------
  alpha Z        PSCENC =         4.40202223
  Ewald energy   TEWEN  =      -265.18101312
  -Hartree energ DENC   =        -2.30415367
  -exchange      EXHF   =         0.00000000
  -V(xc)+E(xc)   XCENC  =       -17.81548033
  PAW double counting   =        65.95520812      -30.76852678
  entropy T*S    EENTRO =        -0.05641896
  eigenvalues    EBANDS =        27.59026345
  atomic energy  EATOM  =       206.12968587
  Solvation  Ediel_sol  =         0.00000000
  ---------------------------------------------------
  free energy    TOTEN  =       -12.04841318 eV

  energy without entropy =      -11.99199422  energy(sigma->0) =      -12.02020370


--------------------------------------------------------------------------------------------------------




--------------------------------------- Iteration      1(   6)  ---------------------------------------


    POTLOK:  cpu time    0.0200: real time    0.0311
    SETDIJ:  cpu time    0.0080: real time    0.0084
     EDDAV:  cpu time    0.0360: real time    0.0349
       DOS:  cpu time    0.0000: real time    0.0014
    CHARGE:  cpu time    0.0080: real time    0.0091
    MIXING:  cpu time    0.0040: real time    0.0018
    --------------------------------------------
      LOOP:  cpu time    0.0760: real time    0.0868

 eigenvalue-minimisations  :    64
 total energy-change (2. order) : 0.1125706E-01  (-0.4489561E-03)
 number of electron       7.9999991 magnetization 
 augmentation part       -0.4744430 magnetization 

 Broyden mixing:
  rms(total) = 0.86537E-01    rms(broyden)= 0.86537E-01
  rms(prec ) = 0.19830E+00
  weight for this iteration     100.00

 eigenvalues of (default mixing * dielectric matrix)
  average eigenvalue GAMMA=   2.6352
  2.6352

 Free energy of the ion-electron system (eV)
  ---------------------------------------------------
  alpha Z        PSCENC =         4.40202223
  Ewald energy   TEWEN  =      -265.18101312
  -Hartree energ DENC   =        -2.23688765
  -exchange      EXHF   =         0.00000000
  -V(xc)+E(xc)   XCENC  =       -17.74865764
  PAW double counting   =        67.47196320      -32.31054508
  entropy T*S    EENTRO =        -0.05641896
  eigenvalues    EBANDS =        27.49269502
  atomic energy  EATOM  =       206.12968587
  Solvation  Ediel_sol  =         0.00000000
  ---------------------------------------------------
  free energy    TOTEN  =       -12.03715612 eV

  energy without entropy =      -11.98073716  energy(sigma->0) =      -12.00894664


--------------------------------------------------------------------------------------------------------




--------------------------------------- Iteration      1(   7)  ---------------------------------------


    POTLOK:  cpu time    0.0200: real time    0.0307
    SETDIJ:  cpu time    0.0080: real time    0.0084
     EDDAV:  cpu time    0.0320: real time    0.0347
       DOS:  cpu time    0.0040: real time    0.0019
    CHARGE:  cpu time    0.0080: real time    0.0086
    MIXING:  cpu time    0.0000: real time    0.0016
    --------------------------------------------
      LOOP:  cpu time    0.0720: real time    0.0858

 eigenvalue-minimisations  :    64
 total energy-change (2. order) : 0.7335565E-02  (-0.1090549E-02)
 number of electron       7.9999991 magnetization 
 augmentation part       -0.4786818 magnetization 

 Broyden mixing:
  rms(total) = 0.43782E-02    rms(broyden)= 0.43778E-02
  rms(prec ) = 0.11640E-01
  weight for this iteration     100.00

 eigenvalues of (default mixing * dielectric matrix)
  average eigenvalue GAMMA=   2.4923
  2.4923  2.4923

 Free energy of the ion-electron system (eV)
  ---------------------------------------------------
  alpha Z        PSCENC =         4.40202223
  Ewald energy   TEWEN  =      -265.18101312
  -Hartree energ DENC   =        -2.21920539
  -exchange      EXHF   =         0.00000000
  -V(xc)+E(xc)   XCENC  =       -17.62407830
  PAW double counting   =        69.87598930      -34.76021078
  entropy T*S    EENTRO =        -0.05641896
  eigenvalues    EBANDS =        27.40340858
  atomic energy  EATOM  =       206.12968587
  Solvation  Ediel_sol  =         0.00000000
  ---------------------------------------------------
  free energy    TOTEN  =       -12.02982056 eV

  energy without entropy =      -11.97340160  energy(sigma->0) =      -12.00161108


--------------------------------------------------------------------------------------------------------




--------------------------------------- Iteration      1(   8)  ---------------------------------------


    POTLOK:  cpu time    0.0200: real time    0.0312
    SETDIJ:  cpu time    0.0080: real time    0.0083
     EDDAV:  cpu time    0.0320: real time    0.0312
       DOS:  cpu time    0.0000: real time    0.0019
    --------------------------------------------
      LOOP:  cpu time    0.0600: real time    0.0727

 eigenvalue-minimisations  :    56
 total energy-change (2. order) : 0.4046651E-04  (-0.1424581E-04)
 number of electron       7.9999991 magnetization 
 augmentation part       -0.4786818 magnetization 

 Free energy of the ion-electron system (eV)
  ---------------------------------------------------
  alpha Z        PSCENC =         4.40202223
  Ewald energy   TEWEN  =      -265.18101312
  -Hartree energ DENC   =        -2.24629164
  -exchange      EXHF   =         0.00000000
  -V(xc)+E(xc)   XCENC  =       -17.62105381
  PAW double counting   =        69.83574652      -34.72580108
  entropy T*S    EENTRO =        -0.05641896
  eigenvalues    EBANDS =        27.43334388
  atomic energy  EATOM  =       206.12968587
  Solvation  Ediel_sol  =         0.00000000
  ---------------------------------------------------
  free energy    TOTEN  =       -12.02978009 eV

  energy without entropy =      -11.97336113  energy(sigma->0) =      -12.00157061


--------------------------------------------------------------------------------------------------------




 average (electrostatic) potential at core
  the test charge radii are     0.9892
  (the norm of the test charge is              1.0000)
       1 -80.6794       2 -80.6794
 
 
 
 E-fermi :   8.5136     XC(G=0): -10.9116     alpha+bet :-15.6819


 k-point     1 :       0.2500    0.2500    0.2500
  band No.  band energies     occupation 
      1       3.3731      2.00000
      2       3.3731      2.00000
      3       4.0249      2.00000
      4       4.0249      2.00000
      5      13.1825      0.00000
      6      13.1825      0.00000
      7      14.9994      0.00000
      8      14.9994      0.00000

 k-point     2 :      -0.2500    0.2500    0.2500
  band No.  band energies     occupation 
      1      -3.1661      2.00000
      2       1.8884      2.00000
      3       3.6151      2.00000
      4       8.5136      1.00000
      5      12.8467      0.00000
      6      16.0270      0.00000
      7      17.2122      0.00000
      8      18.2357      0.00000

 k-point     3 :      -0.2500   -0.2500    0.2500
  band No.  band energies     occupation 
      1       0.8264      2.00000
      2       5.7304      2.00000
      3       5.8237      2.00000
      4       7.2509      2.00000
      5       7.2509      2.00000
      6      11.5243      0.00000
      7      12.2356      0.00000
      8      12.2356      0.00000


--------------------------------------------------------------------------------------------------------


 soft charge-density along one line, spin component           1
         0         1         2         3         4         5         6         7         8         9
 total charge-density along one line
 
 pseudopotential strength for first ion, spin component:           1
 18.074  -0.003   0.000  -0.000  -0.000  -0.000   0.000   0.000
 -0.003   0.005  -0.000   0.000   0.000   0.000  -0.000  -0.000
  0.000  -0.000   4.116   0.000   0.000  -0.006  -0.000  -0.000
 -0.000   0.000   0.000   4.117   0.000  -0.000  -0.006  -0.000
 -0.000   0.000   0.000   0.000   4.116  -0.000  -0.000  -0.006
 -0.000   0.000  -0.006  -0.000  -0.000   0.005   0.000   0.000
  0.000  -0.000  -0.000  -0.006  -0.000   0.000   0.005   0.000
  0.000  -0.000  -0.000  -0.000  -0.006   0.000   0.000   0.005
 total augmentation occupancy for first ion, spin component:           1
  1.654  -0.468   0.000   0.000  -0.000  -0.000   0.000  -0.000
 -0.468   0.775   0.000   0.000   0.000   0.000   0.000  -0.000
  0.000   0.000   0.820   0.000  -0.000  -0.477   0.000   0.000
  0.000   0.000   0.000   0.902  -0.000   0.000  -0.610   0.000
  0.000   0.000  -0.000  -0.000   0.820   0.000   0.000  -0.477
  0.000   0.000  -0.477   0.000   0.000   0.348   0.000  -0.000
  0.000   0.000   0.000  -0.610   0.000   0.000   0.436  -0.000
  0.000   0.000   0.000   0.000  -0.477  -0.000  -0.000   0.348


------------------------ aborting loop because EDIFF is reached ----------------------------------------


    CHARGE:  cpu time    0.0080: real time    0.0082
    FORLOC:  cpu time    0.0000: real time    0.0007
    FORNL :  cpu time    0.0080: real time    0.0075
    STRESS:  cpu time    0.0280: real time    0.0298
    FORCOR:  cpu time    0.0160: real time    0.0145
    FORHAR:  cpu time    0.0040: real time    0.0039
    MIXING:  cpu time    0.0000: real time    0.0012
    OFIELD:  cpu time    0.0000: real time    0.0004

  FORCE on cell =-STRESS in cart. coord.  units (eV):
  Direction    XX          YY          ZZ          XY          YZ          ZX
  --------------------------------------------------------------------------------------
  Alpha Z     4.40202     4.40202     4.40202
  Ewald     -90.96023   -90.96023   -83.26083    -0.00000     0.00000     0.00000
  Hartree     0.52219     0.52219     1.20468    -0.00000    -0.00000    -0.00000
  E(xc)     -25.33947   -25.33947   -25.26685     0.00000     0.00000     0.00000
  Local     -11.10143   -11.10143   -16.37056    -0.00004    -0.00003    -0.00003
  n-local    76.67373    77.55127    76.11014     0.00000    -0.00003     0.00000
  augment   -12.11749   -12.11749   -12.32173     0.00003     0.00003     0.00003
  Kinetic    51.99180    53.91505    60.03160    -0.00001    -0.00001    -0.00003
  Fock        0.00000     0.00000     0.00000     0.00000     0.00000     0.00000
  -------------------------------------------------------------------------------------
  Total      -4.52848    -4.52848     4.52848     0.00000    -0.00000     0.00000
  in kB    -237.19281  -237.19281   237.19261     0.00000    -0.00000     0.00000
  external pressure =      -79.06 kB  Pullay stress =        0.00 kB


 VOLUME and BASIS-vectors are now :
 -----------------------------------------------------------------------------
  energy-cutoff  :      300.00
  volume of cell :       30.59
      direct lattice vectors                 reciprocal lattice vectors
    -2.450000000  2.450000000  1.274000000     0.000000000  0.204081633  0.392464678
     2.450000000 -2.450000000  1.274000000     0.204081633  0.000000000  0.392464678
     2.450000000  2.450000000 -1.274000000     0.204081633  0.204081633 -0.000000000

  length of vectors
     3.691622408  3.691622408  3.691622408     0.442354876  0.442354876  0.288615013


 FORCES acting on ions
    electron-ion (+dipol)            ewald-force                    non-local-force                 convergence-correction
 -----------------------------------------------------------------------------------------------
   0.648E-06 -.648E-06 -.106E-13   0.198E-14 0.156E-15 0.342E-17   -.148E-17 0.329E-18 -.554E-18   -.310E-08 0.310E-08 -.194E-16
   -.648E-06 0.648E-06 -.608E-14   -.185E-14 0.943E-16 0.891E-15   0.116E-17 0.405E-19 -.106E-17   0.310E-08 -.310E-08 -.149E-15
 -----------------------------------------------------------------------------------------------
   0.521E-14 0.570E-14 -.167E-13   0.139E-15 0.250E-15 0.894E-15   -.325E-18 0.370E-18 -.161E-17   0.234E-15 -.188E-15 -.168E-15
 
 
 POSITION                                       TOTAL-FORCE (eV/Angst)
 -----------------------------------------------------------------------------------
      2.45000      0.00000      0.63700        -0.000000     -0.000000     -0.000000
      0.00000      0.00000      0.00000         0.000000      0.000000      0.000000
 -----------------------------------------------------------------------------------
    total drift:                                0.000000      0.000000     -0.000000


--------------------------------------------------------------------------------------------------------



  FREE ENERGIE OF THE ION-ELECTRON SYSTEM (eV)
  ---------------------------------------------------
  free  energy   TOTEN  =       -12.02978009 eV

  energy  without entropy=      -11.97336113  energy(sigma->0) =      -12.00157061
 


--------------------------------------------------------------------------------------------------------


    POTLOK:  cpu time    0.0320: real time    0.0504


--------------------------------------------------------------------------------------------------------




--------------------------------------------------------------------------------------------------------


    WAVPRE:  cpu time    0.6840: real time    1.1611
    FEWALD:  cpu time    0.0040: real time    0.0007
    GENKIN:  cpu time    0.0000: real time    0.0017
    ORTHCH:  cpu time    0.0040: real time    0.0023
     LOOP+:  cpu time    1.2880: real time    1.9638


--------------------------------------- Iteration      2(   1)  ---------------------------------------


    POTLOK:  cpu time    0.0200: real time    0.0261
    SETDIJ:  cpu time    0.0080: real time    0.0085
     EDDAV:  cpu time    0.0280: real time    0.0248
       DOS:  cpu time    0.0000: real time    0.0019
    CHARGE:  cpu time    0.0080: real time    0.0088
    MIXING:  cpu time    0.0000: real time    0.0013
    --------------------------------------------
      LOOP:  cpu time    0.0640: real time    0.0722

 eigenvalue-minimisations  :    48
 total energy-change (2. order) :-0.1252773E+00  (-0.2961287E+01)
 number of electron       7.9999991 magnetization 
 augmentation part       -0.4958937 magnetization 

 Broyden mixing:
  rms(total) = 0.33004E+00    rms(broyden)= 0.33003E+00
  rms(prec ) = 0.10548E+01
  weight for this iteration     100.00

 Free energy of the ion-electron system (eV)
  ---------------------------------------------------
  alpha Z        PSCENC =         5.00151097
  Ewald energy   TEWEN  =      -275.36212350
  -Hartree energ DENC   =        -2.24761332
  -exchange      EXHF   =         0.00000000
  -V(xc)+E(xc)   XCENC  =       -16.99905052
  PAW double counting   =        69.83768667      -34.72820987
  entropy T*S    EENTRO =        -0.05641896
  eigenvalues    EBANDS =        36.26943484
  atomic energy  EATOM  =       206.12968587
  Solvation  Ediel_sol  =         0.00000000
  ---------------------------------------------------
  free energy    TOTEN  =       -12.15509782 eV

  energy without entropy =      -12.09867887  energy(sigma->0) =      -12.12688835


--------------------------------------------------------------------------------------------------------




--------------------------------------- Iteration      2(   2)  ---------------------------------------


    POTLOK:  cpu time    0.0200: real time    0.0341
    SETDIJ:  cpu time    0.0080: real time    0.0084
     EDDAV:  cpu time    0.0400: real time    0.0387
       DOS:  cpu time    0.0000: real time    0.0016
    CHARGE:  cpu time    0.0120: real time    0.0086
    MIXING:  cpu time    0.0000: real time    0.0015
    --------------------------------------------
      LOOP:  cpu time    0.0800: real time    0.0928

 eigenvalue-minimisations  :    72
 total energy-change (2. order) : 0.2696426E+00  (-0.4915507E-01)
 number of electron       7.9999991 magnetization 
 augmentation part       -0.4952152 magnetization 

 Broyden mixing:
  rms(total) = 0.19093E+00    rms(broyden)= 0.19093E+00
  rms(prec ) = 0.60764E+00
  weight for this iteration     100.00

 eigenvalues of (default mixing * dielectric matrix)
  average eigenvalue GAMMA=   2.3695
  2.3695

 Free energy of the ion-electron system (eV)
  ---------------------------------------------------
  alpha Z        PSCENC =         5.00151097
  Ewald energy   TEWEN  =      -275.36212350
  -Hartree energ DENC   =        -2.19744511
  -exchange      EXHF   =         0.00000000
  -V(xc)+E(xc)   XCENC  =       -16.94026546
  PAW double counting   =        72.42886112      -37.38656862
  entropy T*S    EENTRO =        -0.05641896
  eigenvalues    EBANDS =        36.49730845
  atomic energy  EATOM  =       206.12968587
  Solvation  Ediel_sol  =         0.00000000
  ---------------------------------------------------
  free energy    TOTEN  =       -11.88545523 eV

  energy without entropy =      -11.82903627  energy(sigma->0) =      -11.85724575


--------------------------------------------------------------------------------------------------------




--------------------------------------- Iteration      2(   3)  ---------------------------------------


    POTLOK:  cpu time    0.0200: real time    0.0270
    SETDIJ:  cpu time    0.0080: real time    0.0085
     EDDAV:  cpu time    0.0280: real time    0.0289
       DOS:  cpu time    0.0000: real time    0.0024
    CHARGE:  cpu time    0.0120: real time    0.0087
    MIXING:  cpu time    0.0000: real time    0.0015
    --------------------------------------------
      LOOP:  cpu time    0.0680: real time    0.0771

 eigenvalue-minimisations  :    56
 total energy-change (2. order) : 0.1402601E+00  (-0.3263516E-01)
 number of electron       7.9999991 magnetization 
 augmentation part       -0.4942325 magnetization 

 Broyden mixing:
  rms(total) = 0.18567E-01    rms(broyden)= 0.18567E-01
  rms(prec ) = 0.53169E-01
  weight for this iteration     100.00

 eigenvalues of (default mixing * dielectric matrix)
  average eigenvalue GAMMA=   1.3292
  2.3540  0.3044

 Free energy of the ion-electron system (eV)
  ---------------------------------------------------
  alpha Z        PSCENC =         5.00151097
  Ewald energy   TEWEN  =      -275.36212350
  -Hartree energ DENC   =        -2.59136483
  -exchange      EXHF   =         0.00000000
  -V(xc)+E(xc)   XCENC  =       -16.79609952
  PAW double counting   =        76.01561666      -41.06659199
  entropy T*S    EENTRO =        -0.05641896
  eigenvalues    EBANDS =        36.98059019
  atomic energy  EATOM  =       206.12968587
  Solvation  Ediel_sol  =         0.00000000
  ---------------------------------------------------
  free energy    TOTEN  =       -11.74519511 eV

  energy without entropy =      -11.68877615  energy(sigma->0) =      -11.71698563


--------------------------------------------------------------------------------------------------------




--------------------------------------- Iteration      2(   4)  ---------------------------------------


    POTLOK:  cpu time    0.0200: real time    0.0320
    SETDIJ:  cpu time    0.0080: real time    0.0085
     EDDAV:  cpu time    0.0240: real time    0.0252
       DOS:  cpu time    0.0040: real time    0.0021
    CHARGE:  cpu time    0.0080: real time    0.0087
    MIXING:  cpu time    0.0000: real time    0.0016
    --------------------------------------------
      LOOP:  cpu time    0.0640: real time    0.0781

 eigenvalue-minimisations  :    48
 total energy-change (2. order) :-0.7915946E-03  (-0.9697314E-03)
 number of electron       7.9999991 magnetization 
 augmentation part       -0.4944675 magnetization 

 Broyden mixing:
  rms(total) = 0.18351E-01    rms(broyden)= 0.18351E-01
  rms(prec ) = 0.49896E-01
  weight for this iteration     100.00

 eigenvalues of (default mixing * dielectric matrix)
  average eigenvalue GAMMA=   1.0983
  2.3547  0.4701  0.4701

 Free energy of the ion-electron system (eV)
  ---------------------------------------------------
  alpha Z        PSCENC =         5.00151097
  Ewald energy   TEWEN  =      -275.36212350
  -Hartree energ DENC   =        -2.58124685
  -exchange      EXHF   =         0.00000000
  -V(xc)+E(xc)   XCENC  =       -16.79715904
  PAW double counting   =        75.97819686      -41.02831007
  entropy T*S    EENTRO =        -0.05641896
  eigenvalues    EBANDS =        36.96987801
  atomic energy  EATOM  =       206.12968587
  Solvation  Ediel_sol  =         0.00000000
  ---------------------------------------------------
  free energy    TOTEN  =       -11.74598670 eV

  energy without entropy =      -11.68956774  energy(sigma->0) =      -11.71777722


--------------------------------------------------------------------------------------------------------




--------------------------------------- Iteration      2(   5)  ---------------------------------------


    POTLOK:  cpu time    0.0200: real time    0.0486
    SETDIJ:  cpu time    0.0080: real time    0.0084
     EDDAV:  cpu time    0.0280: real time    0.0260
       DOS:  cpu time    0.0000: real time    0.0030
    --------------------------------------------
      LOOP:  cpu time    0.0560: real time    0.0860

 eigenvalue-minimisations  :    48
 total energy-change (2. order) : 0.1710303E-03  (-0.8482260E-05)
 number of electron       7.9999991 magnetization 
 augmentation part       -0.4944675 magnetization 

 Free energy of the ion-electron system (eV)
  ---------------------------------------------------
  alpha Z        PSCENC =         5.00151097
  Ewald energy   TEWEN  =      -275.36212350
  -Hartree energ DENC   =        -2.56774219
  -exchange      EXHF   =         0.00000000
  -V(xc)+E(xc)   XCENC  =       -16.79738450
  PAW double counting   =        75.97317558      -41.02319733
  entropy T*S    EENTRO =        -0.05641896
  eigenvalues    EBANDS =        36.95667838
  atomic energy  EATOM  =       206.12968587
  Solvation  Ediel_sol  =         0.00000000
  ---------------------------------------------------
  free energy    TOTEN  =       -11.74581567 eV

  energy without entropy =      -11.68939671  energy(sigma->0) =      -11.71760619


--------------------------------------------------------------------------------------------------------




 average (electrostatic) potential at core
  the test charge radii are     0.9892
  (the norm of the test charge is              1.0000)
       1 -78.6746       2 -78.6746
 
 
 
 E-fermi :  11.6998     XC(G=0): -11.3913     alpha+bet :-17.8176


 k-point     1 :       0.2500    0.2500    0.2500
  band No.  band energies     occupation 
      1       3.2277      2.00000
      2       3.2277      2.00000
      3       4.8519      2.00000
      4       4.8519      2.00000
      5      15.6563      0.00000
      6      15.6563      0.00000
      7      18.3299      0.00000
      8      18.3299      0.00000

 k-point     2 :      -0.2500    0.2500    0.2500
  band No.  band energies     occupation 
      1      -2.2254      2.00000
      2       4.9124      2.00000
      3       5.1943      2.00000
      4      11.6998      1.00000
      5      14.7115      0.00000
      6      15.3256      0.00000
      7      19.2069      0.00000
      8      19.4817      0.00000

 k-point     3 :      -0.2500   -0.2500    0.2500
  band No.  band energies     occupation 
      1       0.2625      2.00000
      2       7.3838      2.00000
      3       7.3838      2.00000
      4       7.4719      2.00000
      5       7.7896      2.00000
      6      14.4297      0.00000
      7      14.4297      0.00000
      8      15.9716      0.00000


--------------------------------------------------------------------------------------------------------


 soft charge-density along one line, spin component           1
         0         1         2         3         4         5         6         7         8         9
 total charge-density along one line
 
 pseudopotential strength for first ion, spin component:           1
 17.873  -0.005  -0.000  -0.000   0.000   0.000   0.000  -0.000
 -0.005   0.005   0.000   0.000  -0.000  -0.000  -0.000   0.000
 -0.000   0.000   4.097   0.000   0.000  -0.007  -0.000  -0.000
 -0.000   0.000   0.000   4.098   0.000  -0.000  -0.007  -0.000
  0.000  -0.000   0.000   0.000   4.097  -0.000  -0.000  -0.007
  0.000  -0.000  -0.007  -0.000  -0.000   0.005   0.000   0.000
  0.000  -0.000  -0.000  -0.007  -0.000   0.000   0.005   0.000
 -0.000   0.000  -0.000  -0.000  -0.007   0.000   0.000   0.005
 total augmentation occupancy for first ion, spin component:           1
  1.685  -0.726  -0.000   0.000   0.000  -0.000   0.000   0.000
 -0.726   1.243   0.000   0.000   0.000   0.000   0.000   0.000
  0.000   0.000   1.030   0.000   0.000  -0.697   0.000   0.000
  0.000   0.000   0.000   0.758   0.000   0.000  -0.553   0.000
  0.000   0.000   0.000   0.000   1.030   0.000   0.000  -0.697
 -0.000   0.000  -0.697   0.000   0.000   0.584  -0.000   0.000
  0.000   0.000   0.000  -0.553   0.000  -0.000   0.463   0.000
  0.000   0.000   0.000   0.000  -0.697   0.000   0.000   0.584


------------------------ aborting loop because EDIFF is reached ----------------------------------------


    CHARGE:  cpu time    0.0040: real time    0.0036
    FORLOC:  cpu time    0.0000: real time    0.0003
    FORNL :  cpu time    0.0040: real time    0.0031
    STRESS:  cpu time    0.0120: real time    0.0116
    FORCOR:  cpu time    0.0040: real time    0.0055
    FORHAR:  cpu time    0.0040: real time    0.0013
    MIXING:  cpu time    0.0000: real time    0.0006
    OFIELD:  cpu time    0.0000: real time    0.0004

  FORCE on cell =-STRESS in cart. coord.  units (eV):
  Direction    XX          YY          ZZ          XY          YZ          ZX
  --------------------------------------------------------------------------------------
  Alpha Z     5.00151     5.00151     5.00151
  Ewald     -83.87321   -83.87321  -107.61588    -0.00000     0.00000    -0.00000
  Hartree     1.26725     1.26725    -0.07116    -0.00000    -0.00000    -0.00000
  E(xc)     -26.59750   -26.59750   -26.26067     0.00000     0.00000     0.00000
  Local     -21.41579   -21.41579     5.04913    -0.00003    -0.00003    -0.00003
  n-local    83.42177    82.90984    76.94237     0.00001     0.00003     0.00000
  augment   -12.73327   -12.73327   -12.04544     0.00003     0.00003     0.00003
  Kinetic    59.62703    64.72151    55.09839    -0.00000    -0.00000    -0.00000
  Fock        0.00000     0.00000     0.00000     0.00000     0.00000     0.00000
  -------------------------------------------------------------------------------------
  Total       6.98907     6.98907    -3.90175     0.00000    -0.00000    -0.00000
  in kB     415.92742   415.92742  -232.19757     0.00000    -0.00000    -0.00000
  external pressure =      199.89 kB  Pullay stress =        0.00 kB


 VOLUME and BASIS-vectors are now :
 -----------------------------------------------------------------------------
  energy-cutoff  :      300.00
  volume of cell :       26.92
      direct lattice vectors                 reciprocal lattice vectors
    -2.182379239  2.182379239  1.413162680     0.000000000  0.229107751  0.353816307
     2.182379239 -2.182379239  1.413162680     0.229107751  0.000000000  0.353816307
     2.182379239  2.182379239 -1.413162680     0.229107751  0.229107751  0.000000000

  length of vectors
     3.394493636  3.394493636  3.394493636     0.421516714  0.421516714  0.324007289


 FORCES acting on ions
    electron-ion (+dipol)            ewald-force                    non-local-force                 convergence-correction
 -----------------------------------------------------------------------------------------------
   -.114E-06 0.114E-06 -.259E-13   -.262E-13 0.461E-14 -.929E-14   -.287E-16 0.219E-16 0.119E-16   0.446E-07 -.446E-07 -.146E-15
   0.114E-06 -.114E-06 0.446E-14   0.262E-13 -.483E-14 0.938E-14   0.260E-16 -.180E-16 0.541E-17   -.446E-07 0.446E-07 -.923E-15
 -----------------------------------------------------------------------------------------------
   0.154E-13 0.982E-14 -.214E-13   0.120E-18 -.222E-15 0.806E-16   -.266E-17 0.391E-17 0.173E-16   0.313E-15 -.984E-17 -.107E-14
 
 
 POSITION                                       TOTAL-FORCE (eV/Angst)
 -----------------------------------------------------------------------------------
      2.18238     -0.00000      0.70658         0.000000     -0.000000     -0.000000
      0.00000      0.00000      0.00000        -0.000000      0.000000      0.000000
 -----------------------------------------------------------------------------------
    total drift:                                0.000000      0.000000     -0.000000


--------------------------------------------------------------------------------------------------------



  FREE ENERGIE OF THE ION-ELECTRON SYSTEM (eV)
  ---------------------------------------------------
  free  energy   TOTEN  =       -11.74581567 eV

  energy  without entropy=      -11.68939671  energy(sigma->0) =      -11.71760619
 
 d Force = 0.0000000E+00[ 0.000E+00, 0.000E+00]  d Energy =-0.2839644E+00 0.284E+00
 d Force = 0.0000000E+00[ 0.000E+00, 0.000E+00]  d Ewald  = 0.1018111E+02-0.102E+02


--------------------------------------------------------------------------------------------------------


    POTLOK:  cpu time    0.0200: real time    0.0742


--------------------------------------------------------------------------------------------------------


 Steepest descent step on ions:
 trial-energy change:    0.283964  1 .order    0.234548   -1.483977    1.953074
  (g-gl).g = 0.148E+01      g.g   = 0.148E+01  gl.gl    = 0.000E+00
 g(Force)  = 0.304E-46   g(Stress)= 0.148E+01 ortho     = 0.000E+00
 gamma     =   0.00000
 trial     =   1.00000
 opt step  =   0.41088  (harmonic =   0.43176) maximal distance =0.00000000
 next E    =   -12.331219   (d E  =  -0.30144)


--------------------------------------------------------------------------------------------------------


    WAVPRE:  cpu time    0.0040: real time    0.0201
    FEWALD:  cpu time    0.0000: real time    0.0004
    GENKIN:  cpu time    0.0040: real time    0.0007
    ORTHCH:  cpu time    0.0000: real time    0.0010
     LOOP+:  cpu time    0.4160: real time    0.6191


--------------------------------------- Iteration      3(   1)  ---------------------------------------


    POTLOK:  cpu time    0.0080: real time    0.0139
    SETDIJ:  cpu time    0.0040: real time    0.0043
     EDDAV:  cpu time    0.0080: real time    0.0108
       DOS:  cpu time    0.0040: real time    0.0012
    CHARGE:  cpu time    0.0000: real time    0.0035
    MIXING:  cpu time    0.0040: real time    0.0008
    --------------------------------------------
      LOOP:  cpu time    0.0280: real time    0.0349

 eigenvalue-minimisations  :    48
 total energy-change (2. order) :-0.7305911E+00  (-0.1011151E+01)
 number of electron       8.0000005 magnetization 
 augmentation part       -0.4793296 magnetization 

 Broyden mixing:
  rms(total) = 0.18087E+00    rms(broyden)= 0.18086E+00
  rms(prec ) = 0.55665E+00
  weight for this iteration     100.00

 Free energy of the ion-electron system (eV)
  ---------------------------------------------------
  alpha Z        PSCENC =         4.61817775
  Ewald energy   TEWEN  =      -269.47089064
  -Hartree energ DENC   =        -2.31178705
  -exchange      EXHF   =         0.00000000
  -V(xc)+E(xc)   XCENC  =       -17.22875334
  PAW double counting   =        75.92547057      -40.97508970
  entropy T*S    EENTRO =        -0.05641896
  eigenvalues    EBANDS =        30.89302765
  atomic energy  EATOM  =       206.12968587
  Solvation  Ediel_sol  =         0.00000000
  ---------------------------------------------------
  free energy    TOTEN  =       -12.47657785 eV

  energy without entropy =      -12.42015889  energy(sigma->0) =      -12.44836837


--------------------------------------------------------------------------------------------------------




--------------------------------------- Iteration      3(   2)  ---------------------------------------


    POTLOK:  cpu time    0.0080: real time    0.0277
    SETDIJ:  cpu time    0.0040: real time    0.0042
     EDDAV:  cpu time    0.0120: real time    0.0128
       DOS:  cpu time    0.0000: real time    0.0013
    CHARGE:  cpu time    0.0040: real time    0.0035
    MIXING:  cpu time    0.0000: real time    0.0008
    --------------------------------------------
      LOOP:  cpu time    0.0280: real time    0.0502

 eigenvalue-minimisations  :    56
 total energy-change (2. order) : 0.8211548E-01  (-0.1477661E-01)
 number of electron       8.0000005 magnetization 
 augmentation part       -0.4839882 magnetization 

 Broyden mixing:
  rms(total) = 0.10437E+00    rms(broyden)= 0.10437E+00
  rms(prec ) = 0.32024E+00
  weight for this iteration     100.00

 eigenvalues of (default mixing * dielectric matrix)
  average eigenvalue GAMMA=   2.3313
  2.3313

 Free energy of the ion-electron system (eV)
  ---------------------------------------------------
  alpha Z        PSCENC =         4.61817775
  Ewald energy   TEWEN  =      -269.47089064
  -Hartree energ DENC   =        -2.10970508
  -exchange      EXHF   =         0.00000000
  -V(xc)+E(xc)   XCENC  =       -17.28280697
  PAW double counting   =        73.93101800      -38.92704524
  entropy T*S    EENTRO =        -0.05641896
  eigenvalues    EBANDS =        30.77352290
  atomic energy  EATOM  =       206.12968587
  Solvation  Ediel_sol  =         0.00000000
  ---------------------------------------------------
  free energy    TOTEN  =       -12.39446237 eV

  energy without entropy =      -12.33804341  energy(sigma->0) =      -12.36625289


--------------------------------------------------------------------------------------------------------




--------------------------------------- Iteration      3(   3)  ---------------------------------------


    POTLOK:  cpu time    0.0120: real time    0.0179
    SETDIJ:  cpu time    0.0040: real time    0.0043
     EDDAV:  cpu time    0.0120: real time    0.0126
       DOS:  cpu time    0.0000: real time    0.0010
    CHARGE:  cpu time    0.0040: real time    0.0035
    MIXING:  cpu time    0.0000: real time    0.0010
    --------------------------------------------
      LOOP:  cpu time    0.0320: real time    0.0404

 eigenvalue-minimisations  :    56
 total energy-change (2. order) : 0.4465139E-01  (-0.1033378E-01)
 number of electron       8.0000005 magnetization 
 augmentation part       -0.4829029 magnetization 

 Broyden mixing:
  rms(total) = 0.10153E-01    rms(broyden)= 0.10153E-01
  rms(prec ) = 0.24497E-01
  weight for this iteration     100.00

 eigenvalues of (default mixing * dielectric matrix)
  average eigenvalue GAMMA=   1.5998
  0.9105  2.2891

 Free energy of the ion-electron system (eV)
  ---------------------------------------------------
  alpha Z        PSCENC =         4.61817775
  Ewald energy   TEWEN  =      -269.47089064
  -Hartree energ DENC   =        -2.02091302
  -exchange      EXHF   =         0.00000000
  -V(xc)+E(xc)   XCENC  =       -17.34264443
  PAW double counting   =        71.37904778      -36.31204214
  entropy T*S    EENTRO =        -0.05641896
  eigenvalues    EBANDS =        30.72618679
  atomic energy  EATOM  =       206.12968587
  Solvation  Ediel_sol  =         0.00000000
  ---------------------------------------------------
  free energy    TOTEN  =       -12.34981098 eV

  energy without entropy =      -12.29339202  energy(sigma->0) =      -12.32160150


--------------------------------------------------------------------------------------------------------




--------------------------------------- Iteration      3(   4)  ---------------------------------------


    POTLOK:  cpu time    0.0080: real time    0.0211
    SETDIJ:  cpu time    0.0040: real time    0.0043
     EDDAV:  cpu time    0.0120: real time    0.0106
       DOS:  cpu time    0.0000: real time    0.0015
    --------------------------------------------
      LOOP:  cpu time    0.0240: real time    0.0374

 eigenvalue-minimisations  :    48
 total energy-change (2. order) :-0.1661644E-03  (-0.2983748E-03)
 number of electron       8.0000005 magnetization 
 augmentation part       -0.4829029 magnetization 

 Free energy of the ion-electron system (eV)
  ---------------------------------------------------
  alpha Z        PSCENC =         4.61817775
  Ewald energy   TEWEN  =      -269.47089064
  -Hartree energ DENC   =        -2.03580373
  -exchange      EXHF   =         0.00000000
  -V(xc)+E(xc)   XCENC  =       -17.34252991
  PAW double counting   =        71.36966107      -36.30161020
  entropy T*S    EENTRO =        -0.05641896
  eigenvalues    EBANDS =        30.73975160
  atomic energy  EATOM  =       206.12968587
  Solvation  Ediel_sol  =         0.00000000
  ---------------------------------------------------
  free energy    TOTEN  =       -12.34997714 eV

  energy without entropy =      -12.29355819  energy(sigma->0) =      -12.32176766


--------------------------------------------------------------------------------------------------------




 average (electrostatic) potential at core
  the test charge radii are     0.9892
  (the norm of the test charge is              1.0000)
       1 -80.0093       2 -80.0093
 
 
 
 E-fermi :   9.7658     XC(G=0): -11.1048     alpha+bet :-16.4520


 k-point     1 :       0.2500    0.2500    0.2500
  band No.  band energies     occupation 
      1       3.1968      2.00000
      2       3.1968      2.00000
      3       4.3444      2.00000
      4       4.3444      2.00000
      5      14.0079      0.00000
      6      14.0079      0.00000
      7      16.1171      0.00000
      8      16.1171      0.00000

 k-point     2 :      -0.2500    0.2500    0.2500
  band No.  band energies     occupation 
      1      -2.8008      2.00000
      2       3.0523      2.00000
      3       4.1845      2.00000
      4       9.7658      1.00000
      5      14.4809      0.00000
      6      16.3295      0.00000
      7      17.3183      0.00000
      8      17.5203      0.00000

 k-point     3 :      -0.2500   -0.2500    0.2500
  band No.  band energies     occupation 
      1       0.5368      2.00000
      2       6.3489      2.00000
      3       6.5134      2.00000
      4       7.1802      2.00000
      5       7.1802      2.00000
      6      12.9630      0.00000
      7      12.9630      0.00000
      8      13.1194      0.00000


--------------------------------------------------------------------------------------------------------


 soft charge-density along one line, spin component           1
         0         1         2         3         4         5         6         7         8         9
 total charge-density along one line
 
 pseudopotential strength for first ion, spin component:           1
 18.004  -0.003   0.000  -0.000  -0.000  -0.000   0.000   0.000
 -0.003   0.005  -0.000   0.000   0.000   0.000  -0.000  -0.000
  0.000  -0.000   4.109   0.000   0.000  -0.006  -0.000  -0.000
 -0.000   0.000   0.000   4.110   0.000  -0.000  -0.006  -0.000
 -0.000   0.000   0.000   0.000   4.109  -0.000  -0.000  -0.006
 -0.000   0.000  -0.006  -0.000  -0.000   0.005   0.000   0.000
  0.000  -0.000  -0.000  -0.006  -0.000   0.000   0.005   0.000
  0.000  -0.000  -0.000  -0.000  -0.006   0.000   0.000   0.005
 total augmentation occupancy for first ion, spin component:           1
  1.663  -0.528  -0.000   0.000  -0.000  -0.000   0.000   0.000
 -0.528   0.861   0.000   0.000  -0.000   0.000   0.000  -0.000
  0.000   0.000   0.898  -0.000   0.000  -0.558  -0.000  -0.000
  0.000   0.000  -0.000   0.812  -0.000   0.000  -0.554  -0.000
  0.000  -0.000   0.000  -0.000   0.898  -0.000  -0.000  -0.558
 -0.000   0.000  -0.558   0.000  -0.000   0.433   0.000   0.000
  0.000   0.000  -0.000  -0.554  -0.000   0.000   0.407   0.000
  0.000  -0.000  -0.000  -0.000  -0.558   0.000   0.000   0.433


------------------------ aborting loop because EDIFF is reached ----------------------------------------


    CHARGE:  cpu time    0.0040: real time    0.0035
    FORLOC:  cpu time    0.0000: real time    0.0003
    FORNL :  cpu time    0.0040: real time    0.0033
    STRESS:  cpu time    0.0120: real time    0.0112
    FORCOR:  cpu time    0.0040: real time    0.0055
    FORHAR:  cpu time    0.0000: real time    0.0013
    MIXING:  cpu time    0.0040: real time    0.0005
    OFIELD:  cpu time    0.0000: real time    0.0005

  FORCE on cell =-STRESS in cart. coord.  units (eV):
  Direction    XX          YY          ZZ          XY          YZ          ZX
  --------------------------------------------------------------------------------------
  Alpha Z     4.61818     4.61818     4.61818
  Ewald     -87.56683   -87.56683   -94.33744     0.00000    -0.00000     0.00000
  Hartree     0.77523     0.77523     0.50223    -0.00000    -0.00000    -0.00000
  E(xc)     -25.72548   -25.72548   -25.51829     0.00000    -0.00000    -0.00000
  Local     -15.42065   -15.42065    -5.93258    -0.00003    -0.00003    -0.00003
  n-local    78.81703    79.17239    75.56761    -0.00002    -0.00000    -0.00001
  augment   -12.35300   -12.35300   -12.12053     0.00002     0.00002     0.00002
  Kinetic    54.96673    57.56418    56.85644    -0.00001    -0.00001    -0.00000
  Fock        0.00000     0.00000     0.00000     0.00000     0.00000     0.00000
  -------------------------------------------------------------------------------------
  Total      -0.41240    -0.41240    -0.36438    -0.00000    -0.00000    -0.00000
  in kB     -22.66152   -22.66152   -20.02250    -0.00000    -0.00000    -0.00000
  external pressure =      -21.78 kB  Pullay stress =        0.00 kB


 VOLUME and BASIS-vectors are now :
 -----------------------------------------------------------------------------
  energy-cutoff  :      300.00
  volume of cell :       29.16
      direct lattice vectors                 reciprocal lattice vectors
    -2.340040564  2.340040564  1.331178859     0.000000000  0.213671510  0.375606927
     2.340040564 -2.340040564  1.331178859     0.213671510  0.000000000  0.375606927
     2.340040564  2.340040564 -1.331178859     0.213671510  0.213671510  0.000000000

  length of vectors
     3.567017920  3.567017920  3.567017920     0.432129700  0.432129700  0.302177147


 FORCES acting on ions
    electron-ion (+dipol)            ewald-force                    non-local-force                 convergence-correction
 -----------------------------------------------------------------------------------------------
   0.697E-07 -.697E-07 -.170E-13   0.123E-13 -.119E-14 0.292E-14   0.366E-17 -.241E-17 -.821E-17   -.390E-07 0.390E-07 0.259E-16
   -.697E-07 0.697E-07 -.479E-14   -.122E-13 0.154E-14 -.240E-14   -.270E-17 0.907E-18 0.578E-17   0.390E-07 -.390E-07 0.214E-16
 -----------------------------------------------------------------------------------------------
   0.104E-13 0.524E-14 -.218E-13   0.169E-16 0.350E-15 0.518E-15   0.959E-18 -.150E-17 -.243E-17   0.670E-16 -.686E-16 0.473E-16
 
 
 POSITION                                       TOTAL-FORCE (eV/Angst)
 -----------------------------------------------------------------------------------
      2.34004      0.00000      0.66559         0.000000      0.000000      0.000000
      0.00000      0.00000      0.00000        -0.000000     -0.000000     -0.000000
 -----------------------------------------------------------------------------------
    total drift:                                0.000000      0.000000     -0.000000


--------------------------------------------------------------------------------------------------------



  FREE ENERGIE OF THE ION-ELECTRON SYSTEM (eV)
  ---------------------------------------------------
  free  energy   TOTEN  =       -12.34997714 eV

  energy  without entropy=      -12.29355819  energy(sigma->0) =      -12.32176766
 
 d Force = 0.0000000E+00[ 0.000E+00, 0.000E+00]  d Energy = 0.6041615E+00-0.604E+00
 d Force = 0.0000000E+00[ 0.000E+00, 0.000E+00]  d Ewald  =-0.5891233E+01 0.589E+01


--------------------------------------------------------------------------------------------------------


    POTLOK:  cpu time    0.0120: real time    0.0334


--------------------------------------------------------------------------------------------------------




--------------------------------------------------------------------------------------------------------


    WAVPRE:  cpu time    0.0080: real time    0.0201
    FEWALD:  cpu time    0.0000: real time    0.0004
    GENKIN:  cpu time    0.0000: real time    0.0007
    ORTHCH:  cpu time    0.0000: real time    0.0011
     LOOP+:  cpu time    0.1800: real time    0.3295


--------------------------------------- Iteration      4(   1)  ---------------------------------------


    POTLOK:  cpu time    0.0080: real time    0.0135
    SETDIJ:  cpu time    0.0040: real time    0.0043
     EDDAV:  cpu time    0.0120: real time    0.0110
       DOS:  cpu time    0.0000: real time    0.0014
    CHARGE:  cpu time    0.0040: real time    0.0035
    MIXING:  cpu time    0.0000: real time    0.0007
    --------------------------------------------
      LOOP:  cpu time    0.0280: real time    0.0349

 eigenvalue-minimisations  :    48
 total energy-change (2. order) :-0.6901383E-03  (-0.6365473E-03)
 number of electron       8.0000006 magnetization 
 augmentation part       -0.4824723 magnetization 

 Broyden mixing:
  rms(total) = 0.51457E-02    rms(broyden)= 0.51456E-02
  rms(prec ) = 0.15757E-01
  weight for this iteration     100.00

 Free energy of the ion-electron system (eV)
  ---------------------------------------------------
  alpha Z        PSCENC =         4.62668677
  Ewald energy   TEWEN  =      -269.62114985
  -Hartree energ DENC   =        -2.05478865
  -exchange      EXHF   =         0.00000000
  -V(xc)+E(xc)   XCENC  =       -17.33589533
  PAW double counting   =        71.20451268      -36.13082608
  entropy T*S    EENTRO =        -0.05641896
  eigenvalues    EBANDS =        30.88769244
  atomic energy  EATOM  =       206.12968587
  Solvation  Ediel_sol  =         0.00000000
  ---------------------------------------------------
  free energy    TOTEN  =       -12.35050112 eV

  energy without entropy =      -12.29408216  energy(sigma->0) =      -12.32229164


--------------------------------------------------------------------------------------------------------




--------------------------------------- Iteration      4(   2)  ---------------------------------------


    POTLOK:  cpu time    0.0120: real time    0.0206
    SETDIJ:  cpu time    0.0040: real time    0.0042
     EDDAV:  cpu time    0.0040: real time    0.0066
       DOS:  cpu time    0.0000: real time    0.0029
    --------------------------------------------
      LOOP:  cpu time    0.0200: real time    0.0343

 eigenvalue-minimisations  :    24
 total energy-change (2. order) : 0.6675386E-04  (-0.1007169E-04)
 number of electron       8.0000006 magnetization 
 augmentation part       -0.4824723 magnetization 

 Free energy of the ion-electron system (eV)
  ---------------------------------------------------
  alpha Z        PSCENC =         4.62668677
  Ewald energy   TEWEN  =      -269.62114985
  -Hartree energ DENC   =        -2.05365463
  -exchange      EXHF   =         0.00000000
  -V(xc)+E(xc)   XCENC  =       -17.33504639
  PAW double counting   =        71.24019183      -36.16733420
  entropy T*S    EENTRO =        -0.05641896
  eigenvalues    EBANDS =        30.88660519
  atomic energy  EATOM  =       206.12968587
  Solvation  Ediel_sol  =         0.00000000
  ---------------------------------------------------
  free energy    TOTEN  =       -12.35043436 eV

  energy without entropy =      -12.29401541  energy(sigma->0) =      -12.32222488


--------------------------------------------------------------------------------------------------------




 average (electrostatic) potential at core
  the test charge radii are     0.9892
  (the norm of the test charge is              1.0000)
       1 -79.9612       2 -79.9612
 
 
 
 E-fermi :   9.8145     XC(G=0): -11.1100     alpha+bet :-16.4823


 k-point     1 :       0.2500    0.2500    0.2500
  band No.  band energies     occupation 
      1       3.1947      2.00000
      2       3.1947      2.00000
      3       4.3584      2.00000
      4       4.3584      2.00000
      5      14.0444      0.00000
      6      14.0444      0.00000
      7      16.1650      0.00000
      8      16.1650      0.00000

 k-point     2 :      -0.2500    0.2500    0.2500
  band No.  band energies     occupation 
      1      -2.7857      2.00000
      2       3.0998      2.00000
      3       4.2060      2.00000
      4       9.8145      1.00000
      5      14.5291      0.00000
      6      16.3014      0.00000
      7      17.3648      0.00000
      8      17.5247      0.00000

 k-point     3 :      -0.2500   -0.2500    0.2500
  band No.  band energies     occupation 
      1       0.5292      2.00000
      2       6.3773      2.00000
      3       6.5454      2.00000
      4       7.1802      2.00000
      5       7.1802      2.00000
      6      12.9943      0.00000
      7      12.9943      0.00000
      8      13.1905      0.00000


--------------------------------------------------------------------------------------------------------


 soft charge-density along one line, spin component           1
         0         1         2         3         4         5         6         7         8         9
 total charge-density along one line
 
 pseudopotential strength for first ion, spin component:           1
 17.997  -0.003   0.000  -0.000  -0.000  -0.000   0.000   0.000
 -0.003   0.005  -0.000   0.000   0.000   0.000  -0.000  -0.000
  0.000  -0.000   4.107   0.000   0.000  -0.006  -0.000  -0.000
 -0.000   0.000   0.000   4.108   0.000  -0.000  -0.006  -0.000
 -0.000   0.000   0.000   0.000   4.107  -0.000  -0.000  -0.006
 -0.000   0.000  -0.006  -0.000  -0.000   0.005   0.000   0.000
  0.000  -0.000  -0.000  -0.006  -0.000   0.000   0.005   0.000
  0.000  -0.000  -0.000  -0.000  -0.006   0.000   0.000   0.005
 total augmentation occupancy for first ion, spin component:           1
  1.662  -0.547  -0.000   0.000  -0.000   0.000   0.000   0.000
 -0.547   0.889   0.000   0.000   0.000  -0.000   0.000   0.000
  0.000   0.000   0.901   0.000   0.000  -0.557   0.000   0.000
  0.000   0.000   0.000   0.806  -0.000   0.000  -0.564   0.000
 -0.000   0.000   0.000  -0.000   0.901   0.000   0.000  -0.557
 -0.000   0.000  -0.557   0.000   0.000   0.427   0.000  -0.000
  0.000   0.000   0.000  -0.564   0.000   0.000   0.425  -0.000
  0.000   0.000   0.000   0.000  -0.557  -0.000  -0.000   0.427


------------------------ aborting loop because EDIFF is reached ----------------------------------------


    CHARGE:  cpu time    0.0000: real time    0.0035
    FORLOC:  cpu time    0.0040: real time    0.0003
    FORNL :  cpu time    0.0000: real time    0.0030
    STRESS:  cpu time    0.0120: real time    0.0112
    FORCOR:  cpu time    0.0040: real time    0.0054
    FORHAR:  cpu time    0.0040: real time    0.0012
    MIXING:  cpu time    0.0000: real time    0.0005
    OFIELD:  cpu time    0.0000: real time    0.0003

  FORCE on cell =-STRESS in cart. coord.  units (eV):
  Direction    XX          YY          ZZ          XY          YZ          ZX
  --------------------------------------------------------------------------------------
  Alpha Z     4.62669     4.62669     4.62669
  Ewald     -87.45632   -87.45632   -94.70873    -0.00000    -0.00000    -0.00000
  Hartree     0.78577     0.78577     0.47963    -0.00000    -0.00000    -0.00000
  E(xc)     -25.75029   -25.75029   -25.54177     0.00001     0.00000     0.00000
  Local     -15.58932   -15.58932    -5.53939    -0.00003    -0.00003    -0.00003
  n-local    78.88720    79.21886    75.49666    -0.00001    -0.00001    -0.00001
  augment   -12.34759   -12.34759   -12.10491     0.00003     0.00003     0.00003
  Kinetic    55.07618    57.70470    56.75689    -0.00001    -0.00000    -0.00000
  Fock        0.00000     0.00000     0.00000     0.00000     0.00000     0.00000
  -------------------------------------------------------------------------------------
  Total      -0.28760    -0.28760    -0.53492    -0.00000     0.00000    -0.00000
  in kB     -15.83271   -15.83271   -29.44798    -0.00000     0.00000    -0.00000
  external pressure =      -20.37 kB  Pullay stress =        0.00 kB


 VOLUME and BASIS-vectors are now :
 -----------------------------------------------------------------------------
  energy-cutoff  :      300.00
[...]
  -exchange      EXHF   =         0.00000000
  -V(xc)+E(xc)   XCENC  =       -17.33364749
  PAW double counting   =        71.29690678      -36.22541493
  entropy T*S    EENTRO =        -0.05641896
  eigenvalues    EBANDS =        30.88377954
  atomic energy  EATOM  =       206.12968587
  Solvation  Ediel_sol  =         0.00000000
  ---------------------------------------------------
  free energy    TOTEN  =       -12.35040152 eV

  energy without entropy =      -12.29398256  energy(sigma->0) =      -12.32219204


--------------------------------------------------------------------------------------------------------




 average (electrostatic) potential at core
  the test charge radii are     0.9892
  (the norm of the test charge is              1.0000)
       1 -79.9676       2 -79.9676
 
 
 
 E-fermi :   9.8146     XC(G=0): -11.1105     alpha+bet :-16.4823


 k-point     1 :       0.2500    0.2500    0.2500
  band No.  band energies     occupation 
      1       3.1958      2.00000
      2       3.1958      2.00000
      3       4.3562      2.00000
      4       4.3562      2.00000
      5      14.0446      0.00000
      6      14.0446      0.00000
      7      16.1646      0.00000
      8      16.1646      0.00000

 k-point     2 :      -0.2500    0.2500    0.2500
  band No.  band energies     occupation 
      1      -2.7862      2.00000
      2       3.0978      2.00000
      3       4.2075      2.00000
      4       9.8146      1.00000
      5      14.5267      0.00000
      6      16.2994      0.00000
      7      17.3673      0.00000
      8      17.5225      0.00000

 k-point     3 :      -0.2500   -0.2500    0.2500
  band No.  band energies     occupation 
      1       0.5292      2.00000
      2       6.3750      2.00000
      3       6.5425      2.00000
      4       7.1820      2.00000
      5       7.1820      2.00000
      6      12.9937      0.00000
      7      12.9937      0.00000
      8      13.1862      0.00000


--------------------------------------------------------------------------------------------------------


 soft charge-density along one line, spin component           1
         0         1         2         3         4         5         6         7         8         9
 total charge-density along one line
 
 pseudopotential strength for first ion, spin component:           1
 17.999  -0.003   0.000  -0.000  -0.000  -0.000   0.000   0.000
 -0.003   0.005  -0.000   0.000   0.000   0.000  -0.000  -0.000
  0.000  -0.000   4.107   0.000   0.000  -0.006  -0.000  -0.000
 -0.000   0.000   0.000   4.108   0.000  -0.000  -0.006  -0.000
 -0.000   0.000   0.000   0.000   4.107  -0.000  -0.000  -0.006
 -0.000   0.000  -0.006  -0.000  -0.000   0.005   0.000   0.000
  0.000  -0.000  -0.000  -0.006  -0.000   0.000   0.005   0.000
  0.000  -0.000  -0.000  -0.000  -0.006   0.000   0.000   0.005
 total augmentation occupancy for first ion, spin component:           1
  1.662  -0.547   0.000   0.000  -0.000   0.000   0.000   0.000
 -0.547   0.890  -0.000   0.000   0.000   0.000   0.000   0.000
  0.000   0.000   0.901   0.000   0.000  -0.556   0.000  -0.000
  0.000   0.000   0.000   0.806  -0.000  -0.000  -0.565   0.000
 -0.000   0.000   0.000  -0.000   0.901  -0.000   0.000  -0.556
  0.000   0.000  -0.556  -0.000  -0.000   0.426   0.000   0.000
  0.000   0.000   0.000  -0.565   0.000   0.000   0.427  -0.000
  0.000   0.000  -0.000   0.000  -0.556   0.000  -0.000   0.426


------------------------ aborting loop because EDIFF is reached ----------------------------------------


    CHARGE:  cpu time    0.0080: real time    0.0099
    FORLOC:  cpu time    0.0000: real time    0.0004
    FORNL :  cpu time    0.0080: real time    0.0060
    STRESS:  cpu time    0.0240: real time    0.0238
    FORCOR:  cpu time    0.0120: real time    0.0109
    FORHAR:  cpu time    0.0000: real time    0.0026
    MIXING:  cpu time    0.0000: real time    0.0008
    OFIELD:  cpu time    0.0040: real time    0.0004

  FORCE on cell =-STRESS in cart. coord.  units (eV):
  Direction    XX          YY          ZZ          XY          YZ          ZX
  --------------------------------------------------------------------------------------
  Alpha Z     4.62669     4.62669     4.62669
  Ewald     -87.45631   -87.45631   -94.70877    -0.00000     0.00000    -0.00000
  Hartree     0.78429     0.78429     0.48224    -0.00000    -0.00000    -0.00000
  E(xc)     -25.74661   -25.74661   -25.54235     0.00001     0.00000     0.00000
  Local     -15.56387   -15.56387    -5.59598    -0.00003    -0.00003    -0.00003
  n-local    78.88159    79.21570    75.53296    -0.00001    -0.00001    -0.00001
  augment   -12.35132   -12.35132   -12.10702     0.00003     0.00002     0.00002
  Kinetic    55.08166    57.70916    56.75224    -0.00001    -0.00000    -0.00000
  Fock        0.00000     0.00000     0.00000     0.00000     0.00000     0.00000
  -------------------------------------------------------------------------------------
  Total      -0.26308    -0.26308    -0.55998    -0.00000     0.00000    -0.00000
  in kB     -14.48291   -14.48291   -30.82778    -0.00000     0.00000    -0.00000
  external pressure =      -19.93 kB  Pullay stress =        0.00 kB


 VOLUME and BASIS-vectors are now :
 -----------------------------------------------------------------------------
  energy-cutoff  :      300.00
  volume of cell :       29.10
      direct lattice vectors                 reciprocal lattice vectors
    -2.336082070  2.336082070  1.333237274    -0.000000000  0.214033576  0.375027019
     2.336082070 -2.336082070  1.333237274     0.214033576 -0.000000000  0.375027019
     2.336082070  2.336082070 -1.333237274     0.214033576  0.214033576 -0.000000000

  length of vectors
     3.562594631  3.562594631  3.562594631     0.431805091  0.431805091  0.302689186


 FORCES acting on ions
    electron-ion (+dipol)            ewald-force                    non-local-force                 convergence-correction
 -----------------------------------------------------------------------------------------------
   0.474E-07 -.474E-07 -.108E-13   -.705E-14 0.390E-14 -.742E-14   -.441E-17 -.221E-17 -.104E-16   -.890E-12 0.890E-12 0.122E-16
   -.474E-07 0.474E-07 -.171E-14   0.709E-14 -.387E-14 0.806E-14   0.816E-17 -.946E-18 0.941E-17   0.890E-12 -.890E-12 0.148E-15
 -----------------------------------------------------------------------------------------------
   0.841E-14 0.438E-14 -.126E-13   0.369E-16 0.361E-16 0.644E-15   0.375E-17 -.315E-17 -.969E-18   0.967E-16 -.253E-16 0.160E-15
 
 
 POSITION                                       TOTAL-FORCE (eV/Angst)
 -----------------------------------------------------------------------------------
      2.33608     -0.00000      0.66662         0.000000     -0.000000     -0.000000
      0.00000      0.00000      0.00000        -0.000000      0.000000      0.000000
 -----------------------------------------------------------------------------------
    total drift:                                0.000000      0.000000     -0.000000


--------------------------------------------------------------------------------------------------------



  FREE ENERGIE OF THE ION-ELECTRON SYSTEM (eV)
  ---------------------------------------------------
  free  energy   TOTEN  =       -12.35040152 eV

  energy  without entropy=      -12.29398256  energy(sigma->0) =      -12.32219204
 
 d Force = 0.0000000E+00[ 0.000E+00, 0.000E+00]  d Energy =-0.3912049E-08 0.391E-08
 d Force = 0.0000000E+00[ 0.000E+00, 0.000E+00]  d Ewald  =-0.1700605E-04 0.170E-04


--------------------------------------------------------------------------------------------------------


    POTLOK:  cpu time    0.0200: real time    0.0451


--------------------------------------------------------------------------------------------------------




--------------------------------------------------------------------------------------------------------


    WAVPRE:  cpu time    0.0080: real time    0.0220
    FEWALD:  cpu time    0.0000: real time    0.0005
    GENKIN:  cpu time    0.0040: real time    0.0010
    ORTHCH:  cpu time    0.0000: real time    0.0017
     LOOP+:  cpu time    0.1840: real time    0.3629


--------------------------------------- Iteration     15(   1)  ---------------------------------------


    POTLOK:  cpu time    0.0160: real time    0.0216
    SETDIJ:  cpu time    0.0040: real time    0.0045
     EDDAV:  cpu time    0.0120: real time    0.0108
       DOS:  cpu time    0.0000: real time    0.0023
    CHARGE:  cpu time    0.0040: real time    0.0067
    MIXING:  cpu time    0.0040: real time    0.0020
    --------------------------------------------
      LOOP:  cpu time    0.0400: real time    0.0485

 eigenvalue-minimisations  :    24
 total energy-change (2. order) : 0.2739483E-08  (-0.1565359E-11)
 number of electron       8.0000006 magnetization 
 augmentation part       -0.4825197 magnetization 

 Broyden mixing:
  rms(total) = 0.10389E-05    rms(broyden)= 0.29269E-06
  rms(prec ) = 0.90230E-06
  weight for this iteration     100.00
  WARNING: grid for Broyden might be to small

 Free energy of the ion-electron system (eV)
  ---------------------------------------------------
  alpha Z        PSCENC =         4.62668725
  Ewald energy   TEWEN  =      -269.62115836
  -Hartree energ DENC   =        -2.05081318
  -exchange      EXHF   =         0.00000000
  -V(xc)+E(xc)   XCENC  =       -17.33364819
  PAW double counting   =        71.29690177      -36.22540980
  entropy T*S    EENTRO =        -0.05641896
  eigenvalues    EBANDS =        30.88377207
  atomic energy  EATOM  =       206.12968587
  Solvation  Ediel_sol  =         0.00000000
  ---------------------------------------------------
  free energy    TOTEN  =       -12.35040151 eV

  energy without entropy =      -12.29398256  energy(sigma->0) =      -12.32219204


--------------------------------------------------------------------------------------------------------




--------------------------------------- Iteration     15(   2)  ---------------------------------------


    POTLOK:  cpu time    0.0160: real time    0.0264
    SETDIJ:  cpu time    0.0040: real time    0.0045
     EDDAV:  cpu time    0.0120: real time    0.0108
       DOS:  cpu time    0.0000: real time    0.0012
    --------------------------------------------
      LOOP:  cpu time    0.0320: real time    0.0427

 eigenvalue-minimisations  :    24
 total energy-change (2. order) :-0.6456844E-09  (-0.3808065E-13)
 number of electron       8.0000006 magnetization 
 augmentation part       -0.4825197 magnetization 

 Free energy of the ion-electron system (eV)
  ---------------------------------------------------
  alpha Z        PSCENC =         4.62668725
  Ewald energy   TEWEN  =      -269.62115836
  -Hartree energ DENC   =        -2.05081323
  -exchange      EXHF   =         0.00000000
  -V(xc)+E(xc)   XCENC  =       -17.33364824
  PAW double counting   =        71.29689986      -36.22540783
  entropy T*S    EENTRO =        -0.05641896
  eigenvalues    EBANDS =        30.88377210
  atomic energy  EATOM  =       206.12968587
  Solvation  Ediel_sol  =         0.00000000
  ---------------------------------------------------
  free energy    TOTEN  =       -12.35040151 eV

  energy without entropy =      -12.29398256  energy(sigma->0) =      -12.32219204


--------------------------------------------------------------------------------------------------------




 average (electrostatic) potential at core
  the test charge radii are     0.9892
  (the norm of the test charge is              1.0000)
       1 -79.9676       2 -79.9676
 
 
 
 E-fermi :   9.8146     XC(G=0): -11.1105     alpha+bet :-16.4823


 k-point     1 :       0.2500    0.2500    0.2500
  band No.  band energies     occupation 
      1       3.1958      2.00000
      2       3.1958      2.00000
      3       4.3562      2.00000
      4       4.3562      2.00000
      5      14.0446      0.00000
      6      14.0446      0.00000
      7      16.1646      0.00000
      8      16.1646      0.00000

 k-point     2 :      -0.2500    0.2500    0.2500
  band No.  band energies     occupation 
      1      -2.7862      2.00000
      2       3.0978      2.00000
      3       4.2075      2.00000
      4       9.8146      1.00000
      5      14.5267      0.00000
      6      16.2994      0.00000
      7      17.3673      0.00000
      8      17.5225      0.00000

 k-point     3 :      -0.2500   -0.2500    0.2500
  band No.  band energies     occupation 
      1       0.5292      2.00000
      2       6.3750      2.00000
      3       6.5425      2.00000
      4       7.1820      2.00000
      5       7.1820      2.00000
      6      12.9937      0.00000
      7      12.9937      0.00000
      8      13.1862      0.00000


--------------------------------------------------------------------------------------------------------


 soft charge-density along one line, spin component           1
         0         1         2         3         4         5         6         7         8         9
 total charge-density along one line
 
 pseudopotential strength for first ion, spin component:           1
 17.999  -0.003   0.000  -0.000  -0.000  -0.000   0.000   0.000
 -0.003   0.005  -0.000   0.000   0.000   0.000  -0.000  -0.000
  0.000  -0.000   4.107   0.000   0.000  -0.006  -0.000  -0.000
 -0.000   0.000   0.000   4.108   0.000  -0.000  -0.006  -0.000
 -0.000   0.000   0.000   0.000   4.107  -0.000  -0.000  -0.006
 -0.000   0.000  -0.006  -0.000  -0.000   0.005   0.000   0.000
  0.000  -0.000  -0.000  -0.006  -0.000   0.000   0.005   0.000
  0.000  -0.000  -0.000  -0.000  -0.006   0.000   0.000   0.005
 total augmentation occupancy for first ion, spin component:           1
  1.662  -0.547   0.000   0.000   0.000   0.000   0.000   0.000
 -0.547   0.890  -0.000   0.000   0.000   0.000   0.000   0.000
  0.000   0.000   0.901   0.000   0.000  -0.556   0.000   0.000
  0.000   0.000   0.000   0.806   0.000   0.000  -0.565   0.000
  0.000   0.000   0.000   0.000   0.901   0.000   0.000  -0.556
  0.000   0.000  -0.556   0.000   0.000   0.426  -0.000   0.000
  0.000   0.000   0.000  -0.565   0.000  -0.000   0.427   0.000
  0.000   0.000   0.000   0.000  -0.556   0.000   0.000   0.426


------------------------ aborting loop because EDIFF is reached ----------------------------------------


    CHARGE:  cpu time    0.0120: real time    0.0091
    FORLOC:  cpu time    0.0000: real time    0.0004
    FORNL :  cpu time    0.0040: real time    0.0061
    STRESS:  cpu time    0.0240: real time    0.0237
    FORCOR:  cpu time    0.0120: real time    0.0108
    FORHAR:  cpu time    0.0000: real time    0.0026
    MIXING:  cpu time    0.0000: real time    0.0008
    OFIELD:  cpu time    0.0000: real time    0.0004

  FORCE on cell =-STRESS in cart. coord.  units (eV):
  Direction    XX          YY          ZZ          XY          YZ          ZX
  --------------------------------------------------------------------------------------
  Alpha Z     4.62669     4.62669     4.62669
  Ewald     -87.45632   -87.45632   -94.70875    -0.00000     0.00000     0.00000
  Hartree     0.78429     0.78429     0.48224    -0.00000    -0.00000    -0.00000
  E(xc)     -25.74661   -25.74661   -25.54235     0.00001     0.00000     0.00000
  Local     -15.56386   -15.56386    -5.59600    -0.00003    -0.00003    -0.00003
  n-local    78.88159    79.21570    75.53296    -0.00001    -0.00001    -0.00001
  augment   -12.35132   -12.35132   -12.10702     0.00003     0.00002     0.00002
  Kinetic    55.08166    57.70915    56.75224    -0.00001    -0.00000    -0.00000
  Fock        0.00000     0.00000     0.00000     0.00000     0.00000     0.00000
  -------------------------------------------------------------------------------------
  Total      -0.26309    -0.26309    -0.55997    -0.00000     0.00000     0.00000
  in kB     -14.48349   -14.48349   -30.82725    -0.00000     0.00000     0.00000
  external pressure =      -19.93 kB  Pullay stress =        0.00 kB


 VOLUME and BASIS-vectors are now :
 -----------------------------------------------------------------------------
  energy-cutoff  :      300.00
  volume of cell :       29.10
      direct lattice vectors                 reciprocal lattice vectors
    -2.336082294  2.336082294  1.333237158    -0.000000000  0.214033556  0.375027051
     2.336082294 -2.336082294  1.333237158     0.214033556 -0.000000000  0.375027051
     2.336082294  2.336082294 -1.333237158     0.214033556  0.214033556 -0.000000000

  length of vectors
     3.562594882  3.562594882  3.562594882     0.431805109  0.431805109  0.302689157


 FORCES acting on ions
    electron-ion (+dipol)            ewald-force                    non-local-force                 convergence-correction
 -----------------------------------------------------------------------------------------------
   0.474E-07 -.474E-07 -.135E-13   0.332E-15 -.894E-15 0.524E-15   -.243E-19 0.239E-17 0.125E-16   -.445E-12 0.445E-12 -.948E-16
   -.474E-07 0.474E-07 -.409E-14   -.454E-15 0.883E-15 -.796E-15   -.164E-17 -.810E-20 -.140E-16   0.445E-12 -.445E-12 -.158E-15
 -----------------------------------------------------------------------------------------------
   0.874E-14 0.519E-14 -.175E-13   -.122E-15 -.107E-16 -.272E-15   -.167E-17 0.238E-17 -.148E-17   0.150E-15 0.555E-17 -.253E-15
 
 
 POSITION                                       TOTAL-FORCE (eV/Angst)
 -----------------------------------------------------------------------------------
      2.33608      0.00000      0.66662         0.000000      0.000000     -0.000000
      0.00000      0.00000      0.00000        -0.000000     -0.000000      0.000000
 -----------------------------------------------------------------------------------
    total drift:                                0.000000      0.000000     -0.000000


--------------------------------------------------------------------------------------------------------



  FREE ENERGIE OF THE ION-ELECTRON SYSTEM (eV)
  ---------------------------------------------------
  free  energy   TOTEN  =       -12.35040151 eV

  energy  without entropy=      -12.29398256  energy(sigma->0) =      -12.32219204
 
 d Force = 0.0000000E+00[ 0.000E+00, 0.000E+00]  d Energy =-0.1094094E-08 0.109E-08
 d Force = 0.0000000E+00[ 0.000E+00, 0.000E+00]  d Ewald  =-0.8503025E-05 0.850E-05


--------------------------------------------------------------------------------------------------------


    POTLOK:  cpu time    0.0240: real time    0.0405


--------------------------------------------------------------------------------------------------------




--------------------------------------------------------------------------------------------------------


 writing wavefunctions
     LOOP+:  cpu time    0.1880: real time    0.3368
    4ORBIT:  cpu time    0.0000: real time    0.0000

 total amount of memory used by VASP MPI-rank0    30638. kBytes
=======================================================================

   base      :      30000. kBytes
   nonl-proj :         82. kBytes
   fftplans  :        160. kBytes
   grid      :        372. kBytes
   one-center:          6. kBytes
   wavefun   :         18. kBytes
 
  
  
 General timing and accounting informations for this job:
 ========================================================
  
                  Total CPU time used (sec):        7.672
                            User time (sec):        5.384
                          System time (sec):        2.288
                         Elapsed time (sec):       14.241
  
                   Maximum memory used (kb):        9828.
                   Average memory used (kb):           0.
  
                          Minor page faults:        38191
                          Major page faults:           17
                 Voluntary context switches:        44988
