Automatically generated mesh
     182
Reciprocal lattice
    0.04166666666667    0.04166666666667    0.04166666666667            96
    0.12500000000000    0.04166666666667    0.04166666666667           288
    0.20833333333333    0.04166666666667    0.04166666666667           288
    0.29166666666667    0.04166666666667    0.04166666666667           288
    0.37500000000000    0.04166666666667    0.04166666666667           288
    0.45833333333333    0.04166666666667    0.04166666666667           288
   -0.45833333333333    0.04166666666667    0.04166666666667           288
   -0.37500000000000    0.04166666666667    0.04166666666667           288
   -0.29166666666667    0.04166666666667    0.04166666666667           288
   -0.20833333333333    0.04166666666667    0.04166666666667           288
   -0.12500000000000    0.04166666666667    0.04166666666667           288
   -0.04166666666667    0.04166666666667    0.04166666666667           288
    0.12500000000000    0.12500000000000    0.04166666666667           288
    0.20833333333333    0.12500000000000    0.04166666666667           576
    0.29166666666667    0.12500000000000    0.04166666666667           576
    0.37500000000000    0.12500000000000    0.04166666666667           576
    0.45833333333333    0.12500000000000    0.04166666666667           576
   -0.45833333333333    0.12500000000000    0.04166666666667           576
   -0.37500000000000    0.12500000000000    0.04166666666667           576
   -0.29166666666667    0.12500000000000    0.04166666666667           576
   -0.20833333333333    0.12500000000000    0.04166666666667           576
   -0.12500000000000    0.12500000000000    0.04166666666667           576
   -0.04166666666667    0.12500000000000    0.04166666666667           576
    0.20833333333333    0.20833333333333    0.04166666666667           288
    0.29166666666667    0.20833333333333    0.04166666666667           576
    0.37500000000000    0.20833333333333    0.04166666666667           576
    0.45833333333333    0.20833333333333    0.04166666666667           576
   -0.45833333333333    0.20833333333333    0.04166666666667           576
   -0.37500000000000    0.20833333333333    0.04166666666667           576
   -0.29166666666667    0.20833333333333    0.04166666666667           576
   -0.20833333333333    0.20833333333333    0.04166666666667           576
   -0.12500000000000    0.20833333333333    0.04166666666667           576
   -0.04166666666667    0.20833333333333    0.04166666666667           576
    0.29166666666667    0.29166666666667    0.04166666666667           288
    0.37500000000000    0.29166666666667    0.04166666666667           576
    0.45833333333333    0.29166666666667    0.04166666666667           576
   -0.45833333333333    0.29166666666667    0.04166666666667           576
   -0.37500000000000    0.29166666666667    0.04166666666667           576
   -0.29166666666667    0.29166666666667    0.04166666666667           576
   -0.20833333333333    0.29166666666667    0.04166666666667           576
   -0.12500000000000    0.29166666666667    0.04166666666667           576
   -0.04166666666667    0.29166666666667    0.04166666666667           576
    0.37500000000000    0.37500000000000    0.04166666666667           288
    0.45833333333333    0.37500000000000    0.04166666666667           576
   -0.45833333333333    0.37500000000000    0.04166666666667           576
   -0.37500000000000    0.37500000000000    0.04166666666667           576
   -0.29166666666667    0.37500000000000    0.04166666666667           576
   -0.20833333333333    0.37500000000000    0.04166666666667           576
   -0.12500000000000    0.37500000000000    0.04166666666667           576
   -0.04166666666667    0.37500000000000    0.04166666666667           576
    0.45833333333333    0.45833333333333    0.04166666666667           288
   -0.45833333333333    0.45833333333333    0.04166666666667           576
   -0.37500000000000    0.45833333333333    0.04166666666667           576
   -0.29166666666667    0.45833333333333    0.04166666666667           576
   -0.20833333333333    0.45833333333333    0.04166666666667           576
   -0.12500000000000    0.45833333333333    0.04166666666667           576
   -0.04166666666667    0.45833333333333    0.04166666666667           576
   -0.45833333333333   -0.45833333333333    0.04166666666667           288
   -0.37500000000000   -0.45833333333333    0.04166666666667           576
   -0.29166666666667   -0.45833333333333    0.04166666666667           576
   -0.20833333333333   -0.45833333333333    0.04166666666667           576
   -0.12500000000000   -0.45833333333333    0.04166666666667           576
   -0.37500000000000   -0.37500000000000    0.04166666666667           288
   -0.29166666666667   -0.37500000000000    0.04166666666667           576
   -0.20833333333333   -0.37500000000000    0.04166666666667           576
   -0.12500000000000   -0.37500000000000    0.04166666666667           576
   -0.29166666666667   -0.29166666666667    0.04166666666667           288
   -0.20833333333333   -0.29166666666667    0.04166666666667           576
   -0.12500000000000   -0.29166666666667    0.04166666666667           576
   -0.20833333333333   -0.20833333333333    0.04166666666667           288
   -0.12500000000000   -0.20833333333333    0.04166666666667           576
   -0.12500000000000   -0.12500000000000    0.04166666666667           288
    0.12500000000000    0.12500000000000    0.12500000000000            96
    0.20833333333333    0.12500000000000    0.12500000000000           288
    0.29166666666667    0.12500000000000    0.12500000000000           288
    0.37500000000000    0.12500000000000    0.12500000000000           288
    0.45833333333333    0.12500000000000    0.12500000000000           288
   -0.45833333333333    0.12500000000000    0.12500000000000           288
   -0.37500000000000    0.12500000000000    0.12500000000000           288
   -0.29166666666667    0.12500000000000    0.12500000000000           288
   -0.20833333333333    0.12500000000000    0.12500000000000           288
   -0.12500000000000    0.12500000000000    0.12500000000000           288
    0.20833333333333    0.20833333333333    0.12500000000000           288
    0.29166666666667    0.20833333333333    0.12500000000000           576
    0.37500000000000    0.20833333333333    0.12500000000000           576
    0.45833333333333    0.20833333333333    0.12500000000000           576
   -0.45833333333333    0.20833333333333    0.12500000000000           576
   -0.37500000000000    0.20833333333333    0.12500000000000           576
   -0.29166666666667    0.20833333333333    0.12500000000000           576
   -0.20833333333333    0.20833333333333    0.12500000000000           576
   -0.12500000000000    0.20833333333333    0.12500000000000           576
    0.29166666666667    0.29166666666667    0.12500000000000           288
    0.37500000000000    0.29166666666667    0.12500000000000           576
    0.45833333333333    0.29166666666667    0.12500000000000           576
   -0.45833333333333    0.29166666666667    0.12500000000000           576
   -0.37500000000000    0.29166666666667    0.12500000000000           576
   -0.29166666666667    0.29166666666667    0.12500000000000           576
   -0.20833333333333    0.29166666666667    0.12500000000000           576
   -0.12500000000000    0.29166666666667    0.12500000000000           576
    0.37500000000000    0.37500000000000    0.12500000000000           288
    0.45833333333333    0.37500000000000    0.12500000000000           576
   -0.45833333333333    0.37500000000000    0.12500000000000           576
   -0.37500000000000    0.37500000000000    0.12500000000000           576
   -0.29166666666667    0.37500000000000    0.12500000000000           576
   -0.20833333333333    0.37500000000000    0.12500000000000           576
   -0.12500000000000    0.37500000000000    0.12500000000000           576
    0.45833333333333    0.45833333333333    0.12500000000000           288
   -0.45833333333333    0.45833333333333    0.12500000000000           576
   -0.37500000000000    0.45833333333333    0.12500000000000           576
   -0.29166666666667    0.45833333333333    0.12500000000000           576
   -0.20833333333333    0.45833333333333    0.12500000000000           576
   -0.12500000000000    0.45833333333333    0.12500000000000           576
   -0.45833333333333   -0.45833333333333    0.12500000000000           288
   -0.37500000000000   -0.45833333333333    0.12500000000000           576
   -0.29166666666667   -0.45833333333333    0.12500000000000           576
   -0.20833333333333   -0.45833333333333    0.12500000000000           576
   -0.37500000000000   -0.37500000000000    0.12500000000000           288
   -0.29166666666667   -0.37500000000000    0.12500000000000           576
   -0.20833333333333   -0.37500000000000    0.12500000000000           576
   -0.29166666666667   -0.29166666666667    0.12500000000000           288
   -0.20833333333333   -0.29166666666667    0.12500000000000           576
   -0.20833333333333   -0.20833333333333    0.12500000000000           288
    0.20833333333333    0.20833333333333    0.20833333333333            96
    0.29166666666667    0.20833333333333    0.20833333333333           288
    0.37500000000000    0.20833333333333    0.20833333333333           288
    0.45833333333333    0.20833333333333    0.20833333333333           288
   -0.45833333333333    0.20833333333333    0.20833333333333           288
   -0.37500000000000    0.20833333333333    0.20833333333333           288
   -0.29166666666667    0.20833333333333    0.20833333333333           288
   -0.20833333333333    0.20833333333333    0.20833333333333           288
    0.29166666666667    0.29166666666667    0.20833333333333           288
    0.37500000000000    0.29166666666667    0.20833333333333           576
    0.45833333333333    0.29166666666667    0.20833333333333           576
   -0.45833333333333    0.29166666666667    0.20833333333333           576
   -0.37500000000000    0.29166666666667    0.20833333333333           576
   -0.29166666666667    0.29166666666667    0.20833333333333           576
   -0.20833333333333    0.29166666666667    0.20833333333333           576
    0.37500000000000    0.37500000000000    0.20833333333333           288
    0.45833333333333    0.37500000000000    0.20833333333333           576
   -0.45833333333333    0.37500000000000    0.20833333333333           576
   -0.37500000000000    0.37500000000000    0.20833333333333           576
   -0.29166666666667    0.37500000000000    0.20833333333333           576
   -0.20833333333333    0.37500000000000    0.20833333333333           576
    0.45833333333333    0.45833333333333    0.20833333333333           288
   -0.45833333333333    0.45833333333333    0.20833333333333           576
   -0.37500000000000    0.45833333333333    0.20833333333333           576
   -0.29166666666667    0.45833333333333    0.20833333333333           576
   -0.20833333333333    0.45833333333333    0.20833333333333           576
   -0.45833333333333   -0.45833333333333    0.20833333333333           288
   -0.37500000000000   -0.45833333333333    0.20833333333333           576
   -0.29166666666667   -0.45833333333333    0.20833333333333           576
   -0.37500000000000   -0.37500000000000    0.20833333333333           288
   -0.29166666666667   -0.37500000000000    0.20833333333333           576
   -0.29166666666667   -0.29166666666667    0.20833333333333           288
    0.29166666666667    0.29166666666667    0.29166666666667            96
    0.37500000000000    0.29166666666667    0.29166666666667           288
    0.45833333333333    0.29166666666667    0.29166666666667           288
   -0.45833333333333    0.29166666666667    0.29166666666667           288
   -0.37500000000000    0.29166666666667    0.29166666666667           288
   -0.29166666666667    0.29166666666667    0.29166666666667           288
    0.37500000000000    0.37500000000000    0.29166666666667           288
    0.45833333333333    0.37500000000000    0.29166666666667           576
   -0.45833333333333    0.37500000000000    0.29166666666667           576
   -0.37500000000000    0.37500000000000    0.29166666666667           576
   -0.29166666666667    0.37500000000000    0.29166666666667           576
    0.45833333333333    0.45833333333333    0.29166666666667           288
   -0.45833333333333    0.45833333333333    0.29166666666667           576
   -0.37500000000000    0.45833333333333    0.29166666666667           576
   -0.29166666666667    0.45833333333333    0.29166666666667           576
   -0.45833333333333   -0.45833333333333    0.29166666666667           288
   -0.37500000000000   -0.45833333333333    0.29166666666667           576
   -0.37500000000000   -0.37500000000000    0.29166666666667           288
    0.37500000000000    0.37500000000000    0.37500000000000            96
    0.45833333333333    0.37500000000000    0.37500000000000           288
   -0.45833333333333    0.37500000000000    0.37500000000000           288
   -0.37500000000000    0.37500000000000    0.37500000000000           288
    0.45833333333333    0.45833333333333    0.37500000000000           288
   -0.45833333333333    0.45833333333333    0.37500000000000           576
   -0.37500000000000    0.45833333333333    0.37500000000000           576
   -0.45833333333333   -0.45833333333333    0.37500000000000           288
    0.45833333333333    0.45833333333333    0.45833333333333            96
   -0.45833333333333    0.45833333333333    0.45833333333333           288
