unknown system                          
   1.00000000000000     
     0.000000    2.843671    2.843671
     2.843671    0.000000    2.843671
     2.843671    2.843671    0.000000
   Si
     2
Direct
  0.000000  0.000000  0.000000
  0.250000  0.250000  0.250000
 
   36   36   36
 -8.0664     -6.4034     -1.9027      4.1680      10.247      15.008      17.721      18.338      17.363      15.582    
  13.656      11.836      10.246      8.9418      7.9262      7.1755      6.6605      6.3591      6.2598      6.3591    
  6.6604      7.1755      7.9262      8.9418      10.246      11.836      13.656      15.582      17.363      18.337    
  17.721      15.008      10.247      4.1681     -1.9026     -6.4034     -6.4034     -3.1221      2.4574      8.7808    
  14.312      18.011      19.542      19.202      17.693      15.793      13.908      12.195      10.739      9.5654    
  8.6658      8.0155      7.5923      7.3831      7.3831      7.5923      8.0155      8.6658      9.5654      10.739    
  12.195      13.908      15.793      17.693      19.202      19.542      18.011      14.312      8.7809      2.4573    
 -3.1224     -6.4035     -1.9027      2.4574      8.2375      13.873      18.112      20.343      20.625      19.508    
  17.747      15.893      14.141      12.598      11.312      10.289      9.5150      8.9714      8.6468      8.5386    
  8.6468      8.9713      9.5150      10.289      11.312      12.598      14.141      15.893      17.747      19.508    
  20.625      20.343      18.112      13.873      8.2374      2.4573     -1.9028     -3.5279      4.1680      8.7808    
  13.873      18.132      20.743      21.526      20.840      19.333      17.613      15.923      14.381      13.052    
  11.956      11.089      10.441      10.004      9.7822      9.7822      10.004      10.441      11.089      11.956    
  13.052      14.381      15.923      17.613      19.333      20.840      21.526      20.743      18.132      13.873    
  8.7809      4.1681      1.4157      1.4157      10.247      14.312      18.112      20.743      21.835      21.545    
  20.373      18.888      17.365      15.925      14.641      13.545      12.639      11.918      11.385      11.052    
  10.938      11.052      11.385      11.918      12.639      13.545      14.641      15.925      17.365      18.888    
  20.373      21.545      21.835      20.743      18.111      14.312      10.247      7.1096      5.9281      7.1095    
  15.008      18.011      20.343      21.526      21.545      20.736      19.568      18.306      17.067      15.925    
  14.914      14.040      13.302      12.705      12.275      12.046      12.046      12.274      12.705      13.302    
  14.040      14.914      15.925      17.067      18.306      19.568      20.736      21.545      21.526      20.343    
  18.011      15.008      12.184      10.468      10.468      12.184      17.721      19.542      20.625      20.840    
  20.373      19.568      18.633      17.675      16.762      15.923      15.164      14.478      13.871      13.373    
  13.037      12.918      13.037      13.373      13.871      14.478      15.164      15.923      16.762      17.675    
  18.633      19.568      20.373      20.840      20.625      19.542      17.721      15.641      13.983      13.350    
  13.983      15.641      18.338      19.202      19.508      19.333      18.888      18.306      17.675      17.052    
  16.459      15.893      15.338      14.790      14.275      13.858      13.620      13.620      13.858      14.275    
  14.790      15.338      15.893      16.459      17.052      17.675      18.306      18.888      19.333      19.508    
  19.202      18.338      17.087      15.845      15.070      15.070      15.845      17.087      17.363      17.693    
  17.747      17.613      17.365      17.067      16.762      16.459      16.146      15.793      15.379      14.916    
  14.459      14.111      13.980      14.111      14.459      14.916      15.378      15.793      16.146      16.459    
  16.762      17.067      17.365      17.613      17.747      17.693      17.363      16.741      15.983      15.356    
  15.113      15.356      15.983      16.741      15.582      15.793      15.893      15.923      15.925      15.925    
  15.923      15.893      15.793      15.582      15.248      14.819      14.399      14.135      14.136      14.399    
  14.819      15.248      15.582      15.793      15.893      15.923      15.925      15.925      15.923      15.893    
  15.793      15.582      15.248      14.819      14.399      14.136      14.135      14.399      14.819      15.248    
  13.656      13.908      14.141      14.381      14.641      14.914      15.164      15.338      15.379      15.248    
  14.937      14.524      14.168      14.028      14.168      14.524      14.937      15.248      15.378      15.338    
  15.164      14.914      14.641      14.381      14.141      13.908      13.656      13.365      13.040      12.726    
  12.492      12.405      12.492      12.726      13.040      13.365      11.836      12.195      12.598      13.052    
  13.545      14.040      14.478      14.790      14.916      14.819      14.524      14.166      13.925      13.925    
  14.166      14.524      14.819      14.916      14.790      14.478      14.040      13.545      13.052      12.598    
  12.195      11.836      11.503      11.188      10.899      10.669      10.539      10.539      10.669      10.899    
  11.188      11.503      10.246      10.739      11.312      11.956      12.639      13.302      13.871      14.275    
  14.459      14.399      14.168      13.925      13.823      13.925      14.168      14.399      14.459      14.275    
  13.871      13.302      12.639      11.956      11.312      10.739      10.246      9.8260      9.4663      9.1607    
  8.9175      8.7569      8.7004      8.7569      8.9175      9.1606      9.4662      9.8260      8.9418      9.5654    
  10.289      11.089      11.918      12.705      13.373      13.858      14.111      14.135      14.028      13.925    
  13.925      14.028      14.136      14.111      13.858      13.373      12.705      11.918      11.089      10.289    
  9.5654      8.9418      8.4199      7.9895      7.6390      7.3637      7.1692      7.0673      7.0673      7.1691    
  7.3636      7.6390      7.9896      8.4200      7.9262      8.6658      9.5150      10.441      11.385      12.275    
  13.037      13.620      13.980      14.136      14.168      14.166      14.168      14.136      13.980      13.620    
  13.037      12.274      11.385      10.441      9.5151      8.6658      7.9263      7.3064      6.7995      6.3925    
  6.0744      5.8415      5.6976      5.6486      5.6975      5.8415      6.0744      6.3926      6.7996      7.3064    
  7.1755      8.0155      8.9714      10.004      11.052      12.046      12.918      13.620      14.111      14.399    
  14.524      14.524      14.399      14.111      13.620      12.918      12.046      11.052      10.004      8.9713    
  8.0155      7.1755      6.4672      5.8876      5.4233      5.0598      4.7876      4.6040      4.5110      4.5110    
  4.6041      4.7877      5.0598      5.4232      5.8875      6.4671      6.6605      7.5923      8.6468      9.7822    
  10.938      12.046      13.037      13.858      14.459      14.819      14.937      14.819      14.459      13.858    
  13.037      12.046      10.938      9.7822      8.6468      7.5923      6.6604      5.8704      5.2219      4.7020    
  4.2940      3.9840      3.7641      3.6318      3.5875      3.6318      3.7641      3.9840      4.2940      4.7020    
  5.2219      5.8704      6.3591      7.3831      8.5386      9.7822      11.052      12.274      13.373      14.275    
  14.916      15.248      15.248      14.916      14.275      13.373      12.274      11.052      9.7822      8.5386    
  7.3832      6.3591      5.4876      4.7698      4.1932      3.7399      3.3925      3.1386      2.9715      2.8883    
  2.8883      2.9715      3.1386      3.3924      3.7399      4.1933      4.7699      5.4877      6.2598      7.3831    
  8.6468      10.004      11.385      12.705      13.871      14.790      15.378      15.582      15.378      14.790    
  13.871      12.705      11.385      10.004      8.6468      7.3832      6.2599      5.3004      4.5073      3.8686    
  3.3650      2.9772      2.6890      2.4894      2.3718      2.3330      2.3718      2.4894      2.6890      2.9773    
  3.3651      3.8687      4.5073      5.3003      6.3591      7.5923      8.9713      10.441      11.918      13.302    
  14.478      15.338      15.793      15.793      15.338      14.478      13.302      11.918      10.441      8.9713    
  7.5923      6.3591      5.3004      4.4213      3.7103      3.1479      2.7127      2.3860      2.1529      2.0030    
  1.9297      1.9297      2.0030      2.1529      2.3860      2.7128      3.1479      3.7103      4.4211      5.3003    
  6.6604      8.0155      9.5150      11.089      12.639      14.040      15.164      15.893      16.146      15.893    
  15.164      14.040      12.639      11.089      9.5151      8.0155      6.6604      5.4876      4.5073      3.7103    
  3.0768      2.5840      2.2108      1.9395      1.7561      1.6504      1.6159      1.6504      1.7562      1.9395    
  2.2107      2.5839      3.0767      3.7103      4.5073      5.4877      7.1755      8.6658      10.289      11.956    
  13.545      14.914      15.923      16.459      16.459      15.923      14.914      13.545      11.956      10.289    
  8.6658      7.1755      5.8704      4.7698      3.8686      3.1479      2.5840      2.1534      1.8359      1.6144    
  1.4751      1.4081      1.4081      1.4751      1.6144      1.8359      2.1533      2.5839      3.1479      3.8687    
  4.7699      5.8704      7.9262      9.5654      11.312      13.052      14.641      15.925      16.762      17.052    
  16.762      15.925      14.641      13.052      11.312      9.5654      7.9263      6.4672      5.2219      4.1932    
  3.3650      2.7127      2.2108      1.8359      1.5682      1.3907      1.2901      1.2576      1.2901      1.3907    
  1.5681      1.8359      2.2107      2.7128      3.3651      4.1933      5.2219      6.4671      8.9418      10.739    
  12.598      14.381      15.925      17.067      17.675      17.675      17.067      15.925      14.381      12.598    
  10.739      8.9418      7.3064      5.8876      4.7020      3.7399      2.9772      2.3860      1.9395      1.6144    
  1.3907      1.2519      1.1858      1.1858      1.2519      1.3907      1.6144      1.9395      2.3860      2.9773    
  3.7399      4.7020      5.8875      7.3064      10.246      12.195      14.141      15.923      17.365      18.306    
  18.633      18.306      17.365      15.923      14.141      12.195      10.246      8.4199      6.7995      5.4233    
  4.2940      3.3925      2.6890      2.1529      1.7561      1.4751      1.2901      1.1858      1.1522      1.1858    
  1.2901      1.4751      1.7561      2.1529      2.6890      3.3924      4.2940      5.4232      6.7996      8.4200    
  11.836      13.908      15.893      17.613      18.888      19.568      19.568      18.888      17.613      15.893    
  13.908      11.836      9.8260      7.9895      6.3925      5.0598      3.9840      3.1386      2.4894      2.0030    
  1.6504      1.4081      1.2576      1.1858      1.1858      1.2576      1.4081      1.6504      2.0030      2.4894    
  3.1386      3.9840      5.0598      6.3926      7.9896      9.8260      13.656      15.793      17.747      19.333    
  20.373      20.736      20.373      19.333      17.747      15.793      13.656      11.503      9.4663      7.6390    
  6.0744      4.7876      3.7641      2.9715      2.3718      1.9297      1.6159      1.4081      1.2901      1.2519    
  1.2901      1.4081      1.6159      1.9297      2.3718      2.9715      3.7641      4.7877      6.0744      7.6390    
  9.4662      11.503      15.582      17.693      19.508      20.840      21.545      21.545      20.840      19.508    
  17.693      15.582      13.365      11.188      9.1607      7.3637      5.8415      4.6040      3.6318      2.8883    
  2.3330      1.9297      1.6504      1.4751      1.3907      1.3907      1.4751      1.6504      1.9297      2.3330    
  2.8883      3.6318      4.6041      5.8415      7.3636      9.1606      11.188      13.365      17.363      19.202    
  20.625      21.526      21.835      21.526      20.625      19.202      17.363      15.248      13.040      10.899    
  8.9175      7.1692      5.6976      4.5110      3.5875      2.8883      2.3718      2.0030      1.7562      1.6144    
  1.5681      1.6144      1.7561      2.0030      2.3718      2.8883      3.5875      4.5110      5.6975      7.1692    
  8.9175      10.899      13.041      15.248      18.337      19.542      20.343      20.743      20.743      20.343    
  19.542      18.338      16.741      14.819      12.726      10.669      8.7569      7.0673      5.6486      4.5110    
  3.6318      2.9715      2.4894      2.1529      1.9395      1.8359      1.8359      1.9395      2.1529      2.4894    
  2.9715      3.6318      4.5110      5.6486      7.0673      8.7570      10.669      12.726      14.819      16.741    
  17.721      18.011      18.112      18.132      18.111      18.011      17.721      17.087      15.983      14.399    
  12.492      10.539      8.7004      7.0673      5.6975      4.6041      3.7641      3.1386      2.6890      2.3860    
  2.2107      2.1533      2.2107      2.3860      2.6890      3.1386      3.7641      4.6041      5.6975      7.0673    
  8.7004      10.539      12.492      14.399      15.983      17.087      15.008      14.312      13.873      13.873    
  14.312      15.008      15.641      15.845      15.356      14.136      12.405      10.539      8.7569      7.1691    
  5.8415      4.7877      3.9840      3.3924      2.9773      2.7128      2.5839      2.5839      2.7128      2.9773    
  3.3924      3.9840      4.7877      5.8415      7.1692      8.7570      10.539      12.405      14.135      15.356    
  15.845      15.641      10.247      8.7809      8.2374      8.7809      10.247      12.184      13.983      15.070    
  15.113      14.135      12.492      10.669      8.9175      7.3636      6.0744      5.0598      4.2940      3.7399    
  3.3651      3.1479      3.0767      3.1479      3.3651      3.7399      4.2940      5.0598      6.0744      7.3636    
  8.9175      10.669      12.492      14.135      15.113      15.070      13.983      12.184      4.1681      2.4573    
  2.4573      4.1681      7.1096      10.468      13.350      15.070      15.356      14.399      12.726      10.899    
  9.1606      7.6390      6.3926      5.4232      4.7020      4.1933      3.8687      3.7103      3.7103      3.8687    
  4.1933      4.7020      5.4232      6.3926      7.6390      9.1606      10.899      12.726      14.399      15.356    
  15.070      13.350      10.468      7.1095     -1.9026     -3.1224     -1.9028      1.4157      5.9281      10.468    
  13.983      15.845      15.983      14.819      13.040      11.188      9.4662      7.9896      6.7996      5.8875    
  5.2219      4.7699      4.5073      4.4211      4.5073      4.7699      5.2219      5.8875      6.7996      7.9896    
  9.4662      11.188      13.041      14.819      15.983      15.845      13.983      10.468      5.9281      1.4159    
 -6.4034     -6.4035     -3.5279      1.4157      7.1095      12.184      15.641      17.087      16.741      15.248    
  13.365      11.503      9.8260      8.4200      7.3064      6.4671      5.8704      5.4877      5.3003      5.3003    
  5.4877      5.8704      6.4671      7.3064      8.4200      9.8260      11.503      13.365      15.248      16.741    
  17.087      15.641      12.184      7.1095      1.4159     -3.5276     -6.4034     -3.1221      2.4574      8.7808    
  14.312      18.011      19.542      19.202      17.693      15.793      13.908      12.195      10.739      9.5654    
  8.6658      8.0155      7.5923      7.3831      7.3831      7.5923      8.0155      8.6658      9.5654      10.739    
  12.195      13.908      15.793      17.693      19.202      19.542      18.011      14.312      8.7809      2.4574    
 -3.1224     -6.4035     -3.1221      1.4708      7.5663      13.526      18.041      20.469      20.866      19.791    
  18.022      16.146      14.370      12.802      11.493      10.452      9.6645      9.1112      8.7810      8.6709    
  8.7810      9.1112      9.6645      10.452      11.493      12.802      14.370      16.146      18.022      19.791    
  20.866      20.469      18.041      13.526      7.5661      1.4705     -3.1224     -4.8334      2.4574      7.5663    
  13.227      18.008      21.016      22.047      21.468      19.963      18.199      16.459      14.867      13.490    
  12.353      11.452      10.777      10.323      10.093      10.093      10.323      10.777      11.452      12.353    
  13.490      14.867      16.459      18.199      19.963      21.468      22.047      21.016      18.008      13.227    
  7.5662      2.4574     -.58632     -.58629      8.7808      13.526      18.008      21.197      22.661      22.553    
  21.408      19.866      18.273      16.762      15.407      14.244      13.280      12.512      11.942      11.587    
  11.465      11.587      11.942      12.512      13.280      14.244      15.407      16.762      18.273      19.866    
  21.408      22.553      22.661      21.197      18.008      13.526      8.7810      5.1346      3.7634      5.1344    
  14.312      18.041      21.016      22.661      22.928      22.180      20.958      19.619      18.296      17.067    
  15.970      15.016      14.206      13.548      13.072      12.819      12.819      13.072      13.548      14.206    
  15.016      15.970      17.067      18.296      19.619      20.958      22.180      22.928      22.661      21.016    
  18.041      14.312      10.844      8.7455      8.7454      10.844      18.011      20.469      22.047      22.553    
  22.180      21.339      20.337      19.299      18.296      17.365      16.511      15.732      15.037      14.463    
  14.076      13.937      14.076      14.463      15.037      15.732      16.511      17.365      18.296      19.299    
  20.337      21.339      22.180      22.553      22.047      20.469      18.011      15.280      13.128      12.310    
  13.128      15.280      19.542      20.866      21.468      21.408      20.958      20.337      19.647      18.951    
  18.273      17.613      16.954      16.295      15.669      15.151      14.850      14.851      15.151      15.669    
  16.295      16.954      17.613      18.273      18.951      19.647      20.337      20.958      21.408      21.468    
  20.866      19.542      17.748      16.013      14.943      14.943      16.013      17.748      19.202      19.791    
  19.963      19.866      19.619      19.299      18.951      18.589      18.199      17.747      17.211      16.593    
  15.963      15.478      15.294      15.478      15.963      16.593      17.211      17.747      18.199      18.589    
  18.951      19.299      19.619      19.866      19.962      19.791      19.202      18.212      17.059      16.126    
  15.767      16.126      17.059      18.212      17.693      18.022      18.199      18.273      18.296      18.296    
  18.273      18.199      18.022      17.693      17.168      16.488      15.830      15.421      15.421      15.830    
  16.489      17.168      17.693      18.022      18.199      18.273      18.296      18.296      18.273      18.199    
  18.022      17.693      17.168      16.489      15.830      15.421      15.421      15.830      16.488      17.168    
  15.793      16.146      16.459      16.762      17.067      17.365      17.613      17.747      17.693      17.363    
  16.741      15.983      15.356      15.113      15.356      15.983      16.741      17.363      17.693      17.747    
  17.613      17.365      17.067      16.762      16.459      16.146      15.793      15.378      14.916      14.459    
  14.111      13.980      14.111      14.459      14.916      15.379      13.908      14.370      14.867      15.407    
  15.970      16.511      16.954      17.211      17.168      16.741      16.022      15.267      14.784      14.784    
  15.267      16.023      16.741      17.168      17.211      16.954      16.511      15.970      15.407      14.867    
  14.370      13.908      13.467      13.039      12.641      12.321      12.140      12.140      12.321      12.641    
  13.039      13.467      12.195      12.802      13.490      14.244      15.016      15.732      16.295      16.593    
  16.488      15.983      15.267      14.646      14.401      14.646      15.267      15.983      16.489      16.593    
  16.295      15.732      15.016      14.244      13.490      12.802      12.195      11.667      11.205      10.806    
  10.484      10.269      10.194      10.269      10.484      10.806      11.205      11.667      10.739      11.493    
  12.353      13.280      14.206      15.037      15.669      15.963      15.830      15.356      14.784      14.401    
  14.401      14.784      15.356      15.830      15.963      15.669      15.037      14.206      13.280      12.353    
  11.493      10.739      10.098      9.5636      9.1242      8.7760      8.5282      8.3976      8.3976      8.5282    
  8.7760      9.1241      9.5635      10.098      9.5654      10.452      11.452      12.512      13.548      14.463    
  15.151      15.478      15.421      15.113      14.784      14.646      14.784      15.113      15.421      15.478    
  15.151      14.463      13.548      12.512      11.452      10.452      9.5654      8.8128      8.1932      7.6938    
  7.3023      7.0147      6.8363      6.7754      6.8362      7.0147      7.3023      7.6938      8.1933      8.8129    
  8.6658      9.6645      10.777      11.942      13.072      14.076      14.850      15.294      15.421      15.356    
  15.267      15.267      15.356      15.421      15.294      14.851      14.076      13.072      11.942      10.777    
  9.6645      8.6658      7.8128      7.1104      6.5467      6.1055      5.7750      5.5516      5.4381      5.4381    
  5.5516      5.7750      6.1056      6.5467      7.1103      7.8128      8.0155      9.1112      10.323      11.587    
  12.819      13.937      14.851      15.478      15.830      15.983      16.023      15.983      15.830      15.478    
  14.851      13.937      12.819      11.587      10.323      9.1112      8.0155      7.0734      6.2947      5.6693    
  5.1788      4.8062      4.5416      4.3820      4.3285      4.3820      4.5416      4.8063      5.1788      5.6692    
  6.2946      7.0734      7.5923      8.7810      10.093      11.465      12.819      14.076      15.151      15.963    
  16.489      16.741      16.741      16.489      15.963      15.151      14.076      12.819      11.465      10.093    
  8.7810      7.5923      6.5659      5.7142      5.0287      4.4900      4.0772      3.7752      3.5756      3.4759    
  3.4759      3.5756      3.7752      4.0772      4.4899      5.0287      5.7143      6.5660      7.3831      8.6709    
  10.093      11.587      13.072      14.463      15.669      16.593      17.168      17.363      17.168      16.593    
  15.669      14.463      13.072      11.587      10.093      8.6710      7.3832      6.2689      5.3414      4.5931    
  4.0036      3.5498      3.2119      2.9768      2.8375      2.7913      2.8375      2.9767      3.2119      3.5498    
  4.0037      4.5932      5.3415      6.2689      7.3831      8.7810      10.323      11.942      13.548      15.037    
  16.295      17.211      17.693      17.693      17.211      16.295      15.037      13.548      11.942      10.323    
  8.7810      7.3832      6.1710      5.1590      4.3398      3.6927      3.1926      2.8165      2.5469      2.3723    
  2.2865      2.2864      2.3723      2.5469      2.8165      3.1927      3.6928      4.3398      5.1589      6.1709    
  7.5923      9.1112      10.777      12.512      14.206      15.732      16.954      17.747      18.022      17.747    
  16.954      15.732      14.206      12.512      10.777      9.1112      7.5923      6.2689      5.1590      4.2566    
  3.5410      2.9855      2.5646      2.2573      2.0482      1.9268      1.8870      1.9268      2.0483      2.2574    
  2.5646      2.9855      3.5409      4.2565      5.1589      6.2689      8.0155      9.6645      11.452      13.280    
  15.016      16.511      17.613      18.199      18.199      17.613      16.511      15.016      13.280      11.452    
  9.6645      8.0155      6.5659      5.3414      4.3398      3.5410      2.9175      2.4418      2.0901      1.8433    
  1.6870      1.6113      1.6113      1.6870      1.8433      2.0901      2.4418      2.9174      3.5409      4.3398    
  5.3415      6.5660      8.6658      10.452      12.353      14.244      15.970      17.365      18.273      18.589    
  18.273      17.365      15.970      14.244      12.353      10.452      8.6658      7.0734      5.7142      4.5931    
  3.6927      2.9855      2.4418      2.0353      1.7439      1.5497      1.4390      1.4032      1.4390      1.5497    
  1.7439      2.0353      2.4418      2.9855      3.6928      4.5932      5.7142      7.0734      9.5654      11.493    
  13.490      15.407      17.067      18.296      18.951      18.951      18.296      17.067      15.407      13.490    
  11.493      9.5654      7.8128      6.2947      5.0287      4.0036      3.1926      2.5646      2.0901      1.7439    
  1.5051      1.3564      1.2854      1.2854      1.3564      1.5051      1.7439      2.0901      2.5646      3.1927    
  4.0037      5.0287      6.2946      7.8128      10.739      12.802      14.867      16.762      18.296      19.299    
  19.647      19.299      18.296      16.762      14.867      12.802      10.739      8.8128      7.1104      5.6693    
  4.4900      3.5498      2.8165      2.2573      1.8433      1.5497      1.3564      1.2474      1.2122      1.2474    
  1.3564      1.5497      1.8433      2.2574      2.8165      3.5498      4.4899      5.6692      7.1103      8.8129    
  12.195      14.370      16.459      18.273      19.619      20.337      20.337      19.619      18.273      16.459    
  14.370      12.195      10.098      8.1932      6.5467      5.1788      4.0772      3.2119      2.5469      2.0482    
  1.6870      1.4390      1.2854      1.2122      1.2122      1.2854      1.4390      1.6870      2.0483      2.5469    
  3.2119      4.0772      5.1787      6.5467      8.1933      10.098      13.908      16.146      18.199      19.866    
  20.958      21.339      20.958      19.866      18.199      16.146      13.908      11.667      9.5636      7.6938    
  6.1055      4.8062      3.7752      2.9768      2.3723      1.9268      1.6113      1.4032      1.2854      1.2474    
  1.2854      1.4032      1.6113      1.9268      2.3723      2.9767      3.7752      4.8063      6.1056      7.6938    
  9.5635      11.667      15.793      18.022      19.963      21.408      22.180      22.180      21.408      19.962    
  18.022      15.793      13.467      11.205      9.1242      7.3023      5.7750      4.5416      3.5756      2.8375    
  2.2865      1.8870      1.6113      1.4390      1.3564      1.3564      1.4390      1.6113      1.8870      2.2865    
  2.8375      3.5756      4.5416      5.7750      7.3023      9.1241      11.205      13.467      17.693      19.791    
  21.468      22.553      22.928      22.553      21.468      19.791      17.693      15.378      13.039      10.806    
  8.7760      7.0147      5.5516      4.3820      3.4759      2.7913      2.2864      1.9268      1.6870      1.5497    
  1.5051      1.5497      1.6870      1.9268      2.2865      2.7913      3.4759      4.3820      5.5516      7.0147    
  8.7760      10.806      13.039      15.379      19.202      20.866      22.047      22.661      22.661      22.047    
  20.866      19.202      17.168      14.916      12.641      10.484      8.5282      6.8363      5.4381      4.3285    
  3.4759      2.8375      2.3723      2.0483      1.8433      1.7439      1.7439      1.8433      2.0483      2.3723    
  2.8375      3.4759      4.3285      5.4381      6.8362      8.5282      10.484      12.641      14.916      17.168    
  19.542      20.469      21.016      21.197      21.016      20.469      19.542      18.212      16.489      14.459    
  12.321      10.269      8.3976      6.7754      5.4381      4.3820      3.5756      2.9767      2.5469      2.2574    
  2.0901      2.0353      2.0901      2.2574      2.5469      2.9767      3.5756      4.3820      5.4381      6.7754    
  8.3977      10.269      12.321      14.459      16.488      18.212      18.011      18.041      18.008      18.008    
  18.041      18.011      17.748      17.059      15.830      14.111      12.140      10.194      8.3976      6.8362    
  5.5516      4.5416      3.7752      3.2119      2.8165      2.5646      2.4418      2.4418      2.5646      2.8165    
  3.2119      3.7752      4.5416      5.5516      6.8362      8.3977      10.194      12.140      14.111      15.830    
  17.059      17.748      14.312      13.526      13.227      13.526      14.312      15.280      16.013      16.126    
  15.421      13.980      12.140      10.269      8.5282      7.0147      5.7750      4.8063      4.0772      3.5498    
  3.1927      2.9855      2.9174      2.9855      3.1927      3.5498      4.0772      4.8063      5.7750      7.0147    
  8.5282      10.269      12.140      13.980      15.421      16.126      16.013      15.280      8.7809      7.5661    