unknown system                          
   1.00000000000000     
     0.000000    2.843671    2.843671
     2.843671    0.000000    2.843671
     2.843671    2.843671    0.000000
   Si
     2
Direct
  0.000000  0.000000  0.000000
  0.250000  0.250000  0.250000
 
   36   36   36
 -.80663834200E+01 -.64033850605E+01 -.19027034318E+01 0.41679775598E+01 0.10246767690E+02
 0.15008454385E+02 0.17720884031E+02 0.18337500598E+02 0.17362510791E+02 0.15581647271E+02
 0.13656204196E+02 0.11835746578E+02 0.10245939341E+02 0.89418149688E+01 0.79262396363E+01
 0.71754761654E+01 0.66604559347E+01 0.63591122829E+01 0.62597743359E+01 0.63591112971E+01
 0.66604424753E+01 0.71754608356E+01 0.79262456311E+01 0.89418306506E+01 0.10245927561E+02
 0.11835713933E+02 0.13656207004E+02 0.15581695015E+02 0.17362516032E+02 0.18337387069E+02
 0.17720717244E+02 0.15008388460E+02 0.10246857304E+02 0.41681133863E+01 -.19026452309E+01
 -.64033963441E+01 -.64033850605E+01 -.31221272768E+01 0.24574490295E+01 0.87808497165E+01
 0.14311768633E+02 0.18011256375E+02 0.19541777957E+02 0.19202294132E+02 0.17693059002E+02
 0.15792775904E+02 0.13908281049E+02 0.12195294631E+02 0.10738698668E+02 0.95654311312E+01
 0.86657665269E+01 0.80155093931E+01 0.75923347782E+01 0.73831368524E+01 0.73831341834E+01
 0.75923219524E+01 0.80154906056E+01 0.86657643251E+01 0.95654490162E+01 0.10738700571E+02
 0.12195259832E+02 0.13908251404E+02 0.15792796662E+02 0.17693089916E+02 0.19202252419E+02
 0.19541676427E+02 0.18011216038E+02 0.14311844640E+02 0.87809149588E+01 0.24573446868E+01
 -.31223558879E+01 -.64035063697E+01 -.19027034318E+01 0.24574490295E+01 0.82375004777E+01
 0.13872720711E+02 0.18111530621E+02 0.20342586106E+02 0.20625429152E+02 0.19508114133E+02
 0.17746870136E+02 0.15892991841E+02 0.14141338979E+02 0.12598054635E+02 0.11311683123E+02
 0.10288978317E+02 0.95150274795E+01 0.89713631394E+01 0.86468329464E+01 0.85385997574E+01
 0.86468179497E+01 0.89713432655E+01 0.95150228879E+01 0.10288996505E+02 0.11311698654E+02
 0.12598038538E+02 0.14141306274E+02 0.15892985801E+02 0.17746895519E+02 0.19508125104E+02
 0.20625401436E+02 0.20342560360E+02 0.18111549178E+02 0.13872746713E+02 0.82374497325E+01
 0.24573086216E+01 -.19028315789E+01 -.35278572394E+01 0.41679775598E+01 0.87808497165E+01
 0.13872720711E+02 0.18132133030E+02 0.20742643006E+02 0.21526487805E+02 0.20839733418E+02
 0.19332940876E+02 0.17612806813E+02 0.15922846126E+02 0.14381187287E+02 0.13051748346E+02
 0.11955888992E+02 0.11089393539E+02 0.10440551151E+02 0.10003655967E+02 0.97822470315E+01
 0.97822329154E+01 0.10003625503E+02 0.10440531795E+02 0.11089403584E+02 0.11955914019E+02
 0.13051756779E+02 0.14381171701E+02 0.15922830722E+02 0.17612809323E+02 0.19332951346E+02
 0.20839736764E+02 0.21526482302E+02 0.20742628873E+02 0.18132113658E+02 0.13872723795E+02
 0.87809073351E+01 0.41680676806E+01 0.14157167837E+01 0.14156717092E+01 0.10246767690E+02
 0.14311768633E+02 0.18111530621E+02 0.20742643006E+02 0.21835320189E+02 0.21544995164E+02
 0.20372948024E+02 0.18887909648E+02 0.17364508694E+02 0.15925060812E+02 0.14641455183E+02
 0.13544556111E+02 0.12638511296E+02 0.11918175226E+02 0.11384794808E+02 0.11052035545E+02
 0.10938253580E+02 0.11051996691E+02 0.11384747028E+02 0.11918154850E+02 0.12638527156E+02
 0.13544582510E+02 0.14641465343E+02 0.15925055899E+02 0.17364502837E+02 0.18887904530E+02
 0.20372940676E+02 0.21544990487E+02 0.21835314258E+02 0.20742618156E+02 0.18111494636E+02
 0.14311772240E+02 0.10246837943E+02 0.71095730362E+01 0.59281032713E+01 0.71094951847E+01
 0.15008454385E+02 0.18011256375E+02 0.20342586106E+02 0.21526487805E+02 0.21544995164E+02
 0.20735548257E+02 0.19568458648E+02 0.18305910130E+02 0.17067181859E+02 0.15925065257E+02
 0.14913519878E+02 0.14039908869E+02 0.13301848123E+02 0.12705273028E+02 0.12274505262E+02
 0.12045549727E+02 0.12045525401E+02 0.12274445532E+02 0.12705213065E+02 0.13301823610E+02
 0.14039925930E+02 0.14913551210E+02 0.15925083355E+02 0.17067184556E+02 0.18305906645E+02
 0.19568449343E+02 0.20735534775E+02 0.21544991852E+02 0.21526496603E+02 0.20342569764E+02
 0.18011162995E+02 0.15008282437E+02 0.12184124279E+02 0.10467699834E+02 0.10467773711E+02
 0.12184298595E+02 0.17720884031E+02 0.19541777957E+02 0.20625429152E+02 0.20839733418E+02
 0.20372948024E+02 0.19568458648E+02 0.18633438321E+02 0.17675428961E+02 0.16761607540E+02
 0.15922849914E+02 0.15163693268E+02 0.14478370773E+02 0.13871349695E+02 0.13373027840E+02
 0.13037364854E+02 0.12917955944E+02 0.13037335537E+02 0.13372966776E+02 0.13871281549E+02
 0.14478340542E+02 0.15163716060E+02 0.15922889942E+02 0.16761625356E+02 0.17675428334E+02
 0.18633441867E+02 0.19568463216E+02 0.20372941129E+02 0.20839735172E+02 0.20625457516E+02
 0.19541775454E+02 0.17720747773E+02 0.15640682545E+02 0.13982762213E+02 0.13349914073E+02
 0.13982992587E+02 0.15640952123E+02 0.18337500598E+02 0.19202294132E+02 0.19508114133E+02
 0.19332940876E+02 0.18887909648E+02 0.18305910130E+02 0.17675428961E+02 0.17052311380E+02
 0.16459301560E+02 0.15892986516E+02 0.15338103015E+02 0.14789626234E+02 0.14274749146E+02
 0.13857926936E+02 0.13619590964E+02 0.13619602237E+02 0.13857928351E+02 0.14274699562E+02
 0.14789552745E+02 0.15338073546E+02 0.15893016839E+02 0.16459340075E+02 0.17052319796E+02
 0.17675431132E+02 0.18305933245E+02 0.18887928330E+02 0.19332924527E+02 0.19508096494E+02
 0.19202329906E+02 0.18337569339E+02 0.17087092247E+02 0.15844937632E+02 0.15070045135E+02
 0.15070075134E+02 0.15844976787E+02 0.17087067919E+02 0.17362510791E+02 0.17693059002E+02
 0.17746870136E+02 0.17612806813E+02 0.17364508694E+02 0.17067181859E+02 0.16761607540E+02
 0.16459301560E+02 0.16145921404E+02 0.15792773571E+02 0.15378567563E+02 0.14915759754E+02
 0.14459406630E+02 0.14111370980E+02 0.13980003836E+02 0.14111446985E+02 0.14459456931E+02
 0.14915719170E+02 0.15378488292E+02 0.15792744023E+02 0.16145952238E+02 0.16459337465E+02
 0.16761619118E+02 0.17067196502E+02 0.17364543657E+02 0.17612825114E+02 0.17746833644E+02
 0.17693002871E+02 0.17362531845E+02 0.16741417734E+02 0.15983365451E+02 0.15356286026E+02
 0.15112796052E+02 0.15356113342E+02 0.15983133208E+02 0.16741263358E+02 0.15581647271E+02
 0.15792775904E+02 0.15892991841E+02 0.15922846126E+02 0.15925060812E+02 0.15925065257E+02
 0.15922849914E+02 0.15892986516E+02 0.15792773571E+02 0.15581658728E+02 0.15247653047E+02
 0.14818669072E+02 0.14398579114E+02 0.14135473728E+02 0.14135556764E+02 0.14398738559E+02
 0.14818746205E+02 0.15247600934E+02 0.15581567784E+02 0.15792739873E+02 0.15893014108E+02
 0.15922886524E+02 0.15925081936E+02 0.15925076731E+02 0.15922881333E+02 0.15893019424E+02
 0.15792745435E+02 0.15581563253E+02 0.15247596527E+02 0.14818751825E+02 0.14398743061E+02
 0.14135548929E+02 0.14135463385E+02 0.14398576749E+02 0.14818665306E+02 0.15247639282E+02
 0.13656204196E+02 0.13908281049E+02 0.14141338979E+02 0.14381187287E+02 0.14641455183E+02
 0.14913519878E+02 0.15163693268E+02 0.15338103015E+02 0.15378567563E+02 0.15247653047E+02
 0.14937182535E+02 0.14523825448E+02 0.14167944996E+02 0.14027592508E+02 0.14168129287E+02
 0.14524024990E+02 0.14937245845E+02 0.15247581768E+02 0.15378467877E+02 0.15338057617E+02
 0.15163706912E+02 0.14913548777E+02 0.14641460447E+02 0.14381179152E+02 0.14141360840E+02
 0.13908337369E+02 0.13656229501E+02 0.13364853200E+02 0.13040346384E+02 0.12726169899E+02
 0.12492438701E+02 0.12405195383E+02 0.12492482540E+02 0.12726273722E+02 0.13040472818E+02
 0.13364918734E+02 0.11835746578E+02 0.12195294631E+02 0.12598054635E+02 0.13051748346E+02
 0.13544556111E+02 0.14039908869E+02 0.14478370773E+02 0.14789626234E+02 0.14915759754E+02
 0.14818669072E+02 0.14523825448E+02 0.14166234969E+02 0.13925046846E+02 0.13925153375E+02
 0.14166466226E+02 0.14524009035E+02 0.14818708893E+02 0.14915685566E+02 0.14789527076E+02
 0.14478316421E+02 0.14039913867E+02 0.13544575095E+02 0.13051724400E+02 0.12597998403E+02
 0.12195284756E+02 0.11835824070E+02 0.11503227394E+02 0.11187593141E+02 0.10898724121E+02
 0.10668664091E+02 0.10539033942E+02 0.10539103775E+02 0.10668821574E+02 0.10898850087E+02
 0.11187596990E+02 0.11503134203E+02 0.10245939341E+02 0.10738698668E+02 0.11311683123E+02
 0.11955888992E+02 0.12638511296E+02 0.13301848123E+02 0.13871349695E+02 0.14274749146E+02
 0.14459406630E+02 0.14398579114E+02 0.14167944996E+02 0.13925046846E+02 0.13823141175E+02
 0.13925203421E+02 0.14168152791E+02 0.14398721514E+02 0.14459436875E+02 0.14274695655E+02
 0.13871276553E+02 0.13301813485E+02 0.12638529230E+02 0.11955910350E+02 0.11311647157E+02
 0.10738612408E+02 0.10245884560E+02 0.98260156103E+01 0.94662858828E+01 0.91607046216E+01
 0.89174555879E+01 0.87569008973E+01 0.87003830558E+01 0.87569428300E+01 0.89174699146E+01
 0.91606421890E+01 0.94661888137E+01 0.98259767399E+01 0.89418149688E+01 0.95654311312E+01
 0.10288978317E+02 0.11089393539E+02 0.11918175226E+02 0.12705273028E+02 0.13373027840E+02
 0.13857926936E+02 0.14111370980E+02 0.14135473728E+02 0.14027592508E+02 0.13925153375E+02
 0.13925203421E+02 0.14027718289E+02 0.14135616502E+02 0.14111471176E+02 0.13857957314E+02
 0.13373005323E+02 0.12705240089E+02 0.11918173117E+02 0.11089432298E+02 0.10289025064E+02
 0.95654345514E+01 0.89417542870E+01 0.84198726616E+01 0.79895316929E+01 0.76389877887E+01
 0.73636684072E+01 0.71692069878E+01 0.70673246046E+01 0.70672996747E+01 0.71691408525E+01
 0.73635940895E+01 0.76389571143E+01 0.79895740899E+01 0.84199576429E+01 0.79262396363E+01
 0.86657665269E+01 0.95150274795E+01 0.10440551151E+02 0.11384794808E+02 0.12274505262E+02
 0.13037364854E+02 0.13619590964E+02 0.13980003836E+02 0.14135556764E+02 0.14168129287E+02
 0.14166466226E+02 0.14168152791E+02 0.14135616502E+02 0.13980086246E+02 0.13619652998E+02
 0.13037381995E+02 0.12274492874E+02 0.11384780980E+02 0.10440552277E+02 0.95150551856E+01
 0.86658272909E+01 0.79263076080E+01 0.73064022049E+01 0.67995486808E+01 0.63925284430E+01
 0.60743832499E+01 0.58415332839E+01 0.56975726151E+01 0.56486015211E+01 0.56975283733E+01
 0.58415063750E+01 0.60744241255E+01 0.63926135732E+01 0.67996034278E+01 0.73063822260E+01
 0.71754761654E+01 0.80155093931E+01 0.89713631394E+01 0.10003655967E+02 0.11052035545E+02
 0.12045549727E+02 0.12917955944E+02 0.13619602237E+02 0.14111446985E+02 0.14398738559E+02
 0.14524024990E+02 0.14524009035E+02 0.14398721514E+02 0.14111471176E+02 0.13619652998E+02
 0.12917985641E+02 0.12045544306E+02 0.11052017552E+02 0.10003632899E+02 0.89713238497E+01
 0.80154756610E+01 0.71755008380E+01 0.64672345267E+01 0.58875802631E+01 0.54232583634E+01
 0.50597855769E+01 0.47876284401E+01 0.46040484993E+01 0.45109819082E+01 0.45109771220E+01
 0.46040578802E+01 0.47876767967E+01 0.50598356159E+01 0.54232412943E+01 0.58874883877E+01
 0.64671417413E+01 0.66604559347E+01 0.75923347782E+01 0.86468329464E+01 0.97822470315E+01
 0.10938253580E+02 0.12045525401E+02 0.13037335537E+02 0.13857928351E+02 0.14459456931E+02
 0.14818746205E+02 0.14937245845E+02 0.14818708893E+02 0.14459436875E+02 0.13857957314E+02
 0.13037381995E+02 0.12045544306E+02 0.10938245133E+02 0.97822357299E+01 0.86468106050E+01
 0.75922710177E+01 0.66603632814E+01 0.58703914645E+01 0.52219088285E+01 0.47020381392E+01
 0.42940444407E+01 0.39840422628E+01 0.37641048780E+01 0.36317909047E+01 0.35875157258E+01
 0.36317993907E+01 0.37641131237E+01 0.39840230829E+01 0.42939777711E+01 0.47019552164E+01
 0.52218791602E+01 0.58704462818E+01 0.63591122829E+01 0.73831368524E+01 0.85385997574E+01
 0.97822329154E+01 0.11051996691E+02 0.12274445532E+02 0.13372966776E+02 0.14274699562E+02
 0.14915719170E+02 0.15247600934E+02 0.15247581768E+02 0.14915685566E+02 0.14274695655E+02
 0.13373005323E+02 0.12274492874E+02 0.11052017552E+02 0.97822357299E+01 0.85386171819E+01
 0.73831648416E+01 0.63590992513E+01 0.54875660809E+01 0.47697532442E+01 0.41932416466E+01
 0.37398780135E+01 0.33924715160E+01 0.31386370111E+01 0.29715104160E+01 0.28883125429E+01
 0.28883124047E+01 0.29714972233E+01 0.31385941523E+01 0.33924173482E+01 0.37398672150E+01
 0.41933111574E+01 0.47698702130E+01 0.54876519823E+01 0.62597743359E+01 0.73831341834E+01
 0.86468179497E+01 0.10003625503E+02 0.11384747028E+02 0.12705213065E+02 0.13871281549E+02
 0.14789552745E+02 0.15378488292E+02 0.15581567784E+02 0.15378467877E+02 0.14789527076E+02
 0.13871276553E+02 0.12705240089E+02 0.11384780980E+02 0.10003632899E+02 0.86468106050E+01
 0.73831648416E+01 0.62598615049E+01 0.53004097875E+01 0.45073359243E+01 0.38685634599E+01
 0.33650373857E+01 0.29772018307E+01 0.26890261092E+01 0.24894330423E+01 0.23718444422E+01
 0.23329745387E+01 0.23718383007E+01 0.24894161929E+01 0.26890213671E+01 0.29772522168E+01
 0.33651446287E+01 0.38686575418E+01 0.45073395991E+01 0.53003276365E+01 0.63591112971E+01
 0.75923219524E+01 0.89713432655E+01 0.10440531795E+02 0.11918154850E+02 0.13301823610E+02
 0.14478340542E+02 0.15338073546E+02 0.15792744023E+02 0.15792739873E+02 0.15338057617E+02
 0.14478316421E+02 0.13301813485E+02 0.11918173117E+02 0.10440552277E+02 0.89713238497E+01
 0.75922710177E+01 0.63590992513E+01 0.53004097875E+01 0.44212790743E+01 0.37103431506E+01
 0.31479263239E+01 0.27127396073E+01 0.23859563237E+01 0.21528649469E+01 0.20029999405E+01
 0.19296963418E+01 0.19296980141E+01 0.20030069317E+01 0.21528889869E+01 0.23860101103E+01
 0.27128007127E+01 0.31479317629E+01 0.37102552571E+01 0.44211470685E+01 0.53003300331E+01
 0.66604424753E+01 0.80154906056E+01 0.95150228879E+01 0.11089403584E+02 0.12638527156E+02
 0.14039925930E+02 0.15163716060E+02 0.15893016839E+02 0.16145952238E+02 0.15893014108E+02
 0.15163706912E+02 0.14039913867E+02 0.12638529230E+02 0.11089432298E+02 0.95150551856E+01
 0.80154756610E+01 0.66603632814E+01 0.54875660809E+01 0.45073359243E+01 0.37103431506E+01
 0.30767911842E+01 0.25839609756E+01 0.22107525631E+01 0.19394738020E+01 0.17561316149E+01
 0.16504171436E+01 0.16159115360E+01 0.16504242730E+01 0.17561508396E+01 0.19394976068E+01
 0.22107482839E+01 0.25838944865E+01 0.30766777918E+01 0.37102575983E+01 0.45073443673E+01
 0.54876515204E+01 0.71754608356E+01 0.86657643251E+01 0.10288996505E+02 0.11955914019E+02
 0.13544582510E+02 0.14913551210E+02 0.15922889942E+02 0.16459340075E+02 0.16459337465E+02
 0.15922886524E+02 0.14913548777E+02 0.13544575095E+02 0.11955910350E+02 0.10289025064E+02
 0.86658272909E+01 0.71755008380E+01 0.58703914645E+01 0.47697532442E+01 0.38685634599E+01
 0.31479263239E+01 0.25839609756E+01 0.21533997927E+01 0.18358938439E+01 0.16143775909E+01
 0.14750911030E+01 0.14080884296E+01 0.14080889545E+01 0.14750954522E+01 0.16143793827E+01
 0.18358668755E+01 0.21533312069E+01 0.25838931769E+01 0.31479321476E+01 0.38686621592E+01
 0.47698724655E+01 0.58704384841E+01 0.79262456311E+01 0.95654490162E+01 0.11311698654E+02
 0.13051756779E+02 0.14641465343E+02 0.15925083355E+02 0.16761625356E+02 0.17052319796E+02
 0.16761619118E+02 0.15925081936E+02 0.14641460447E+02 0.13051724400E+02 0.11311647157E+02
 0.95654345514E+01 0.79263076080E+01 0.64672345267E+01 0.52219088285E+01 0.41932416466E+01
 0.33650373857E+01 0.27127396073E+01 0.22107525631E+01 0.18358938439E+01 0.15681667087E+01
 0.13906853152E+01 0.12900791671E+01 0.12575693183E+01 0.12900787147E+01 0.13906818510E+01
 0.15681493998E+01 0.18358635849E+01 0.22107467175E+01 0.27128013770E+01 0.33651475849E+01
 0.41933136168E+01 0.52218794031E+01 0.64671412657E+01 0.89418306506E+01 0.10738700571E+02
 0.12598038538E+02 0.14381171701E+02 0.15925055899E+02 0.17067184556E+02 0.17675428334E+02
 0.17675431132E+02 0.17067196502E+02 0.15925076731E+02 0.14381179152E+02 0.12597998403E+02
 0.10738612408E+02 0.89417542870E+01 0.73064022049E+01 0.58875802631E+01 0.47020381392E+01
 0.37398780135E+01 0.29772018307E+01 0.23859563237E+01 0.19394738020E+01 0.16143775909E+01
 0.13906853152E+01 0.12518831730E+01 0.11857715244E+01 0.11857726371E+01 0.12518830371E+01
 0.13906789505E+01 0.16143726127E+01 0.19394945425E+01 0.23860135171E+01 0.29772569706E+01
 0.37398677606E+01 0.47019529042E+01 0.58874935666E+01 0.73063960446E+01 0.10245927561E+02
 0.12195259832E+02 0.14141306274E+02 0.15922830722E+02 0.17364502837E+02 0.18305906645E+02
 0.18633441867E+02 0.18305933245E+02 0.17364543657E+02 0.15922881333E+02 0.14141360840E+02
 0.12195284756E+02 0.10245884560E+02 0.84198726616E+01 0.67995486808E+01 0.54232583634E+01
 0.42940444407E+01 0.33924715160E+01 0.26890261092E+01 0.21528649469E+01 0.17561316149E+01
 0.14750911030E+01 0.12900791671E+01 0.11857715244E+01 0.11521719881E+01 0.11857731667E+01
 0.12900771307E+01 0.14750908059E+01 0.17561477551E+01 0.21528923412E+01 0.26890269095E+01
 0.33924169936E+01 0.42939681286E+01 0.54232359003E+01 0.67996110919E+01 0.84199647567E+01
 0.11835713933E+02 0.13908251404E+02 0.15892985801E+02 0.17612809323E+02 0.18887904530E+02
 0.19568449343E+02 0.19568463216E+02 0.18887928330E+02 0.17612825114E+02 0.15893019424E+02
 0.13908337369E+02 0.11835824070E+02 0.98260156103E+01 0.79895316929E+01 0.63925284430E+01
 0.50597855769E+01 0.39840422628E+01 0.31386370111E+01 0.24894330423E+01 0.20029999405E+01
 0.16504171436E+01 0.14080884296E+01 0.12575693183E+01 0.11857726371E+01 0.11857731667E+01
 0.12575683347E+01 0.14080870640E+01 0.16504237405E+01 0.20030090698E+01 0.24894193576E+01
 0.31385939814E+01 0.39840136714E+01 0.50598218210E+01 0.63926105474E+01 0.79895743971E+01
 0.98259624492E+01 0.13656207004E+02 0.15792796662E+02 0.17746895519E+02 0.19332951346E+02
 0.20372940676E+02 0.20735534775E+02 0.20372941129E+02 0.19332924527E+02 0.17746833644E+02
 0.15792745435E+02 0.13656229501E+02 0.11503227394E+02 0.94662858828E+01 0.76389877887E+01
 0.60743832499E+01 0.47876284401E+01 0.37641048780E+01 0.29715104160E+01 0.23718444422E+01
 0.19296963418E+01 0.16159115360E+01 0.14080889545E+01 0.12900787147E+01 0.12518830371E+01
 0.12900771307E+01 0.14080870640E+01 0.16159131845E+01 0.19296989642E+01 0.23718369210E+01
 0.29714956949E+01 0.37641118282E+01 0.47876724438E+01 0.60744230286E+01 0.76389582909E+01
 0.94661827518E+01 0.11503127131E+02 0.15581695015E+02 0.17693089916E+02 0.19508125104E+02
 0.20839736764E+02 0.21544990487E+02 0.21544991852E+02 0.20839735172E+02 0.19508096494E+02
 0.17693002871E+02 0.15581563253E+02 0.13364853200E+02 0.11187593141E+02 0.91607046216E+01
 0.73636684072E+01 0.58415332839E+01 0.46040484993E+01 0.36317909047E+01 0.28883125429E+01
 0.23329745387E+01 0.19296980141E+01 0.16504242730E+01 0.14750954522E+01 0.13906818510E+01
 0.13906789505E+01 0.14750908059E+01 0.16504237405E+01 0.19296989642E+01 0.23329700858E+01
 0.28883075174E+01 0.36318000243E+01 0.46040656114E+01 0.58415207271E+01 0.73636049179E+01
 0.91606366490E+01 0.11187600473E+02 0.13364955096E+02 0.17362516032E+02 0.19202252419E+02
 0.20625401436E+02 0.21526482302E+02 0.21835314258E+02 0.21526496603E+02 0.20625457516E+02
 0.19202329906E+02 0.17362531845E+02 0.15247596527E+02 0.13040346384E+02 0.10898724121E+02
 0.89174555879E+01 0.71692069878E+01 0.56975726151E+01 0.45109819082E+01 0.35875157258E+01
 0.28883124047E+01 0.23718383007E+01 0.20030069317E+01 0.17561508396E+01 0.16143793827E+01
 0.15681493998E+01 0.16143726127E+01 0.17561477551E+01 0.20030090698E+01 0.23718369210E+01
 0.28883075174E+01 0.35875159602E+01 0.45109792422E+01 0.56975453952E+01 0.71691660448E+01
 0.89174635619E+01 0.10898828405E+02 0.13040501892E+02 0.15247694958E+02 0.18337387069E+02
 0.19541676427E+02 0.20342560360E+02 0.20742628873E+02 0.20742618156E+02 0.20342569764E+02
 0.19541775454E+02 0.18337569339E+02 0.16741417734E+02 0.14818751825E+02 0.12726169899E+02
 0.10668664091E+02 0.87569008973E+01 0.70673246046E+01 0.56486015211E+01 0.45109771220E+01
 0.36317993907E+01 0.29714972233E+01 0.24894161929E+01 0.21528889869E+01 0.19394976068E+01
 0.18358668755E+01 0.18358635849E+01 0.19394945425E+01 0.21528923412E+01 0.24894193576E+01
 0.29714956949E+01 0.36318000243E+01 0.45109792422E+01 0.56485957296E+01 0.70673267533E+01
 0.87569555129E+01 0.10668776145E+02 0.12726259064E+02 0.14818717824E+02 0.16741256504E+02
 0.17720717244E+02 0.18011216038E+02 0.18111549178E+02 0.18132113658E+02 0.18111494636E+02
 0.18011162995E+02 0.17720747773E+02 0.17087092247E+02 0.15983365451E+02 0.14398743061E+02
 0.12492438701E+02 0.10539033942E+02 0.87003830558E+01 0.70672996747E+01 0.56975283733E+01
 0.46040578802E+01 0.37641131237E+01 0.31385941523E+01 0.26890213671E+01 0.23860101103E+01
 0.22107482839E+01 0.21533312069E+01 0.22107467175E+01 0.23860135171E+01 0.26890269095E+01
 0.31385939814E+01 0.37641118282E+01 0.46040656114E+01 0.56975453952E+01 0.70673267533E+01
 0.87004293718E+01 0.10539081814E+02 0.12492423710E+02 0.14398615299E+02 0.15983171263E+02
 0.17086945604E+02 0.15008388460E+02 0.14311844640E+02 0.13872746713E+02 0.13872723795E+02
 0.14311772240E+02 0.15008282437E+02 0.15640682545E+02 0.15844937632E+02 0.15356286026E+02
 0.14135548929E+02 0.12405195383E+02 0.10539103775E+02 0.87569428300E+01 0.71691408525E+01
 0.58415063750E+01 0.47876767967E+01 0.39840230829E+01 0.33924173482E+01 0.29772522168E+01
 0.27128007127E+01 0.25838944865E+01 0.25838931769E+01 0.27128013770E+01 0.29772569706E+01
 0.33924169936E+01 0.39840136714E+01 0.47876724438E+01 0.58415207271E+01 0.71691660448E+01
 0.87569555129E+01 0.10539081814E+02 0.12405127152E+02 0.14135448215E+02 0.15356205075E+02
 0.15844934713E+02 0.15640762755E+02 0.10246857304E+02 0.87809149588E+01 0.82374497325E+01
 0.87809073351E+01 0.10246837943E+02 0.12184124279E+02 0.13982762213E+02 0.15070045135E+02
 0.15112796052E+02 0.14135463385E+02 0.12492482540E+02 0.10668821574E+02 0.89174699146E+01
 0.73635940895E+01 0.60744241255E+01 0.50598356159E+01 0.42939777711E+01 0.37398672150E+01
 0.33651446287E+01 0.31479317629E+01 0.30766777918E+01 0.31479321476E+01 0.33651475849E+01
 0.37398677606E+01 0.42939681286E+01 0.50598218210E+01 0.60744230286E+01 0.73636049179E+01
 0.89174635619E+01 0.10668776145E+02 0.12492423710E+02 0.14135448215E+02 0.15112852369E+02
 0.15070141507E+02 0.13982845610E+02 0.12184170639E+02 0.41681133863E+01 0.24573446868E+01
 0.24573086216E+01 0.41680676806E+01 0.71095730362E+01 0.10467699834E+02 0.13349914073E+02
 0.15070075134E+02 0.15356113342E+02 0.14398576749E+02 0.12726273722E+02 0.10898850087E+02
 0.91606421890E+01 0.76389571143E+01 0.63926135732E+01 0.54232412943E+01 0.47019552164E+01
 0.41933111574E+01 0.38686575418E+01 0.37102552571E+01 0.37102575983E+01 0.38686621592E+01
 0.41933136168E+01 0.47019529042E+01 0.54232359003E+01 0.63926105474E+01 0.76389582909E+01
 0.91606366490E+01 0.10898828405E+02 0.12726259064E+02 0.14398615299E+02 0.15356205075E+02
 0.15070141507E+02 0.13349883991E+02 0.10467613875E+02 0.71095398100E+01 -.19026452309E+01
 -.31223558879E+01 -.19028315789E+01 0.14157167837E+01 0.59281032713E+01 0.10467773711E+02
 0.13982992587E+02 0.15844976787E+02 0.15983133208E+02 0.14818665306E+02 0.13040472818E+02
 0.11187596990E+02 0.94661888137E+01 0.79895740899E+01 0.67996034278E+01 0.58874883877E+01
 0.52218791602E+01 0.47698702130E+01 0.45073395991E+01 0.44211470685E+01 0.45073443673E+01
 0.47698724655E+01 0.52218794031E+01 0.58874935666E+01 0.67996110919E+01 0.79895743971E+01
 0.94661827518E+01 0.11187600473E+02 0.13040501892E+02 0.14818717824E+02 0.15983171263E+02
 0.15844934713E+02 0.13982845610E+02 0.10467613875E+02 0.59280879293E+01 0.14158854255E+01
 -.64033963441E+01 -.64035063697E+01 -.35278572394E+01 0.14156717092E+01 0.71094951847E+01
 0.12184298595E+02 0.15640952123E+02 0.17087067919E+02 0.16741263358E+02 0.15247639282E+02
 0.13364918734E+02 0.11503134203E+02 0.98259767399E+01 0.84199576429E+01 0.73063822260E+01
 0.64671417413E+01 0.58704462818E+01 0.54876519823E+01 0.53003276365E+01 0.53003300331E+01
 0.54876515204E+01 0.58704384841E+01 0.64671412657E+01 0.73063960446E+01 0.84199647567E+01
 0.98259624492E+01 0.11503127131E+02 0.13364955096E+02 0.15247694958E+02 0.16741256504E+02
 0.17086945604E+02 0.15640762755E+02 0.12184170639E+02 0.71095398100E+01 0.14158854255E+01
 -.35276078807E+01 -.64033799504E+01 -.31221296034E+01 0.24574440597E+01 0.87808479930E+01
 0.14311768006E+02 0.18011253417E+02 0.19541775708E+02 0.19202294947E+02 0.17693057680E+02
 0.15792768356E+02 0.13908272326E+02 0.12195290338E+02 0.10738696086E+02 0.95654266600E+01
 0.86657638257E+01 0.80155118576E+01 0.75923377966E+01 0.73831358695E+01 0.73831328627E+01
 0.75923243084E+01 0.80154928319E+01 0.86657625204E+01 0.95654471794E+01 0.10738702743E+02
 0.12195262045E+02 0.13908249556E+02 0.15792794628E+02 0.17693091791E+02 0.19202254548E+02
 0.19541675283E+02 0.18011216177E+02 0.14311850613E+02 0.87809229481E+01 0.24573501130E+01
 -.31223503474E+01 -.64034983516E+01 -.31221296034E+01 0.14707724970E+01 0.75662681930E+01
 0.13525922715E+02 0.18040727104E+02 0.20469372898E+02 0.20866275311E+02 0.19791086536E+02
 0.18021893837E+02 0.16145925766E+02 0.14369588774E+02 0.12801857779E+02 0.11493432548E+02
 0.10452437074E+02 0.96645270646E+01 0.91111999328E+01 0.87810244430E+01 0.86709366508E+01
 0.87810120637E+01 0.91111787138E+01 0.96645147185E+01 0.10452447697E+02 0.11493447388E+02
 0.12801844243E+02 0.14369555016E+02 0.16145919529E+02 0.18021931854E+02 0.19791124054E+02
 0.20866277981E+02 0.20469377411E+02 0.18040774247E+02 0.13525948188E+02 0.75661450244E+01
 0.14704939115E+01 -.31223746740E+01 -.48334167998E+01 0.24574440597E+01 0.75662681930E+01
 0.13227317318E+02 0.18008041457E+02 0.21015833885E+02 0.22046728855E+02 0.21467800962E+02
 0.19962509700E+02 0.18198672604E+02 0.16459306256E+02 0.14867269314E+02 0.13490305278E+02
 0.12352702652E+02 0.11452052017E+02 0.10777395721E+02 0.10323200556E+02 0.10093090760E+02
 0.10093084635E+02 0.10323185491E+02 0.10777383383E+02 0.11452056120E+02 0.12352719637E+02
 0.13490312360E+02 0.14867252458E+02 0.16459281327E+02 0.18198669250E+02 0.19962543858E+02
 0.21467867193E+02 0.22046805341E+02 0.21015883955E+02 0.18008028870E+02 0.13227238335E+02
 0.75661611599E+01 0.24573602947E+01 -.58632243284E+00 -.58629208561E+00 0.87808479930E+01
 0.13525922715E+02 0.18008041457E+02 0.21196584938E+02 0.22660656500E+02 0.22552500340E+02
 0.21407789450E+02 0.19865741591E+02 0.18273448214E+02 0.16761604281E+02 0.15406778787E+02
 0.14243759634E+02 0.13279711634E+02 0.12511552912E+02 0.11942107971E+02 0.11586670483E+02
 0.11465124636E+02 0.11586666296E+02 0.11942100307E+02 0.12511548969E+02 0.13279720316E+02
 0.14243778788E+02 0.15406794533E+02 0.16761602296E+02 0.18273426510E+02 0.19865721699E+02
 0.21407811448E+02 0.22552578791E+02 0.22660740306E+02 0.21196601135E+02 0.18007999364E+02
 0.13525924875E+02 0.87809524865E+01 0.51345508971E+01 0.37634496139E+01 0.51344320024E+01
 0.14311768006E+02 0.18040727104E+02 0.21015833885E+02 0.22660656500E+02 0.22928150739E+02
 0.22180248736E+02 0.20958281265E+02 0.19619166835E+02 0.18296144293E+02 0.17067179330E+02
 0.15970338497E+02 0.15016420496E+02 0.14206035233E+02 0.13548443205E+02 0.13072427623E+02
 0.12819080085E+02 0.12819087686E+02 0.13072437003E+02 0.13548435912E+02 0.14206018431E+02
 0.15016420603E+02 0.15970366803E+02 0.17067216062E+02 0.18296156124E+02 0.19619141616E+02
 0.20958248214E+02 0.22180257107E+02 0.22928211018E+02 0.22660716239E+02 0.21015838968E+02
 0.18040696540E+02 0.14311769598E+02 0.10843681587E+02 0.87454616327E+01 0.87454313492E+01
 0.10843634160E+02 0.18011253417E+02 0.20469372898E+02 0.22046728855E+02 0.22552500340E+02
 0.22180248736E+02 0.21339246787E+02 0.20337318995E+02 0.19298619396E+02 0.18296148205E+02
 0.17364514776E+02 0.16510972779E+02 0.15732340143E+02 0.15037193037E+02 0.14463418830E+02
 0.14075588368E+02 0.13937266510E+02 0.14075627425E+02 0.14463444016E+02 0.15037171990E+02
 0.15732302708E+02 0.16510968635E+02 0.17364552373E+02 0.18296191442E+02 0.19298633032E+02
 0.20337300807E+02 0.21339222518E+02 0.22180251118E+02 0.22552542500E+02 0.22046779447E+02
 0.20469364519E+02 0.18011138300E+02 0.15279546006E+02 0.13127761134E+02 0.12310022025E+02
 0.13127905075E+02 0.15279732086E+02 0.19541775708E+02 0.20866275311E+02 0.21467800962E+02
 0.21407789450E+02 0.20958281265E+02 0.20337318995E+02 0.19647434017E+02 0.18950870045E+02
 0.18273453273E+02 0.17612812766E+02 0.16954115301E+02 0.16295001819E+02 0.15668911754E+02
 0.15150819969E+02 0.14850498257E+02 0.14850550365E+02 0.15150918265E+02 0.15668955290E+02
 0.16294968262E+02 0.16954069581E+02 0.17612811039E+02 0.18273485409E+02 0.18950898520E+02
 0.19647446383E+02 0.20337322519E+02 0.20958277561E+02 0.21407787494E+02 0.21467825218E+02
 0.20866317989E+02 0.19541766784E+02 0.17747715183E+02 0.16012883660E+02 0.14943176781E+02
 0.14943263276E+02 0.16013061706E+02 0.17747836412E+02 0.19202294947E+02 0.19791086536E+02
 0.19962509700E+02 0.19865741591E+02 0.19619166835E+02 0.19298619396E+02 0.18950870045E+02
 0.18589412331E+02 0.18198671267E+02 0.17746868296E+02 0.17210780820E+02 0.16592536022E+02
 0.15963258589E+02 0.15478053663E+02 0.15294366992E+02 0.15478204434E+02 0.15963420283E+02
 0.16592589355E+02 0.17210741175E+02 0.17746828013E+02 0.18198674604E+02 0.18589434697E+02
 0.18950886245E+02 0.19298636808E+02 0.19619189455E+02 0.19865748509E+02 0.19962491977E+02
 0.19791079678E+02 0.19202340252E+02 0.18212249185E+02 0.17059100903E+02 0.16126097434E+02
 0.15767184320E+02 0.16126043774E+02 0.17059007735E+02 0.18212157157E+02 0.17693057680E+02
 0.18021893837E+02 0.18198672604E+02 0.18273448214E+02 0.18296144293E+02 0.18296148205E+02
 0.18273453273E+02 0.18198671267E+02 0.18021890712E+02 0.17693058275E+02 0.17167754696E+02
 0.16488406127E+02 0.15829847346E+02 0.15420705645E+02 0.15420812903E+02 0.15830077630E+02
 0.16488583955E+02 0.17167795444E+02 0.17693015346E+02 0.18021858056E+02 0.18198680454E+02
 0.18273479102E+02 0.18296168680E+02 0.18296165687E+02 0.18273476132E+02 0.18198683492E+02
 0.18021861025E+02 0.17693012213E+02 0.17167792353E+02 0.16488587209E+02 0.15830081603E+02
 0.15420811946E+02 0.15420705966E+02 0.15829854786E+02 0.16488413992E+02 0.17167755876E+02
 0.15792768356E+02 0.16145925766E+02 0.16459306256E+02 0.16761604281E+02 0.17067179330E+02
 0.17364514776E+02 0.17612812766E+02 0.17746868296E+02 0.17693058275E+02 0.17362518643E+02