    2    2   15    1
  0.2299525E+02  0.4021558E-09  0.4021558E-09  0.4021558E-09  0.5000000E-15
  1.000000000000000E-004
  CAR 
 unknown system                          
      8     60      8
 
  0.6250000E-01  0.6250000E-01  0.6250000E-01  0.3906250E-02
    1       -6.507723   1.000000
    2        3.940104   1.000000
    3        4.436698   0.999729
    4        4.436698   0.999729
    5        6.587058   0.000000
    6        7.115147   0.000000
    7        7.115147   0.000000
    8        7.276767   0.000000
 
  0.1875000E+00  0.6250000E-01  0.6250000E-01  0.1171875E-01
    1       -6.267880   1.000000
    2        2.475587   1.000000
    3        3.729881   1.000000
    4        4.321908   0.999990
    5        6.709258   0.000000
    6        7.341389   0.000000
    7        7.542703   0.000000
    8        8.729237   0.000000
 
  0.3125000E+00  0.6250000E-01  0.6250000E-01  0.1171875E-01
    1       -5.692313   1.000000
    2        0.457636   1.000000
    3        3.269647   1.000000
    4        3.905286   1.000000
    5        6.291246   0.000000
    6        7.831708   0.000000
    7        8.085520   0.000000
    8       10.422276   0.000000
 
  0.4375000E+00  0.6250000E-01  0.6250000E-01  0.1171875E-01
    1       -4.904870   1.000000
    2       -1.223598   1.000000
    3        3.056275   1.000000
    4        3.538801   1.000000
    5        5.992011   0.000000
    6        7.969355   0.000000
    7        7.985989   0.000000
    8       11.884281   0.000000
 
 -0.4375000E+00  0.6250000E-01  0.6250000E-01  0.1171875E-01
    1       -4.529721   1.000000
    2       -1.827576   1.000000
    3        3.089025   1.000000
    4        3.347469   1.000000
    5        5.919805   0.000000
    6        7.817513   0.000000
    7        8.056906   0.000000
    8       12.096415   0.000000
 
 -0.3125000E+00  0.6250000E-01  0.6250000E-01  0.1171875E-01
    1       -5.171270   1.000000
    2       -0.731313   1.000000
    3        3.345082   1.000000
    4        3.376002   1.000000
    5        6.087551   0.000000
    6        7.775118   0.000000
    7        8.246857   0.000000
    8       11.089269   0.000000
 
 -0.1875000E+00  0.6250000E-01  0.6250000E-01  0.1171875E-01
    1       -5.917218   1.000000
    2        1.116743   1.000000
    3        3.634417   1.000000
    4        3.769783   1.000000
    5        6.456398   0.000000
    6        7.520301   0.000000
    7        8.207851   0.000000
    8        9.755169   0.000000
 
 -0.6250000E-01  0.6250000E-01  0.6250000E-01  0.1171875E-01
    1       -6.387070   1.000000
    2        3.173148   1.000000
    3        4.069247   1.000000
    4        4.178794   1.000000
    5        6.816225   0.000000
    6        7.027379   0.000000
    7        7.622304   0.000000
    8        8.004061   0.000000
 
  0.1875000E+00  0.1875000E+00  0.6250000E-01  0.1171875E-01
    1       -6.146967   1.000000
    2        2.273563   1.000000
    3        3.577611   1.000000
    4        3.618638   1.000000
    5        6.481686   0.000000
    6        7.672112   0.000000
    7        8.389388   0.000000
    8        8.691433   0.000000
 
  0.3125000E+00  0.1875000E+00  0.6250000E-01  0.2343750E-01
    1       -5.678959   1.000000
    2        0.891423   1.000000
    3        2.709407   1.000000
    4        3.389256   1.000000
    5        6.626074   0.000000
    6        7.808533   0.000000
    7        8.935914   0.000000
    8        9.129059   0.000000
 
  0.4375000E+00  0.1875000E+00  0.6250000E-01  0.2343750E-01
    1       -4.934051   1.000000
    2       -0.744646   1.000000
    3        2.219081   1.000000
    4        3.037669   1.000000
    5        6.730658   0.000000
    6        7.994669   0.000000
    7        9.168578   0.000000
    8        9.578589   0.000000
 
 -0.4375000E+00  0.1875000E+00  0.6250000E-01  0.2343750E-01
    1       -4.286976   1.000000
    2       -1.786920   1.000000
    3        1.944989   1.000000
    4        2.959402   1.000000
    5        6.721397   0.000000
    6        7.872162   0.000000
    7        9.073640   0.000000
    8       11.331236   0.000000
 
 -0.3125000E+00  0.1875000E+00  0.6250000E-01  0.2343750E-01
    1       -4.672474   1.000000
    2       -1.196470   1.000000
    3        1.900466   1.000000
    4        3.204360   1.000000
    5        6.891681   0.000000
    6        7.858657   0.000000
    7        8.997756   0.000000
    8       10.664465   0.000000
 
 -0.1875000E+00  0.1875000E+00  0.6250000E-01  0.2343750E-01
    1       -5.459783   1.000000
    2        0.317058   1.000000
    3        2.218331   1.000000
    4        3.645984   1.000000
    5        7.183256   0.000000
    6        7.634124   0.000000
    7        8.856761   0.000000
    8        9.399481   0.000000
 
 -0.6250000E-01  0.1875000E+00  0.6250000E-01  0.2343750E-01
    1       -6.030859   1.000000
    2        1.691959   1.000000
    3        3.217679   1.000000
    4        3.972157   1.000000
    5        6.900181   0.000000
    6        7.295305   0.000000
    7        8.226308   0.000000
    8        9.221179   0.000000
 
  0.3125000E+00  0.3125000E+00  0.6250000E-01  0.1171875E-01
    1       -5.319696   1.000000
    2        0.357159   1.000000
    3        2.583980   1.000000
    4        2.691409   1.000000
    5        5.770016   0.000000
    6        7.312364   0.000000
    7       10.031455   0.000000
    8       10.211708   0.000000
 
  0.4375000E+00  0.3125000E+00  0.6250000E-01  0.2343750E-01
    1       -4.651683   1.000000
    2       -0.763620   1.000000
    3        1.896300   1.000000
    4        2.388421   1.000000
    5        6.063311   0.000000
    6        7.181653   0.000000
    7       10.004819   0.000000
    8       11.105091   0.000000
 
 -0.4375000E+00  0.3125000E+00  0.6250000E-01  0.2343750E-01
    1       -3.873074   1.000000
    2       -1.809534   1.000000
    3        1.157320   1.000000
    4        2.358682   1.000000
    5        6.288017   0.000000
    6        8.689589   0.000000
    7        9.622513   0.000000
    8       11.024488   0.000000
 
 -0.3125000E+00  0.3125000E+00  0.6250000E-01  0.2343750E-01
    1       -3.942760   1.000000
    2       -1.720530   1.000000
    3        0.859364   1.000000
    4        2.658818   1.000000
    5        6.619481   0.000000
    6        9.296881   0.000000
    7       10.367443   0.000000
    8       10.945245   0.000000
 
 -0.1875000E+00  0.3125000E+00  0.6250000E-01  0.2343750E-01
    1       -4.723909   1.000000
    2       -0.835306   1.000000
    3        1.372328   1.000000
    4        3.168427   1.000000
    5        7.077401   0.000000
    6        8.293193   0.000000
    7        9.508602   0.000000
    8        9.903504   0.000000
 
 -0.6250000E-01  0.3125000E+00  0.6250000E-01  0.2343750E-01
    1       -5.361430   1.000000
    2       -0.168314   1.000000
    3        2.772200   1.000000
    4        3.554316   1.000000
    5        6.611623   0.000000
    6        7.727878   0.000000
    7        8.528851   0.000000
    8       10.113154   0.000000
 
  0.4375000E+00  0.4375000E+00  0.6250000E-01  0.1171875E-01
    1       -4.064996   1.000000
    2       -1.552565   1.000000
    3        1.976040   1.000000
    4        2.156044   1.000000
    5        5.446299   0.000117
    6        6.136033   0.000000
    7       12.091861   0.000000
    8       12.171978   0.000000
 
 -0.4375000E+00  0.4375000E+00  0.6250000E-01  0.2343750E-01
    1       -3.260496   1.000000
    2       -2.443901   1.000000
    3        1.504534   1.000000
    4        1.952157   1.000000
    5        5.849759   0.000000
    6        6.504668   0.000000
    7       11.915703   0.000000
    8       12.709325   0.000000
 
 -0.3125000E+00  0.4375000E+00  0.6250000E-01  0.2343750E-01
    1       -3.375104   1.000000
    2       -2.275691   1.000000
    3        0.882805   1.000000
    4        2.230465   1.000000
    5        6.165108   0.000000
    6        8.541911   0.000000
    7       10.545841   0.000000
    8       11.504476   0.000000
 
 -0.1875000E+00  0.4375000E+00  0.6250000E-01  0.2343750E-01
    1       -4.056416   1.000000
    2       -1.802871   1.000000
    3        1.293214   1.000000
    4        2.758450   1.000000
    5        6.695165   0.000000
    6        8.499452   0.000000
    7        9.879265   0.000000
    8       11.107861   0.000000
 
 -0.6250000E-01  0.4375000E+00  0.6250000E-01  0.2343750E-01
    1       -4.592594   1.000000
    2       -1.588813   1.000000
    3        2.589142   1.000000
    4        3.263321   1.000000
    5        6.392778   0.000000
    6        7.757444   0.000000
    7        8.412698   0.000000
    8       11.649164   0.000000
 
 -0.4375000E+00 -0.4375000E+00  0.6250000E-01  0.1171875E-01
    1       -3.298968   1.000000
    2       -2.454655   1.000000
    3        1.853147   1.000000
    4        2.046415   1.000000
    5        5.465423   0.000068
    6        5.795514   0.000000
    7       13.054781   0.000000
    8       13.059468   0.000000
 
 -0.3125000E+00 -0.4375000E+00  0.6250000E-01  0.2343750E-01
    1       -3.993732   1.000000
    2       -1.611705   1.000000
    3        1.638421   1.000000
    4        2.095963   1.000000
    5        5.912640   0.000000
    6        6.745137   0.000000
    7       10.941388   0.000000
    8       12.124503   0.000000
 
 -0.1875000E+00 -0.4375000E+00  0.6250000E-01  0.2343750E-01
    1       -4.426867   1.000000
    2       -1.284634   1.000000
    3        1.642855   1.000000
    4        2.623368   1.000000
    5        6.509187   0.000000
    6        8.711575   0.000000
    7        9.024781   0.000000
    8       10.114675   0.000000
 
 -0.3125000E+00 -0.3125000E+00  0.6250000E-01  0.1171875E-01
    1       -4.742126   1.000000
    2       -0.608616   1.000000
    3        2.220696   1.000000
    4        2.372910   1.000000
    5        5.546591   0.000006
    6        6.661591   0.000000
    7       11.045246   0.000000
    8       11.185653   0.000000
 
 -0.1875000E+00 -0.3125000E+00  0.6250000E-01  0.2343750E-01
    1       -5.216879   1.000000
    2        0.074149   1.000000
    3        2.260241   1.000000
    4        2.829279   1.000000
    5        6.308288   0.000000
    6        7.719054   0.000000
    7        9.178815   0.000000
    8       10.089888   0.000000
 
 -0.1875000E+00 -0.1875000E+00  0.6250000E-01  0.1171875E-01
    1       -5.789871   1.000000
    2        1.324900   1.000000
    3        3.058018   1.000000
    4        3.100571   1.000000
    5        6.095393   0.000000
    6        7.885216   0.000000
    7        9.158591   0.000000
    8        9.271696   0.000000
 
  0.1875000E+00  0.1875000E+00  0.1875000E+00  0.3906250E-02
    1       -6.150425   1.000000
    2        1.834637   1.000000
    3        4.043318   1.000000
    4        4.043318   1.000000
    5        6.276331   0.000000
    6        7.677252   0.000000
    7        7.677252   0.000000
    8        9.277503   0.000000
 
  0.3125000E+00  0.1875000E+00  0.1875000E+00  0.1171875E-01
    1       -5.800505   1.000000
    2        1.004771   1.000000
    3        2.709930   1.000000
    4        4.043365   1.000000
    5        6.928021   0.000000
    6        7.799749   0.000000
    7        8.032702   0.000000
    8        9.686049   0.000000
 
  0.4375000E+00  0.1875000E+00  0.1875000E+00  0.1171875E-01
    1       -5.138148   1.000000
    2       -0.270174   1.000000
    3        1.750973   1.000000
    4        3.597352   1.000000
    5        6.954465   0.000000
    6        8.497836   0.000000
    7        8.643175   0.000000
    8        9.992491   0.000000
 
 -0.4375000E+00  0.1875000E+00  0.1875000E+00  0.1171875E-01
    1       -4.363922   1.000000
    2       -1.562115   1.000000
    3        1.570609   1.000000
    4        3.129854   1.000000
    5        6.602012   0.000000
    6        8.570147   0.000000
    7        8.929660   0.000000
    8       11.740605   0.000000
 
 -0.3125000E+00  0.1875000E+00  0.1875000E+00  0.1171875E-01
    1       -4.348586   1.000000
    2       -1.588617   1.000000
    3        1.822668   1.000000
    4        2.852884   1.000000
    5        6.411262   0.000000
    6        8.567793   0.000000
    7        9.253167   0.000000
    8       10.118272   0.000000
 
 -0.1875000E+00  0.1875000E+00  0.1875000E+00  0.1171875E-01
    1       -5.120479   1.000000
    2       -0.273543   1.000000
    3        2.378949   1.000000
    4        2.839542   1.000000
    5        6.376963   0.000000
    6        8.227525   0.000000
    7        9.008312   0.000000
    8        9.531755   0.000000
 
  0.3125000E+00  0.3125000E+00  0.1875000E+00  0.1171875E-01
    1       -5.571858   1.000000
    2        0.414224   1.000000
    3        3.095387   1.000000
    4        3.213195   1.000000
    5        6.635430   0.000000
    6        7.728819   0.000000
    7        8.835875   0.000000
    8        9.322329   0.000000
 
  0.4375000E+00  0.3125000E+00  0.1875000E+00  0.2343750E-01
    1       -5.015311   1.000000
    2       -0.360123   1.000000
    3        1.802226   1.000000
    4        3.032542   1.000000
    5        7.162560   0.000000
    6        7.921264   0.000000
    7        8.739297   0.000000
    8        9.943913   0.000000
 
 -0.4375000E+00  0.3125000E+00  0.1875000E+00  0.2343750E-01
    1       -4.233000   1.000000
    2       -1.377944   1.000000
    3        1.116272   1.000000
    4        2.547364   1.000000
    5        7.548105   0.000000
    6        8.065385   0.000000
    7        9.212615   0.000000
    8       10.944393   0.000000
 
 -0.3125000E+00  0.3125000E+00  0.1875000E+00  0.2343750E-01
    1       -3.815493   1.000000
    2       -1.904586   1.000000
    3        1.099874   1.000000
    4        2.279656   1.000000
    5        7.174118   0.000000
    6        8.343413   0.000000
    7        9.923921   0.000000
    8       10.972642   0.000000
 
 -0.1875000E+00  0.3125000E+00  0.1875000E+00  0.2343750E-01
    1       -4.477268   1.000000
    2       -1.039720   1.000000
    3        1.487833   1.000000
    4        2.432290   1.000000
    5        6.938150   0.000000
    6        8.061956   0.000000
    7        8.772942   0.000000
    8       11.034556   0.000000
 
  0.4375000E+00  0.4375000E+00  0.1875000E+00  0.1171875E-01
    1       -4.572930   1.000000
    2       -0.969641   1.000000
    3        1.766941   1.000000
    4        2.542972   1.000000
    5        6.071410   0.000000
    6        7.923488   0.000000
    7        9.791883   0.000000
    8       10.293943   0.000000
 
 -0.4375000E+00  0.4375000E+00  0.1875000E+00  0.2343750E-01
    1       -3.861666   1.000000
    2       -1.734962   1.000000
    3        1.286635   1.000000
    4        1.968816   1.000000
    5        6.772613   0.000000
    6        7.717914   0.000000
    7        9.575913   0.000000
    8       12.037085   0.000000
 
 -0.3125000E+00  0.4375000E+00  0.1875000E+00  0.2343750E-01
    1       -3.156382   1.000000
    2       -2.425798   1.000000
    3        1.026467   1.000000
    4        1.539399   1.000000
    5        7.807104   0.000000
    6        8.724259   0.000000
    7        9.123310   0.000000
    8       10.104193   0.000000
 
 -0.1875000E+00  0.4375000E+00  0.1875000E+00  0.2343750E-01
    1       -3.691003   1.000000
    2       -1.911755   1.000000
    3        1.003940   1.000000
    4        1.951849   1.000000
    5        7.886997   0.000000
    6        8.256510   0.000000
    7        8.904143   0.000000
    8       11.165619   0.000000
 
 -0.4375000E+00 -0.4375000E+00  0.1875000E+00  0.1171875E-01
    1       -3.292291   1.000000
    2       -2.389971   1.000000
    3        1.113501   1.000000
    4        2.235126   1.000000
    5        5.710746   0.000000
    6        7.422476   0.000000
    7       11.883518   0.000000
    8       11.913245   0.000000
 
 -0.3125000E+00 -0.4375000E+00  0.1875000E+00  0.2343750E-01
    1       -3.201741   1.000000
    2       -2.431618   1.000000
    3        1.195413   1.000000
    4        1.714241   1.000000
    5        6.689040   0.000000
    6        7.526862   0.000000
    7       10.503620   0.000000
    8       11.509089   0.000000
 
 -0.3125000E+00 -0.3125000E+00  0.1875000E+00  0.1171875E-01
    1       -3.946427   1.000000
    2       -1.688414   1.000000
    3        1.333949   1.000000
    4        2.338878   1.000000
    5        5.836320   0.000000
    6        7.593510   0.000000
    7       10.834651   0.000000
    8       11.113390   0.000000
 
  0.3125000E+00  0.3125000E+00  0.3125000E+00  0.3906250E-02
    1       -5.479664   1.000000
    2       -0.164772   1.000000
    3        3.664530   1.000000
    4        3.664530   1.000000
    5        5.844297   0.000000
    6        7.965442   0.000000
    7        7.965442   0.000000
    8       11.359487   0.000000
 
  0.4375000E+00  0.3125000E+00  0.3125000E+00  0.1171875E-01
    1       -5.056267   1.000000
    2       -0.718246   1.000000
    3        2.337929   1.000000
    4        3.581569   1.000000
    5        6.612077   0.000000
    6        8.166470   0.000000
    7        8.218692   0.000000
    8       10.968015   0.000000
 
 -0.4375000E+00  0.3125000E+00  0.3125000E+00  0.1171875E-01
    1       -4.358191   1.000000
    2       -1.295680   1.000000
    3        1.043548   1.000000
    4        3.074943   1.000000
    5        6.591992   0.000000
    6        9.434050   0.000000
    7        9.506390   0.000000
    8       10.676184   0.000000
 
 -0.3125000E+00  0.3125000E+00  0.3125000E+00  0.1171875E-01
    1       -3.641740   1.000000
    2       -2.028006   1.000000
    3        0.770009   1.000000
    4        2.593181   1.000000
    5        6.105106   0.000000
    6        9.707664   0.000000
    7       10.586249   0.000000
    8       10.633157   0.000000
 
  0.4375000E+00  0.4375000E+00  0.3125000E+00  0.1171875E-01
    1       -4.783685   1.000000
    2       -1.209264   1.000000
    3        2.606660   1.000000
    4        3.092494   1.000000
    5        6.469231   0.000000
    6        7.863840   0.000000
    7        8.680561   0.000000
    8       10.536580   0.000000
 
 -0.4375000E+00  0.4375000E+00  0.3125000E+00  0.2343750E-01
    1       -4.239797   1.000000
    2       -1.592464   1.000000
    3        1.480086   1.000000
    4        2.689629   1.000000
    5        7.241456   0.000000
    6        7.766441   0.000000
    7        9.882644   0.000000
    8       10.357553   0.000000
 
 -0.3125000E+00  0.4375000E+00  0.3125000E+00  0.2343750E-01
    1       -3.515894   1.000000
    2       -2.106553   1.000000
    3        0.852204   1.000000
    4        2.071600   1.000000
    5        7.077890   0.000000
    6        9.158612   0.000000
    7        9.810317   0.000000
    8       10.238306   0.000000
 
 -0.4375000E+00 -0.4375000E+00  0.3125000E+00  0.1171875E-01
    1       -3.928149   1.000000
    2       -1.866409   1.000000
    3        1.162001   1.000000
    4        2.681783   1.000000
    5        6.223012   0.000000
    6        9.553231   0.000000
    7        9.844569   0.000000
    8        9.931983   0.000000
 
  0.4375000E+00  0.4375000E+00  0.4375000E+00  0.3906250E-02
    1       -4.712902   1.000000
    2       -1.620367   1.000000
    3        3.458884   1.000000
    4        3.458884   1.000000
    5        5.599657   0.000001
    6        7.902107   0.000000
    7        7.902107   0.000000
    8       12.044633   0.000000
 
 -0.4375000E+00  0.4375000E+00  0.4375000E+00  0.1171875E-01
    1       -4.409177   1.000000
    2       -1.797316   1.000000
    3        2.331308   1.000000
    4        3.228250   1.000000
    5        6.432018   0.000000
    6        7.939737   0.000000
    7        8.417686   0.000000
    8       12.180040   0.000000
