       N       E                     dE             d eps       ncg     rms          rms(c)
DAV:   1     0.312594344364E+01    0.31259E+01   -0.25905E+03   960   0.556E+02
DAV:   2    -0.106037736466E+02   -0.13730E+02   -0.13322E+02  1432   0.677E+01
DAV:   3    -0.108151671390E+02   -0.21139E+00   -0.21139E+00  1288   0.105E+01
DAV:   4    -0.108160544038E+02   -0.88726E-03   -0.88726E-03  1552   0.676E-01
DAV:   5    -0.108160548924E+02   -0.48860E-06   -0.48908E-06  1272   0.167E-02    0.268E+00
DAV:   6    -0.107419999042E+02    0.74055E-01   -0.43495E-02  1192   0.109E+00    0.162E+00
DAV:   7    -0.107038995911E+02    0.38100E-01   -0.93159E-02  1192   0.172E+00    0.125E-01
DAV:   8    -0.107052546558E+02   -0.13551E-02   -0.31508E-03  1072   0.402E-01    0.257E-02
DAV:   9    -0.107053878187E+02   -0.13316E-03   -0.13744E-04   760   0.892E-02
   1 F= -.10705388E+02 E0= -.10705385E+02  d E =-.107054E+02
