unknown system                          
   1.00000000000000     
    -2.450000    2.450000    1.274000
     2.450000   -2.450000    1.274000
     2.450000    2.450000   -1.274000
   Si
     2
Direct
  0.250000  0.750000  0.500000
  0.000000  0.000000  0.000000
 
   28   28   28
 -.54742387520E+01 -.39398700417E+01 0.49152793152E-01 0.49680091233E+01 0.91308240297E+01
 0.11428951580E+02 0.11680572880E+02 0.10494231175E+02 0.88037283196E+01 0.71914417259E+01
 0.58323721406E+01 0.47931978255E+01 0.40771664180E+01 0.36616521751E+01 0.35256482363E+01
 0.36615685761E+01 0.40772080821E+01 0.47933591956E+01 0.58324270392E+01 0.71913643424E+01
 0.88037135729E+01 0.10494301243E+02 0.11680569740E+02 0.11428901966E+02 0.91308937879E+01
 0.49681189546E+01 0.49073030853E-01 -.39400616800E+01 -.39400616800E+01 -.47299559217E+01
 -.25780641870E+01 0.16501308794E+01 0.63560093467E+01 0.99803243070E+01 0.11655422728E+02
 0.11426580566E+02 0.10020393801E+02 0.83291113395E+01 0.67793594209E+01 0.55073773917E+01
 0.45594950846E+01 0.39284981747E+01 0.35899558622E+01 0.35256488483E+01 0.37317990710E+01
 0.42196224094E+01 0.50115356521E+01 0.61265758097E+01 0.75505064669E+01 0.91984376999E+01
 0.10850661864E+02 0.11812972002E+02 0.11186443312E+02 0.85158187631E+01 0.41912464320E+01
 -.52209158587E+00 0.49073030853E-01 -.25782020805E+01 -.26359872214E+01 -.10979897514E+00
 0.39717635418E+01 0.80666654861E+01 0.10852509023E+02 0.11751945271E+02 0.11022324216E+02
 0.94531304986E+01 0.77996100589E+01 0.63369745685E+01 0.51691630378E+01 0.43223076713E+01
 0.37807547812E+01 0.35201301269E+01 0.35256614123E+01 0.37971401735E+01 0.43484986313E+01
 0.52025796600E+01 0.63738664372E+01 0.78373892271E+01 0.94937254987E+01 0.11083748603E+02
 0.11867216304E+02 0.11033683768E+02 0.82916000201E+01 0.41912464320E+01 0.49681189546E+01
 0.16500932641E+01 -.10985112480E+00 0.42498146800E+00 0.30167827051E+01 0.65849153834E+01
 0.97628673422E+01 0.11538819032E+02 0.11633321652E+02 0.10470932380E+02 0.88301687952E+01
 0.72444376757E+01 0.58886893985E+01 0.48356211541E+01 0.40934918794E+01 0.36410451980E+01
 0.34555435739E+01 0.35257260897E+01 0.38543161449E+01 0.44570604662E+01 0.53560992337E+01
 0.65607959398E+01 0.80370568614E+01 0.96760753258E+01 0.11197767977E+02 0.11880472064E+02
 0.11033683768E+02 0.85158187631E+01 0.91308937879E+01 0.63560604521E+01 0.39717746588E+01
 0.30168162849E+01 0.39189415150E+01 0.62684433638E+01 0.90440989283E+01 0.11142168435E+02
 0.11889019777E+02 0.11271137204E+02 0.98149275267E+01 0.81871117900E+01 0.66945634625E+01
 0.54586440170E+01 0.45237208617E+01 0.38841608400E+01 0.35161067340E+01 0.33994115656E+01
 0.35258641849E+01 0.39003004158E+01 0.45393591387E+01 0.54635539588E+01 0.66771786563E+01
 0.81394197297E+01 0.97377008511E+01 0.11197767977E+02 0.11867216304E+02 0.11186443312E+02
 0.11428901966E+02 0.99803093257E+01 0.80666536457E+01 0.65849626923E+01 0.62685358325E+01
 0.72858153323E+01 0.91495370292E+01 0.10988724926E+02 0.12005837565E+02 0.11847459952E+02
 0.10704169630E+02 0.91260171389E+01 0.75604292197E+01 0.61798484195E+01 0.50687474717E+01
 0.42484520291E+01 0.37041889955E+01 0.34120123951E+01 0.33545975800E+01 0.35260484805E+01
 0.39325294965E+01 0.45907298483E+01 0.55188629588E+01 0.67166878728E+01 0.81394197297E+01
 0.96760753258E+01 0.11083748603E+02 0.11812972002E+02 0.11680569740E+02 0.11655392834E+02
 0.10852428332E+02 0.97628067379E+01 0.90441598340E+01 0.91496501479E+01 0.10062574108E+02
 0.11305818220E+02 0.12214581213E+02 0.12295492691E+02 0.11461222244E+02 0.10028708471E+02
 0.84588039528E+01 0.69850113094E+01 0.57264484490E+01 0.47372086976E+01 0.40221270818E+01
 0.35618125405E+01 0.33338401924E+01 0.33234009025E+01 0.35262091595E+01 0.39491360259E+01
 0.46081945871E+01 0.55188629588E+01 0.66771786563E+01 0.80370568614E+01 0.94937254987E+01
 0.10850661864E+02 0.10494301243E+02 0.11426658647E+02 0.11751944041E+02 0.11538710751E+02
 0.11142084189E+02 0.10988778286E+02 0.11305918421E+02 0.11971294786E+02 0.12583092129E+02
 0.12699144843E+02 0.12090556099E+02 0.10860349691E+02 0.93580736129E+01 0.78539029521E+01
 0.64910215648E+01 0.53551269320E+01 0.44778532516E+01 0.38540973907E+01 0.34633509698E+01
 0.32853843074E+01 0.33074037469E+01 0.35262730578E+01 0.39491360259E+01 0.45907298483E+01
 0.54635539588E+01 0.65607959398E+01 0.78373892271E+01 0.91984376999E+01 0.88037135729E+01
 0.10020472852E+02 0.11022448263E+02 0.11633350265E+02 0.11888922219E+02 0.12005755423E+02
 0.12214614718E+02 0.12583159983E+02 0.12952378169E+02 0.13030638821E+02 0.12580016544E+02
 0.11572131791E+02 0.10214644617E+02 0.87545365062E+01 0.73467525623E+01 0.61020043705E+01
 0.50807476865E+01 0.43002035668E+01 0.37507994877E+01 0.34130555772E+01 0.32689718297E+01
 0.33074037469E+01 0.35262091595E+01 0.39325294965E+01 0.45393591387E+01 0.53560992337E+01
 0.63738664372E+01 0.75505064669E+01 0.71913643424E+01 0.83290480234E+01 0.94531868133E+01
 0.10471060114E+02 0.11271187382E+02 0.11847397359E+02 0.12295430561E+02 0.12699156219E+02
 0.13030670356E+02 0.13142002065E+02 0.12857034485E+02 0.12099283212E+02 0.10965590094E+02
 0.96368770129E+01 0.82615098468E+01 0.69652308689E+01 0.58344283617E+01 0.49127717861E+01
 0.42100374965E+01 0.37159613082E+01 0.34130555772E+01 0.32853843074E+01 0.33234009025E+01
 0.35260484805E+01 0.39003004158E+01 0.44570604662E+01 0.52025796600E+01 0.61265758097E+01
 0.58324270392E+01 0.67792844686E+01 0.77995174648E+01 0.88301847491E+01 0.98150257786E+01
 0.10704227417E+02 0.11461200300E+02 0.12090520562E+02 0.12580010720E+02 0.12857037060E+02
 0.12809011855E+02 0.12357663007E+02 0.11530287718E+02 0.10430442566E+02 0.91821879387E+01
 0.79132911165E+01 0.67288084726E+01 0.56983214484E+01 0.48562578011E+01 0.42100374965E+01
 0.37507994877E+01 0.34633509698E+01 0.33338401924E+01 0.33545975800E+01 0.35258641849E+01
 0.38543161449E+01 0.43484986313E+01 0.50115356521E+01 0.47933591956E+01 0.55074641413E+01
 0.63369262358E+01 0.72443425963E+01 0.81870888998E+01 0.91260709410E+01 0.10028760240E+02
 0.10860359450E+02 0.11572119820E+02 0.12099268479E+02 0.12357649196E+02 0.12273747721E+02
 0.11825972408E+02 0.11050756691E+02 0.10035014187E+02 0.88919919372E+01 0.77332816826E+01
 0.66487763667E+01 0.56983214484E+01 0.49127717861E+01 0.43002035668E+01 0.38540973907E+01
 0.35618125405E+01 0.34120123951E+01 0.33994115656E+01 0.35257260897E+01 0.37971401735E+01
 0.42196224094E+01 0.40772080821E+01 0.45596134526E+01 0.51692559346E+01 0.58886783345E+01
 0.66944892511E+01 0.75603829117E+01 0.84588161243E+01 0.93581101930E+01 0.10214670268E+02
 0.10965593766E+02 0.11530272356E+02 0.11825954165E+02 0.11792786667E+02 0.11415994415E+02
 0.10733422544E+02 0.98252544129E+01 0.87923039713E+01 0.77332816826E+01 0.67288084726E+01
 0.58344283617E+01 0.50807476865E+01 0.44778532516E+01 0.40221270818E+01 0.37041889955E+01
 0.35161067340E+01 0.34555435739E+01 0.35256614123E+01 0.37317990710E+01 0.36615685761E+01
 0.39284458396E+01 0.43223482307E+01 0.48356951493E+01 0.54586652318E+01 0.61798069612E+01
 0.69849610720E+01 0.78538867912E+01 0.87545540046E+01 0.96369034351E+01 0.10430453850E+02
 0.11050746222E+02 0.11415978857E+02 0.11468782787E+02 0.11193727806E+02 0.10622544194E+02
 0.98252544129E+01 0.88919919372E+01 0.79132911165E+01 0.69652308689E+01 0.61020043705E+01
 0.53551269320E+01 0.47372086976E+01 0.42484520291E+01 0.38841608400E+01 0.36410451980E+01
 0.35201301269E+01 0.35256488483E+01 0.35256482363E+01 0.35898305559E+01 0.37806232269E+01
 0.40934539911E+01 0.45237615311E+01 0.50687859138E+01 0.57264391919E+01 0.64909826361E+01
 0.73467229625E+01 0.82615086529E+01 0.91822059344E+01 0.10035027773E+02 0.10733417964E+02
 0.11193715768E+02 0.11354667724E+02 0.11193727806E+02 0.10733422544E+02 0.10035014187E+02
 0.91821879387E+01 0.82615098468E+01 0.73467525623E+01 0.64910215648E+01 0.57264484490E+01
 0.50687474717E+01 0.45237208617E+01 0.40934918794E+01 0.37807547812E+01 0.35899558622E+01
 0.36616521751E+01 0.35256412518E+01 0.35199973470E+01 0.36408814872E+01 0.38840750299E+01
 0.42484595787E+01 0.47372482462E+01 0.53551417434E+01 0.61019838369E+01 0.69651982847E+01
 0.79132749762E+01 0.88920003218E+01 0.98252681703E+01 0.10622542176E+02 0.11193715768E+02
 0.11468782787E+02 0.11415994415E+02 0.11050756691E+02 0.10430442566E+02 0.96368770129E+01
 0.87545365062E+01 0.78539029521E+01 0.69850113094E+01 0.61798484195E+01 0.54586440170E+01
 0.48356211541E+01 0.43223076713E+01 0.39284981747E+01 0.40771664180E+01 0.37318238842E+01
 0.35256504017E+01 0.34554429343E+01 0.35159704181E+01 0.37040999757E+01 0.40221125795E+01
 0.44778837132E+01 0.50807769485E+01 0.58344251563E+01 0.67287772066E+01 0.77332571632E+01
 0.87923082808E+01 0.98252681703E+01 0.10733417964E+02 0.11415978857E+02 0.11792786667E+02
 0.11825972408E+02 0.11530287718E+02 0.10965590094E+02 0.10214644617E+02 0.93580736129E+01
 0.84588039528E+01 0.75604292197E+01 0.66945634625E+01 0.58886893985E+01 0.51691630378E+01
 0.45594950846E+01 0.47931978255E+01 0.42195104996E+01 0.37971121472E+01 0.35257201258E+01
 0.33993753448E+01 0.34119514400E+01 0.35617572715E+01 0.38540743059E+01 0.43002228140E+01
 0.49128080012E+01 0.56983284706E+01 0.66487460910E+01 0.77332571632E+01 0.88920003218E+01
 0.10035027773E+02 0.11050746222E+02 0.11825954165E+02 0.12273747721E+02 0.12357663007E+02
 0.12099283212E+02 0.11572131791E+02 0.10860349691E+02 0.10028708471E+02 0.91260171389E+01
 0.81871117900E+01 0.72444376757E+01 0.63369745685E+01 0.55073773917E+01 0.58323721406E+01
 0.50113872419E+01 0.43483677320E+01 0.38542600519E+01 0.35258738530E+01 0.33546405886E+01
 0.33338725960E+01 0.34633424625E+01 0.37507761982E+01 0.42100496289E+01 0.48562959952E+01
 0.56983284706E+01 0.67287772066E+01 0.79132749762E+01 0.91822059344E+01 0.10430453850E+02
 0.11530272356E+02 0.12357649196E+02 0.12809011855E+02 0.12857034485E+02 0.12580016544E+02
 0.12090556099E+02 0.11461222244E+02 0.10704169630E+02 0.98149275267E+01 0.88301687952E+01
 0.77996100589E+01 0.67793594209E+01 0.71914417259E+01 0.61265689371E+01 0.52024985757E+01
 0.44569654259E+01 0.39002460308E+01 0.35260809916E+01 0.33235152562E+01 0.32854919988E+01
 0.34130793574E+01 0.37159390305E+01 0.42100496289E+01 0.49128080012E+01 0.58344251563E+01
 0.69651982847E+01 0.82615086529E+01 0.96369034351E+01 0.10965593766E+02 0.12099268479E+02
 0.12857037060E+02 0.13142002065E+02 0.13030638821E+02 0.12699144843E+02 0.12295492691E+02
 0.11847459952E+02 0.11271137204E+02 0.10470932380E+02 0.94531304986E+01 0.83291113395E+01
 0.88037283196E+01 0.75505582248E+01 0.63739095353E+01 0.53561164601E+01 0.45393326608E+01
 0.39324951011E+01 0.35262624905E+01 0.33075602592E+01 0.32691082053E+01 0.34130793574E+01
 0.37507761982E+01 0.43002228140E+01 0.50807769485E+01 0.61019838369E+01 0.73467229625E+01
 0.87545540046E+01 0.10214670268E+02 0.11572119820E+02 0.12580010720E+02 0.13030670356E+02
 0.12952378169E+02 0.12583092129E+02 0.12214581213E+02 0.12005837565E+02 0.11889019777E+02
 0.11633321652E+02 0.11022324216E+02 0.10020393801E+02 0.10494231175E+02 0.91983991404E+01
 0.78373959719E+01 0.65608790872E+01 0.54636654017E+01 0.45907674886E+01 0.39491194412E+01
 0.35263348431E+01 0.33075602592E+01 0.32854919988E+01 0.34633424625E+01 0.38540743059E+01
 0.44778837132E+01 0.53551417434E+01 0.64909826361E+01 0.78538867912E+01 0.93581101930E+01
 0.10860359450E+02 0.12090520562E+02 0.12699156219E+02 0.12583159983E+02 0.11971294786E+02
 0.11305818220E+02 0.10988724926E+02 0.11142168435E+02 0.11538819032E+02 0.11751945271E+02
 0.11426580566E+02 0.11680572880E+02 0.10850631315E+02 0.94936427334E+01 0.80370169375E+01
 0.66772862313E+01 0.55190313671E+01 0.46082581120E+01 0.39491194412E+01 0.35262624905E+01
 0.33235152562E+01 0.33338725960E+01 0.35617572715E+01 0.40221125795E+01 0.47372482462E+01
 0.57264391919E+01 0.69849610720E+01 0.84588161243E+01 0.10028760240E+02 0.11461200300E+02
 0.12295430561E+02 0.12214614718E+02 0.11305918421E+02 0.10062574108E+02 0.91495370292E+01
 0.90440989283E+01 0.97628673422E+01 0.10852509023E+02 0.11655422728E+02 0.11428951580E+02
 0.11813068429E+02 0.11083769263E+02 0.96759650580E+01 0.81393504650E+01 0.67168034643E+01
 0.55190313671E+01 0.45907674886E+01 0.39324951011E+01 0.35260809916E+01 0.33546405886E+01
 0.34119514400E+01 0.37040999757E+01 0.42484595787E+01 0.50687859138E+01 0.61798069612E+01
 0.75603829117E+01 0.91260709410E+01 0.10704227417E+02 0.11847397359E+02 0.12005755423E+02
 0.10988778286E+02 0.91496501479E+01 0.72858153323E+01 0.62684433638E+01 0.65849153834E+01
 0.80666654861E+01 0.99803243070E+01 0.91308240297E+01 0.11186502038E+02 0.11867386768E+02
 0.11197824173E+02 0.97375814814E+01 0.81393504650E+01 0.66772862313E+01 0.54636654017E+01
 0.45393326608E+01 0.39002460308E+01 0.35258738530E+01 0.33993753448E+01 0.35159704181E+01
 0.38840750299E+01 0.45237615311E+01 0.54586652318E+01 0.66944892511E+01 0.81870888998E+01
 0.98150257786E+01 0.11271187382E+02 0.11888922219E+02 0.11142084189E+02 0.90441598340E+01
 0.62685358325E+01 0.39189415150E+01 0.30167827051E+01 0.39717635418E+01 0.63560093467E+01
 0.49680091233E+01 0.85156774739E+01 0.11033744877E+02 0.11880670680E+02 0.11197824173E+02
 0.96759650580E+01 0.80370169375E+01 0.65608790872E+01 0.53561164601E+01 0.44569654259E+01
 0.38542600519E+01 0.35257201258E+01 0.34554429343E+01 0.36408814872E+01 0.40934539911E+01
 0.48356951493E+01 0.58886783345E+01 0.72443425963E+01 0.88301847491E+01 0.10471060114E+02
 0.11633350265E+02 0.11538710751E+02 0.97628067379E+01 0.65849626923E+01 0.30168162849E+01
 0.42498146800E+00 -.10979897514E+00 0.16501308794E+01 0.49152793152E-01 0.41911011974E+01
 0.82914307529E+01 0.11033744877E+02 0.11867386768E+02 0.11083769263E+02 0.94936427334E+01
 0.78373959719E+01 0.63739095353E+01 0.52024985757E+01 0.43483677320E+01 0.37971121472E+01
 0.35256504017E+01 0.35199973470E+01 0.37806232269E+01 0.43223482307E+01 0.51692559346E+01
 0.63369262358E+01 0.77995174648E+01 0.94531868133E+01 0.11022448263E+02 0.11751944041E+02
 0.10852428332E+02 0.80666536457E+01 0.39717746588E+01 -.10985112480E+00 -.26359872214E+01
 -.25780641870E+01 -.39398700417E+01 -.52199514816E+00 0.41911011974E+01 0.85156774739E+01
 0.11186502038E+02 0.11813068429E+02 0.10850631315E+02 0.91983991404E+01 0.75505582248E+01
 0.61265689371E+01 0.50113872419E+01 0.42195104996E+01 0.37318238842E+01 0.35256412518E+01
 0.35898305559E+01 0.39284458396E+01 0.45596134526E+01 0.55074641413E+01 0.67792844686E+01
 0.83290480234E+01 0.10020472852E+02 0.11426658647E+02 0.11655392834E+02 0.99803093257E+01
 0.63560604521E+01 0.16500932641E+01 -.25782020805E+01 -.47299559217E+01 -.39395336595E+01
 -.28292742418E+01 0.64466984122E+00 0.51320669576E+01 0.90442047405E+01 0.11266733533E+02
 0.11543406435E+02 0.10398451743E+02 0.87188179078E+01 0.70988454904E+01 0.57220197735E+01
 0.46604400613E+01 0.39199975752E+01 0.34770030500E+01 0.33071686488E+01 0.33997956843E+01
 0.37611784393E+01 0.44127103270E+01 0.53803947453E+01 0.66692693647E+01 0.82263669735E+01
 0.99048277229E+01 0.11241569818E+02 0.11357450438E+02 0.96019759431E+01 0.60290801069E+01
 0.15701908352E+01 -.22427486623E+01 -.28294498530E+01 -.39395666990E+01 -.22426507454E+01
 0.15702202776E+01 0.60290538511E+01 0.96020665039E+01 0.11357620951E+02 0.11241639263E+02
 0.99048292610E+01 0.82264705424E+01 0.66694236283E+01 0.53804109362E+01 0.44126256922E+01
 0.37611791049E+01 0.33998597462E+01 0.33071378813E+01 0.34769190114E+01 0.39200123078E+01
 0.46604858761E+01 0.57219212588E+01 0.70986635425E+01 0.87187335385E+01 0.10398417040E+02
 0.11543266588E+02 0.11266576183E+02 0.90442146757E+01 0.51321474751E+01 0.64459192190E+00
 0.76562488804E+00 -.21099817788E+01 -.25778216205E+01 -.46494953865E+00 0.33518252606E+01
 0.73974667425E+01 0.10309641091E+02 0.11404789715E+02 0.10835047239E+02 0.93354505223E+01
 0.76926781948E+01 0.62218126084E+01 0.50380714894E+01 0.41746301760E+01 0.36172865738E+01
 0.33393480054E+01 0.33232156837E+01 0.35674765619E+01 0.40867024615E+01 0.49061699573E+01
 0.60454128803E+01 0.74878651707E+01 0.91455724209E+01 0.10797292270E+02 0.11769119916E+02
 0.11230143252E+02 0.88030925507E+01 0.49125954352E+01 0.54303832480E+01 0.19152552776E+01
 -.21931126052E+00 -.10963719030E+00 0.21669848831E+01 0.56382957772E+01 0.89398693332E+01
 0.10966979889E+02 0.11314043143E+02 0.10313001539E+02 0.87225899589E+01 0.71436896125E+01
 0.57784930708E+01 0.47115349876E+01 0.39571013990E+01 0.34942458028E+01 0.32977848059E+01
 0.33545720006E+01 0.36673007057E+01 0.42531518424E+01 0.51371332345E+01 0.63337012881E+01
 0.78163503416E+01 0.94855634335E+01 0.11092822436E+02 0.11947502377E+02 0.11315448209E+02
 0.89639075959E+01 0.95051149979E+01 0.65836065777E+01 0.38717720538E+01 0.24912085188E+01
 0.30168454707E+01 0.51770965211E+01 0.80054939904E+01 0.10344848529E+02 0.11398098855E+02
 0.11028634131E+02 0.96966407222E+01 0.80976024295E+01 0.66066793851E+01 0.53610676450E+01
 0.44157118298E+01 0.37691732535E+01 0.33968895466E+01 0.32766594957E+01 0.33995645876E+01
 0.37713789819E+01 0.44106152857E+01 0.53407452694E+01 0.65707549917E+01 0.80660402645E+01
 0.97205446229E+01 0.11278742621E+02 0.12089168581E+02 0.11534660007E+02 0.11838948239E+02
 0.10303797127E+02 0.81353339585E+01 0.62656512567E+01 0.55397077433E+01 0.62683992569E+01
 0.80639940245E+01 0.10058664046E+02 0.11364552219E+02 0.11498787922E+02 0.10550448066E+02
 0.90406871473E+01 0.74911222343E+01 0.61079976415E+01 0.49889357300E+01 0.41632850393E+01
 0.36183912658E+01 0.33290484020E+01 0.32766963714E+01 0.34558389369E+01 0.38741608963E+01
 0.45503193977E+01 0.55052818159E+01 0.67427046846E+01 0.82221820764E+01 0.98360517116E+01
 0.11345266121E+02 0.12178707111E+02 0.12177764725E+02 0.12132820015E+02 0.11169746705E+02
 0.97748434880E+01 0.86702106994E+01 0.84277342808E+01 0.91494020066E+01 0.10413938394E+02
 0.11520193499E+02 0.11869939303E+02 0.11261263832E+02 0.99422786960E+01 0.84014104971E+01
 0.69337469120E+01 0.56712797446E+01 0.46782520248E+01 0.39644134503E+01 0.35107436143E+01
 0.32935862759E+01 0.32978779997E+01 0.35205005263E+01 0.39700024455E+01 0.46641936880E+01
 0.56208654318E+01 0.68388444625E+01 0.82742900977E+01 0.98223197839E+01 0.11278290328E+02
 0.11064399830E+02 0.12038972995E+02 0.12303865993E+02 0.11897631664E+02 0.11195427906E+02
 0.10701502637E+02 0.10750575507E+02 0.11305633634E+02 0.11982137373E+02 0.12279522159E+02
 0.11869813957E+02 0.10770064287E+02 0.93079085791E+01 0.78158286136E+01 0.64534288260E+01
 0.53159524923E+01 0.44414219644E+01 0.38267390608E+01 0.34507094171E+01 0.32923520032E+01
 0.33394461962E+01 0.35903254057E+01 0.40536288533E+01 0.47455523507E+01 0.56802927785E+01
 0.68525188366E+01 0.82171374556E+01 0.96757325051E+01 0.94003753464E+01 0.10699767652E+02
 0.11725610719E+02 0.12258318444E+02 0.12321710734E+02 0.12166785288E+02 0.12100141935E+02
 0.12274714924E+02 0.12582909215E+02 0.12723520685E+02 0.12395723831E+02 0.11492350884E+02
 0.10172962135E+02 0.87233529416E+01 0.73177593383E+01 0.60733594312E+01 0.50565262661E+01
 0.42871744309E+01 0.37555777895E+01 0.34412473203E+01 0.33260583259E+01 0.33998879825E+01
 0.36619485606E+01 0.41205094428E+01 0.47896102678E+01 0.56796317591E+01 0.67817879230E+01
 0.80516651702E+01 0.77855912120E+01 0.90091298235E+01 0.10199186486E+02 0.11229948815E+02
 0.11951226104E+02 0.12357415974E+02 0.12582649400E+02 0.12774720977E+02 0.12965246362E+02
 0.13030496558E+02 0.12771691068E+02 0.12058754518E+02 0.10939089119E+02 0.96092856431E+01
 0.82321898025E+01 0.69359464610E+01 0.58108691312E+01 0.49027236242E+01 0.42210091475E+01
 0.37541033795E+01 0.34836699000E+01 0.33941012249E+01 0.34768925278E+01 0.37319866371E+01
 0.41671033866E+01 0.47937891077E+01 0.56185287456E+01 0.66297826701E+01 0.64046944965E+01
 0.74334655623E+01 0.85237212899E+01 0.95981887755E+01 0.10583628157E+02 0.11402088525E+02
 0.12018859112E+02 0.12472976776E+02 0.12799694687E+02 0.12962910331E+02 0.12856946461E+02
 0.12379927562E+02 0.11525913182E+02 0.10404978235E+02 0.91444090215E+01 0.78712632469E+01
 0.66921709784E+01 0.56773912700E+01 0.48601499868E+01 0.42456842029E+01 0.38233601194E+01
 0.35773902497E+01 0.34943349087E+01 0.35672786959E+01 0.37971040995E+01 0.41909956500E+01
 0.47578231099E+01 0.55002243649E+01 0.53313167651E+01 0.61193627017E+01 0.70159465237E+01
 0.79733472744E+01 0.89365493541E+01 0.98553788159E+01 0.10691690319E+02 0.11409233628E+02
 0.11981384955E+02 0.12374642904E+02 0.12524719668E+02 0.12357619932E+02 0.11844542361E+02
 0.11024501063E+02 0.99806699700E+01 0.88247223343E+01 0.76683167476E+01 0.66006544961E+01
 0.56790973882E+01 0.49310196951E+01 0.43614403437E+01 0.39620397215E+01 0.37195864866E+01
 0.36228562389E+01 0.36669470809E+01 0.38540784786E+01 0.41909628426E+01 0.46836992593E+01
 0.45754787005E+01 0.51213233042E+01 0.57904338911E+01 0.65582068112E+01 0.73919363882E+01
 0.82557278897E+01 0.91153024954E+01 0.99384623871E+01 0.10689050919E+02 0.11318115367E+02
 0.11761049070E+02 0.11947981044E+02 0.11825954290E+02 0.11381925356E+02 0.10653357155E+02
 0.97202745557E+01 0.86835098188E+01 0.76404577002E+01 0.66682464436E+01 0.58175715063E+01
 0.51144706922E+01 0.45658022699E+01 0.41660719731E+01 0.39048939866E+01 0.37739089306E+01
 0.37709523793E+01 0.38999228897E+01 0.41669991003E+01 0.41203181081E+01 0.44390467846E+01
 0.48820773214E+01 0.54371090868E+01 0.60876203914E+01 0.68145686189E+01 0.75971303347E+01
 0.84117035117E+01 0.92282308846E+01 0.10004362812E+02 0.10681219072E+02 0.11186538204E+02
 0.11448401566E+02 0.11415982832E+02 0.11077860396E+02 0.10468383813E+02 0.96588553374E+01
 0.87383831852E+01 0.77935996814E+01 0.68947071447E+01 0.60899410850E+01 0.54062051881E+01
 0.48529766360E+01 0.44281645892E+01 0.41252710720E+01 0.39400294029E+01 0.38737666304E+01
 0.39320833438E+01 0.39486752115E+01 0.40533350387E+01 0.42818163956E+01 0.46269757389E+01
 0.50795872184E+01 0.56311470022E+01 0.62739035891E+01 0.69979058010E+01 0.77862718701E+01
 0.86098671203E+01 0.94227282681E+01 0.10160905331E+02 0.10748226914E+02 0.11110362964E+02
 0.11193712744E+02 0.10981510494E+02 0.10499617076E+02 0.98092201350E+01 0.89901331157E+01
 0.81223412321E+01 0.72725525774E+01 0.64882065834E+01 0.57975043893E+01 0.52130347060E+01
 0.47374747374E+01 0.43701631561E+01 0.41124842592E+01 0.39697130636E+01 0.40534581932E+01
 0.39486931778E+01 0.39696117443E+01 0.41123645861E+01 0.43700923517E+01 0.47374262611E+01
 0.52129768301E+01 0.57974500543E+01 0.64881615161E+01 0.72724993393E+01 0.81222907644E+01
 0.89901201174E+01 0.98092382949E+01 0.10499624355E+02 0.10981498976E+02 0.11193708907E+02
 0.11110366051E+02 0.10748215369E+02 0.10160895712E+02 0.94227591283E+01 0.86099337642E+01
 0.77863408909E+01 0.69979753598E+01 0.62739829421E+01 0.56312061866E+01 0.50796060472E+01
 0.46270107278E+01 0.42819252976E+01 0.44390993947E+01 0.41204281154E+01 0.39321332629E+01
 0.38737205732E+01 0.39399525107E+01 0.41252078124E+01 0.44281033485E+01 0.48529197296E+01
 0.54061750391E+01 0.60899235273E+01 0.68946717505E+01 0.77935645096E+01 0.87383847560E+01
 0.96588749530E+01 0.10468377355E+02 0.11077836068E+02 0.11415977022E+02 0.11448408028E+02
 0.11186534358E+02 0.10681228500E+02 0.10004417722E+02 0.92283090988E+01 0.84117735779E+01
 0.75972120201E+01 0.68146720617E+01 0.60876826262E+01 0.54370850432E+01 0.48820416413E+01
 0.51212139957E+01 0.45754618745E+01 0.41670737680E+01 0.38999927838E+01 0.37709762797E+01
 0.37739064274E+01 0.39048637186E+01 0.41660095747E+01 0.45657516990E+01 0.51144667839E+01
 0.58175774985E+01 0.66682235109E+01 0.76404384248E+01 0.86835293655E+01 0.97202948489E+01
 0.10653336105E+02 0.11381895467E+02 0.11825958373E+02 0.11947998786E+02 0.11761058578E+02
 0.11318151903E+02 0.10689132304E+02 0.99385374579E+01 0.91153468585E+01 0.82557994659E+01
 0.73920533035E+01 0.65582685437E+01 0.57903660137E+01 0.61192642117E+01 0.53311673557E+01
 0.46836354569E+01 0.41909961405E+01 0.38541494068E+01 0.36670282458E+01 0.36229212052E+01
 0.37195845809E+01 0.39619802248E+01 0.43614075553E+01 0.49310454811E+01 0.56791177935E+01
 0.66006379177E+01 0.76683195949E+01 0.88247680675E+01 0.99806943223E+01 0.11024472837E+02
 0.11844520772E+02 0.12357640375E+02 0.12524742054E+02 0.12374659185E+02 0.11981448732E+02
 0.11409335204E+02 0.10691740012E+02 0.98553680850E+01 0.89365835374E+01 0.79734530114E+01
 0.70159942356E+01 0.74334778594E+01 0.64045871519E+01 0.55000879617E+01 0.47577520186E+01
 0.41909909347E+01 0.37971542702E+01 0.35673831613E+01 0.34944283612E+01 0.35773907355E+01
 0.38233054998E+01 0.42456834871E+01 0.48602051951E+01 0.56774139832E+01 0.66921592858E+01
 0.78712986519E+01 0.91444867207E+01 0.10405008270E+02 0.11525887916E+02 0.12379925265E+02
 0.12856975499E+02 0.12962914581E+02 0.12799700502E+02 0.12473058095E+02 0.12018965374E+02
 0.11402092401E+02 0.10583545674E+02 0.95981644985E+01 0.85237825788E+01 0.90091190652E+01
 0.77855488110E+01 0.66296887635E+01 0.56184514894E+01 0.47937416481E+01 0.41670647554E+01
 0.37319994874E+01 0.34769828098E+01 0.33941756337E+01 0.34836468147E+01 0.37540612117E+01
 0.42210524569E+01 0.49028003994E+01 0.58108829280E+01 0.69359450562E+01 0.82322662850E+01
 0.96093902719E+01 0.10939119210E+02 0.12058739002E+02 0.12771710031E+02 0.13030514458E+02
 0.12965205122E+02 0.12774698002E+02 0.12582730885E+02 0.12357505351E+02 0.11951176069E+02
 0.11229804114E+02 0.10199101775E+02 0.10699645351E+02 0.94002858295E+01 0.80515643492E+01
 0.67817255974E+01 0.56796332532E+01 0.47895928117E+01 0.41204397809E+01 0.36619220554E+01
 0.33999415152E+01 0.33260823398E+01 0.34411935467E+01 0.37555639307E+01 0.42872656112E+01
 0.50566092421E+01 0.60733587330E+01 0.73177789512E+01 0.87234694406E+01 0.10173073189E+02
 0.11492367320E+02 0.12395719876E+02 0.12723556149E+02 0.12582898269E+02 0.12274616080E+02
 0.12100083601E+02 0.12166846881E+02 0.12321760400E+02 0.12258223714E+02 0.11725441659E+02
 0.12038833248E+02 0.11064280315E+02 0.96755845665E+01 0.82169985284E+01 0.68525018987E+01
 0.56803631049E+01 0.47455496124E+01 0.40535355590E+01 0.35902767361E+01 0.33394635954E+01
 0.32923223453E+01 0.34506414693E+01 0.38267717310E+01 0.44415521066E+01 0.53160227346E+01
 0.64534166679E+01 0.78158797143E+01 0.93080488802E+01 0.10770148681E+02 0.11869800707E+02
 0.12279529898E+02 0.11982185430E+02 0.11305594431E+02 0.10750438295E+02 0.10701422684E+02
 0.11195452455E+02 0.11897622530E+02 0.12303749690E+02 0.12132710867E+02 0.12177702140E+02
 0.11278213394E+02 0.98221535298E+01 0.82741543694E+01 0.68388828995E+01 0.56209758610E+01
 0.46641846914E+01 0.39699040084E+01 0.35204609938E+01 0.32978766982E+01 0.32935225559E+01
 0.35106915083E+01 0.39645020791E+01 0.46783981803E+01 0.56713201014E+01 0.69337333955E+01
 0.84014956222E+01 0.99424118452E+01 0.11261286851E+02 0.11869887442E+02 0.11520214847E+02
 0.10414000346E+02 0.91493588084E+01 0.84276088616E+01 0.86701403876E+01 0.97748210273E+01
 0.11169669162E+02 0.10303657563E+02 0.11838872875E+02 0.12178744239E+02 0.11345252262E+02
 0.98359106949E+01 0.82220970615E+01 0.67428017362E+01 0.55053992286E+01 0.45502931863E+01
 0.38740854313E+01 0.34558386468E+01 0.32766946377E+01 0.33289777846E+01 0.36183816761E+01
 0.41634207449E+01 0.49890644830E+01 0.61079972915E+01 0.74911188630E+01 0.90407951064E+01
 0.10550536379E+02 0.11498728571E+02 0.11364467557E+02 0.10058701370E+02 0.80640711082E+01
 0.62683870117E+01 0.55396538793E+01 0.62656246461E+01 0.81352642315E+01 0.65834997408E+01
 0.95049402376E+01 0.11534638793E+02 0.12089295014E+02 0.11278784694E+02 0.97204599386E+01
 0.80660402362E+01 0.65709012788E+01 0.53408417593E+01 0.44105757862E+01 0.37713524073E+01
 0.33996144641E+01 0.32766620382E+01 0.33968322632E+01 0.37692159623E+01 0.44158656917E+01
 0.53611437803E+01 0.66066363322E+01 0.80976149424E+01 0.96967463826E+01 0.11028647086E+02
 0.11397963062E+02 0.10344752485E+02 0.80055434901E+01 0.51771779129E+01 0.30168852060E+01
 0.24912634043E+01 0.38718067711E+01 0.19153407296E+01 0.54302589558E+01 0.89637424027E+01
 0.11315492811E+02 0.11947680915E+02 0.11092892019E+02 0.94855460767E+01 0.78164419063E+01
 0.63338709297E+01 0.51371893258E+01 0.42531115678E+01 0.36673317928E+01 0.33546544416E+01
 0.32977796990E+01 0.34942094343E+01 0.39571854574E+01 0.47116658757E+01 0.57784907722E+01
 0.71436106825E+01 0.87226136061E+01 0.10313072583E+02 0.11313971080E+02 0.10966803806E+02
 0.89397917755E+01 0.56383418950E+01 0.21670410158E+01 -.10955702035E+00 -.21915662278E+00
 -.21097810801E+01 0.76572657710E+00 0.49124797491E+01 0.88029870111E+01 0.11230252951E+02
 0.11769301508E+02 0.10797355799E+02 0.91456151248E+01 0.74880244823E+01 0.60455670427E+01
 0.49061751720E+01 0.40866726026E+01 0.35675500151E+01 0.33232917604E+01 0.33393172254E+01
 0.36172696783E+01 0.41747296030E+01 0.50381401815E+01 0.62217254161E+01 0.76925774283E+01
 0.93354706560E+01 0.10835055103E+02 0.11404649607E+02 0.10309480600E+02 0.73974344257E+01
 0.33518436725E+01 -.46495786203E+00 -.25777422004E+01 0.50070799017E-01 0.76631971233E+00
 0.34382985988E+01 0.69822476846E+01 0.10061309659E+02 0.11708491767E+02 0.11687130195E+02
 0.10449413031E+02 0.87754414282E+01 0.71689441729E+01 0.57958445514E+01 0.47260962267E+01
 0.39666489458E+01 0.34947111189E+01 0.32854559598E+01 0.33261693802E+01 0.36200933464E+01
 0.41858544534E+01 0.50498879440E+01 0.62246888867E+01 0.76748368483E+01 0.92854705401E+01
 0.10763869032E+02 0.11392517794E+02 0.10521286454E+02 0.80563889365E+01 0.46612202494E+01
 0.15707004344E+01 0.64521014517E+00 -.52097066010E+00 0.64531253183E+00 0.36521473522E+01
 0.72808657354E+01 0.10196262676E+02 0.11549387462E+02 0.11260661007E+02 0.98955752724E+01
 0.82394091251E+01 0.66997321937E+01 0.54167305268E+01 0.44440986549E+01 0.37785706141E+01
 0.33943772961E+01 0.32689803784E+01 0.33942746556E+01 0.37785408953E+01 0.44441450818E+01
 0.54166846130E+01 0.66996043815E+01 0.82393889009E+01 0.98956717809E+01 0.11260687164E+02
 0.11549312450E+02 0.10196241565E+02 0.72809113666E+01 0.36521129148E+01 0.34382410427E+01
 0.76623918769E+00 0.50115638792E-01 0.15707906137E+01 0.46612084231E+01 0.80563510662E+01