unknown system                          
   1.00000000000000     
    -2.450000    2.450000    1.274000
     2.450000   -2.450000    1.274000
     2.450000    2.450000   -1.274000
   Si
     2
Direct
  0.250000  0.750000  0.500000
  0.000000  0.000000  0.000000
 
   28   28   28
 -.54743225123E+01 -.39410511671E+01 0.45012739721E-01 0.49602261009E+01 0.91201530575E+01
 0.11417268563E+02 0.11670139794E+02 0.10486896967E+02 0.88004305838E+01 0.71922100004E+01
 0.58366210092E+01 0.48000534500E+01 0.40857424923E+01 0.36711959901E+01 0.35355398164E+01
 0.36712180250E+01 0.40859332210E+01 0.48003247740E+01 0.58366962291E+01 0.71920709794E+01
 0.88003228804E+01 0.10486893569E+02 0.11670095226E+02 0.11417178516E+02 0.91201405875E+01
 0.49602003268E+01 0.44781906581E-01 -.39413433364E+01 -.39413433364E+01 -.47283360188E+01
 -.25758989026E+01 0.16507613470E+01 0.63539811393E+01 0.99757198101E+01 0.11649320417E+02
 0.11420540916E+02 0.10015895589E+02 0.83271699390E+01 0.67804359785E+01 0.55114176732E+01
 0.45660408676E+01 0.39368699305E+01 0.35994435666E+01 0.35356204102E+01 0.37416674998E+01
 0.42286961906E+01 0.50188627432E+01 0.61309254761E+01 0.75505845588E+01 0.91933139433E+01
 0.10840268349E+02 0.11798514560E+02 0.11170339063E+02 0.85010217708E+01 0.41802684349E+01
 -.52802262871E+00 0.44781906581E-01 -.25761127745E+01 -.26293019612E+01 -.10108929790E+00
 0.39799490140E+01 0.80724715210E+01 0.10855142089E+02 0.11751695975E+02 0.11020301832E+02
 0.94508321277E+01 0.77984778144E+01 0.63380590046E+01 0.51729031649E+01 0.43285223766E+01
 0.37888595960E+01 0.35294449393E+01 0.35356055051E+01 0.38071856105E+01 0.43579262192E+01
 0.52102383189E+01 0.63781722538E+01 0.78366824193E+01 0.94868950352E+01 0.11070877149E+02
 0.11850000735E+02 0.11015195570E+02 0.82753981996E+01 0.41802684349E+01 0.49602003268E+01
 0.16506307894E+01 -.10117941148E+00 0.43979091059E+00 0.30346619177E+01 0.66025235451E+01
 0.97773935237E+01 0.11548603816E+02 0.11638144843E+02 0.10471889823E+02 0.88291821211E+01
 0.72435803874E+01 0.58895680880E+01 0.48390024589E+01 0.40993167649E+01 0.36487749685E+01
 0.34645786434E+01 0.35356054354E+01 0.38645758794E+01 0.44668852744E+01 0.53640685893E+01
 0.65649982100E+01 0.80356332166E+01 0.96679923958E+01 0.11183491147E+02 0.11862271500E+02
 0.11015195570E+02 0.85010217708E+01 0.91201405875E+01 0.63539757816E+01 0.39799352699E+01
 0.30346943563E+01 0.39440295559E+01 0.62968376319E+01 0.90714375521E+01 0.11164709519E+02
 0.11904551889E+02 0.11279420753E+02 0.98175076273E+01 0.81865817305E+01 0.66935989748E+01
 0.54592086495E+01 0.45267007304E+01 0.38895199229E+01 0.35233754034E+01 0.34081387112E+01
 0.35357286359E+01 0.39108450957E+01 0.45495935667E+01 0.54717820839E+01 0.66812846821E+01
 0.81375684657E+01 0.97291574871E+01 0.11183491147E+02 0.11850000735E+02 0.11170339063E+02
 0.11417178516E+02 0.99756982820E+01 0.80724776984E+01 0.66026007344E+01 0.62969542291E+01
 0.73216609748E+01 0.91878548171E+01 0.11024183865E+02 0.12034122803E+02 0.11866356254E+02
 0.10713937363E+02 0.91289374271E+01 0.75597396486E+01 0.61785902222E+01 0.50689710868E+01
 0.42510010278E+01 0.37090322171E+01 0.34188061059E+01 0.33630694076E+01 0.35359711421E+01
 0.39433678097E+01 0.46012831942E+01 0.55272408415E+01 0.67207552645E+01 0.81375684657E+01
 0.96679923958E+01 0.11070877149E+02 0.11798514560E+02 0.11670095226E+02 0.11649304250E+02
 0.10855112908E+02 0.97773996478E+01 0.90715580952E+01 0.91880025913E+01 0.10107492538E+02
 0.11351380152E+02 0.12254887811E+02 0.12326258618E+02 0.11480802602E+02 0.10038188083E+02
 0.84611747847E+01 0.69838751790E+01 0.57248778861E+01 0.47371105449E+01 0.40242364144E+01
 0.35661451565E+01 0.33402194296E+01 0.33317021137E+01 0.35362113969E+01 0.39601622199E+01
 0.46188687675E+01 0.55272408415E+01 0.66812846821E+01 0.80356332166E+01 0.94868950352E+01
 0.10840268349E+02 0.10486893569E+02 0.11420610591E+02 0.11751743332E+02 0.11548576238E+02
 0.11164709399E+02 0.11024302025E+02 0.11351513521E+02 0.12021647887E+02 0.12631743530E+02
 0.12740268672E+02 0.12120513859E+02 0.10878423194E+02 0.93661529879E+01 0.78553633535E+01
 0.64894372717E+01 0.53533112478E+01 0.44774624294E+01 0.38557914759E+01 0.34672516639E+01
 0.32914732813E+01 0.33156196409E+01 0.35363106603E+01 0.39601622199E+01 0.46012831942E+01
 0.54717820839E+01 0.65649982100E+01 0.78366824193E+01 0.91933139433E+01 0.88003228804E+01
 0.10015926979E+02 0.11020439854E+02 0.11638235770E+02 0.11904537062E+02 0.12034117104E+02
 0.12254974970E+02 0.12631836882E+02 0.13003564588E+02 0.13077983601E+02 0.12618398681E+02
 0.11598931908E+02 0.10230055445E+02 0.87608927798E+01 0.73473721575E+01 0.61001051954E+01
 0.50787538892E+01 0.42995581633E+01 0.37521734580E+01 0.34166993797E+01 0.32749545831E+01
 0.33156196409E+01 0.35362113969E+01 0.39433678097E+01 0.45495935667E+01 0.53640685893E+01
 0.63781722538E+01 0.75505845588E+01 0.71920709794E+01 0.83270416411E+01 0.94508648659E+01
 0.10472044264E+02 0.11279530385E+02 0.11866360567E+02 0.12326252301E+02 0.12740317000E+02
 0.13078032507E+02 0.13189869926E+02 0.12899768016E+02 0.12132826613E+02 0.10988324333E+02
 0.96495341679E+01 0.82663975671E+01 0.69652682085E+01 0.58323437612E+01 0.49106518656E+01
 0.42092303850E+01 0.37172112876E+01 0.34166993797E+01 0.32914732813E+01 0.33317021137E+01
 0.35359711421E+01 0.39108450957E+01 0.44668852744E+01 0.52102383189E+01 0.61309254761E+01
 0.58366962291E+01 0.67803183791E+01 0.77983457523E+01 0.88291954089E+01 0.98176384577E+01
 0.10714043037E+02 0.11480825309E+02 0.12120511987E+02 0.12618415576E+02 0.12899782772E+02
 0.12851041248E+02 0.12394364326E+02 0.11558642091E+02 0.10449467660E+02 0.91926832035E+01
 0.79172001211E+01 0.67285239368E+01 0.56961468042E+01 0.48540882313E+01 0.42092303850E+01
 0.37521734580E+01 0.34672516639E+01 0.33402194296E+01 0.33630694076E+01 0.35357286359E+01
 0.38645758794E+01 0.43579262192E+01 0.50188627432E+01 0.48003247740E+01 0.55115028727E+01
 0.63379735629E+01 0.72434675459E+01 0.81865755145E+01 0.91290273736E+01 0.10038274360E+02
 0.10878456469E+02 0.11598936084E+02 0.12132826380E+02 0.12394361604E+02 0.12309449527E+02
 0.11857039587E+02 0.11074871013E+02 0.10051392147E+02 0.89011743150E+01 0.77367168052E+01
 0.66483894338E+01 0.56961468042E+01 0.49106518656E+01 0.42995581633E+01 0.38557914759E+01
 0.35661451565E+01 0.34188061059E+01 0.34081387112E+01 0.35356054354E+01 0.38071856105E+01
 0.42286961906E+01 0.40859332210E+01 0.45661714782E+01 0.51729482891E+01 0.58895209484E+01
 0.66935315950E+01 0.75597313618E+01 0.84612262320E+01 0.93662107361E+01 0.10230086940E+02
 0.10988333403E+02 0.11558640075E+02 0.11857035404E+02 0.11823265267E+02 0.11442955345E+02
 0.10754871168E+02 0.98402900811E+01 0.88010521772E+01 0.77367168052E+01 0.67285239368E+01
 0.58323437612E+01 0.50787538892E+01 0.44774624294E+01 0.40242364144E+01 0.37090322171E+01
 0.35233754034E+01 0.34645786434E+01 0.35356055051E+01 0.37416674998E+01 0.36712180250E+01
 0.39367798423E+01 0.43284564822E+01 0.48389880094E+01 0.54592090519E+01 0.61785896581E+01
 0.69838853897E+01 0.78553868283E+01 0.87609179722E+01 0.96495539801E+01 0.10449481732E+02
 0.11074879246E+02 0.11442959311E+02 0.11495951197E+02 0.11218574571E+02 0.10643094400E+02
 0.98402900811E+01 0.89011743150E+01 0.79172001211E+01 0.69652682085E+01 0.61001051954E+01
 0.53533112478E+01 0.47371105449E+01 0.42510010278E+01 0.38895199229E+01 0.36487749685E+01
 0.35294449393E+01 0.35356204102E+01 0.35355398164E+01 0.35991718603E+01 0.37885074104E+01
 0.40990857579E+01 0.45266495677E+01 0.50690287981E+01 0.57249510692E+01 0.64894781630E+01
 0.73473795468E+01 0.82663937636E+01 0.91926901239E+01 0.10051413126E+02 0.10754893164E+02
 0.11218586472E+02 0.11380715477E+02 0.11218574571E+02 0.10754871168E+02 0.10051392147E+02
 0.91926832035E+01 0.82663975671E+01 0.73473721575E+01 0.64894372717E+01 0.57248778861E+01
 0.50689710868E+01 0.45267007304E+01 0.40993167649E+01 0.37888595960E+01 0.35994435666E+01
 0.36711959901E+01 0.35353504956E+01 0.35289576377E+01 0.36482772634E+01 0.38892230205E+01
 0.42509606077E+01 0.47372295415E+01 0.53534514962E+01 0.61001806634E+01 0.69652716577E+01
 0.79171781134E+01 0.89011738427E+01 0.98403170090E+01 0.10643122732E+02 0.11218586472E+02
 0.11495951197E+02 0.11442955345E+02 0.11074871013E+02 0.10449467660E+02 0.96495341679E+01
 0.87608927798E+01 0.78553633535E+01 0.69838751790E+01 0.61785902222E+01 0.54592086495E+01
 0.48390024589E+01 0.43285223766E+01 0.39368699305E+01 0.40857424923E+01 0.37413741093E+01
 0.35351507969E+01 0.34640182299E+01 0.35228888878E+01 0.37087834917E+01 0.40242524185E+01
 0.44776407869E+01 0.50789490834E+01 0.58324518055E+01 0.67285316727E+01 0.77366877587E+01
 0.88010497694E+01 0.98403170090E+01 0.10754893164E+02 0.11442959311E+02 0.11823265267E+02
 0.11857039587E+02 0.11558642091E+02 0.10988324333E+02 0.10230055445E+02 0.93661529879E+01
 0.84611747847E+01 0.75597396486E+01 0.66935989748E+01 0.58895680880E+01 0.51729031649E+01
 0.45660408676E+01 0.48000534500E+01 0.42283081584E+01 0.38067233890E+01 0.35350902876E+01
 0.34076469121E+01 0.34184595842E+01 0.35660247188E+01 0.38558887021E+01 0.42997880280E+01
 0.49108859937E+01 0.56962760752E+01 0.66484003971E+01 0.77366877587E+01 0.89011738427E+01
 0.10051413126E+02 0.11074879246E+02 0.11857035404E+02 0.12309449527E+02 0.12394364326E+02
 0.12132826613E+02 0.11598931908E+02 0.10878423194E+02 0.10038188083E+02 0.91289374271E+01
 0.81865817305E+01 0.72435803874E+01 0.63380590046E+01 0.55114176732E+01 0.58366210092E+01
 0.50185607846E+01 0.43574762735E+01 0.38640714759E+01 0.35352623007E+01 0.33627357274E+01
 0.33400700049E+01 0.34672776206E+01 0.37523434013E+01 0.42094921894E+01 0.48543370301E+01
 0.56962760752E+01 0.67285316727E+01 0.79171781134E+01 0.91926901239E+01 0.10449481732E+02
 0.11558640075E+02 0.12394361604E+02 0.12851041248E+02 0.12899768016E+02 0.12618398681E+02
 0.12120513859E+02 0.11480802602E+02 0.10713937363E+02 0.98175076273E+01 0.88291821211E+01
 0.77984778144E+01 0.67804359785E+01 0.71922100004E+01 0.61309077796E+01 0.52100127980E+01
 0.44664965515E+01 0.39103975061E+01 0.35356129803E+01 0.33315404333E+01 0.32914916636E+01
 0.34168217869E+01 0.37174106626E+01 0.42094921894E+01 0.49108859937E+01 0.58324518055E+01
 0.69652716577E+01 0.82663937636E+01 0.96495539801E+01 0.10988333403E+02 0.12132826380E+02
 0.12899782772E+02 0.13189869926E+02 0.13077983601E+02 0.12740268672E+02 0.12326258618E+02
 0.11866356254E+02 0.11279420753E+02 0.10471889823E+02 0.94508321277E+01 0.83271699390E+01
 0.88004305838E+01 0.75507253661E+01 0.63782342241E+01 0.53639821433E+01 0.45493330782E+01
 0.39430178275E+01 0.35359569328E+01 0.33155685559E+01 0.32750386380E+01 0.34168217869E+01
 0.37523434013E+01 0.42997880280E+01 0.50789490834E+01 0.61001806634E+01 0.73473795468E+01
 0.87609179722E+01 0.10230086940E+02 0.11598936084E+02 0.12618415576E+02 0.13078032507E+02
 0.13003564588E+02 0.12631743530E+02 0.12254887811E+02 0.12034122803E+02 0.11904551889E+02
 0.11638144843E+02 0.11020301832E+02 0.10015895589E+02 0.10486896967E+02 0.91933945355E+01
 0.78368066647E+01 0.65651364585E+01 0.54718380307E+01 0.46011440167E+01 0.39598841759E+01
 0.35360986072E+01 0.33155685559E+01 0.32914916636E+01 0.34672776206E+01 0.38558887021E+01
 0.44776407869E+01 0.53534514962E+01 0.64894781630E+01 0.78553868283E+01 0.93662107361E+01
 0.10878456469E+02 0.12120511987E+02 0.12740317000E+02 0.12631836882E+02 0.12021647887E+02
 0.11351380152E+02 0.11024183865E+02 0.11164709519E+02 0.11548603816E+02 0.11751695975E+02
 0.11420540916E+02 0.11670139794E+02 0.10840338665E+02 0.94869551593E+01 0.80357361777E+01
 0.66814778405E+01 0.55273861518E+01 0.46187788964E+01 0.39598841759E+01 0.35359569328E+01
 0.33315404333E+01 0.33400700049E+01 0.35660247188E+01 0.40242524185E+01 0.47372295415E+01
 0.57249510692E+01 0.69838853897E+01 0.84612262320E+01 0.10038274360E+02 0.11480825309E+02
 0.12326252301E+02 0.12254974970E+02 0.11351513521E+02 0.10107492538E+02 0.91878548171E+01
 0.90714375521E+01 0.97773935237E+01 0.10855142089E+02 0.11649320417E+02 0.11417268563E+02
 0.11798693655E+02 0.11071026331E+02 0.96680444763E+01 0.81376583873E+01 0.67209686479E+01
 0.55273861518E+01 0.46011440167E+01 0.39430178275E+01 0.35356129803E+01 0.33627357274E+01
 0.34184595842E+01 0.37087834917E+01 0.42509606077E+01 0.50690287981E+01 0.61785896581E+01
 0.75597313618E+01 0.91290273736E+01 0.10714043037E+02 0.11866360567E+02 0.12034117104E+02
 0.11024302025E+02 0.91880025913E+01 0.73216609748E+01 0.62968376319E+01 0.66025235451E+01
 0.80724715210E+01 0.99757198101E+01 0.91201530575E+01 0.11170498277E+02 0.11850291593E+02
 0.11183695051E+02 0.97292085015E+01 0.81376583873E+01 0.66814778405E+01 0.54718380307E+01
 0.45493330782E+01 0.39103975061E+01 0.35352623007E+01 0.34076469121E+01 0.35228888878E+01
 0.38892230205E+01 0.45266495677E+01 0.54592090519E+01 0.66935315950E+01 0.81865755145E+01
 0.98176384577E+01 0.11279530385E+02 0.11904537062E+02 0.11164709399E+02 0.90715580952E+01
 0.62969542291E+01 0.39440295559E+01 0.30346619177E+01 0.39799490140E+01 0.63539811393E+01
 0.49602261009E+01 0.85010295933E+01 0.11015398092E+02 0.11862606248E+02 0.11183695051E+02
 0.96680444763E+01 0.80357361777E+01 0.65651364585E+01 0.53639821433E+01 0.44664965515E+01
 0.38640714759E+01 0.35350902876E+01 0.34640182299E+01 0.36482772634E+01 0.40990857579E+01
 0.48389880094E+01 0.58895209484E+01 0.72434675459E+01 0.88291954089E+01 0.10472044264E+02
 0.11638235770E+02 0.11548576238E+02 0.97773996478E+01 0.66026007344E+01 0.30346943563E+01
 0.43979091059E+00 -.10108929790E+00 0.16507613470E+01 0.45012739721E-01 0.41803108223E+01
 0.82754050822E+01 0.11015398092E+02 0.11850291593E+02 0.11071026331E+02 0.94869551593E+01
 0.78368066647E+01 0.63782342241E+01 0.52100127980E+01 0.43574762735E+01 0.38067233890E+01
 0.35351507969E+01 0.35289576377E+01 0.37885074104E+01 0.43284564822E+01 0.51729482891E+01
 0.63379735629E+01 0.77983457523E+01 0.94508648659E+01 0.11020439854E+02 0.11751743332E+02
 0.10855112908E+02 0.80724776984E+01 0.39799352699E+01 -.10117941148E+00 -.26293019612E+01
 -.25758989026E+01 -.39410511671E+01 -.52775205547E+00 0.41803108223E+01 0.85010295933E+01
 0.11170498277E+02 0.11798693655E+02 0.10840338665E+02 0.91933945355E+01 0.75507253661E+01
 0.61309077796E+01 0.50185607846E+01 0.42283081584E+01 0.37413741093E+01 0.35353504956E+01
 0.35991718603E+01 0.39367798423E+01 0.45661714782E+01 0.55115028727E+01 0.67803183791E+01
 0.83270416411E+01 0.10015926979E+02 0.11420610591E+02 0.11649304250E+02 0.99756982820E+01
 0.63539757816E+01 0.16506307894E+01 -.25761127745E+01 -.47283360188E+01 -.39406960253E+01
 -.28324013901E+01 0.63765215969E+00 0.51206378162E+01 0.90295465754E+01 0.11251301215E+02
 0.11529966275E+02 0.10389067878E+02 0.87142842868E+01 0.70988084144E+01 0.57254962930E+01
 0.46663155002E+01 0.39273385689E+01 0.34851253165E+01 0.33155334557E+01 0.34078664955E+01
 0.37683384669E+01 0.44182668455E+01 0.53836413254E+01 0.66695789942E+01 0.82233261355E+01
 0.98984334179E+01 0.11232484795E+02 0.11347128096E+02 0.95923447048E+01 0.60218511778E+01
 0.15660938072E+01 -.22444038571E+01 -.28326399816E+01 -.39407449239E+01 -.22442874730E+01
 0.15661158988E+01 0.60217326789E+01 0.95922509268E+01 0.11347079719E+02 0.11232385292E+02
 0.98983673163E+01 0.82234465614E+01 0.66697661364E+01 0.53836406738E+01 0.44181045212E+01
 0.37682556065E+01 0.34079231149E+01 0.33156166600E+01 0.34852455707E+01 0.39275569684E+01
 0.46664753072E+01 0.57253953642E+01 0.70985588005E+01 0.87141577038E+01 0.10389082440E+02
 0.11529963120E+02 0.11251299475E+02 0.90296504317E+01 0.51207164997E+01 0.63750874586E+00
 0.75879509538E+00 -.21113516394E+01 -.25756293155E+01 -.46176703921E+00 0.33537290019E+01
 0.73968428322E+01 0.10306479001E+02 0.11400042633E+02 0.10830085762E+02 0.93315423436E+01
 0.76907054697E+01 0.62222447190E+01 0.50409906878E+01 0.41797774417E+01 0.36241611147E+01
 0.33473531625E+01 0.33317800853E+01 0.35760621219E+01 0.40946721439E+01 0.49125966418E+01
 0.60489963616E+01 0.74871163849E+01 0.91392974501E+01 0.10785228137E+02 0.11752486667E+02
 0.11211618243E+02 0.87860417679E+01 0.48999252676E+01 0.54195332251E+01 0.19118925518E+01
 -.21557867031E+00 -.10082550866E+00 0.21780039187E+01 0.56486964922E+01 0.89476070379E+01
 0.10971166411E+02 0.11314926884E+02 0.10311654994E+02 0.87204706867E+01 0.71422304436E+01
 0.57787889019E+01 0.47141275998E+01 0.39619484215E+01 0.35009007496E+01 0.33056783734E+01
 0.33632021479E+01 0.36761930929E+01 0.42616152231E+01 0.51440010490E+01 0.63373105022E+01
 0.78149075858E+01 0.94778280825E+01 0.11078839372E+02 0.11929082775E+02 0.11295916109E+02
 0.89471265045E+01 0.94913129356E+01 0.65774569225E+01 0.38748332648E+01 0.25029600841E+01
 0.30349372267E+01 0.51980454813E+01 0.80256152369E+01 0.10361162177E+02 0.11408968444E+02
 0.11033979517E+02 0.96977057515E+01 0.80963934897E+01 0.66052896178E+01 0.53611045904E+01
 0.44179772937E+01 0.37736994606E+01 0.34032655060E+01 0.32844071925E+01 0.34083027201E+01
 0.37806713075E+01 0.44196340927E+01 0.53480356950E+01 0.65743633168E+01 0.80640736325E+01
 0.97119710430E+01 0.11264094324E+02 0.12070856580E+02 0.11516515684E+02 0.11824355022E+02
 0.10295291126E+02 0.81362476929E+01 0.62774133829E+01 0.55614447690E+01 0.62971158322E+01
 0.80953050533E+01 0.10087910555E+02 0.11387984924E+02 0.11514442785E+02 0.10558432419E+02
 0.90428148509E+01 0.74900786256E+01 0.61064074844E+01 0.49886751897E+01 0.41652166707E+01
 0.36225557147E+01 0.33351130248E+01 0.32843313160E+01 0.34647746116E+01 0.38839232835E+01
 0.45598770517E+01 0.55129219313E+01 0.67463396594E+01 0.82200430088E+01 0.98274958921E+01
 0.11331362035E+02 0.12162369736E+02 0.12164873007E+02 0.12123349149E+02 0.11168087411E+02
 0.97842070132E+01 0.86916721473E+01 0.84597703697E+01 0.91881072929E+01 0.10453947370E+02
 0.11556085423E+02 0.11897669253E+02 0.11279108272E+02 0.99509713395E+01 0.84034828292E+01
 0.69324122368E+01 0.56694011019E+01 0.46777098550E+01 0.39660068794E+01 0.35145328568E+01
 0.32993721548E+01 0.33054842647E+01 0.35297021328E+01 0.39802065085E+01 0.46741573349E+01
 0.56287267287E+01 0.68425687807E+01 0.82724026338E+01 0.98146362986E+01 0.11266360831E+02
 0.11055216519E+02 0.12030318857E+02 0.12300202863E+02 0.11903250406E+02 0.11213205045E+02
 0.10731887722E+02 0.10791163598E+02 0.11351568365E+02 0.12027328036E+02 0.12318308959E+02
 0.11898473974E+02 0.10787591704E+02 0.93158271449E+01 0.78172091272E+01 0.64516683187E+01
 0.53138263137E+01 0.44406352165E+01 0.38280082172E+01 0.34541688030E+01 0.32979577619E+01
 0.33471198453E+01 0.35997940300E+01 0.40641361892E+01 0.47557035374E+01 0.56882221600E+01
 0.68563967627E+01 0.82158588461E+01 0.96695399183E+01 0.93959064076E+01 0.10693498774E+02
 0.11721177254E+02 0.12260120816E+02 0.12333745879E+02 0.12191354005E+02 0.12136869899E+02
 0.12320303451E+02 0.12631831056E+02 0.12769508978E+02 0.12433526364E+02 0.11519068128E+02
 0.10188477334E+02 0.87297818707E+01 0.73183157214E+01 0.60712539334E+01 0.50542297863E+01
 0.42861813543E+01 0.37565849916E+01 0.34445073740E+01 0.33316431763E+01 0.34077182644E+01
 0.36716265797E+01 0.41311273430E+01 0.47997222924E+01 0.56874950816E+01 0.67858510355E+01
 0.80511738003E+01 0.77858397744E+01 0.90062133361E+01 0.10195430521E+02 0.11228984594E+02
 0.11957225975E+02 0.12373876656E+02 0.12611128882E+02 0.12814024772E+02 0.13011459751E+02
 0.13077958190E+02 0.12814593120E+02 0.12092747117E+02 0.10962260750E+02 0.96221987518E+01
 0.82371161977E+01 0.69358519571E+01 0.58085507976E+01 0.49003159977E+01 0.42198786157E+01
 0.37550006776E+01 0.34869510879E+01 0.33998611666E+01 0.34849548571E+01 0.37418025799E+01
 0.41776723493E+01 0.48037099579E+01 0.56262430724E+01 0.66340042551E+01 0.64089754864E+01
 0.74342167782E+01 0.85219011276E+01 0.95961741591E+01 0.10584913805E+02 0.11410450146E+02
 0.12037155910E+02 0.12502032497E+02 0.12837743192E+02 0.13005902167E+02 0.12899660186E+02
 0.12417462231E+02 0.11554961147E+02 0.10424398745E+02 0.91549968954E+01 0.78750552654E+01
 0.66916682206E+01 0.56749609099E+01 0.48576969446E+01 0.42445531812E+01 0.38243758024E+01
 0.35809436684E+01 0.35004507969E+01 0.35756373723E+01 0.38070305738E+01 0.42014593265E+01
 0.47675106138E+01 0.55077495330E+01 0.53386125572E+01 0.61235489063E+01 0.70168830568E+01
 0.79720813389E+01 0.89354105439E+01 0.98575952685E+01 0.10700533805E+02 0.11426933482E+02
 0.12008231703E+02 0.12408691346E+02 0.12562257626E+02 0.12394233405E+02 0.11876339398E+02
 0.11048997806E+02 0.99970711089E+01 0.88336809322E+01 0.76714314169E+01 0.65999547261E+01
 0.56766413860E+01 0.49286170687E+01 0.43604759096E+01 0.39633869865E+01 0.37236063190E+01
 0.36294586415E+01 0.36756725361E+01 0.38641589603E+01 0.42013605001E+01 0.46931750219E+01
 0.45847447568E+01 0.51283219568E+01 0.57943681291E+01 0.65590530104E+01 0.73907707852E+01
 0.82547431595E+01 0.91173837038E+01 0.99463837876E+01 0.10704557163E+02 0.11341253614E+02
 0.11790048244E+02 0.11979741723E+02 0.11856933023E+02 0.11409036284E+02 0.10674568403E+02
 0.97347903246E+01 0.86916378469E+01 0.76433356228E+01 0.66675415444E+01 0.58151788642E+01
 0.51122056888E+01 0.45651185906E+01 0.41678724016E+01 0.39094841209E+01 0.37810792286E+01
 0.37801146127E+01 0.39102220567E+01 0.41773773024E+01 0.41306452688E+01 0.44480415762E+01
 0.48886911731E+01 0.54406744569E+01 0.60882036385E+01 0.68132238572E+01 0.75958643694E+01
 0.84130610969E+01 0.92345879737E+01 0.10017176979E+02 0.10700536305E+02 0.11210954717E+02
 0.11475473919E+02 0.11442885080E+02 0.11102018763E+02 0.10487905298E+02 0.96727220817E+01
 0.87464860463E+01 0.77966777044E+01 0.68941949184E+01 0.60876950988E+01 0.54041248847E+01
 0.48526146846E+01 0.44304562702E+01 0.41304639878E+01 0.39477931009E+01 0.38833807064E+01
 0.39425973924E+01 0.39592938460E+01 0.40634894924E+01 0.42904260914E+01 0.46331129773E+01
 0.50827119671E+01 0.56313949201E+01 0.62722809465E+01 0.69962315197E+01 0.77868029458E+01
 0.86147007649E+01 0.94331983949E+01 0.10177204780E+02 0.10769379241E+02 0.11134504624E+02
 0.11218530190E+02 0.11004672503E+02 0.10519127181E+02 0.98236968257E+01 0.89990330660E+01
 0.81260836874E+01 0.72724588703E+01 0.64862036098E+01 0.57956473417E+01 0.52130082552E+01
 0.47402538117E+01 0.43759329769E+01 0.41207872436E+01 0.39796942010E+01 0.40636463582E+01
 0.39592423674E+01 0.39794316146E+01 0.41204621962E+01 0.43756726983E+01 0.47400747211E+01
 0.52128874326E+01 0.57955758567E+01 0.64861539039E+01 0.72723903266E+01 0.81260046239E+01
 0.89989908971E+01 0.98236991905E+01 0.10519136401E+02 0.11004675378E+02 0.11218546521E+02
 0.11134533300E+02 0.10769404642E+02 0.10177248117E+02 0.94332937482E+01 0.86148301067E+01
 0.77869207985E+01 0.69963375190E+01 0.62724024953E+01 0.56315257344E+01 0.50828416973E+01
 0.46332797461E+01 0.42906430550E+01 0.44480911493E+01 0.41306617401E+01 0.39424556991E+01
 0.38830759177E+01 0.39474500687E+01 0.41301887935E+01 0.44302727819E+01 0.48525217304E+01
 0.54041108841E+01 0.60877042526E+01 0.68941703869E+01 0.77966360658E+01 0.87464801167E+01
 0.96727509344E+01 0.10487931444E+02 0.11102044821E+02 0.11442937913E+02 0.11475542731E+02
 0.11211019413E+02 0.10700624329E+02 0.10017318398E+02 0.92347510703E+01 0.84132044131E+01
 0.75960063683E+01 0.68133840637E+01 0.60883301147E+01 0.54407204358E+01 0.48887082978E+01
 0.51281856100E+01 0.45846277265E+01 0.41772614445E+01 0.39100210667E+01 0.37798311630E+01
 0.37807978624E+01 0.39092615997E+01 0.41677289126E+01 0.45650797664E+01 0.51122585775E+01
 0.58152371644E+01 0.66675405985E+01 0.76433144073E+01 0.86916581600E+01 0.97348385036E+01
 0.10674607772E+02 0.11409084903E+02 0.11857012355E+02 0.11979818898E+02 0.11790104742E+02
 0.11341338581E+02 0.10704700316E+02 0.99465348300E+01 0.91175091293E+01 0.82548899492E+01
 0.73909504500E+01 0.65591607794E+01 0.57943199313E+01 0.61234244615E+01 0.53383759788E+01
 0.46929493308E+01 0.42011532627E+01 0.38639323274E+01 0.36754513867E+01 0.36292837407E+01
 0.37234783437E+01 0.39633239661E+01 0.43605238646E+01 0.49287445614E+01 0.56767316017E+01
 0.65999607002E+01 0.76714334124E+01 0.88337416119E+01 0.99971487104E+01 0.11049049380E+02
 0.11876386449E+02 0.12394274553E+02 0.12562243111E+02 0.12408638249E+02 0.12008238098E+02
 0.11427026145E+02 0.10700631405E+02 0.98576690494E+01 0.89355329785E+01 0.79722511869E+01
 0.70169546399E+01 0.74342346697E+01 0.64088145203E+01 0.55074982988E+01 0.47672581837E+01
 0.42012110913E+01 0.38068060726E+01 0.35754957800E+01 0.35003930308E+01 0.35809251216E+01
 0.38244190933E+01 0.42447061108E+01 0.48578892281E+01 0.56750618047E+01 0.66916834551E+01
 0.78751089310E+01 0.91551221040E+01 0.10424503270E+02 0.11554989903E+02 0.12417430715E+02
 0.12899542837E+02 0.13005666061E+02 0.12837488082E+02 0.12501917717E+02 0.12037183329E+02
 0.11410488730E+02 0.10584930696E+02 0.95962527909E+01 0.85220252809E+01 0.90062648799E+01
 0.77857968492E+01 0.66338538741E+01 0.56260561174E+01 0.48034979792E+01 0.41774256520E+01
 0.37416038668E+01 0.34848933181E+01 0.33998997168E+01 0.34870220333E+01 0.37551412590E+01
 0.42201193673E+01 0.49005419110E+01 0.58086488015E+01 0.69359008175E+01 0.82372526021E+01
 0.96223827032E+01 0.10962343023E+02 0.12092675162E+02 0.12814383717E+02 0.13077579940E+02
 0.13010937758E+02 0.12813563268E+02 0.12610922898E+02 0.12373869955E+02 0.11957233288E+02
 0.11228967105E+02 0.10195462756E+02 0.10693505623E+02 0.93958838394E+01 0.80510821031E+01
 0.67857522160E+01 0.56874174309E+01 0.47995827552E+01 0.41309086684E+01 0.36714674805E+01
 0.34077128377E+01 0.33317201678E+01 0.34446103948E+01 0.37567787030E+01 0.42864653041E+01
 0.50544530937E+01 0.60713496810E+01 0.73184234964E+01 0.87299966484E+01 0.10188661925E+02
 0.11519048580E+02 0.12433289184E+02 0.12769085103E+02 0.12631199259E+02 0.12319562494E+02
 0.12136302196E+02 0.12191136503E+02 0.12333749740E+02 0.12260135999E+02 0.11721167918E+02
 0.12030366555E+02 0.11055235087E+02 0.96694689240E+01 0.82157517132E+01 0.68563796328E+01
 0.56882587176E+01 0.47556289162E+01 0.40639460081E+01 0.35996617675E+01 0.33471140229E+01
 0.32979912692E+01 0.34542366069E+01 0.38282050576E+01 0.44409147663E+01 0.53140172441E+01
 0.64517649858E+01 0.78173761986E+01 0.93160733240E+01 0.10787702248E+02 0.11898311264E+02
 0.12317927544E+02 0.12026767767E+02 0.11350816768E+02 0.10790376217E+02 0.10731364004E+02
 0.11213052568E+02 0.11903291295E+02 0.12300259253E+02 0.12123462251E+02 0.12165008877E+02
 0.11266421604E+02 0.98145576065E+01 0.82723282807E+01 0.68426494339E+01 0.56288452885E+01
 0.46741047531E+01 0.39800169411E+01 0.35295576592E+01 0.33054103872E+01 0.32992980500E+01
 0.35145296206E+01 0.39661771826E+01 0.46779459626E+01 0.56695355069E+01 0.69325074008E+01
 0.84036894260E+01 0.99511974713E+01 0.11279114538E+02 0.11897406375E+02 0.11555669343E+02
 0.10453402736E+02 0.91874243697E+01 0.84591305665E+01 0.86913230774E+01 0.97841582758E+01
 0.11168163993E+02 0.10295378250E+02 0.11824513594E+02 0.12162585798E+02 0.11331468456E+02
 0.98274474794E+01 0.82200466957E+01 0.67465116227E+01 0.55130629845E+01 0.45597888557E+01
 0.38836998366E+01 0.34645811062E+01 0.32841507205E+01 0.33349222707E+01 0.36224948098E+01
 0.41653538543E+01 0.49888397929E+01 0.61064728616E+01 0.74901745418E+01 0.90430440309E+01
 0.10558616499E+02 0.11514376507E+02 0.11387721933E+02 0.10087587273E+02 0.80949104319E+01
 0.62966513849E+01 0.55610889352E+01 0.62773043349E+01 0.81362947203E+01 0.65775519073E+01
 0.94913732919E+01 0.11516684302E+02 0.12071104063E+02 0.11264218818E+02 0.97119738451E+01
 0.80641780307E+01 0.65745944310E+01 0.53481349066E+01 0.44194709682E+01 0.37804033053E+01
 0.34080546502E+01 0.32841347294E+01 0.34030110283E+01 0.37736333498E+01 0.44180902526E+01
 0.53611855910E+01 0.66052923713E+01 0.80964991707E+01 0.96979445758E+01 0.11034123416E+02
 0.11408891147E+02 0.10360992425E+02 0.80254548174E+01 0.51978488955E+01 0.30347423617E+01
 0.25029205726E+01 0.38749450891E+01 0.19121317454E+01 0.54196098331E+01 0.89471287726E+01
 0.11296050893E+02 0.11929292846E+02 0.11078939787E+02 0.94778848958E+01 0.78151050138E+01
 0.63375509411E+01 0.51440130910E+01 0.42613778699E+01 0.36759071391E+01 0.33629352795E+01
 0.33053827614E+01 0.35006790319E+01 0.39619425400E+01 0.47142258075E+01 0.57787843105E+01
 0.71421840108E+01 0.87205841977E+01 0.10311879849E+02 0.11315037314E+02 0.10971132900E+02
 0.89475724611E+01 0.56486802364E+01 0.21779514422E+01 -.10081006586E+00 -.21537964759E+00
 -.21110611572E+01 0.75903597621E+00 0.48999299455E+01 0.87859782786E+01 0.11211688199E+02
 0.11752603394E+02 0.10785274170E+02 0.91393993959E+01 0.74873697342E+01 0.60491898034E+01
 0.49125084509E+01 0.40944043973E+01 0.35758194672E+01 0.33315658178E+01 0.33471352588E+01
 0.36240702186E+01 0.41798685517E+01 0.50410603570E+01 0.62221491081E+01 0.76906169042E+01
 0.93316437726E+01 0.10830263415E+02 0.11400123933E+02 0.10306515896E+02 0.73969208503E+01
 0.33537652719E+01 -.46179521889E+00 -.25755340156E+01 0.46067258560E-01 0.75966994793E+00
 0.34271036082E+01 0.69662280871E+01 0.10042094039E+02 0.11689032747E+02 0.11670528494E+02
 0.10437759080E+02 0.87692672446E+01 0.71675166832E+01 0.57978750023E+01 0.47303458063E+01
 0.39722095796E+01 0.35009554585E+01 0.32918450406E+01 0.33321260244E+01 0.36250212085E+01
 0.41892312561E+01 0.50513103603E+01 0.62238283222E+01 0.76713980335E+01 0.92792937157E+01
 0.10755217215E+02 0.11382379320E+02 0.10511270067E+02 0.80481103768E+01 0.46554581061E+01
 0.15668111887E+01 0.63830382238E+00 -.52666758435E+00 0.63832775183E+00 0.36419879352E+01
 0.72671811988E+01 0.10180406639E+02 0.11533768564E+02 0.11247658667E+02 0.98866257015E+01
 0.82347239699E+01 0.66986943810E+01 0.54184636459E+01 0.44478336533E+01 0.37837199668E+01
 0.34004219721E+01 0.32753573136E+01 0.34003719006E+01 0.37837631680E+01 0.44479348277E+01
 0.54184402826E+01 0.66985803241E+01 0.82347567827E+01 0.98868576198E+01 0.11247912408E+02
 0.11533981089E+02 0.10180675656E+02 0.72674666556E+01 0.36421148243E+01 0.34270870347E+01
 0.75956219882E+00 0.46029589702E-01 0.15667652503E+01 0.46552515079E+01 0.80478230059E+01