   2   2   0   0
  0.1529437E+02  0.3691622E-09  0.3691622E-09  0.3691622E-09  0.5000000E-15
  1.000000000000000E-004
  CAR 
 unknown system                          
     23.11775431     -6.55456645  301      9.07504314      1.00000000
     -6.555  0.0000E+00  0.0000E+00
     -6.456  0.0000E+00  0.0000E+00
     -6.357  0.0000E+00  0.0000E+00
     -6.258  0.0000E+00  0.0000E+00
     -6.159  0.0000E+00  0.0000E+00
     -6.060  0.0000E+00  0.0000E+00
     -5.961  0.0000E+00  0.0000E+00
     -5.862  0.0000E+00  0.0000E+00
     -5.763  0.0000E+00  0.0000E+00
     -5.664  0.1137E-16  0.1125E-17
     -5.565  0.2358E-14  0.2343E-15
     -5.467  0.3014E-12  0.3004E-13
     -5.368  0.2383E-10  0.2387E-11
     -5.269  0.1167E-08  0.1178E-09
     -5.170  0.3544E-07  0.3623E-08
     -5.071  0.6693E-06  0.6982E-07
     -4.972  0.7883E-05  0.8495E-06
     -4.873  0.5833E-04  0.6618E-05
     -4.774  0.2754E-03  0.3385E-04
     -4.675  0.8628E-03  0.1192E-03
     -4.576  0.1958E-02  0.3129E-03
     -4.478  0.3675E-02  0.6764E-03
     -4.379  0.6118E-02  0.1282E-02
     -4.280  0.8571E-02  0.2129E-02
     -4.181  0.9638E-02  0.3083E-02
     -4.082  0.9372E-02  0.4010E-02
     -3.983  0.9755E-02  0.4974E-02
     -3.884  0.1197E-01  0.6159E-02
     -3.785  0.1433E-01  0.7576E-02
     -3.686  0.1475E-01  0.9035E-02
     -3.587  0.1416E-01  0.1044E-01
     -3.488  0.1468E-01  0.1189E-01
     -3.390  0.1647E-01  0.1352E-01
     -3.291  0.1832E-01  0.1533E-01
     -3.192  0.1937E-01  0.1724E-01
     -3.093  0.1923E-01  0.1915E-01
     -2.994  0.1890E-01  0.2101E-01
     -2.895  0.1928E-01  0.2292E-01
     -2.796  0.1881E-01  0.2478E-01
     -2.697  0.1675E-01  0.2644E-01
     -2.598  0.1576E-01  0.2800E-01
     -2.499  0.1853E-01  0.2983E-01
     -2.400  0.2399E-01  0.3220E-01
     -2.302  0.2870E-01  0.3504E-01
     -2.203  0.3107E-01  0.3811E-01
     -2.104  0.3166E-01  0.4125E-01
     -2.005  0.2959E-01  0.4417E-01
     -1.906  0.2318E-01  0.4647E-01
     -1.807  0.1581E-01  0.4803E-01
     -1.708  0.1417E-01  0.4943E-01
     -1.609  0.2017E-01  0.5143E-01
     -1.510  0.2906E-01  0.5430E-01
     -1.411  0.3371E-01  0.5763E-01
     -1.312  0.3153E-01  0.6075E-01
     -1.214  0.2737E-01  0.6346E-01
     -1.115  0.2713E-01  0.6614E-01
     -1.016  0.2982E-01  0.6909E-01
     -0.917  0.3127E-01  0.7219E-01
     -0.818  0.3176E-01  0.7533E-01
     -0.719  0.3283E-01  0.7858E-01
     -0.620  0.3314E-01  0.8185E-01
     -0.521  0.3155E-01  0.8497E-01
     -0.422  0.2955E-01  0.8790E-01
     -0.323  0.2919E-01  0.9078E-01
     -0.224  0.3095E-01  0.9384E-01
     -0.126  0.3372E-01  0.9718E-01
     -0.027  0.3531E-01  0.1007E+00
      0.072  0.3532E-01  0.1042E+00
      0.171  0.3708E-01  0.1078E+00
      0.270  0.4170E-01  0.1120E+00
      0.369  0.4444E-01  0.1164E+00
      0.468  0.4183E-01  0.1205E+00
      0.567  0.3649E-01  0.1241E+00
      0.666  0.3216E-01  0.1273E+00
      0.765  0.2965E-01  0.1302E+00
      0.864  0.2915E-01  0.1331E+00
      0.962  0.3130E-01  0.1362E+00
      1.061  0.3464E-01  0.1396E+00
      1.160  0.3778E-01  0.1434E+00
      1.259  0.4226E-01  0.1475E+00
      1.358  0.4712E-01  0.1522E+00
      1.457  0.4806E-01  0.1569E+00
      1.556  0.4506E-01  0.1614E+00
      1.655  0.4223E-01  0.1656E+00
      1.754  0.4175E-01  0.1697E+00
      1.853  0.4360E-01  0.1740E+00
      1.951  0.4439E-01  0.1784E+00
      2.050  0.3790E-01  0.1822E+00
      2.149  0.2539E-01  0.1847E+00
      2.248  0.1693E-01  0.1863E+00
      2.347  0.1864E-01  0.1882E+00
      2.446  0.2693E-01  0.1909E+00
      2.545  0.3485E-01  0.1943E+00
      2.644  0.3901E-01  0.1982E+00
      2.743  0.4033E-01  0.2022E+00
      2.842  0.4213E-01  0.2063E+00
      2.941  0.4658E-01  0.2109E+00
      3.039  0.5101E-01  0.2160E+00
      3.138  0.5115E-01  0.2210E+00
      3.237  0.4701E-01  0.2257E+00
      3.336  0.4065E-01  0.2297E+00
      3.435  0.3388E-01  0.2331E+00
      3.534  0.3126E-01  0.2361E+00
      3.633  0.3574E-01  0.2397E+00
      3.732  0.4248E-01  0.2439E+00
      3.831  0.4590E-01  0.2484E+00
      3.930  0.4630E-01  0.2530E+00
      4.029  0.4505E-01  0.2575E+00
      4.127  0.4190E-01  0.2616E+00
      4.226  0.3839E-01  0.2654E+00
      4.325  0.3970E-01  0.2693E+00
      4.424  0.4946E-01  0.2742E+00
      4.523  0.6176E-01  0.2803E+00
      4.622  0.6625E-01  0.2869E+00
      4.721  0.6048E-01  0.2929E+00
      4.820  0.5071E-01  0.2979E+00
      4.919  0.4355E-01  0.3022E+00
      5.018  0.4077E-01  0.3062E+00
      5.117  0.4122E-01  0.3103E+00
      5.215  0.4343E-01  0.3146E+00
      5.314  0.4517E-01  0.3191E+00
      5.413  0.4552E-01  0.3236E+00
      5.512  0.4721E-01  0.3282E+00
      5.611  0.5233E-01  0.3334E+00
      5.710  0.5600E-01  0.3389E+00
      5.809  0.5298E-01  0.3442E+00
      5.908  0.4853E-01  0.3490E+00
      6.007  0.5141E-01  0.3541E+00
      6.106  0.6015E-01  0.3600E+00
      6.205  0.6577E-01  0.3665E+00
      6.303  0.6437E-01  0.3729E+00
      6.402  0.6047E-01  0.3789E+00
      6.501  0.5962E-01  0.3848E+00
      6.600  0.6152E-01  0.3908E+00
      6.699  0.6167E-01  0.3969E+00
      6.798  0.5964E-01  0.4028E+00
      6.897  0.5840E-01  0.4086E+00
      6.996  0.5735E-01  0.4143E+00
      7.095  0.5612E-01  0.4198E+00
      7.194  0.5704E-01  0.4255E+00
      7.293  0.6072E-01  0.4315E+00
      7.391  0.6707E-01  0.4381E+00
      7.490  0.7555E-01  0.4456E+00
      7.589  0.8222E-01  0.4537E+00
      7.688  0.8141E-01  0.4618E+00
      7.787  0.7228E-01  0.4689E+00
      7.886  0.6031E-01  0.4749E+00
      7.985  0.4961E-01  0.4798E+00
      8.084  0.4153E-01  0.4839E+00
      8.183  0.3787E-01  0.4877E+00
      8.282  0.3874E-01  0.4915E+00
      8.381  0.4279E-01  0.4957E+00
      8.479  0.4845E-01  0.5005E+00
      8.578  0.5381E-01  0.5058E+00
      8.677  0.5799E-01  0.5116E+00
      8.776  0.5944E-01  0.5175E+00
      8.875  0.5595E-01  0.5230E+00
      8.974  0.5099E-01  0.5280E+00
      9.073  0.5239E-01  0.5332E+00
      9.172  0.5810E-01  0.5390E+00
      9.271  0.5604E-01  0.5445E+00
      9.370  0.4350E-01  0.5488E+00
      9.468  0.3009E-01  0.5518E+00
      9.567  0.2423E-01  0.5542E+00
      9.666  0.2881E-01  0.5570E+00
      9.765  0.4100E-01  0.5611E+00
      9.864  0.5193E-01  0.5662E+00
      9.963  0.5420E-01  0.5716E+00
     10.062  0.4857E-01  0.5764E+00
     10.161  0.4175E-01  0.5805E+00
     10.260  0.4238E-01  0.5847E+00
     10.359  0.5464E-01  0.5901E+00
     10.458  0.7129E-01  0.5972E+00
     10.556  0.7864E-01  0.6049E+00
     10.655  0.7064E-01  0.6119E+00
     10.754  0.5510E-01  0.6174E+00
     10.853  0.4473E-01  0.6218E+00
     10.952  0.4491E-01  0.6262E+00
     11.051  0.5081E-01  0.6313E+00
     11.150  0.5410E-01  0.6366E+00
     11.249  0.5104E-01  0.6417E+00
     11.348  0.4600E-01  0.6462E+00
     11.447  0.4682E-01  0.6508E+00
     11.546  0.5481E-01  0.6563E+00
     11.644  0.6322E-01  0.6625E+00
     11.743  0.6539E-01  0.6690E+00
     11.842  0.6231E-01  0.6751E+00
     11.941  0.6165E-01  0.6812E+00
     12.040  0.6552E-01  0.6877E+00
     12.139  0.6572E-01  0.6942E+00
     12.238  0.5897E-01  0.7001E+00
     12.337  0.5368E-01  0.7054E+00
     12.436  0.5557E-01  0.7109E+00
     12.535  0.6065E-01  0.7169E+00
     12.634  0.6590E-01  0.7234E+00
     12.732  0.7353E-01  0.7307E+00
     12.831  0.8238E-01  0.7388E+00
     12.930  0.8643E-01  0.7474E+00
     13.029  0.8276E-01  0.7555E+00
     13.128  0.7444E-01  0.7629E+00
     13.227  0.6829E-01  0.7697E+00
     13.326  0.6935E-01  0.7765E+00
     13.425  0.7493E-01  0.7839E+00
     13.524  0.7848E-01  0.7917E+00
     13.623  0.7776E-01  0.7994E+00
     13.722  0.7261E-01  0.8066E+00
     13.820  0.6333E-01  0.8128E+00
     13.919  0.5757E-01  0.8185E+00
     14.018  0.6166E-01  0.8246E+00
     14.117  0.6758E-01  0.8313E+00
     14.216  0.6767E-01  0.8380E+00
     14.315  0.6871E-01  0.8448E+00
     14.414  0.7550E-01  0.8523E+00
     14.513  0.7851E-01  0.8600E+00
     14.612  0.7009E-01  0.8670E+00
     14.711  0.5669E-01  0.8726E+00
     14.810  0.4800E-01  0.8773E+00
     14.908  0.4657E-01  0.8819E+00
     15.007  0.5048E-01  0.8869E+00
     15.106  0.5807E-01  0.8926E+00
     15.205  0.6845E-01  0.8994E+00
     15.304  0.7829E-01  0.9072E+00
     15.403  0.7989E-01  0.9151E+00
     15.502  0.6999E-01  0.9220E+00
     15.601  0.5726E-01  0.9277E+00
     15.700  0.5252E-01  0.9328E+00
     15.799  0.5536E-01  0.9383E+00
     15.897  0.5690E-01  0.9439E+00
     15.996  0.5299E-01  0.9492E+00
     16.095  0.4779E-01  0.9539E+00
     16.194  0.4612E-01  0.9585E+00
     16.293  0.4758E-01  0.9632E+00
     16.392  0.4927E-01  0.9681E+00
     16.491  0.5085E-01  0.9731E+00
     16.590  0.5202E-01  0.9782E+00
     16.689  0.5031E-01  0.9832E+00
     16.788  0.4586E-01  0.9877E+00
     16.887  0.4130E-01  0.9918E+00
     16.985  0.3619E-01  0.9954E+00
     17.084  0.2947E-01  0.9983E+00
     17.183  0.2410E-01  0.1001E+01
     17.282  0.2229E-01  0.1003E+01
     17.381  0.2282E-01  0.1005E+01
     17.480  0.2598E-01  0.1008E+01
     17.579  0.3158E-01  0.1011E+01
     17.678  0.3471E-01  0.1014E+01
     17.777  0.3327E-01  0.1018E+01
     17.876  0.3262E-01  0.1021E+01
     17.975  0.3535E-01  0.1024E+01
     18.073  0.3669E-01  0.1028E+01
     18.172  0.3324E-01  0.1031E+01
     18.271  0.2802E-01  0.1034E+01
     18.370  0.2467E-01  0.1036E+01
     18.469  0.2249E-01  0.1039E+01
     18.568  0.2041E-01  0.1041E+01
     18.667  0.1925E-01  0.1043E+01
     18.766  0.1848E-01  0.1044E+01
     18.865  0.1768E-01  0.1046E+01
     18.964  0.1896E-01  0.1048E+01
     19.063  0.2268E-01  0.1050E+01
     19.161  0.2469E-01  0.1053E+01
     19.260  0.2223E-01  0.1055E+01
     19.359  0.1757E-01  0.1057E+01
     19.458  0.1354E-01  0.1058E+01
     19.557  0.1066E-01  0.1059E+01
     19.656  0.8429E-02  0.1060E+01
     19.755  0.6741E-02  0.1061E+01
     19.854  0.5973E-02  0.1061E+01
     19.953  0.6159E-02  0.1062E+01
     20.052  0.6914E-02  0.1062E+01
     20.151  0.7438E-02  0.1063E+01
     20.249  0.6602E-02  0.1064E+01
     20.348  0.4356E-02  0.1064E+01
     20.447  0.2044E-02  0.1064E+01
     20.546  0.7950E-03  0.1065E+01
     20.645  0.7364E-03  0.1065E+01
     20.744  0.1518E-02  0.1065E+01
     20.843  0.2569E-02  0.1065E+01
     20.942  0.3392E-02  0.1065E+01
     21.041  0.3948E-02  0.1066E+01
     21.140  0.4002E-02  0.1066E+01
     21.239  0.3078E-02  0.1066E+01
     21.337  0.1611E-02  0.1067E+01
     21.436  0.5464E-03  0.1067E+01
     21.535  0.1176E-03  0.1067E+01
     21.634  0.1592E-04  0.1067E+01
     21.733  0.1349E-05  0.1067E+01
     21.832  0.7128E-07  0.1067E+01
     21.931  0.2342E-08  0.1067E+01
     22.030  0.4777E-10  0.1067E+01
     22.129  0.6037E-12  0.1067E+01
     22.228  0.4720E-14  0.1067E+01
     22.326  0.2275E-16  0.1067E+01
     22.425  0.0000E+00  0.1067E+01
     22.524  0.0000E+00  0.1067E+01
     22.623  0.0000E+00  0.1067E+01
     22.722  0.0000E+00  0.1067E+01
     22.821  0.0000E+00  0.1067E+01
     22.920  0.0000E+00  0.1067E+01
     23.019  0.0000E+00  0.1067E+01
     23.118  0.0000E+00  0.1067E+01
