    2    2   15    1
  0.1529437E+02  0.3691622E-09  0.3691622E-09  0.3691622E-09  0.5000000E-15
  1.000000000000000E-004
  CAR 
 unknown system                          
      8     99      8
 
  0.5000000E-01  0.5000000E-01  0.5000000E-01  0.8000000E-02
    1       -4.311048   1.000000
    2        5.260805   1.000000
    3        6.945270   1.000000
    4        8.575619   0.998096
    5       11.749876   0.000000
    6       14.537957   0.000000
    7       15.196960   0.000000
    8       17.009501   0.000000
 
  0.1500000E+00  0.5000000E-01  0.5000000E-01  0.1600000E-01
    1       -3.537864   1.000000
    2        4.845309   1.000000
    3        7.088566   1.000000
    4        9.752097   0.000000
    5       11.701963   0.000000
    6       12.347618   0.000000
    7       13.383684   0.000000
    8       15.424144   0.000000
 
  0.2500000E+00  0.5000000E-01  0.5000000E-01  0.1600000E-01
    1       -2.259425   1.000000
    2        4.838237   1.000000
    3        7.072845   1.000000
    4        7.961328   1.000000
    5       10.147488   0.000000
    6       12.310274   0.000000
    7       13.108273   0.000000
    8       14.552163   0.000000
 
  0.3500000E+00  0.5000000E-01  0.5000000E-01  0.1600000E-01
    1       -0.502857   1.000000
    2        4.366283   1.000000
    3        5.654095   1.000000
    4        7.346614   1.000000
    5        8.636333   0.993136
    6       11.368145   0.000000
    7       13.726944   0.000000
    8       14.349906   0.000000
 
  0.4500000E+00  0.5000000E-01  0.5000000E-01  0.8000000E-02
    1        1.298201   1.000000
    2        2.282779   1.000000
    3        6.208381   1.000000
    4        6.641671   1.000000
    5        8.479942   0.999822
    6       10.615633   0.000000
    7       13.548306   0.000000
    8       14.497378   0.000000
 
 -0.5000000E-01  0.5000000E-01  0.5000000E-01  0.4000000E-02
    1       -4.569928   1.000000
    2        5.832840   1.000000
    3        6.400434   1.000000
    4        8.266832   1.000000
    5       11.143836   0.000000
    6       15.644117   0.000000
    7       17.881243   0.000000
    8       17.997393   0.000000
 
  0.1500000E+00  0.1500000E+00  0.5000000E-01  0.8000000E-02
    1       -2.383257   1.000000
    2        4.778678   1.000000
    3        7.838655   1.000000
    4        8.659897   0.989211
    5        9.817289   0.000000
    6       11.065791   0.000000
    7       13.839362   0.000000
    8       14.063855   0.000000
 
  0.2500000E+00  0.1500000E+00  0.5000000E-01  0.1600000E-01
    1       -0.743539   1.000000
    2        4.880625   1.000000
    3        5.789031   1.000000
    4        6.696823   1.000000
    5        9.716507   0.000000
    6       12.282852   0.000000
    7       12.586523   0.000000
    8       13.749668   0.000000
 
  0.3500000E+00  0.1500000E+00  0.5000000E-01  0.1600000E-01
    1        1.242533   1.000000
    2        2.791887   1.000000
    3        4.985420   1.000000
    4        6.269049   1.000000
    5        9.614229   0.000004
    6       11.672423   0.000000
    7       12.770678   0.000000
    8       15.440238   0.000000
 
  0.4500000E+00  0.1500000E+00  0.5000000E-01  0.1600000E-01
    1        0.218483   1.000000
    2        3.495550   1.000000
    3        4.508832   1.000000
    4        7.291435   1.000000
    5        9.100863   0.205994
    6       12.195594   0.000000
    7       13.314343   0.000000
    8       15.253528   0.000000
 
 -0.4500000E+00  0.1500000E+00  0.5000000E-01  0.1600000E-01
    1       -1.640823   1.000000
    2        3.165209   1.000000
    3        6.995218   1.000000
    4        7.914609   1.000000
    5        9.817595   0.000000
    6       12.994461   0.000000
    7       13.089394   0.000000
    8       14.836047   0.000000
 
 -0.3500000E+00  0.1500000E+00  0.5000000E-01  0.1600000E-01
    1       -3.037702   1.000000
    2        3.034424   1.000000
    3        7.499181   1.000000
    4       10.091824   0.000000
    5       11.358851   0.000000
    6       11.865004   0.000000
    7       14.128842   0.000000
    8       15.739284   0.000000
 
 -0.2500000E+00  0.1500000E+00  0.5000000E-01  0.8000000E-02
    1       -3.933916   1.000000
    2        3.363526   1.000000
    3        7.280257   1.000000
    4        9.347736   0.005143
    5       13.151734   0.000000
    6       13.940415   0.000000
    7       14.695536   0.000000
    8       16.093398   0.000000
 
 -0.1500000E+00  0.1500000E+00  0.5000000E-01  0.8000000E-02
    1       -4.318045   1.000000
    2        4.132439   1.000000
    3        6.474497   1.000000
    4        9.298202   0.013353
    5       12.591480   0.000000
    6       14.120916   0.000000
    7       16.882184   0.000000
    8       17.265283   0.000000
 
 -0.5000000E-01  0.1500000E+00  0.5000000E-01  0.8000000E-02
    1       -4.185354   1.000000
    2        5.013305   1.000000
    3        5.941705   1.000000
    4        9.688782   0.000000
    5       12.292562   0.000000
    6       13.835775   0.000000
    7       14.896063   0.000000
    8       16.603757   0.000000
 
  0.2500000E+00  0.2500000E+00  0.5000000E-01  0.8000000E-02
    1        1.170386   1.000000
    2        3.616177   1.000000
    3        3.934576   1.000000
    4        6.157948   1.000000
    5       10.326236   0.000000
    6       11.484690   0.000000
    7       13.621499   0.000000
    8       14.350929   0.000000
 
  0.3500000E+00  0.2500000E+00  0.5000000E-01  0.1600000E-01
    1        1.161530   1.000000
    2        2.310665   1.000000
    3        4.083111   1.000000
    4        7.193836   1.000000
    5        9.837989   0.000000
    6       11.227585   0.000000
    7       14.773115   0.000000
    8       15.861399   0.000000
 
  0.4500000E+00  0.2500000E+00  0.5000000E-01  0.1600000E-01
    1       -0.780009   1.000000
    2        1.639320   1.000000
    3        6.760197   1.000000
    4        8.241127   1.000000
    5        9.771700   0.000000
    6       11.752462   0.000000
    7       13.920738   0.000000
    8       15.757341   0.000000
 
 -0.4500000E+00  0.2500000E+00  0.5000000E-01  0.1600000E-01
    1       -2.290277   1.000000
    2        1.377880   1.000000
    3        8.097439   1.000000
    4        9.932167   0.000000
    5       11.165854   0.000000
    6       11.927059   0.000000
    7       12.959241   0.000000
    8       15.010914   0.000000
 
 -0.3500000E+00  0.2500000E+00  0.5000000E-01  0.8000000E-02
    1       -3.307294   1.000000
    2        1.598051   1.000000
    3        7.835431   1.000000
    4       10.065839   0.000000
    5       11.993764   0.000000
    6       14.124048   0.000000
    7       14.858499   0.000000
    8       14.916201   0.000000
 
 -0.2500000E+00  0.2500000E+00  0.5000000E-01  0.8000000E-02
    1       -3.815383   1.000000
    2        2.298049   1.000000
    3        6.924614   1.000000
    4       10.022575   0.000000
    5       12.489082   0.000000
    6       14.885520   0.000000
    7       15.542891   0.000000
    8       16.944879   0.000000
 
 -0.1500000E+00  0.2500000E+00  0.5000000E-01  0.1600000E-01
    1       -3.808694   1.000000
    2        3.435911   1.000000
    3        5.982778   1.000000
    4       10.670195   0.000000
    5       12.473775   0.000000
    6       13.844943   0.000000
    7       14.348452   0.000000
    8       16.176064   0.000000
 
 -0.5000000E-01  0.2500000E+00  0.5000000E-01  0.8000000E-02
    1       -3.287823   1.000000
    2        4.650027   1.000000
    3        5.743205   1.000000
    4       10.079106   0.000000
    5       12.257772   0.000000
    6       12.502209   0.000000
    7       13.770239   0.000000
    8       14.671742   0.000000
 
  0.3500000E+00  0.3500000E+00  0.5000000E-01  0.8000000E-02
    1        0.303604   1.000000
    2        0.330343   1.000000
    3        6.665491   1.000000
    4        8.386023   0.999989
    5        9.998609   0.000000
    6       11.047683   0.000000
    7       14.566717   0.000000
    8       15.369866   0.000000
 
  0.4500000E+00  0.3500000E+00  0.5000000E-01  0.1600000E-01
    1       -1.300256   1.000000
    2       -0.074002   1.000000
    3        8.803306   0.900367
    4        9.500875   0.000132
    5       10.829135   0.000000
    6       12.250543   0.000000
    7       12.708644   0.000000
    8       13.884472   0.000000
 
 -0.4500000E+00  0.3500000E+00  0.5000000E-01  0.8000000E-02
    1       -2.434323   1.000000
    2        0.028564   1.000000
    3        8.604342   0.996433
    4       10.685659   0.000000
    5       10.972771   0.000000
    6       13.134182   0.000000
    7       14.323371   0.000000
    8       14.455524   0.000000
 
 -0.3500000E+00  0.3500000E+00  0.5000000E-01  0.8000000E-02
    1       -3.064392   1.000000
    2        0.626224   1.000000
    3        7.610276   1.000000
    4       10.806683   0.000000
    5       10.980339   0.000000
    6       14.168511   0.000000
    7       16.575509   0.000000
    8       16.934018   0.000000
 
 -0.2500000E+00  0.3500000E+00  0.5000000E-01  0.1600000E-01
    1       -3.182892   1.000000
    2        1.704662   1.000000
    3        6.528942   1.000000
    4       10.921542   0.000000
    5       11.433929   0.000000
    6       13.526880   0.000000
    7       15.435134   0.000000
    8       16.319794   0.000000
 
 -0.1500000E+00  0.3500000E+00  0.5000000E-01  0.1600000E-01
    1       -2.789046   1.000000
    2        3.208514   1.000000
    3        5.822541   1.000000
    4        9.605585   0.000006
    5       11.412320   0.000000
    6       13.145689   0.000000
    7       13.776523   0.000000
    8       15.587242   0.000000
 
 -0.5000000E-01  0.3500000E+00  0.5000000E-01  0.8000000E-02
    1       -1.888609   1.000000
    2        4.696625   1.000000
    3        5.912718   1.000000
    4        7.113497   1.000000
    5       10.631687   0.000000
    6       12.815531   0.000000
    7       13.271528   0.000000
    8       14.182401   0.000000
 
  0.4500000E+00  0.4500000E+00  0.5000000E-01  0.4000000E-02
    1       -1.319577   1.000000
    2       -1.319577   1.000000
    3        9.573383   0.000016
    4        9.573393   0.000016
    5       11.973408   0.000000
    6       11.973428   0.000000
    7       14.245645   0.000000
    8       14.245652   0.000000
 
 -0.4500000E+00  0.4500000E+00  0.5000000E-01  0.8000000E-02
    1       -2.069214   1.000000
    2       -0.835183   1.000000
    3        8.521328   0.999476
    4        9.649418   0.000001
    5       11.757056   0.000000
    6       12.885059   0.000000
    7       16.539791   0.000000
    8       16.637935   0.000000
 
 -0.3500000E+00  0.4500000E+00  0.5000000E-01  0.1600000E-01
    1       -2.311301   1.000000
    2        0.144897   1.000000
    3        7.325853   1.000000
    4        9.569975   0.000018
    5       11.985958   0.000000
    6       13.328143   0.000000
    7       15.003836   0.000000
    8       15.478792   0.000000
 
 -0.2500000E+00  0.4500000E+00  0.5000000E-01  0.1600000E-01
    1       -2.044033   1.000000
    2        1.598645   1.000000
    3        6.451768   1.000000
    4        9.079349   0.251982
    5       10.181961   0.000000
    6       13.288181   0.000000
    7       13.949661   0.000000
    8       16.796151   0.000000
 
 -0.1500000E+00  0.4500000E+00  0.5000000E-01  0.1600000E-01
    1       -1.273327   1.000000
    2        3.430754   1.000000
    3        5.916405   1.000000
    4        6.670369   1.000000
    5       10.094682   0.000000
    6       12.085920   0.000000
    7       13.950777   0.000000
    8       15.450224   0.000000
 
 -0.5000000E-01  0.4500000E+00  0.5000000E-01  0.8000000E-02
    1       -0.025377   1.000000
    2        3.728771   1.000000
    3        5.724205   1.000000
    4        6.434837   1.000000
    5        9.028305   0.379295
    6       11.219932   0.000000
    7       12.574278   0.000000
    8       15.542560   0.000000
 
 -0.4500000E+00 -0.4500000E+00  0.5000000E-01  0.8000000E-02
    1       -1.201208   1.000000
    2       -1.196589   1.000000
    3        8.338295   0.999998
    4        8.355204   0.999996
    5       12.232123   0.000000
    6       13.456910   0.000000
    7       14.456388   0.000000
    8       15.283300   0.000000
 
 -0.3500000E+00 -0.4500000E+00  0.5000000E-01  0.1600000E-01
    1       -1.058018   1.000000
    2        0.161541   1.000000
    3        7.309828   1.000000
    4        8.308968   0.999999
    5        9.493262   0.000162
    6       13.048437   0.000000
    7       14.824310   0.000000
    8       16.048244   0.000000
 
 -0.2500000E+00 -0.4500000E+00  0.5000000E-01  0.1600000E-01
    1       -0.418442   1.000000
    2        1.969804   1.000000
    3        5.920976   1.000000
    4        7.018819   1.000000
    5        9.056790   0.305462
    6       11.473835   0.000000
    7       15.461891   0.000000
    8       16.468960   0.000000
 
 -0.1500000E+00 -0.4500000E+00  0.5000000E-01  0.1600000E-01
    1        0.677514   1.000000
    2        3.204858   1.000000
    3        4.547466   1.000000
    4        6.779420   1.000000
    5        8.974740   0.528472
    6       11.097236   0.000000
    7       12.508485   0.000000
    8       16.841701   0.000000
 
 -0.5000000E-01 -0.4500000E+00  0.5000000E-01  0.8000000E-02
    1        1.007396   1.000000
    2        2.575510   1.000000
    3        6.674696   1.000000
    4        7.089772   1.000000
    5        7.824633   1.000000
    6       10.321659   0.000000
    7       12.381099   0.000000
    8       15.649149   0.000000
 
 -0.3500000E+00 -0.3500000E+00  0.5000000E-01  0.8000000E-02
    1        0.639595   1.000000
    2        0.697393   1.000000
    3        5.848307   1.000000
    4        7.719567   1.000000
    5        8.165757   1.000000
    6       11.291568   0.000000
    7       16.419640   0.000000
    8       17.081334   0.000000
 
 -0.2500000E+00 -0.3500000E+00  0.5000000E-01  0.1600000E-01
    1        1.560383   1.000000
    2        2.595379   1.000000
    3        3.632992   1.000000
    4        7.473569   1.000000
    5        8.516379   0.999538
    6       10.325743   0.000000
    7       14.195208   0.000000
    8       16.305183   0.000000
 
 -0.1500000E+00 -0.3500000E+00  0.5000000E-01  0.1600000E-01
    1        0.714172   1.000000
    2        3.329932   1.000000
    3        5.566933   1.000000
    4        7.300270   1.000000
    5        8.447271   0.999928
    6       10.763191   0.000000
    7       11.634344   0.000000
    8       15.408142   0.000000
 
 -0.5000000E-01 -0.3500000E+00  0.5000000E-01  0.8000000E-02
    1       -0.988329   1.000000
    2        5.127659   1.000000
    3        7.029641   1.000000
    4        7.307151   1.000000
    5        8.323503   0.999999
    6       10.748486   0.000000
    7       12.498436   0.000000
    8       14.517297   0.000000
 
 -0.2500000E+00 -0.2500000E+00  0.5000000E-01  0.8000000E-02
    1        0.607874   1.000000
    2        4.251576   1.000000
    3        4.452749   1.000000
    4        7.391809   1.000000
    5        8.871572   0.788415
    6       10.202796   0.000000
    7       12.876312   0.000000
    8       13.837762   0.000000
 
 -0.1500000E+00 -0.2500000E+00  0.5000000E-01  0.1600000E-01
    1       -1.232146   1.000000
    2        5.980353   1.000000
    3        6.869413   1.000000
    4        7.364093   1.000000
    5        8.899838   0.726102
    6       11.144094   0.000000
    7       11.546855   0.000000
    8       12.963011   0.000000
 
 -0.5000000E-01 -0.2500000E+00  0.5000000E-01  0.8000000E-02
    1       -2.632122   1.000000
    2        6.322708   1.000000
    3        7.143892   1.000000
    4        8.546239   0.999037
    5       10.290269   0.000000
    6       11.438656   0.000000
    7       12.253845   0.000000
    8       14.102253   0.000000
 
 -0.1500000E+00 -0.1500000E+00  0.5000000E-01  0.8000000E-02
    1       -2.756507   1.000000
    2        6.571092   1.000000
    3        7.853859   1.000000
    4        9.088003   0.232859
    5        9.965284   0.000000
    6       10.562094   0.000000
    7       12.594801   0.000000
    8       13.098802   0.000000
 
 -0.5000000E-01 -0.1500000E+00  0.5000000E-01  0.8000000E-02
    1       -3.788576   1.000000
    2        6.505177   1.000000
    3        7.015252   1.000000
    4        8.876039   0.779157
    5       11.882122   0.000000
    6       12.356495   0.000000
    7       12.731079   0.000000
    8       15.027221   0.000000
 
 -0.5000000E-01 -0.5000000E-01  0.5000000E-01  0.2000000E-02
    1       -4.436934   1.000000
    2        6.833301   1.000000
    3        6.833324   1.000000
    4        7.511131   1.000000
    5       10.945638   0.000000
    6       15.160745   0.000000
    7       15.455186   0.000000
    8       17.206745   0.000000
 
  0.1500000E+00  0.1500000E+00  0.1500000E+00  0.8000000E-02
    1       -1.763607   1.000000
    2        3.064639   1.000000
    3        7.727293   1.000000
    4        8.155176   1.000000
    5       10.065709   0.000000
    6       11.668147   0.000000
    7       14.494153   0.000000
    8       14.795787   0.000000
 
  0.2500000E+00  0.1500000E+00  0.1500000E+00  0.1600000E-01
    1       -0.015657   1.000000
    2        3.476712   1.000000
    3        5.194871   1.000000
    4        6.249202   1.000000
    5       10.570265   0.000000
    6       13.417793   0.000000
    7       13.715497   0.000000
    8       14.390682   0.000000
 
  0.3500000E+00  0.1500000E+00  0.1500000E+00  0.8000000E-02
    1        1.771327   1.000000
    2        2.683331   1.000000
    3        4.405532   1.000000
    4        5.171839   1.000000
    5       10.972149   0.000000
    6       12.936634   0.000000
    7       14.075845   0.000000
    8       14.352774   0.000000
 
 -0.1500000E+00  0.1500000E+00  0.1500000E+00  0.4000000E-02
    1       -4.066727   1.000000
    2        3.932950   1.000000
    3        5.062747   1.000000
    4       10.926972   0.000000
    5       12.525813   0.000000
    6       13.415638   0.000000
    7       16.689740   0.000000
    8       16.944902   0.000000
 
  0.2500000E+00  0.2500000E+00  0.1500000E+00  0.8000000E-02
    1        1.900442   1.000000
    2        3.130821   1.000000
    3        3.710693   1.000000
    4        4.854681   1.000000
    5       11.805176   0.000000
    6       13.198040   0.000000
    7       14.586203   0.000000
    8       14.587082   0.000000
 
  0.3500000E+00  0.2500000E+00  0.1500000E+00  0.1600000E-01
    1        0.943794   1.000000
    2        2.121091   1.000000
    3        4.932844   1.000000
    4        6.023733   1.000000
    5       11.519036   0.000000
    6       12.859425   0.000000
    7       14.223502   0.000000
    8       15.243475   0.000000
 
  0.4500000E+00  0.2500000E+00  0.1500000E+00  0.8000000E-02
    1       -0.900952   1.000000
    2        1.526493   1.000000
    3        7.613560   1.000000
    4        7.794712   1.000000
    5       10.715319   0.000000
    6       12.333804   0.000000
    7       13.134030   0.000000
    8       14.422423   0.000000
 
 -0.2500000E+00  0.2500000E+00  0.1500000E+00  0.8000000E-02
    1       -3.565406   1.000000
    2        2.474187   1.000000
    3        5.142932   1.000000
    4       10.821524   0.000000
    5       11.994613   0.000000
    6       15.295997   0.000000
    7       15.980461   0.000000
    8       16.651076   0.000000
 
 -0.1500000E+00  0.2500000E+00  0.1500000E+00  0.8000000E-02
    1       -3.433480   1.000000
    2        3.325341   1.000000
    3        4.558849   1.000000
    4       10.835650   0.000000
    5       12.047624   0.000000
    6       13.867490   0.000000
    7       15.003211   0.000000
    8       16.702776   0.000000
 
  0.3500000E+00  0.3500000E+00  0.1500000E+00  0.4000000E-02
    1        0.198762   1.000000
    2        0.198762   1.000000
    3        7.616494   1.000000
    4        7.616514   1.000000
    5       11.661851   0.000000
    6       11.661866   0.000000
    7       13.503712   0.000000
    8       13.503753   0.000000
 
 -0.3500000E+00  0.3500000E+00  0.1500000E+00  0.8000000E-02
    1       -2.816795   1.000000
    2        0.848965   1.000000
    3        5.799306   1.000000
    4        9.254793   0.028141
    5       12.803402   0.000000
    6       15.263895   0.000000
    7       16.158863   0.000000
    8       17.185398   0.000000
 
 -0.2500000E+00  0.3500000E+00  0.1500000E+00  0.1600000E-01
    1       -2.810570   1.000000
    2        1.993502   1.000000
    3        4.716739   1.000000
    4        9.245991   0.032402
    5       12.077491   0.000000
    6       14.363680   0.000000
    7       16.501324   0.000000
    8       17.236354   0.000000
 
 -0.1500000E+00  0.3500000E+00  0.1500000E+00  0.8000000E-02
    1       -2.293305   1.000000
    2        3.199280   1.000000
    3        4.489980   1.000000
    4        8.883060   0.764146
    5       10.005232   0.000000
    6       14.554191   0.000000
    7       15.140273   0.000000
    8       15.543821   0.000000
 
 -0.4500000E+00  0.4500000E+00  0.1500000E+00  0.8000000E-02
    1       -1.825257   1.000000
    2       -0.598092   1.000000
    3        6.723375   1.000000
    4        7.880903   1.000000
    5       13.636601   0.000000
    6       14.485651   0.000000
    7       16.193822   0.000000
    8       16.503902   0.000000
 
 -0.3500000E+00  0.4500000E+00  0.1500000E+00  0.1600000E-01
    1       -1.943721   1.000000
    2        0.487202   1.000000
    3        5.481598   1.000000
    4        7.782474   1.000000
    5       11.873740   0.000000
    6       15.068216   0.000000
    7       16.456847   0.000000
    8       17.448915   0.000000
 
 -0.2500000E+00  0.4500000E+00  0.1500000E+00  0.1600000E-01
    1       -1.553694   1.000000
    2        2.001530   1.000000
    3        4.737442   1.000000
    4        7.922789   1.000000
    5        8.992345   0.478844
    6       14.593492   0.000000
    7       16.171249   0.000000
    8       17.061299   0.000000
 
 -0.1500000E+00  0.4500000E+00  0.1500000E+00  0.8000000E-02
    1       -0.664872   1.000000
    2        3.492952   1.000000
    3        4.869825   1.000000
    4        5.963816   1.000000
    5        8.948242   0.602105
    6       12.754723   0.000000
    7       13.897989   0.000000
    8       17.189864   0.000000
 
 -0.4500000E+00 -0.4500000E+00  0.1500000E+00  0.8000000E-02
    1       -0.844445   1.000000
    2       -0.834723   1.000000
    3        6.504903   1.000000
    4        6.530453   1.000000
    5       11.790929   0.000000
    6       15.560038   0.000000
    7       16.518829   0.000000
    8       16.711757   0.000000
 
 -0.3500000E+00 -0.4500000E+00  0.1500000E+00  0.1600000E-01
    1       -0.577337   1.000000
    2        0.623137   1.000000
    3        5.595148   1.000000
    4        6.705445   1.000000
    5        8.635445   0.993256
    6       14.443615   0.000000
    7       17.121658   0.000000
    8       18.151248   0.000000
 
 -0.2500000E+00 -0.4500000E+00  0.1500000E+00  0.1600000E-01
    1        0.177645   1.000000
    2        2.468736   1.000000
    3        5.043560   1.000000
    4        5.736233   1.000000
    5        7.583926   1.000000
    6       12.787514   0.000000
    7       15.231451   0.000000
    8       18.051898   0.000000
 
 -0.1500000E+00 -0.4500000E+00  0.1500000E+00  0.8000000E-02
    1        1.323844   1.000000
    2        2.862679   1.000000
    3        4.796670   1.000000
    4        5.675229   1.000000
    5        8.444263   0.999934
    6       11.380632   0.000000
    7       12.375178   0.000000
    8       17.283249   0.000000
 
 -0.3500000E+00 -0.3500000E+00  0.1500000E+00  0.8000000E-02
    1        1.189940   1.000000
    2        1.291308   1.000000
    3        5.186124   1.000000
    4        6.220010   1.000000
    5        6.574480   1.000000
    6       12.714132   0.000000
    7       16.702454   0.000000
    8       17.316448   0.000000
 
 -0.2500000E+00 -0.3500000E+00  0.1500000E+00  0.1600000E-01
    1        1.940306   1.000000
    2        2.855899   1.000000
    3        3.877766   1.000000
    4        6.215361   1.000000
    5        7.284659   1.000000
    6       11.417723   0.000000
    7       13.751247   0.000000
    8       15.925753   0.000000
 
 -0.1500000E+00 -0.3500000E+00  0.1500000E+00  0.8000000E-02
    1        0.375852   1.000000
    2        4.125088   1.000000
    3        6.019497   1.000000
    4        6.800147   1.000000
    5        8.246955   1.000000
    6       10.639770   0.000000
    7       11.366850   0.000000
    8       14.503159   0.000000
 
 -0.2500000E+00 -0.2500000E+00  0.1500000E+00  0.8000000E-02
    1        0.260984   1.000000
    2        5.050364   1.000000
    3        5.199481   1.000000
    4        7.322836   1.000000
    5        7.539371   1.000000
    6       10.611889   0.000000
    7       12.432580   0.000000
    8       13.237960   0.000000
 
 -0.1500000E+00 -0.2500000E+00  0.1500000E+00  0.8000000E-02
    1       -1.477380   1.000000
    2        6.909155   1.000000
    3        7.770631   1.000000
    4        7.798693   1.000000
    5        8.286544   1.000000
    6       10.455009   0.000000
    7       11.266553   0.000000
    8       12.136963   0.000000
 
 -0.1500000E+00 -0.1500000E+00  0.1500000E+00  0.2000000E-02
    1       -2.881037   1.000000
    2        7.838297   1.000000
    3        7.838323   1.000000
    4        8.849192   0.831267
    5       10.140847   0.000000
    6       10.295611   0.000000
    7       12.511842   0.000000
    8       12.645009   0.000000
 
  0.2500000E+00  0.2500000E+00  0.2500000E+00  0.2000000E-02
    1        2.626433   1.000000
    2        2.626437   1.000000
    3        3.951210   1.000000
    4        3.951211   1.000000
    5       13.185467   0.000000
    6       13.185476   0.000000
    7       15.103689   0.000000
    8       15.103693   0.000000
 
 -0.2500000E+00  0.2500000E+00  0.2500000E+00  0.4000000E-02
    1       -3.067087   1.000000
    2        2.465609   1.000000
    3        3.779105   1.000000
    4        9.070679   0.271939
    5       13.594236   0.000000
    6       15.498006   0.000000
    7       16.447060   0.000000
    8       16.535167   0.000000
 
 -0.3500000E+00  0.3500000E+00  0.2500000E+00  0.8000000E-02
    1       -2.323705   1.000000
    2        1.255864   1.000000
    3        4.031585   1.000000
    4        7.470701   1.000000
    5       14.263668   0.000000
    6       15.040025   0.000000
    7       16.632596   0.000000
    8       18.719832   0.000000
 
 -0.2500000E+00  0.3500000E+00  0.2500000E+00  0.8000000E-02
    1       -2.193040   1.000000
    2        2.095094   1.000000
    3        3.453203   1.000000
    4        7.575274   1.000000
    5       11.696404   0.000000
    6       16.147421   0.000000
    7       17.385506   0.000000
    8       18.013203   0.000000
 
 -0.4500000E+00  0.4500000E+00  0.2500000E+00  0.8000000E-02
    1       -1.341362   1.000000
    2       -0.133150   1.000000
    3        4.915044   1.000000
    4        6.076513   1.000000
    5       14.512864   0.000000
    6       14.722296   0.000000
    7       17.239895   0.000000
    8       18.106438   0.000000
 
 -0.3500000E+00  0.4500000E+00  0.2500000E+00  0.1600000E-01
    1       -1.335866   1.000000
    2        1.013569   1.000000
    3        3.810157   1.000000
    4        6.080043   1.000000
    5       11.397854   0.000000
    6       16.954423   0.000000
    7       17.901655   0.000000
    8       19.122589   0.000000
 
 -0.2500000E+00  0.4500000E+00  0.2500000E+00  0.8000000E-02
    1       -0.824487   1.000000
    2        2.215706   1.000000
    3        3.597652   1.000000
    4        6.488116   1.000000
    5        8.387068   0.999988
    6       15.787369   0.000000
    7       17.038117   0.000000
    8       18.253386   0.000000
 
 -0.4500000E+00 -0.4500000E+00  0.2500000E+00  0.8000000E-02
    1       -0.259764   1.000000
    2       -0.244056   1.000000
    3        4.795819   1.000000
    4        4.817940   1.000000
    5       11.293610   0.000000
    6       17.048266   0.000000
    7       18.584753   0.000000
    8       18.975759   0.000000
 
 -0.3500000E+00 -0.4500000E+00  0.2500000E+00  0.1600000E-01
    1        0.130517   1.000000
    2        1.267598   1.000000
    3        4.056438   1.000000
    4        5.150372   1.000000
    5        8.123346   1.000000
    6       16.020948   0.000000
    7       18.289544   0.000000
    8       19.194916   0.000000
 
 -0.2500000E+00 -0.4500000E+00  0.2500000E+00  0.8000000E-02
    1        0.992774   1.000000
    2        2.763042   1.000000
    3        4.209377   1.000000
    4        5.175817   1.000000
    5        6.213893   1.000000
    6       14.138487   0.000000
    7       15.302867   0.000000
    8       18.121682   0.000000
 
 -0.3500000E+00 -0.3500000E+00  0.2500000E+00  0.8000000E-02
    1        1.890866   1.000000
    2        2.072141   1.000000
    3        4.512883   1.000000
    4        4.806510   1.000000
    5        5.511072   1.000000
    6       14.413994   0.000000
    7       16.367435   0.000000
    8       17.093529   0.000000
 
 -0.2500000E+00 -0.3500000E+00  0.2500000E+00  0.8000000E-02
    1        2.003312   1.000000
    2        3.509893   1.000000
    3        4.352653   1.000000
    4        5.263546   1.000000
    5        6.019431   1.000000
    6       12.883036   0.000000
    7       13.727336   0.000000
    8       15.051761   0.000000
 
 -0.2500000E+00 -0.2500000E+00  0.2500000E+00  0.2000000E-02
    1        0.144306   1.000000
    2        5.696312   1.000000
    3        5.882759   1.000000
    4        6.659285   1.000000
    5        6.659298   1.000000
    6       11.951367   0.000000
    7       12.286403   0.000000
    8       12.286443   0.000000
 