<?xml version="1.0" encoding="ISO-8859-1"?>
<modeling>
 <generator>
  <i name="program" type="string">vasp </i>
  <i name="version" type="string">5.4.4.18Apr17-6-g9f103f2a35  </i>
  <i name="subversion" type="string">(build Dec 09 2018 21:25:21) complex            parallel </i>
  <i name="platform" type="string">IFC18.0.1.163_CrayMPICH7.7.0_MKL18.0.1.163 </i>
  <i name="date" type="string">2019 03 18 </i>
  <i name="time" type="string">04:34:31 </i>
 </generator>
 <incar>
  <i type="string" name="PREC">normal</i>
  <i type="int" name="IBRION">     2</i>
  <i name="EDIFF">      0.00040000</i>
  <i name="EDIFFG">     -0.01000000</i>
  <i type="int" name="NSW">    15</i>
  <i type="int" name="ISIF">     2</i>
  <i name="ENCUT">    250.00000000</i>
  <i type="int" name="NBANDS">     8</i>
  <i type="logical" name="LREAL"> F  </i>
  <i type="int" name="ISMEAR">     0</i>
  <i name="SIGMA">      0.20000000</i>
  <v type="int" name="KPOINT_BSE">    -1     0     0     0</v>
 </incar>
 <structure name="primitive_cell" >
  <crystal>
   <varray name="basis" >
    <v>      -2.45000000       2.45000000       1.27400000 </v>
    <v>       2.45000000      -2.45000000       1.27400000 </v>
    <v>       2.45000000       2.45000000      -1.27400000 </v>
   </varray>
   <i name="volume">     30.58874000 </i>
   <varray name="rec_basis" >
    <v>       0.00000000       0.20408163       0.39246468 </v>
    <v>       0.20408163       0.00000000       0.39246468 </v>
    <v>       0.20408163       0.20408163      -0.00000000 </v>
   </varray>
  </crystal>
  <varray name="positions" >
   <v>       0.25000000      -0.25000000      -0.50000000 </v>
   <v>       0.00000000       0.00000000       0.00000000 </v>
  </varray>
 </structure>
 <varray name="primitive_index" >
  <v type="int" >        1 </v>
  <v type="int" >        2 </v>
 </varray>
 <kpoints>
  <generation param="Monkhorst-Pack">
   <v type="int" name="divisions">      10       10       10 </v>
   <v name="usershift">      0.00000000       0.00000000       0.00000000 </v>
   <v name="genvec1">      0.10000000       0.00000000      -0.00000000 </v>
   <v name="genvec2">      0.00000000       0.10000000      -0.00000000 </v>
   <v name="genvec3">      0.00000000      -0.00000000       0.10000000 </v>
   <v name="shift">      0.50000000       0.50000000       0.50000000 </v>
  </generation>
  <varray name="kpointlist" >
   <v>       0.05000000       0.05000000       0.05000000 </v>
   <v>       0.15000000       0.05000000       0.05000000 </v>
   <v>       0.25000000       0.05000000       0.05000000 </v>
   <v>       0.35000000       0.05000000       0.05000000 </v>
   <v>       0.45000000       0.05000000       0.05000000 </v>
   <v>      -0.05000000       0.05000000       0.05000000 </v>
   <v>       0.15000000       0.15000000       0.05000000 </v>
   <v>       0.25000000       0.15000000       0.05000000 </v>
   <v>       0.35000000       0.15000000       0.05000000 </v>
   <v>       0.45000000       0.15000000       0.05000000 </v>
   <v>      -0.45000000       0.15000000       0.05000000 </v>
   <v>      -0.35000000       0.15000000       0.05000000 </v>
   <v>      -0.25000000       0.15000000       0.05000000 </v>
   <v>      -0.15000000       0.15000000       0.05000000 </v>
   <v>      -0.05000000       0.15000000       0.05000000 </v>
   <v>       0.25000000       0.25000000       0.05000000 </v>
   <v>       0.35000000       0.25000000       0.05000000 </v>
   <v>       0.45000000       0.25000000       0.05000000 </v>
   <v>      -0.45000000       0.25000000       0.05000000 </v>
   <v>      -0.35000000       0.25000000       0.05000000 </v>
   <v>      -0.25000000       0.25000000       0.05000000 </v>
   <v>      -0.15000000       0.25000000       0.05000000 </v>
   <v>      -0.05000000       0.25000000       0.05000000 </v>
   <v>       0.35000000       0.35000000       0.05000000 </v>
   <v>       0.45000000       0.35000000       0.05000000 </v>
   <v>      -0.45000000       0.35000000       0.05000000 </v>
   <v>      -0.35000000       0.35000000       0.05000000 </v>
   <v>      -0.25000000       0.35000000       0.05000000 </v>
   <v>      -0.15000000       0.35000000       0.05000000 </v>
   <v>      -0.05000000       0.35000000       0.05000000 </v>
   <v>       0.45000000       0.45000000       0.05000000 </v>
   <v>      -0.45000000       0.45000000       0.05000000 </v>
   <v>      -0.35000000       0.45000000       0.05000000 </v>
   <v>      -0.25000000       0.45000000       0.05000000 </v>
   <v>      -0.15000000       0.45000000       0.05000000 </v>
   <v>      -0.05000000       0.45000000       0.05000000 </v>
   <v>      -0.45000000      -0.45000000       0.05000000 </v>
   <v>      -0.35000000      -0.45000000       0.05000000 </v>
   <v>      -0.25000000      -0.45000000       0.05000000 </v>
   <v>      -0.15000000      -0.45000000       0.05000000 </v>
   <v>      -0.05000000      -0.45000000       0.05000000 </v>
   <v>      -0.35000000      -0.35000000       0.05000000 </v>
   <v>      -0.25000000      -0.35000000       0.05000000 </v>
   <v>      -0.15000000      -0.35000000       0.05000000 </v>
   <v>      -0.05000000      -0.35000000       0.05000000 </v>
   <v>      -0.25000000      -0.25000000       0.05000000 </v>
   <v>      -0.15000000      -0.25000000       0.05000000 </v>
   <v>      -0.05000000      -0.25000000       0.05000000 </v>
   <v>      -0.15000000      -0.15000000       0.05000000 </v>
   <v>      -0.05000000      -0.15000000       0.05000000 </v>
   <v>      -0.05000000      -0.05000000       0.05000000 </v>
   <v>       0.15000000       0.15000000       0.15000000 </v>
   <v>       0.25000000       0.15000000       0.15000000 </v>
   <v>       0.35000000       0.15000000       0.15000000 </v>
   <v>      -0.15000000       0.15000000       0.15000000 </v>
   <v>       0.25000000       0.25000000       0.15000000 </v>
   <v>       0.35000000       0.25000000       0.15000000 </v>
   <v>       0.45000000       0.25000000       0.15000000 </v>
   <v>      -0.25000000       0.25000000       0.15000000 </v>
   <v>      -0.15000000       0.25000000       0.15000000 </v>
   <v>       0.35000000       0.35000000       0.15000000 </v>
   <v>      -0.35000000       0.35000000       0.15000000 </v>
   <v>      -0.25000000       0.35000000       0.15000000 </v>
   <v>      -0.15000000       0.35000000       0.15000000 </v>
   <v>      -0.45000000       0.45000000       0.15000000 </v>
   <v>      -0.35000000       0.45000000       0.15000000 </v>
   <v>      -0.25000000       0.45000000       0.15000000 </v>
   <v>      -0.15000000       0.45000000       0.15000000 </v>
   <v>      -0.45000000      -0.45000000       0.15000000 </v>
   <v>      -0.35000000      -0.45000000       0.15000000 </v>
   <v>      -0.25000000      -0.45000000       0.15000000 </v>
   <v>      -0.15000000      -0.45000000       0.15000000 </v>
   <v>      -0.35000000      -0.35000000       0.15000000 </v>
   <v>      -0.25000000      -0.35000000       0.15000000 </v>
   <v>      -0.15000000      -0.35000000       0.15000000 </v>
   <v>      -0.25000000      -0.25000000       0.15000000 </v>
   <v>      -0.15000000      -0.25000000       0.15000000 </v>
   <v>      -0.15000000      -0.15000000       0.15000000 </v>
   <v>       0.25000000       0.25000000       0.25000000 </v>
   <v>      -0.25000000       0.25000000       0.25000000 </v>
   <v>      -0.35000000       0.35000000       0.25000000 </v>
   <v>      -0.25000000       0.35000000       0.25000000 </v>
   <v>      -0.45000000       0.45000000       0.25000000 </v>
   <v>      -0.35000000       0.45000000       0.25000000 </v>
   <v>      -0.25000000       0.45000000       0.25000000 </v>
   <v>      -0.45000000      -0.45000000       0.25000000 </v>
   <v>      -0.35000000      -0.45000000       0.25000000 </v>
   <v>      -0.25000000      -0.45000000       0.25000000 </v>
   <v>      -0.35000000      -0.35000000       0.25000000 </v>
   <v>      -0.25000000      -0.35000000       0.25000000 </v>
   <v>      -0.25000000      -0.25000000       0.25000000 </v>
   <v>      -0.35000000       0.35000000       0.35000000 </v>
   <v>      -0.45000000       0.45000000       0.35000000 </v>
   <v>      -0.35000000       0.45000000       0.35000000 </v>
   <v>      -0.45000000      -0.45000000       0.35000000 </v>
   <v>      -0.35000000      -0.45000000       0.35000000 </v>
   <v>      -0.35000000      -0.35000000       0.35000000 </v>
   <v>      -0.45000000       0.45000000       0.45000000 </v>
   <v>      -0.45000000      -0.45000000       0.45000000 </v>
  </varray>
  <varray name="weights" >
   <v>       0.00800000 </v>
   <v>       0.01600000 </v>
   <v>       0.01600000 </v>
   <v>       0.01600000 </v>
   <v>       0.00800000 </v>
   <v>       0.00400000 </v>
   <v>       0.00800000 </v>
   <v>       0.01600000 </v>
   <v>       0.01600000 </v>
   <v>       0.01600000 </v>
   <v>       0.01600000 </v>
   <v>       0.01600000 </v>
   <v>       0.00800000 </v>
   <v>       0.00800000 </v>
   <v>       0.00800000 </v>
   <v>       0.00800000 </v>
   <v>       0.01600000 </v>
   <v>       0.01600000 </v>
   <v>       0.01600000 </v>
   <v>       0.00800000 </v>
   <v>       0.00800000 </v>
   <v>       0.01600000 </v>
   <v>       0.00800000 </v>
   <v>       0.00800000 </v>
   <v>       0.01600000 </v>
   <v>       0.00800000 </v>
   <v>       0.00800000 </v>
   <v>       0.01600000 </v>
   <v>       0.01600000 </v>
   <v>       0.00800000 </v>
   <v>       0.00400000 </v>
   <v>       0.00800000 </v>
   <v>       0.01600000 </v>
   <v>       0.01600000 </v>
   <v>       0.01600000 </v>
   <v>       0.00800000 </v>
   <v>       0.00800000 </v>
   <v>       0.01600000 </v>
   <v>       0.01600000 </v>
   <v>       0.01600000 </v>
   <v>       0.00800000 </v>
   <v>       0.00800000 </v>
   <v>       0.01600000 </v>
   <v>       0.01600000 </v>
   <v>       0.00800000 </v>
   <v>       0.00800000 </v>
   <v>       0.01600000 </v>
   <v>       0.00800000 </v>
   <v>       0.00800000 </v>
   <v>       0.00800000 </v>
   <v>       0.00200000 </v>
   <v>       0.00800000 </v>
   <v>       0.01600000 </v>
   <v>       0.00800000 </v>
   <v>       0.00400000 </v>
   <v>       0.00800000 </v>
   <v>       0.01600000 </v>
   <v>       0.00800000 </v>
   <v>       0.00800000 </v>
   <v>       0.00800000 </v>
   <v>       0.00400000 </v>
   <v>       0.00800000 </v>
   <v>       0.01600000 </v>
   <v>       0.00800000 </v>
   <v>       0.00800000 </v>
   <v>       0.01600000 </v>
   <v>       0.01600000 </v>
   <v>       0.00800000 </v>
   <v>       0.00800000 </v>
   <v>       0.01600000 </v>
   <v>       0.01600000 </v>
   <v>       0.00800000 </v>
   <v>       0.00800000 </v>
   <v>       0.01600000 </v>
   <v>       0.00800000 </v>
   <v>       0.00800000 </v>
   <v>       0.00800000 </v>
   <v>       0.00200000 </v>
   <v>       0.00200000 </v>
   <v>       0.00400000 </v>
   <v>       0.00800000 </v>
   <v>       0.00800000 </v>
   <v>       0.00800000 </v>
   <v>       0.01600000 </v>
   <v>       0.00800000 </v>
   <v>       0.00800000 </v>
   <v>       0.01600000 </v>
   <v>       0.00800000 </v>
   <v>       0.00800000 </v>
   <v>       0.00800000 </v>
   <v>       0.00200000 </v>
   <v>       0.00400000 </v>
   <v>       0.00800000 </v>
   <v>       0.00800000 </v>
   <v>       0.00800000 </v>
   <v>       0.00800000 </v>
   <v>       0.00200000 </v>
   <v>       0.00400000 </v>
   <v>       0.00200000 </v>
  </varray>
 </kpoints>
 <parameters>
  <separator name="general" >
   <i type="string" name="SYSTEM">unknown system</i>
   <i type="logical" name="LCOMPAT"> F  </i>
  </separator>
  <separator name="electronic" >
   <i type="string" name="PREC">normal</i>
   <i name="ENMAX">    250.00000000</i>
   <i name="ENAUG">    322.06900000</i>
   <i name="EDIFF">      0.00040000</i>
   <i type="int" name="IALGO">    38</i>
   <i type="int" name="IWAVPR">    11</i>
   <i type="int" name="NBANDS">     8</i>
   <i name="NELECT">      8.00000000</i>
   <i type="int" name="TURBO">     0</i>
   <i type="int" name="IRESTART">     0</i>
   <i type="int" name="NREBOOT">     0</i>
   <i type="int" name="NMIN">     0</i>
   <i name="EREF">      0.00000000</i>
   <separator name="electronic smearing" >
    <i type="int" name="ISMEAR">     0</i>
    <i name="SIGMA">      0.20000000</i>
    <i name="KSPACING">      0.50000000</i>
    <i type="logical" name="KGAMMA"> T  </i>
   </separator>
   <separator name="electronic projectors" >
    <i type="logical" name="LREAL"> F  </i>
    <v name="ROPT">      0.00000000</v>
    <i type="int" name="LMAXPAW">  -100</i>
    <i type="int" name="LMAXMIX">     2</i>
    <i type="logical" name="NLSPLINE"> F  </i>
   </separator>
   <separator name="electronic startup" >
    <i type="int" name="ISTART">     1</i>
    <i type="int" name="ICHARG">     0</i>
    <i type="int" name="INIWAV">     1</i>
   </separator>
   <separator name="electronic spin" >
    <i type="int" name="ISPIN">     1</i>
    <i type="logical" name="LNONCOLLINEAR"> F  </i>
    <v name="MAGMOM">      1.00000000      1.00000000</v>
    <i name="NUPDOWN">     -1.00000000</i>
    <i type="logical" name="LSORBIT"> F  </i>
    <v name="SAXIS">      0.00000000      0.00000000      1.00000000</v>
    <i type="logical" name="LSPIRAL"> F  </i>
    <v name="QSPIRAL">      0.00000000      0.00000000      0.00000000</v>
    <i type="logical" name="LZEROZ"> F  </i>
   </separator>
   <separator name="electronic exchange-correlation" >
    <i type="logical" name="LASPH"> F  </i>
    <i type="logical" name="LMETAGGA"> F  </i>
   </separator>
   <separator name="electronic convergence" >
    <i type="int" name="NELM">    60</i>
    <i type="int" name="NELMDL">     0</i>
    <i type="int" name="NELMIN">     2</i>
    <i name="ENINI">    250.00000000</i>
    <separator name="electronic convergence detail" >
     <i type="logical" name="LDIAG"> T  </i>
     <i type="logical" name="LSUBROT"> F  </i>
     <i name="WEIMIN">      0.00100000</i>
     <i name="EBREAK">      0.00001250</i>
     <i name="DEPER">      0.30000000</i>
     <i type="int" name="NRMM">     4</i>
     <i name="TIME">      0.40000000</i>
    </separator>
   </separator>
   <separator name="electronic mixer" >
    <i name="AMIX">      0.40000000</i>
    <i name="BMIX">      1.00000000</i>
    <i name="AMIN">      0.10000000</i>
    <i name="AMIX_MAG">      1.60000000</i>
    <i name="BMIX_MAG">      1.00000000</i>
    <separator name="electronic mixer details" >
     <i type="int" name="IMIX">     4</i>
     <i type="logical" name="MIXFIRST"> F  </i>
     <i type="int" name="MAXMIX">   -45</i>
     <i name="WC">    100.00000000</i>
     <i type="int" name="INIMIX">     1</i>
     <i type="int" name="MIXPRE">     1</i>
     <i type="int" name="MREMOVE">     5</i>
    </separator>
   </separator>
   <separator name="electronic dipolcorrection" >
    <i type="logical" name="LDIPOL"> F  </i>
    <i type="logical" name="LMONO"> F  </i>
    <i type="int" name="IDIPOL">     0</i>
    <i name="EPSILON">      1.00000000</i>
    <v name="DIPOL">   -100.00000000   -100.00000000   -100.00000000</v>
    <i name="EFIELD">      0.00000000</i>
   </separator>
  </separator>
  <separator name="grids" >
   <i type="int" name="NGX">    14</i>
   <i type="int" name="NGY">    14</i>
   <i type="int" name="NGZ">    14</i>
   <i type="int" name="NGXF">    28</i>
   <i type="int" name="NGYF">    28</i>
   <i type="int" name="NGZF">    28</i>
   <i type="logical" name="ADDGRID"> F  </i>
  </separator>
  <separator name="ionic" >
   <i type="int" name="NSW">    15</i>
   <i type="int" name="IBRION">     2</i>
   <i type="int" name="MDALGO">     0</i>
   <i type="int" name="ISIF">     2</i>
   <i name="PSTRESS">      0.00000000</i>
   <i name="EDIFFG">     -0.01000000</i>
   <i type="int" name="NFREE">     1</i>
   <i name="POTIM">      0.50000000</i>
   <i name="SMASS">     -3.00000000</i>
   <i name="SCALEE">      1.00000000</i>
  </separator>
  <separator name="ionic md" >
   <i name="TEBEG">      0.00010000</i>
   <i name="TEEND">      0.00010000</i>
   <i type="int" name="NBLOCK">     1</i>
   <i type="int" name="KBLOCK">    15</i>
   <i type="int" name="NPACO">   256</i>
   <i name="APACO">     16.00000000</i>
  </separator>
  <separator name="symmetry" >
   <i type="int" name="ISYM">     2</i>
   <i name="SYMPREC">      0.00001000</i>
  </separator>
  <separator name="dos" >
   <i type="int" name="LORBIT">     0</i>
   <v name="RWIGS">     -1.00000000</v>
   <i type="int" name="NEDOS">   301</i>
   <i name="EMIN">     10.00000000</i>
   <i name="EMAX">    -10.00000000</i>
   <i name="EFERMI">      0.00000000</i>
  </separator>
  <separator name="writing" >
   <i type="int" name="NWRITE">     2</i>
   <i type="logical" name="LWAVE"> T  </i>
   <i type="logical" name="LDOWNSAMPLE"> F  </i>
   <i type="logical" name="LCHARG"> T  </i>
   <i type="logical" name="LPARD"> F  </i>
   <i type="logical" name="LVTOT"> F  </i>
   <i type="logical" name="LVHAR"> F  </i>
   <i type="logical" name="LELF"> F  </i>
   <i type="logical" name="LOPTICS"> F  </i>
   <v name="STM">      0.00000000      0.00000000      0.00000000      0.00000000      0.00000000      0.00000000      0.00000000</v>
  </separator>
  <separator name="performance" >
   <i type="int" name="NPAR">     8</i>
   <i type="int" name="NSIM">     4</i>
   <i type="int" name="NBLK">    -1</i>
   <i type="logical" name="LPLANE"> T  </i>
   <i type="logical" name="LSCALAPACK"> T  </i>
   <i type="logical" name="LSCAAWARE"> F  </i>
   <i type="logical" name="LSCALU"> F  </i>
   <i type="logical" name="LASYNC"> F  </i>
   <i type="logical" name="LORBITALREAL"> F  </i>
  </separator>
  <separator name="miscellaneous" >
   <i type="int" name="IDIOT">     3</i>
   <i type="int" name="ISPECIAL">     0</i>
   <i type="logical" name="LMUSIC"> F  </i>
   <v name="POMASS">     28.08500000</v>
   <v name="DARWINR">      0.00000000</v>
   <v name="DARWINV">      1.00000000</v>
   <i type="logical" name="LCORR"> T  </i>
  </separator>
  <i type="logical" name="GGA_COMPAT"> T  </i>
  <i type="logical" name="LBERRY"> F  </i>
  <i type="int" name="ICORELEVEL">     0</i>
  <i type="logical" name="LDAU"> F  </i>
  <i type="int" name="I_CONSTRAINED_M">     0</i>
  <separator name="electronic exchange-correlation" >
   <i type="string" name="GGA">--</i>
   <i type="int" name="VOSKOWN">     0</i>
   <i type="logical" name="LHFCALC"> F  </i>
   <i type="string" name="PRECFOCK"></i>
   <i type="logical" name="LSYMGRAD"> F  </i>
   <i type="logical" name="LHFONE"> F  </i>
   <i type="logical" name="LRHFCALC"> F  </i>
   <i type="logical" name="LTHOMAS"> F  </i>
   <i type="logical" name="LMODELHF"> F  </i>
   <i name="ENCUT4O">     -1.00000000</i>
   <i type="int" name="EXXOEP">     0</i>
   <i type="int" name="FOURORBIT">     0</i>
   <i name="AEXX">      0.00000000</i>
   <i name="HFALPHA">      0.00000000</i>
   <i name="MCALPHA">      0.00000000</i>
   <i name="ALDAX">      1.00000000</i>
   <i name="AGGAX">      1.00000000</i>
   <i name="ALDAC">      1.00000000</i>
   <i name="AGGAC">      1.00000000</i>
   <i type="int" name="NKREDX">     1</i>
   <i type="int" name="NKREDY">     1</i>
   <i type="int" name="NKREDZ">     1</i>
   <i type="logical" name="SHIFTRED"> F  </i>
   <i type="logical" name="ODDONLY"> F  </i>
   <i type="logical" name="EVENONLY"> F  </i>
   <i type="int" name="LMAXFOCK">     0</i>
   <i type="int" name="NMAXFOCKAE">     0</i>
   <i type="logical" name="LFOCKAEDFT"> F  </i>
   <i name="HFSCREEN">      0.00000000</i>
   <i name="HFSCREENC">      0.00000000</i>
   <i type="int" name="NBANDSGWLOW">     0</i>
  </separator>
  <separator name="vdW DFT" >
   <i type="logical" name="LUSE_VDW"> F  </i>
   <i name="Zab_VDW">     -0.84910000</i>
   <i name="PARAM1">      0.12340000</i>
   <i name="PARAM2">      1.00000000</i>
   <i name="PARAM3">      0.00000000</i>
  </separator>
  <separator name="model GW" >
   <i type="int" name="MODEL_GW">     0</i>
   <i name="MODEL_EPS0">      9.17662200</i>
   <i name="MODEL_ALPHA">      1.00000000</i>
  </separator>
  <separator name="linear response parameters" >
   <i type="logical" name="LEPSILON"> F  </i>
   <i type="logical" name="LRPA"> F  </i>
   <i type="logical" name="LNABLA"> F  </i>
   <i type="logical" name="LVEL"> F  </i>
   <i type="int" name="KINTER">     0</i>
   <i name="CSHIFT">      0.10000000</i>
   <i name="OMEGAMAX">     -1.00000000</i>
   <i name="DEG_THRESHOLD">      0.00200000</i>
   <i name="RTIME">     -0.10000000</i>
   <i name="WPLASMAI">      0.00000000</i>
   <v name="DFIELD">      0.00000000      0.00000000      0.00000000</v>
   <v name="WPLASMA">      0.00000000      0.00000000      0.00000000      0.00000000      0.00000000      0.00000000      0.00000000      0.00000000      0.00000000</v>
  </separator>
  <separator name="orbital magnetization" >
   <i type="logical" name="NUCIND"> F  </i>
   <v name="MAGPOS">      0.00000000      0.00000000      0.00000000</v>
   <i type="logical" name="LNICSALL"> T  </i>
   <i type="logical" name="ORBITALMAG"> F  </i>
   <i type="logical" name="LMAGBLOCH"> F  </i>
   <i type="logical" name="LCHIMAG"> F  </i>
   <i type="logical" name="LGAUGE"> T  </i>
   <i type="int" name="MAGATOM">     0</i>
   <v name="MAGDIPOL">      0.00000000      0.00000000      0.00000000</v>
   <v name="AVECCONST">      0.00000000      0.00000000      0.00000000</v>
  </separator>
  <separator name="response functions" >
   <i type="logical" name="LADDER"> F  </i>
   <i type="logical" name="LRPAFORCE"> F  </i>
   <i type="logical" name="LFXC"> F  </i>
   <i type="logical" name="LHARTREE"> T  </i>
   <i type="int" name="IBSE">     0</i>
   <v type="int" name="KPOINT">    -1     0     0     0</v>
   <i type="logical" name="LTCTE"> F  </i>
   <i type="logical" name="LTETE"> F  </i>
   <i type="logical" name="LTRIPLET"> F  </i>
   <i type="logical" name="LFXCEPS"> F  </i>
   <i type="logical" name="LFXHEG"> F  </i>
   <i type="int" name="NATURALO">     2</i>
   <i type="logical" name="L2ORDER"> F  </i>
   <i type="logical" name="LMP2LT"> F  </i>
   <i type="logical" name="LUSEW"> F  </i>
   <i name="ENCUTGW">     -2.00000000</i>
   <i name="ENCUTGWSOFT">     -2.00000000</i>
   <i name="ENCUTLF">     -1.00000000</i>
   <i type="int" name="LMAXMP2">    -1</i>
   <i name="SCISSOR">      0.00000000</i>
   <i type="int" name="NOMEGA">     0</i>
   <i type="int" name="NOMEGAR">     0</i>
   <i type="int" name="NBANDSGW">    -1</i>
   <i type="int" name="NBANDSO">    -1</i>
   <i type="int" name="NBANDSV">    -1</i>
   <i type="int" name="NELM">     1</i>
   <i type="int" name="NELMHF">     1</i>
   <i type="int" name="DIM">     3</i>
   <i type="int" name="ANTIRES">     0</i>
   <i name="OMEGAMAX">    -30.00000000</i>
   <i name="OMEGAMIN">    -30.00000000</i>
   <i name="OMEGATL">   -200.00000000</i>
   <i type="int" name="OMEGAGRID">   140</i>
   <i name="CSHIFT">     -0.10000000</i>
   <i type="logical" name="SELFENERGY"> F  </i>
   <i type="logical" name="LSPECTRAL"> F  </i>
   <i type="logical" name="LSPECTRALGW"> F  </i>
   <i type="logical" name="LSINGLES"> F  </i>
   <i type="logical" name="LFERMIGW"> F  </i>
   <i type="logical" name="ODDONLYGW"> F  </i>
   <i type="logical" name="EVENONLYGW"> F  </i>
   <i type="int" name="NKREDLFX">     1</i>
   <i type="int" name="NKREDLFY">     1</i>
   <i type="int" name="NKREDLFZ">     1</i>
   <i type="int" name="MAXMEM">  2800</i>
   <i type="int" name="TELESCOPE">     0</i>
   <i type="int" name="TAUPAR">     1</i>
   <i type="int" name="OMEGAPAR">    -1</i>
   <i name="LAMBDA">      1.00000000</i>
  </separator>
  <separator name="External order field" >
   <i name="OFIELD_KAPPA">      0.00000000</i>
   <v name="OFIELD_K">      0.00000000      0.00000000      0.00000000</v>
   <i name="OFIELD_Q6_NEAR">      0.00000000</i>
   <i name="OFIELD_Q6_FAR">      0.00000000</i>
   <i name="OFIELD_A">      0.00000000</i>
  </separator>
 </parameters>
 <atominfo>
  <atoms>       2 </atoms>
  <types>       1 </types>
  <array name="atoms" >
   <dimension dim="1">ion</dimension>
   <field type="string">element</field>
   <field type="int">atomtype</field>
   <set>
    <rc><c>Si</c><c>   1</c></rc>
    <rc><c>Si</c><c>   1</c></rc>
   </set>
  </array>
  <array name="atomtypes" >
   <dimension dim="1">type</dimension>
   <field type="int">atomspertype</field>
   <field type="string">element</field>
   <field>mass</field>
   <field>valence</field>
   <field type="string">pseudopotential</field>
   <set>
    <rc><c>   2</c><c>Si</c><c>     28.08500000</c><c>      4.00000000</c><c> PAW_PBE Si 05Jan2001                   </c></rc>
   </set>
  </array>
 </atominfo>
 <structure name="initialpos" >
  <crystal>
   <varray name="basis" >
    <v>      -2.45000000       2.45000000       1.27400000 </v>
    <v>       2.45000000      -2.45000000       1.27400000 </v>
    <v>       2.45000000       2.45000000      -1.27400000 </v>
   </varray>
   <i name="volume">     30.58874000 </i>
   <varray name="rec_basis" >
    <v>       0.00000000       0.20408163       0.39246468 </v>
    <v>       0.20408163       0.00000000       0.39246468 </v>
    <v>       0.20408163       0.20408163      -0.00000000 </v>
   </varray>
  </crystal>
  <varray name="positions" >
   <v>       0.25000000       0.75000000       0.50000000 </v>
   <v>       0.00000000       0.00000000       0.00000000 </v>
  </varray>
 </structure>
 <calculation>
  <scstep>
   <time name="dav">    1.19    1.19</time>
   <time name="total">    1.25    1.28</time>
   <energy>
    <i name="alphaZ">      4.40202223 </i>
    <i name="ewald">   -265.18101312 </i>
    <i name="hartreedc">     -2.51056420 </i>
    <i name="XCdc">    -17.56971270 </i>
    <i name="pawpsdc">     70.74978754 </i>
    <i name="pawaedc">    -35.67221182 </i>
    <i name="eentropy">     -0.01571337 </i>
    <i name="bandstr">     29.37285838 </i>
    <i name="atom">    206.12349923 </i>
    <i name="e_fr_energy">    -10.30104783 </i>
    <i name="e_wo_entrp">    -10.28533446 </i>
    <i name="e_0_energy">    -10.29319115 </i>
   </energy>
  </scstep>
  <scstep>
   <time name="dav">    1.02    1.02</time>
   <time name="total">    1.08    1.08</time>
   <energy>
    <i name="e_fr_energy">    -10.25140383 </i>
    <i name="e_wo_entrp">    -10.23527269 </i>
    <i name="e_0_energy">    -10.24333826 </i>
   </energy>
  </scstep>
  <scstep>
   <time name="dav">    1.07    1.07</time>
   <time name="total">    1.12    1.13</time>
   <energy>
    <i name="e_fr_energy">    -10.22682404 </i>
    <i name="e_wo_entrp">    -10.21010795 </i>
    <i name="e_0_energy">    -10.21846600 </i>
   </energy>
  </scstep>
  <scstep>
   <time name="dav">    0.90    0.90</time>
   <time name="total">    0.93    0.94</time>
   <energy>
    <i name="alphaZ">      4.40202223 </i>
    <i name="ewald">   -265.18101312 </i>
    <i name="hartreedc">     -2.50434204 </i>
    <i name="XCdc">    -17.57450916 </i>
    <i name="pawpsdc">     70.74903288 </i>
    <i name="pawaedc">    -35.66750700 </i>
    <i name="eentropy">     -0.01669573 </i>
    <i name="bandstr">     29.44251286 </i>
    <i name="atom">    206.12349923 </i>
    <i name="e_fr_energy">    -10.22699985 </i>
    <i name="e_wo_entrp">    -10.21030412 </i>
    <i name="e_0_energy">    -10.21865198 </i>
   </energy>
  </scstep>
  <structure>
   <crystal>
    <varray name="basis" >
     <v>      -2.45000000       2.45000000       1.27400000 </v>
     <v>       2.45000000      -2.45000000       1.27400000 </v>
     <v>       2.45000000       2.45000000      -1.27400000 </v>
    </varray>
    <i name="volume">     30.58874000 </i>
    <varray name="rec_basis" >
     <v>       0.00000000       0.20408163       0.39246468 </v>
     <v>       0.20408163       0.00000000       0.39246468 </v>
     <v>       0.20408163       0.20408163      -0.00000000 </v>
    </varray>
   </crystal>
   <varray name="positions" >
    <v>       0.25000000       0.75000000       0.50000000 </v>
    <v>       0.00000000       0.00000000       0.00000000 </v>
   </varray>
  </structure>
  <varray name="forces" >
   <v>       0.00000000      -0.00000000      -0.00000000 </v>
   <v>      -0.00000000       0.00000000       0.00000000 </v>
  </varray>
  <varray name="stress" >
   <v>     -13.28369230       0.00000000       0.00000000 </v>
   <v>      -0.00000000     -13.28369230       0.00000000 </v>
   <v>       0.00000000       0.00000000      31.65344151 </v>
  </varray>
  <energy>
   <i name="e_fr_energy">    -10.22699985 </i>
   <i name="e_wo_entrp">    -10.21865198 </i>
   <i name="e_0_energy">     -0.01669573 </i>
  </energy>
  <time name="totalsc">    5.49    6.04</time>
  <eigenvalues>
   <array>
    <dimension dim="1">band</dimension>
    <dimension dim="2">kpoint</dimension>
    <dimension dim="3">spin</dimension>
    <field>eigene</field>
    <field>occ</field>
    <set>
     <set comment="spin 1">
      <set comment="kpoint 1">
       <r>   -4.2721    1.0000 </r>
       <r>    4.7311    1.0000 </r>
       <r>    6.6003    1.0000 </r>
       <r>    7.7391    1.0000 </r>
       <r>   11.4885    0.0000 </r>
       <r>   15.0381    0.0000 </r>
       <r>   16.0806    0.0000 </r>
       <r>   16.9885    0.0000 </r>
      </set>
      <set comment="kpoint 2">
       <r>   -3.4281    1.0000 </r>
       <r>    4.4580    1.0000 </r>
       <r>    6.8565    1.0000 </r>
       <r>    9.1377    0.3287 </r>
       <r>   12.5970    0.0000 </r>
       <r>   13.0424    0.0000 </r>
       <r>   13.4141    0.0000 </r>
       <r>   15.3808    0.0000 </r>
      </set>
      <set comment="kpoint 3">
       <r>   -2.0307    1.0000 </r>
       <r>    4.6648    1.0000 </r>
       <r>    7.1713    1.0000 </r>
       <r>    8.5869    0.9997 </r>
       <r>   10.6983    0.0000 </r>
       <r>   12.0085    0.0000 </r>
       <r>   13.6904    0.0000 </r>
       <r>   14.4294    0.0000 </r>
      </set>
      <set comment="kpoint 4">
       <r>   -0.0988    1.0000 </r>
       <r>    5.1151    1.0000 </r>
       <r>    5.6074    1.0000 </r>
       <r>    7.5956    1.0000 </r>
       <r>    8.8922    0.9020 </r>
       <r>   11.7997    0.0000 </r>
       <r>   13.7380    0.0000 </r>
       <r>   14.1751    0.0000 </r>
      </set>
      <set comment="kpoint 5">
       <r>    2.0898    1.0000 </r>
       <r>    2.6444    1.0000 </r>
       <r>    6.5173    1.0000 </r>
       <r>    6.6653    1.0000 </r>
       <r>    8.8065    0.9712 </r>
       <r>   10.7828    0.0000 </r>
       <r>   13.5554    0.0000 </r>
       <r>   14.5203    0.0000 </r>
      </set>
      <set comment="kpoint 6">
       <r>   -4.5546    1.0000 </r>
       <r>    5.1713    1.0000 </r>
       <r>    6.0538    1.0000 </r>
       <r>    7.4199    1.0000 </r>
       <r>   10.8956    0.0000 </r>
       <r>   15.4875    0.0000 </r>
       <r>   17.4187    0.0000 </r>
       <r>   18.0457    0.0000 </r>
      </set>
      <set comment="kpoint 7">
       <r>   -2.1478    1.0000 </r>
       <r>    4.6266    1.0000 </r>
       <r>    8.1573    1.0000 </r>
       <r>    9.0670    0.5228 </r>
       <r>   10.1415    0.0000 </r>
       <r>   10.9906    0.0000 </r>
       <r>   14.5080    0.0000 </r>
       <r>   14.5200    0.0000 </r>
      </set>
      <set comment="kpoint 8">
       <r>   -0.3289    1.0000 </r>
       <r>    5.2220    1.0000 </r>
       <r>    6.2031    1.0000 </r>
       <r>    7.1309    1.0000 </r>
       <r>    9.7832    0.0000 </r>
       <r>   12.3838    0.0000 </r>
       <r>   12.8179    0.0000 </r>
       <r>   13.6890    0.0000 </r>
      </set>
      <set comment="kpoint 9">
       <r>    1.9598    1.0000 </r>
       <r>    3.2164    1.0000 </r>
       <r>    5.3411    1.0000 </r>
       <r>    6.3739    1.0000 </r>
       <r>    9.8708    0.0000 </r>
       <r>   11.7547    0.0000 </r>
       <r>   12.8184    0.0000 </r>
       <r>   15.2871    0.0000 </r>
      </set>
      <set comment="kpoint 10">
       <r>    0.5909    1.0000 </r>
       <r>    3.9013    1.0000 </r>
       <r>    4.9561    1.0000 </r>
       <r>    7.6412    1.0000 </r>
       <r>    9.1988    0.1907 </r>
       <r>   12.1786    0.0000 </r>
       <r>   13.4433    0.0000 </r>
       <r>   15.1846    0.0000 </r>
      </set>
      <set comment="kpoint 11">
       <r>   -1.4453    1.0000 </r>
       <r>    3.0960    1.0000 </r>
       <r>    7.5651    1.0000 </r>
       <r>    8.2002    1.0000 </r>
       <r>   10.3402    0.0000 </r>
       <r>   12.5510    0.0000 </r>
       <r>   12.8295    0.0000 </r>
       <r>   15.3032    0.0000 </r>
      </set>
      <set comment="kpoint 12">
       <r>   -2.9553    1.0000 </r>
       <r>    2.7685    1.0000 </r>
       <r>    7.2693    1.0000 </r>
       <r>    9.8128    0.0000 </r>
       <r>   11.9905    0.0000 </r>
       <r>   12.4906    0.0000 </r>
       <r>   14.0415    0.0000 </r>
       <r>   15.5123    0.0000 </r>
      </set>
      <set comment="kpoint 13">
       <r>   -3.9157    1.0000 </r>
       <r>    2.9586    1.0000 </r>
       <r>    6.9295    1.0000 </r>
       <r>    8.5551    0.9999 </r>
       <r>   13.2108    0.0000 </r>
       <r>   13.4915    0.0000 </r>
       <r>   14.9618    0.0000 </r>
       <r>   16.4797    0.0000 </r>
      </set>
      <set comment="kpoint 14">
       <r>   -4.3165    1.0000 </r>
       <r>    3.6229    1.0000 </r>
       <r>    6.0872    1.0000 </r>
       <r>    8.4678    1.0000 </r>
       <r>   12.2086    0.0000 </r>
       <r>   13.6985    0.0000 </r>
       <r>   16.2525    0.0000 </r>
       <r>   19.3694    0.0000 </r>
      </set>
      <set comment="kpoint 15">
       <r>   -4.1534    1.0000 </r>
       <r>    4.4095    1.0000 </r>
       <r>    5.6877    1.0000 </r>
       <r>    8.8591    0.9366 </r>
       <r>   12.0160    0.0000 </r>
       <r>   13.8205    0.0000 </r>
       <r>   15.9230    0.0000 </r>
       <r>   17.6431    0.0000 </r>
      </set>
      <set comment="kpoint 16">
       <r>    1.8663    1.0000 </r>
       <r>    4.1379    1.0000 </r>
       <r>    4.2218    1.0000 </r>
       <r>    6.2953    1.0000 </r>
       <r>   10.5170    0.0000 </r>
       <r>   11.6721    0.0000 </r>
       <r>   13.5222    0.0000 </r>
       <r>   14.1790    0.0000 </r>
      </set>
      <set comment="kpoint 17">
       <r>    1.5004    1.0000 </r>
       <r>    2.6174    1.0000 </r>
       <r>    4.7119    1.0000 </r>
       <r>    7.6169    1.0000 </r>
       <r>    9.7912    0.0000 </r>
       <r>   11.1694    0.0000 </r>
       <r>   14.8351    0.0000 </r>
       <r>   15.7505    0.0000 </r>
      </set>
      <set comment="kpoint 18">
       <r>   -0.6309    1.0000 </r>
       <r>    1.6563    1.0000 </r>
       <r>    7.7365    1.0000 </r>
       <r>    8.3542    1.0000 </r>
       <r>    9.9341    0.0000 </r>
       <r>   11.6642    0.0000 </r>
       <r>   13.4182    0.0000 </r>
       <r>   15.4079    0.0000 </r>
      </set>
      <set comment="kpoint 19">
       <r>   -2.2490    1.0000 </r>
       <r>    1.2120    1.0000 </r>
       <r>    7.9050    1.0000 </r>
       <r>   10.3214    0.0000 </r>
       <r>   11.0529    0.0000 </r>
       <r>   12.0969    0.0000 </r>
       <r>   13.4524    0.0000 </r>
       <r>   14.4580    0.0000 </r>
      </set>
      <set comment="kpoint 20">
       <r>   -3.3236    1.0000 </r>
       <r>    1.3023    1.0000 </r>
       <r>    7.4774    1.0000 </r>
       <r>    9.2861    0.0678 </r>
       <r>   11.7948    0.0000 </r>
       <r>   13.6231    0.0000 </r>
       <r>   15.4098    0.0000 </r>
       <r>   16.0768    0.0000 </r>
      </set>
      <set comment="kpoint 21">
       <r>   -3.8416    1.0000 </r>
       <r>    1.9165    1.0000 </r>
       <r>    6.5130    1.0000 </r>
       <r>    9.2312    0.1348 </r>
       <r>   11.9980    0.0000 </r>
       <r>   14.3942    0.0000 </r>
       <r>   14.7571    0.0000 </r>
       <r>   19.0666    0.0000 </r>
      </set>
      <set comment="kpoint 22">
       <r>   -3.7975    1.0000 </r>
       <r>    2.9973    1.0000 </r>
       <r>    5.6605    1.0000 </r>
       <r>    9.9075    0.0000 </r>
       <r>   12.1269    0.0000 </r>
       <r>   13.6110    0.0000 </r>
       <r>   15.3121    0.0000 </r>
       <r>   16.9509    0.0000 </r>
      </set>
      <set comment="kpoint 23">
       <r>   -3.1918    1.0000 </r>
       <r>    4.1768    1.0000 </r>
       <r>    5.6368    1.0000 </r>
       <r>   10.3080    0.0000 </r>
       <r>   12.3309    0.0000 </r>
       <r>   12.5856    0.0000 </r>
       <r>   13.7737    0.0000 </r>
       <r>   15.0626    0.0000 </r>
      </set>
      <set comment="kpoint 24">
       <r>    0.4024    1.0000 </r>
       <r>    0.4106    1.0000 </r>
       <r>    7.6778    1.0000 </r>
       <r>    8.7431    0.9905 </r>
       <r>    9.6296    0.0000 </r>
       <r>   11.2445    0.0000 </r>
       <r>   14.0345    0.0000 </r>
       <r>   14.8085    0.0000 </r>
      </set>
      <set comment="kpoint 25">
       <r>   -1.3138    1.0000 </r>
       <r>   -0.1564    1.0000 </r>
       <r>    8.7375    0.9915 </r>
       <r>    9.7275    0.0000 </r>
       <r>   10.9288    0.0000 </r>
       <r>   12.1304    0.0000 </r>
       <r>   13.1754    0.0000 </r>
       <r>   13.4975    0.0000 </r>
      </set>
      <set comment="kpoint 26">
       <r>   -2.4989    1.0000 </r>
       <r>   -0.1750    1.0000 </r>
       <r>    8.2423    1.0000 </r>
       <r>   10.1225    0.0000 </r>
       <r>   10.4216    0.0000 </r>
       <r>   12.3208    0.0000 </r>
       <r>   15.8147    0.0000 </r>
       <r>   15.8285    0.0000 </r>
      </set>
      <set comment="kpoint 27">
       <r>   -3.1322    1.0000 </r>
       <r>    0.3477    1.0000 </r>
       <r>    7.1756    1.0000 </r>
       <r>   10.0188    0.0000 </r>
       <r>   10.4812    0.0000 </r>
       <r>   13.3389    0.0000 </r>
       <r>   16.9066    0.0000 </r>
       <r>   18.8637    0.0000 </r>
      </set>
      <set comment="kpoint 28">
       <r>   -3.2063    1.0000 </r>
       <r>    1.3937    1.0000 </r>
       <r>    6.1622    1.0000 </r>
       <r>   10.5198    0.0000 </r>
       <r>   10.7270    0.0000 </r>
       <r>   14.4238    0.0000 </r>
       <r>   15.7347    0.0000 </r>
       <r>   16.2070    0.0000 </r>
      </set>
      <set comment="kpoint 29">
       <r>   -2.7206    1.0000 </r>
       <r>    2.8959    1.0000 </r>
       <r>    5.6364    1.0000 </r>
       <r>   10.4771    0.0000 </r>
       <r>   11.0849    0.0000 </r>
       <r>   12.6996    0.0000 </r>
       <r>   14.5942    0.0000 </r>
       <r>   15.8055    0.0000 </r>
      </set>
      <set comment="kpoint 30">
       <r>   -1.6799    1.0000 </r>
       <r>    4.4682    1.0000 </r>
       <r>    6.0064    1.0000 </r>
       <r>    7.9463    1.0000 </r>
       <r>   10.9090    0.0000 </r>
       <r>   12.9629    0.0000 </r>
       <r>   13.7096    0.0000 </r>
       <r>   13.8240    0.0000 </r>
      </set>
      <set comment="kpoint 31">
       <r>   -1.4465    1.0000 </r>
       <r>   -1.4465    1.0000 </r>
       <r>    9.2206    0.1517 </r>
       <r>    9.2206    0.1517 </r>
       <r>   11.1469    0.0000 </r>
       <r>   11.1469    0.0000 </r>
       <r>   15.7524    0.0000 </r>
       <r>   15.7524    0.0000 </r>
      </set>
      <set comment="kpoint 32">
       <r>   -2.1925    1.0000 </r>
       <r>   -1.0284    1.0000 </r>
       <r>    8.0617    1.0000 </r>
       <r>    9.1659    0.2603 </r>
       <r>   10.9531    0.0000 </r>
       <r>   12.0612    0.0000 </r>
       <r>   18.5772    0.0000 </r>
       <r>   18.6784    0.0000 </r>
      </set>
      <set comment="kpoint 33">
       <r>   -2.3834    1.0000 </r>
       <r>   -0.0689    1.0000 </r>
       <r>    6.9267    1.0000 </r>
       <r>    9.1278    0.3545 </r>
       <r>   11.5358    0.0000 </r>
       <r>   13.5284    0.0000 </r>
       <r>   15.3497    0.0000 </r>
       <r>   16.7784    0.0000 </r>
      </set>
      <set comment="kpoint 34">
       <r>   -2.0172    1.0000 </r>
       <r>    1.4084    1.0000 </r>
       <r>    6.2212    1.0000 </r>
       <r>    9.4072    0.0094 </r>
       <r>   10.5647    0.0000 </r>
       <r>   13.2978    0.0000 </r>
       <r>   14.3488    0.0000 </r>
       <r>   16.3395    0.0000 </r>
      </set>
      <set comment="kpoint 35">
       <r>   -1.0980    1.0000 </r>
       <r>    3.3226    1.0000 </r>
       <r>    6.0646    1.0000 </r>
       <r>    7.4502    1.0000 </r>
       <r>   10.0364    0.0000 </r>
       <r>   12.4363    0.0000 </r>
       <r>   14.3796    0.0000 </r>
       <r>   15.1838    0.0000 </r>
      </set>
      <set comment="kpoint 36">
       <r>    0.3592    1.0000 </r>
       <r>    4.5625    1.0000 </r>
       <r>    5.4398    1.0000 </r>
       <r>    6.7878    1.0000 </r>
       <r>    9.2646    0.0901 </r>
       <r>   11.7649    0.0000 </r>
       <r>   12.4160    0.0000 </r>
       <r>   15.6090    0.0000 </r>
      </set>
      <set comment="kpoint 37">
       <r>   -1.3349    1.0000 </r>
       <r>   -1.3334    1.0000 </r>
       <r>    7.9109    1.0000 </r>
       <r>    7.9289    1.0000 </r>
       <r>   12.3083    0.0000 </r>
       <r>   12.6874    0.0000 </r>
       <r>   15.1745    0.0000 </r>
       <r>   16.7516    0.0000 </r>
      </set>
      <set comment="kpoint 38">
       <r>   -1.0870    1.0000 </r>
       <r>    0.0612    1.0000 </r>
       <r>    7.0779    1.0000 </r>
       <r>    8.1549    1.0000 </r>
       <r>   10.4060    0.0000 </r>
       <r>   14.0455    0.0000 </r>
       <r>   14.2013    0.0000 </r>
       <r>   15.3444    0.0000 </r>
      </set>
      <set comment="kpoint 39">
       <r>   -0.2898    1.0000 </r>
       <r>    1.9612    1.0000 </r>
       <r>    6.6683    1.0000 </r>
       <r>    7.1896    1.0000 </r>
       <r>    8.8523    0.9424 </r>
       <r>   12.0838    0.0000 </r>
       <r>   15.3550    0.0000 </r>
       <r>   16.4648    0.0000 </r>
      </set>
      <set comment="kpoint 40">
       <r>    1.0397    1.0000 </r>
       <r>    3.9855    1.0000 </r>
       <r>    4.5586    1.0000 </r>
       <r>    6.9446    1.0000 </r>
       <r>    9.1418    0.3184 </r>
       <r>   11.1921    0.0000 </r>
       <r>   12.8661    0.0000 </r>
       <r>   16.7001    0.0000 </r>
      </set>
      <set comment="kpoint 41">
       <r>    1.7322    1.0000 </r>
       <r>    2.9971    1.0000 </r>
       <r>    6.5934    1.0000 </r>
       <r>    7.6991    1.0000 </r>
       <r>    7.8976    1.0000 </r>
       <r>   10.5524    0.0000 </r>
       <r>   12.4717    0.0000 </r>
       <r>   15.5524    0.0000 </r>
      </set>
      <set comment="kpoint 42">
       <r>    0.7278    1.0000 </r>
       <r>    0.7447    1.0000 </r>
       <r>    6.9154    1.0000 </r>
       <r>    7.6070    1.0000 </r>
       <r>    7.8942    1.0000 </r>
       <r>   11.9660    0.0000 </r>
       <r>   15.9464    0.0000 </r>
       <r>   16.9531    0.0000 </r>
      </set>
      <set comment="kpoint 43">
       <r>    1.9295    1.0000 </r>
       <r>    2.9970    1.0000 </r>
       <r>    4.0993    1.0000 </r>
       <r>    7.5905    1.0000 </r>
       <r>    8.5557    0.9999 </r>
       <r>   10.5717    0.0000 </r>
       <r>   14.4356    0.0000 </r>
       <r>   16.2335    0.0000 </r>
      </set>
      <set comment="kpoint 44">
       <r>    1.4174    1.0000 </r>
       <r>    3.7430    1.0000 </r>
       <r>    5.7894    1.0000 </r>
       <r>    7.4981    1.0000 </r>
       <r>    8.6873    0.9969 </r>
       <r>   10.9664    0.0000 </r>
       <r>   11.7103    0.0000 </r>
       <r>   15.0974    0.0000 </r>
      </set>
      <set comment="kpoint 45">
       <r>   -0.5616    1.0000 </r>
       <r>    5.8859    1.0000 </r>
       <r>    6.6563    1.0000 </r>
       <r>    7.7196    1.0000 </r>
       <r>    8.6614    0.9983 </r>
       <r>   11.1971    0.0000 </r>
       <r>   12.8066    0.0000 </r>
       <r>   14.0429    0.0000 </r>
      </set>
      <set comment="kpoint 46">
       <r>    1.3084    1.0000 </r>
       <r>    4.6751    1.0000 </r>
       <r>    4.7270    1.0000 </r>
       <r>    7.5065    1.0000 </r>
       <r>    9.1473    0.3048 </r>
       <r>   10.4389    0.0000 </r>
       <r>   12.8247    0.0000 </r>
       <r>   13.6789    0.0000 </r>
      </set>
      <set comment="kpoint 47">
       <r>   -0.7937    1.0000 </r>
       <r>    6.6521    1.0000 </r>
       <r>    6.9224    1.0000 </r>
       <r>    7.6029    1.0000 </r>
       <r>    9.1221    0.3698 </r>
       <r>   11.5882    0.0000 </r>
       <r>   11.6333    0.0000 </r>
       <r>   12.7689    0.0000 </r>
      </set>
      <set comment="kpoint 48">
       <r>   -2.3833    1.0000 </r>
       <r>    6.0294    1.0000 </r>
       <r>    7.2012    1.0000 </r>
       <r>    8.9972    0.7089 </r>
       <r>   10.6657    0.0000 </r>
       <r>   11.4965    0.0000 </r>
       <r>   12.9842    0.0000 </r>
       <r>   14.3078    0.0000 </r>
      </set>
      <set comment="kpoint 49">
       <r>   -2.5010    1.0000 </r>
       <r>    6.3337    1.0000 </r>
       <r>    7.9689    1.0000 </r>
       <r>    8.8659    0.9304 </r>
       <r>   10.4768    0.0000 </r>
       <r>   11.0465    0.0000 </r>
       <r>   13.0482    0.0000 </r>
       <r>   13.7657    0.0000 </r>
      </set>
      <set comment="kpoint 50">
       <r>   -3.6651    1.0000 </r>
       <r>    5.9830    1.0000 </r>
       <r>    6.8191    1.0000 </r>
       <r>    8.1525    1.0000 </r>
       <r>   11.7684    0.0000 </r>
       <r>   13.3501    0.0000 </r>
       <r>   13.7145    0.0000 </r>
       <r>   16.0724    0.0000 </r>
      </set>
      <set comment="kpoint 51">
       <r>   -4.3911    1.0000 </r>
       <r>    6.4034    1.0000 </r>
       <r>    6.4905    1.0000 </r>
       <r>    6.4905    1.0000 </r>
       <r>   10.7605    0.0000 </r>
       <r>   16.3153    0.0000 </r>
       <r>   16.5172    0.0000 </r>
       <r>   17.3200    0.0000 </r>
      </set>
      <set comment="kpoint 52">
       <r>   -1.5614    1.0000 </r>
       <r>    3.0058    1.0000 </r>
       <r>    8.3444    1.0000 </r>
       <r>    8.8670    0.9294 </r>
       <r>   10.0795    0.0000 </r>
       <r>   11.3329    0.0000 </r>
       <r>   14.0059    0.0000 </r>
       <r>   14.7237    0.0000 </r>
      </set>
      <set comment="kpoint 53">
       <r>    0.3644    1.0000 </r>
       <r>    3.7392    1.0000 </r>
       <r>    5.7767    1.0000 </r>
       <r>    6.7768    1.0000 </r>
       <r>   10.5270    0.0000 </r>
       <r>   13.2057    0.0000 </r>
       <r>   13.6607    0.0000 </r>
       <r>   14.4847    0.0000 </r>
      </set>
      <set comment="kpoint 54">
       <r>    2.5495    1.0000 </r>
       <r>    3.0704    1.0000 </r>
       <r>    4.8984    1.0000 </r>
       <r>    5.2217    1.0000 </r>
       <r>   11.1536    0.0000 </r>
       <r>   12.8965    0.0000 </r>
       <r>   14.0679    0.0000 </r>
       <r>   14.3424    0.0000 </r>
      </set>
      <set comment="kpoint 55">
       <r>   -4.0792    1.0000 </r>
       <r>    3.3356    1.0000 </r>
       <r>    4.8316    1.0000 </r>
       <r>   10.0297    0.0000 </r>
       <r>   11.9663    0.0000 </r>
       <r>   13.0324    0.0000 </r>
       <r>   17.9474    0.0000 </r>
       <r>   19.0529    0.0000 </r>
      </set>
      <set comment="kpoint 56">
       <r>    2.6193    1.0000 </r>
       <r>    3.7680    1.0000 </r>
       <r>    3.9445    1.0000 </r>
       <r>    5.0081    1.0000 </r>
       <r>   11.9191    0.0000 </r>
       <r>   13.3038    0.0000 </r>
       <r>   14.3865    0.0000 </r>
       <r>   14.4408    0.0000 </r>
      </set>
      <set comment="kpoint 57">
       <r>    1.2811    1.0000 </r>
       <r>    2.4121    1.0000 </r>
       <r>    5.5629    1.0000 </r>
       <r>    6.5895    1.0000 </r>
       <r>   11.3897    0.0000 </r>
       <r>   12.6638    0.0000 </r>
       <r>   13.9551    0.0000 </r>
       <r>   15.0210    0.0000 </r>
      </set>
      <set comment="kpoint 58">
       <r>   -0.7451    1.0000 </r>
       <r>    1.5514    1.0000 </r>
       <r>    8.4221    1.0000 </r>
       <r>    8.6269    0.9992 </r>
       <r>   10.4918    0.0000 </r>
       <r>   11.8440    0.0000 </r>
       <r>   12.7730    0.0000 </r>
       <r>   13.9917    0.0000 </r>
      </set>
      <set comment="kpoint 59">
       <r>   -3.6058    1.0000 </r>
       <r>    2.0432    1.0000 </r>
       <r>    4.8273    1.0000 </r>
       <r>   10.2636    0.0000 </r>
       <r>   11.1573    0.0000 </r>
       <r>   14.8580    0.0000 </r>
       <r>   16.5730    0.0000 </r>
       <r>   18.4944    0.0000 </r>
      </set>
      <set comment="kpoint 60">
       <r>   -3.4433    1.0000 </r>
       <r>    2.7935    1.0000 </r>
       <r>    4.4020    1.0000 </r>
       <r>   10.3935    0.0000 </r>
       <r>   11.5173    0.0000 </r>
       <r>   14.6490    0.0000 </r>
       <r>   14.9067    0.0000 </r>
       <r>   18.1151    0.0000 </r>
      </set>
      <set comment="kpoint 61">
       <r>    0.2954    1.0000 </r>
       <r>    0.2954    1.0000 </r>
       <r>    8.4794    1.0000 </r>
       <r>    8.4794    1.0000 </r>
       <r>   11.2884    0.0000 </r>
       <r>   11.2884    0.0000 </r>
       <r>   13.0617    0.0000 </r>
       <r>   13.0618    0.0000 </r>
      </set>
      <set comment="kpoint 62">
       <r>   -2.8994    1.0000 </r>
       <r>    0.5446    1.0000 </r>
       <r>    5.4204    1.0000 </r>
       <r>    8.7331    0.9922 </r>
       <r>   12.0520    0.0000 </r>
       <r>   15.2714    0.0000 </r>
       <r>   17.1750    0.0000 </r>
       <r>   18.3118    0.0000 </r>
      </set>
      <set comment="kpoint 63">
       <r>   -2.8557    1.0000 </r>
       <r>    1.6231    1.0000 </r>
       <r>    4.4654    1.0000 </r>
       <r>    8.7828    0.9806 </r>
       <r>   12.4993    0.0000 </r>
       <r>   14.5793    0.0000 </r>
       <r>   16.6103    0.0000 </r>
       <r>   17.6211    0.0000 </r>
      </set>
      <set comment="kpoint 64">
       <r>   -2.2531    1.0000 </r>
       <r>    2.7929    1.0000 </r>
       <r>    4.4552    1.0000 </r>
       <r>    9.2462    0.1131 </r>
       <r>   10.4183    0.0000 </r>
       <r>   14.1518    0.0000 </r>
       <r>   15.6331    0.0000 </r>
       <r>   16.2563    0.0000 </r>
      </set>
      <set comment="kpoint 65">
       <r>   -1.9646    1.0000 </r>
       <r>   -0.8100    1.0000 </r>
       <r>    6.2954    1.0000 </r>
       <r>    7.4053    1.0000 </r>
       <r>   12.9963    0.0000 </r>
       <r>   14.0682    0.0000 </r>
       <r>   18.0433    0.0000 </r>
       <r>   18.1297    0.0000 </r>
      </set>
      <set comment="kpoint 66">
       <r>   -2.0389    1.0000 </r>
       <r>    0.2394    1.0000 </r>
       <r>    5.1573    1.0000 </r>
       <r>    7.3547    1.0000 </r>
       <r>   12.9942    0.0000 </r>
       <r>   14.6501    0.0000 </r>
       <r>   16.5991    0.0000 </r>
       <r>   17.9140    0.0000 </r>
      </set>
      <set comment="kpoint 67">
       <r>   -1.5562    1.0000 </r>
       <r>    1.7466    1.0000 </r>
       <r>    4.6065    1.0000 </r>
       <r>    7.7770    1.0000 </r>
       <r>   10.0447    0.0000 </r>
       <r>   15.2500    0.0000 </r>
       <r>   15.7331    0.0000 </r>
       <r>   17.6558    0.0000 </r>
      </set>
      <set comment="kpoint 68">
       <r>   -0.5232    1.0000 </r>
       <r>    3.3246    1.0000 </r>
       <r>    5.0064    1.0000 </r>
       <r>    6.9110    1.0000 </r>
       <r>    8.6986    0.9961 </r>
       <r>   13.1958    0.0000 </r>
       <r>   14.7610    0.0000 </r>
       <r>   16.5654    0.0000 </r>
      </set>
      <set comment="kpoint 69">
       <r>   -1.0025    1.0000 </r>
       <r>   -0.9993    1.0000 </r>
       <r>    6.1364    1.0000 </r>
       <r>    6.1406    1.0000 </r>
       <r>   13.1211    0.0000 </r>
       <r>   14.9487    0.0000 </r>
       <r>   15.9700    0.0000 </r>
       <r>   17.9386    0.0000 </r>
      </set>
      <set comment="kpoint 70">
       <r>   -0.6385    1.0000 </r>
       <r>    0.4828    1.0000 </r>
       <r>    5.3974    1.0000 </r>
       <r>    6.4763    1.0000 </r>
       <r>    9.8504    0.0000 </r>
       <r>   15.4815    0.0000 </r>
       <r>   16.3273    0.0000 </r>
       <r>   17.5651    0.0000 </r>
      </set>
      <set comment="kpoint 71">
       <r>    0.2718    1.0000 </r>
       <r>    2.4072    1.0000 </r>
       <r>    5.2441    1.0000 </r>
       <r>    6.5670    1.0000 </r>
       <r>    7.3796    1.0000 </r>
       <r>   13.3686    0.0000 </r>
       <r>   15.8670    0.0000 </r>
       <r>   17.5997    0.0000 </r>
      </set>
      <set comment="kpoint 72">
       <r>    1.6996    1.0000 </r>
       <r>    3.6704    1.0000 </r>
       <r>    4.5756    1.0000 </r>
       <r>    6.0340    1.0000 </r>
       <r>    8.4549    1.0000 </r>
       <r>   11.5288    0.0000 </r>
       <r>   12.8637    0.0000 </r>
       <r>   17.0740    0.0000 </r>
      </set>
      <set comment="kpoint 73">
       <r>    1.2559    1.0000 </r>
       <r>    1.2831    1.0000 </r>
       <r>    6.0143    1.0000 </r>
       <r>    6.1292    1.0000 </r>
       <r>    6.6620    1.0000 </r>
       <r>   13.3424    0.0000 </r>
       <r>   17.2369    0.0000 </r>
       <r>   17.2703    0.0000 </r>
      </set>
      <set comment="kpoint 74">
       <r>    2.5258    1.0000 </r>
       <r>    3.3383    1.0000 </r>
       <r>    3.9242    1.0000 </r>
       <r>    6.3920    1.0000 </r>
       <r>    7.3466    1.0000 </r>
       <r>   11.6635    0.0000 </r>
       <r>   14.0500    0.0000 </r>
       <r>   15.9117    0.0000 </r>
      </set>
      <set comment="kpoint 75">
       <r>    1.0821    1.0000 </r>
       <r>    4.4829    1.0000 </r>
       <r>    6.0338    1.0000 </r>
       <r>    7.4089    1.0000 </r>
       <r>    8.4111    1.0000 </r>
       <r>   10.6709    0.0000 </r>
       <r>   11.5038    0.0000 </r>
       <r>   14.1857    0.0000 </r>
      </set>
      <set comment="kpoint 76">
       <r>    0.9694    1.0000 </r>
       <r>    5.3385    1.0000 </r>
       <r>    5.3930    1.0000 </r>
       <r>    7.6786    1.0000 </r>
       <r>    7.9350    1.0000 </r>
       <r>   10.6073    0.0000 </r>
       <r>   12.4104    0.0000 </r>
       <r>   13.0466    0.0000 </r>
      </set>
      <set comment="kpoint 77">
       <r>   -1.0268    1.0000 </r>
       <r>    7.4707    1.0000 </r>
       <r>    7.7652    1.0000 </r>
       <r>    8.3622    1.0000 </r>
       <r>    8.4656    1.0000 </r>
       <r>   10.5530    0.0000 </r>
       <r>   11.4207    0.0000 </r>
       <r>   11.9963    0.0000 </r>
      </set>
      <set comment="kpoint 78">
       <r>   -2.6189    1.0000 </r>
       <r>    7.8943    1.0000 </r>
       <r>    7.8943    1.0000 </r>
       <r>    7.9085    1.0000 </r>
       <r>   10.6919    0.0000 </r>
       <r>   11.1578    0.0000 </r>
       <r>   12.5422    0.0000 </r>
       <r>   13.3768    0.0000 </r>
      </set>
      <set comment="kpoint 79">
       <r>    3.4008    1.0000 </r>
       <r>    3.4008    1.0000 </r>
       <r>    4.0654    1.0000 </r>
       <r>    4.0654    1.0000 </r>
       <r>   13.2269    0.0000 </r>
       <r>   13.2269    0.0000 </r>
       <r>   15.0343    0.0000 </r>
       <r>   15.0343    0.0000 </r>
      </set>
      <set comment="kpoint 80">
       <r>   -3.1361    1.0000 </r>
       <r>    1.9362    1.0000 </r>
       <r>    3.6300    1.0000 </r>
       <r>    8.5472    0.9999 </r>
       <r>   12.9028    0.0000 </r>
       <r>   16.0473    0.0000 </r>
       <r>   17.2903    0.0000 </r>
       <r>   18.2880    0.0000 </r>
      </set>
      <set comment="kpoint 81">
       <r>   -2.4364    1.0000 </r>
       <r>    0.8831    1.0000 </r>
       <r>    3.7794    1.0000 </r>
       <r>    7.0045    1.0000 </r>
       <r>   14.1089    0.0000 </r>
       <r>   16.7013    0.0000 </r>
       <r>   17.7286    0.0000 </r>
       <r>   18.4376    0.0000 </r>
      </set>
      <set comment="kpoint 82">
       <r>   -2.2749    1.0000 </r>
       <r>    1.6223    1.0000 </r>
       <r>    3.3610    1.0000 </r>
       <r>    7.1519    1.0000 </r>
       <r>   13.0852    0.0000 </r>
       <r>   15.4678    0.0000 </r>
       <r>   17.8580    0.0000 </r>
       <r>   18.9532    0.0000 </r>
      </set>
      <set comment="kpoint 83">
       <r>   -1.5141    1.0000 </r>
       <r>   -0.3870    1.0000 </r>
       <r>    4.5781    1.0000 </r>
       <r>    5.6730    1.0000 </r>
       <r>   15.0606    0.0000 </r>
       <r>   15.9311    0.0000 </r>
       <r>   17.8577    0.0000 </r>
       <r>   18.0694    0.0000 </r>
      </set>
      <set comment="kpoint 84">
       <r>   -1.4711    1.0000 </r>
       <r>    0.6905    1.0000 </r>
       <r>    3.6089    1.0000 </r>
       <r>    5.7176    1.0000 </r>
       <r>   13.0005    0.0000 </r>
       <r>   16.5579    0.0000 </r>
       <r>   18.6992    0.0000 </r>
       <r>   19.1232    0.0000 </r>
      </set>
      <set comment="kpoint 85">
       <r>   -0.8727    1.0000 </r>
       <r>    1.8582    1.0000 </r>
       <r>    3.6101    1.0000 </r>
       <r>    6.2676    1.0000 </r>
       <r>    9.6506    0.0000 </r>
       <r>   16.4814    0.0000 </r>
       <r>   17.4794    0.0000 </r>
       <r>   18.0050    0.0000 </r>
      </set>
      <set comment="kpoint 86">
       <r>   -0.4644    1.0000 </r>
       <r>   -0.4593    1.0000 </r>
       <r>    4.5142    1.0000 </r>
       <r>    4.5151    1.0000 </r>
       <r>   12.9413    0.0000 </r>
       <r>   17.2622    0.0000 </r>
       <r>   18.0635    0.0000 </r>
       <r>   19.1616    0.0000 </r>
      </set>
      <set comment="kpoint 87">
       <r>    0.0160    1.0000 </r>
       <r>    1.0482    1.0000 </r>
       <r>    3.9611    1.0000 </r>
       <r>    4.9696    1.0000 </r>
       <r>    9.4484    0.0041 </r>
       <r>   16.8864    0.0000 </r>
       <r>   18.3751    0.0000 </r>
       <r>   19.0773    0.0000 </r>
      </set>
      <set comment="kpoint 88">
       <r>    1.0369    1.0000 </r>
       <r>    2.6291    1.0000 </r>
       <r>    4.3753    1.0000 </r>
       <r>    5.8566    1.0000 </r>
       <r>    6.3882    1.0000 </r>
       <r>   14.5495    0.0000 </r>
       <r>   16.0409    0.0000 </r>
       <r>   18.1479    0.0000 </r>
      </set>
      <set comment="kpoint 89">
       <r>    1.9232    1.0000 </r>
       <r>    1.9655    1.0000 </r>
       <r>    4.8081    1.0000 </r>
       <r>    4.8315    1.0000 </r>
       <r>    6.2235    1.0000 </r>
       <r>   14.8692    0.0000 </r>
       <r>   16.9490    0.0000 </r>
       <r>   17.3675    0.0000 </r>
      </set>
      <set comment="kpoint 90">
       <r>    2.9786    1.0000 </r>
       <r>    3.5804    1.0000 </r>
       <r>    4.1532    1.0000 </r>
       <r>    5.6335    1.0000 </r>
       <r>    6.1982    1.0000 </r>
       <r>   12.9480    0.0000 </r>
       <r>   14.0543    0.0000 </r>
       <r>   15.0800    0.0000 </r>
      </set>
      <set comment="kpoint 91">
       <r>    0.8559    1.0000 </r>
       <r>    5.7817    1.0000 </r>
       <r>    5.8737    1.0000 </r>
       <r>    7.2700    1.0000 </r>
       <r>    7.2700    1.0000 </r>
       <r>   11.5935    0.0000 </r>
       <r>   12.2738    0.0000 </r>
       <r>   12.2738    0.0000 </r>
      </set>
      <set comment="kpoint 92">
       <r>   -1.7496    1.0000 </r>
       <r>    0.9912    1.0000 </r>
       <r>    2.7749    1.0000 </r>
       <r>    5.4599    1.0000 </r>
       <r>   15.5351    0.0000 </r>
       <r>   16.6792    0.0000 </r>
       <r>   18.1867    0.0000 </r>
       <r>   19.5691    0.0000 </r>
      </set>
      <set comment="kpoint 93">
       <r>   -0.8571    1.0000 </r>
       <r>    0.1792    1.0000 </r>
       <r>    3.1265    1.0000 </r>
       <r>    4.1435    1.0000 </r>
       <r>   16.1294    0.0000 </r>
       <r>   16.4194    0.0000 </r>
       <r>   18.7576    0.0000 </r>
       <r>   19.4750    0.0000 </r>
      </set>
      <set comment="kpoint 94">
       <r>   -0.6970    1.0000 </r>
       <r>    0.9133    1.0000 </r>
       <r>    2.7127    1.0000 </r>
       <r>    4.2968    1.0000 </r>
       <r>   12.7937    0.0000 </r>
       <r>   18.3531    0.0000 </r>
       <r>   19.8503    0.0000 </r>
       <r>   20.1731    0.0000 </r>
      </set>
      <set comment="kpoint 95">
       <r>    0.2170    1.0000 </r>
       <r>    0.2244    1.0000 </r>
       <r>    3.1705    1.0000 </r>
       <r>    3.1719    1.0000 </r>
       <r>   12.7132    0.0000 </r>
       <r>   19.2564    0.0000 </r>
       <r>   20.0731    0.0000 </r>
       <r>   21.1178    0.0000 </r>
      </set>
      <set comment="kpoint 96">
       <r>    0.8140    1.0000 </r>
       <r>    1.3877    1.0000 </r>
       <r>    3.1776    1.0000 </r>
       <r>    3.7432    1.0000 </r>
       <r>    9.2381    0.1244 </r>
       <r>   17.9865    0.0000 </r>
       <r>   19.3190    0.0000 </r>
       <r>   19.6311    0.0000 </r>
      </set>
      <set comment="kpoint 97">
       <r>    2.3660    1.0000 </r>
       <r>    2.4260    1.0000 </r>
       <r>    4.1619    1.0000 </r>
       <r>    4.1619    1.0000 </r>
       <r>    6.1000    1.0000 </r>
       <r>   15.9543    0.0000 </r>
       <r>   16.8414    0.0000 </r>
       <r>   16.8415    0.0000 </r>
      </set>
      <set comment="kpoint 98">
       <r>   -0.0567    1.0000 </r>
       <r>    0.5164    1.0000 </r>
       <r>    2.3385    1.0000 </r>
       <r>    2.9058    1.0000 </r>
       <r>   16.2803    0.0000 </r>
       <r>   16.3421    0.0000 </r>
       <r>   20.2540    0.0000 </r>
       <r>   20.8492    0.0000 </r>
      </set>
      <set comment="kpoint 99">
       <r>    0.6714    1.0000 </r>
       <r>    0.6808    1.0000 </r>
       <r>    2.4941    1.0000 </r>
       <r>    2.4941    1.0000 </r>
       <r>   12.6252    0.0000 </r>
       <r>   19.9513    0.0000 </r>
       <r>   20.7992    0.0000 </r>
       <r>   21.0152    0.0000 </r>
      </set>
     </set>
    </set>
   </array>
  </eigenvalues>
  <separator name="orbital magnetization" >
   <v name="MAGDIPOLOUT">      0.00000000      0.00000000      0.00000000</v>
  </separator>
  <dos>
   <i name="efermi">      9.07504314 </i>
   <total>
    <array>
     <dimension dim="1">gridpoints</dimension>
     <dimension dim="2">spin</dimension>
     <field>energy</field>
     <field>total</field>
     <field>integrated</field>
     <set>
      <set comment="spin 1">
       <r>    -6.5546     0.0000     0.0000 </r>
       <r>    -6.4557     0.0000     0.0000 </r>
       <r>    -6.3568     0.0000     0.0000 </r>
       <r>    -6.2578     0.0000     0.0000 </r>
       <r>    -6.1589     0.0000     0.0000 </r>
       <r>    -6.0600     0.0000     0.0000 </r>
       <r>    -5.9611     0.0000     0.0000 </r>
       <r>    -5.8622     0.0000     0.0000 </r>
       <r>    -5.7633     0.0000     0.0000 </r>
       <r>    -5.6644     0.0000     0.0000 </r>
       <r>    -5.5655     0.0000     0.0000 </r>
       <r>    -5.4666     0.0000     0.0000 </r>
       <r>    -5.3677     0.0000     0.0000 </r>
       <r>    -5.2688     0.0000     0.0000 </r>
       <r>    -5.1699     0.0000     0.0000 </r>
       <r>    -5.0710     0.0000     0.0000 </r>
       <r>    -4.9720     0.0001     0.0000 </r>
       <r>    -4.8731     0.0009     0.0001 </r>
       <r>    -4.7742     0.0041     0.0005 </r>
       <r>    -4.6753     0.0129     0.0018 </r>
       <r>    -4.5764     0.0294     0.0047 </r>
       <r>    -4.4775     0.0551     0.0101 </r>
       <r>    -4.3786     0.0918     0.0192 </r>
       <r>    -4.2797     0.1286     0.0319 </r>
       <r>    -4.1808     0.1446     0.0462 </r>
       <r>    -4.0819     0.1406     0.0601 </r>
       <r>    -3.9830     0.1463     0.0746 </r>
       <r>    -3.8841     0.1796     0.0924 </r>
       <r>    -3.7851     0.2149     0.1136 </r>
       <r>    -3.6862     0.2213     0.1355 </r>
       <r>    -3.5873     0.2123     0.1565 </r>
       <r>    -3.4884     0.2202     0.1783 </r>
       <r>    -3.3895     0.2471     0.2027 </r>
       <r>    -3.2906     0.2748     0.2299 </r>
       <r>    -3.1917     0.2905     0.2587 </r>
       <r>    -3.0928     0.2885     0.2872 </r>
       <r>    -2.9939     0.2834     0.3152 </r>
       <r>    -2.8950     0.2891     0.3438 </r>
       <r>    -2.7961     0.2821     0.3717 </r>
       <r>    -2.6972     0.2512     0.3966 </r>
       <r>    -2.5983     0.2364     0.4199 </r>
       <r>    -2.4993     0.2780     0.4474 </r>
       <r>    -2.4004     0.3599     0.4830 </r>
       <r>    -2.3015     0.4305     0.5256 </r>
       <r>    -2.2026     0.4661     0.5717 </r>
       <r>    -2.1037     0.4749     0.6187 </r>
       <r>    -2.0048     0.4438     0.6626 </r>
       <r>    -1.9059     0.3478     0.6970 </r>
       <r>    -1.8070     0.2372     0.7204 </r>
       <r>    -1.7081     0.2126     0.7415 </r>
       <r>    -1.6092     0.3025     0.7714 </r>
       <r>    -1.5103     0.4358     0.8145 </r>
       <r>    -1.4114     0.5057     0.8645 </r>
       <r>    -1.3125     0.4730     0.9113 </r>
       <r>    -1.2135     0.4106     0.9519 </r>
       <r>    -1.1146     0.4069     0.9922 </r>
       <r>    -1.0157     0.4473     1.0364 </r>
       <r>    -0.9168     0.4691     1.0828 </r>
       <r>    -0.8179     0.4765     1.1299 </r>
       <r>    -0.7190     0.4925     1.1786 </r>
       <r>    -0.6201     0.4971     1.2278 </r>
       <r>    -0.5212     0.4732     1.2746 </r>
       <r>    -0.4223     0.4432     1.3184 </r>
       <r>    -0.3234     0.4379     1.3617 </r>
       <r>    -0.2245     0.4642     1.4077 </r>
       <r>    -0.1256     0.5058     1.4577 </r>
       <r>    -0.0267     0.5296     1.5101 </r>
       <r>     0.0723     0.5297     1.5625 </r>
       <r>     0.1712     0.5561     1.6175 </r>
       <r>     0.2701     0.6256     1.6793 </r>
       <r>     0.3690     0.6666     1.7453 </r>
       <r>     0.4679     0.6274     1.8073 </r>
       <r>     0.5668     0.5474     1.8615 </r>
       <r>     0.6657     0.4825     1.9092 </r>
       <r>     0.7646     0.4447     1.9532 </r>
       <r>     0.8635     0.4372     1.9964 </r>
       <r>     0.9624     0.4695     2.0429 </r>
       <r>     1.0613     0.5196     2.0943 </r>
       <r>     1.1602     0.5667     2.1503 </r>
       <r>     1.2591     0.6338     2.2130 </r>
       <r>     1.3581     0.7068     2.2829 </r>
       <r>     1.4570     0.7209     2.3542 </r>
       <r>     1.5559     0.6759     2.4211 </r>
       <r>     1.6548     0.6335     2.4837 </r>
       <r>     1.7537     0.6263     2.5457 </r>
       <r>     1.8526     0.6539     2.6104 </r>
       <r>     1.9515     0.6659     2.6762 </r>
       <r>     2.0504     0.5685     2.7324 </r>
       <r>     2.1493     0.3809     2.7701 </r>
       <r>     2.2482     0.2540     2.7952 </r>
       <r>     2.3471     0.2797     2.8229 </r>
       <r>     2.4460     0.4039     2.8629 </r>
       <r>     2.5449     0.5227     2.9145 </r>
       <r>     2.6439     0.5852     2.9724 </r>
       <r>     2.7428     0.6050     3.0323 </r>
       <r>     2.8417     0.6319     3.0948 </r>
       <r>     2.9406     0.6987     3.1639 </r>
       <r>     3.0395     0.7651     3.2396 </r>
       <r>     3.1384     0.7672     3.3154 </r>
       <r>     3.2373     0.7051     3.3852 </r>
       <r>     3.3362     0.6098     3.4455 </r>
       <r>     3.4351     0.5083     3.4958 </r>
       <r>     3.5340     0.4689     3.5421 </r>
       <r>     3.6329     0.5361     3.5952 </r>
       <r>     3.7318     0.6372     3.6582 </r>
       <r>     3.8307     0.6885     3.7263 </r>
       <r>     3.9297     0.6944     3.7950 </r>
       <r>     4.0286     0.6758     3.8618 </r>
       <r>     4.1275     0.6285     3.9240 </r>
       <r>     4.2264     0.5758     3.9809 </r>
       <r>     4.3253     0.5955     4.0398 </r>
       <r>     4.4242     0.7418     4.1132 </r>
       <r>     4.5231     0.9265     4.2048 </r>
       <r>     4.6220     0.9938     4.3031 </r>
       <r>     4.7209     0.9072     4.3929 </r>
       <r>     4.8198     0.7606     4.4681 </r>
       <r>     4.9187     0.6532     4.5327 </r>
       <r>     5.0176     0.6115     4.5932 </r>
       <r>     5.1165     0.6184     4.6543 </r>
       <r>     5.2155     0.6514     4.7188 </r>
       <r>     5.3144     0.6775     4.7858 </r>
       <r>     5.4133     0.6828     4.8533 </r>
       <r>     5.5122     0.7082     4.9234 </r>
       <r>     5.6111     0.7850     5.0010 </r>
       <r>     5.7100     0.8400     5.0841 </r>
       <r>     5.8089     0.7947     5.1627 </r>
       <r>     5.9078     0.7280     5.2347 </r>
       <r>     6.0067     0.7711     5.3110 </r>
       <r>     6.1056     0.9023     5.4002 </r>
       <r>     6.2045     0.9865     5.4978 </r>
       <r>     6.3034     0.9656     5.5933 </r>
       <r>     6.4023     0.9071     5.6830 </r>
       <r>     6.5013     0.8944     5.7715 </r>
       <r>     6.6002     0.9228     5.8627 </r>
       <r>     6.6991     0.9251     5.9542 </r>
       <r>     6.7980     0.8947     6.0427 </r>
       <r>     6.8969     0.8759     6.1294 </r>
       <r>     6.9958     0.8602     6.2144 </r>
       <r>     7.0947     0.8418     6.2977 </r>
       <r>     7.1936     0.8557     6.3823 </r>
       <r>     7.2925     0.9108     6.4724 </r>
       <r>     7.3914     1.0061     6.5719 </r>
       <r>     7.4903     1.1333     6.6840 </r>
       <r>     7.5892     1.2333     6.8060 </r>
       <r>     7.6881     1.2212     6.9268 </r>
       <r>     7.7871     1.0842     7.0340 </r>
       <r>     7.8860     0.9047     7.1235 </r>
       <r>     7.9849     0.7442     7.1971 </r>
       <r>     8.0838     0.6229     7.2587 </r>
       <r>     8.1827     0.5681     7.3149 </r>
       <r>     8.2816     0.5810     7.3724 </r>
       <r>     8.3805     0.6418     7.4359 </r>
       <r>     8.4794     0.7267     7.5077 </r>
       <r>     8.5783     0.8072     7.5876 </r>
       <r>     8.6772     0.8699     7.6736 </r>
       <r>     8.7761     0.8915     7.7618 </r>
       <r>     8.8750     0.8393     7.8448 </r>
       <r>     8.9739     0.7648     7.9205 </r>
       <r>     9.0729     0.7858     7.9982 </r>
       <r>     9.1718     0.8714     8.0844 </r>
       <r>     9.2707     0.8406     8.1675 </r>
       <r>     9.3696     0.6525     8.2320 </r>
       <r>     9.4685     0.4513     8.2767 </r>
       <r>     9.5674     0.3634     8.3126 </r>
       <r>     9.6663     0.4322     8.3554 </r>
       <r>     9.7652     0.6149     8.4162 </r>
       <r>     9.8641     0.7789     8.4932 </r>
       <r>     9.9630     0.8129     8.5736 </r>
       <r>    10.0619     0.7285     8.6457 </r>
       <r>    10.1608     0.6263     8.7077 </r>
       <r>    10.2597     0.6358     8.7705 </r>
       <r>    10.3587     0.8196     8.8516 </r>
       <r>    10.4576     1.0694     8.9574 </r>
       <r>    10.5565     1.1797     9.0740 </r>
       <r>    10.6554     1.0595     9.1788 </r>
       <r>    10.7543     0.8265     9.2606 </r>
       <r>    10.8532     0.6709     9.3269 </r>
       <r>    10.9521     0.6736     9.3936 </r>
       <r>    11.0510     0.7621     9.4689 </r>
       <r>    11.1499     0.8115     9.5492 </r>
       <r>    11.2488     0.7656     9.6249 </r>
       <r>    11.3477     0.6900     9.6932 </r>
       <r>    11.4466     0.7024     9.7626 </r>
       <r>    11.5455     0.8222     9.8440 </r>
       <r>    11.6445     0.9483     9.9378 </r>
       <r>    11.7434     0.9808    10.0348 </r>
       <r>    11.8423     0.9347    10.1272 </r>
       <r>    11.9412     0.9248    10.2187 </r>
       <r>    12.0401     0.9827    10.3159 </r>
       <r>    12.1390     0.9859    10.4134 </r>
       <r>    12.2379     0.8845    10.5009 </r>
       <r>    12.3368     0.8052    10.5805 </r>
       <r>    12.4357     0.8336    10.6630 </r>
       <r>    12.5346     0.9097    10.7529 </r>
       <r>    12.6335     0.9885    10.8507 </r>
       <r>    12.7324     1.1030    10.9598 </r>
       <r>    12.8313     1.2358    11.0820 </r>
       <r>    12.9303     1.2965    11.2103 </r>
       <r>    13.0292     1.2414    11.3331 </r>
       <r>    13.1281     1.1166    11.4435 </r>
       <r>    13.2270     1.0244    11.5448 </r>
       <r>    13.3259     1.0403    11.6477 </r>
       <r>    13.4248     1.1239    11.7589 </r>
       <r>    13.5237     1.1771    11.8753 </r>
       <r>    13.6226     1.1665    11.9907 </r>
       <r>    13.7215     1.0891    12.0984 </r>
       <r>    13.8204     0.9499    12.1923 </r>
       <r>    13.9193     0.8636    12.2778 </r>
       <r>    14.0182     0.9249    12.3692 </r>
       <r>    14.1172     1.0136    12.4695 </r>
       <r>    14.2161     1.0151    12.5699 </r>
       <r>    14.3150     1.0306    12.6718 </r>
       <r>    14.4139     1.1325    12.7838 </r>
       <r>    14.5128     1.1776    12.9003 </r>
       <r>    14.6117     1.0513    13.0043 </r>
       <r>    14.7106     0.8504    13.0884 </r>
       <r>    14.8095     0.7200    13.1596 </r>
       <r>    14.9084     0.6985    13.2287 </r>
       <r>    15.0073     0.7571    13.3036 </r>
       <r>    15.1062     0.8710    13.3897 </r>
       <r>    15.2051     1.0267    13.4913 </r>
       <r>    15.3040     1.1743    13.6074 </r>
       <r>    15.4030     1.1984    13.7260 </r>
       <r>    15.5019     1.0499    13.8298 </r>
       <r>    15.6008     0.8589    13.9148 </r>
       <r>    15.6997     0.7878    13.9927 </r>
       <r>    15.7986     0.8305    14.0748 </r>
       <r>    15.8975     0.8535    14.1592 </r>
       <r>    15.9964     0.7949    14.2379 </r>
       <r>    16.0953     0.7168    14.3088 </r>
       <r>    16.1942     0.6918    14.3772 </r>
       <r>    16.2931     0.7137    14.4478 </r>
       <r>    16.3920     0.7391    14.5209 </r>
       <r>    16.4909     0.7627    14.5963 </r>
       <r>    16.5898     0.7803    14.6735 </r>
       <r>    16.6888     0.7546    14.7481 </r>
       <r>    16.7877     0.6879    14.8162 </r>
       <r>    16.8866     0.6195    14.8774 </r>
       <r>    16.9855     0.5429    14.9311 </r>
       <r>    17.0844     0.4420    14.9748 </r>
       <r>    17.1833     0.3615    15.0106 </r>
       <r>    17.2822     0.3344    15.0437 </r>
       <r>    17.3811     0.3424    15.0775 </r>
       <r>    17.4800     0.3897    15.1161 </r>
       <r>    17.5789     0.4737    15.1629 </r>
       <r>    17.6778     0.5207    15.2144 </r>
       <r>    17.7767     0.4990    15.2638 </r>
       <r>    17.8756     0.4893    15.3122 </r>
       <r>    17.9746     0.5303    15.3646 </r>
       <r>    18.0735     0.5503    15.4191 </r>
       <r>    18.1724     0.4986    15.4684 </r>
       <r>    18.2713     0.4203    15.5100 </r>
       <r>    18.3702     0.3701    15.5466 </r>
       <r>    18.4691     0.3374    15.5799 </r>
       <r>    18.5680     0.3062    15.6102 </r>
       <r>    18.6669     0.2887    15.6388 </r>
       <r>    18.7658     0.2772    15.6662 </r>
       <r>    18.8647     0.2651    15.6924 </r>
       <r>    18.9636     0.2844    15.7205 </r>
       <r>    19.0625     0.3402    15.7542 </r>
       <r>    19.1614     0.3704    15.7908 </r>
       <r>    19.2604     0.3335    15.8238 </r>
       <r>    19.3593     0.2635    15.8499 </r>
       <r>    19.4582     0.2032    15.8700 </r>
       <r>    19.5571     0.1599    15.8858 </r>
       <r>    19.6560     0.1264    15.8983 </r>
       <r>    19.7549     0.1011    15.9083 </r>
       <r>    19.8538     0.0896    15.9172 </r>
       <r>    19.9527     0.0924    15.9263 </r>
       <r>    20.0516     0.1037    15.9365 </r>
       <r>    20.1505     0.1116    15.9476 </r>
       <r>    20.2494     0.0990    15.9574 </r>
       <r>    20.3483     0.0653    15.9638 </r>
       <r>    20.4472     0.0307    15.9669 </r>
       <r>    20.5462     0.0119    15.9680 </r>
       <r>    20.6451     0.0110    15.9691 </r>
       <r>    20.7440     0.0228    15.9714 </r>
       <r>    20.8429     0.0385    15.9752 </r>
       <r>    20.9418     0.0509    15.9802 </r>
       <r>    21.0407     0.0592    15.9861 </r>
       <r>    21.1396     0.0600    15.9920 </r>
       <r>    21.2385     0.0462    15.9966 </r>
       <r>    21.3374     0.0242    15.9990 </r>
       <r>    21.4363     0.0082    15.9998 </r>
       <r>    21.5352     0.0018    16.0000 </r>
       <r>    21.6341     0.0002    16.0000 </r>
       <r>    21.7330     0.0000    16.0000 </r>
       <r>    21.8320     0.0000    16.0000 </r>
       <r>    21.9309     0.0000    16.0000 </r>
       <r>    22.0298     0.0000    16.0000 </r>
       <r>    22.1287     0.0000    16.0000 </r>
       <r>    22.2276     0.0000    16.0000 </r>
       <r>    22.3265     0.0000    16.0000 </r>
       <r>    22.4254     0.0000    16.0000 </r>
       <r>    22.5243     0.0000    16.0000 </r>
       <r>    22.6232     0.0000    16.0000 </r>
       <r>    22.7221     0.0000    16.0000 </r>
       <r>    22.8210     0.0000    16.0000 </r>
       <r>    22.9199     0.0000    16.0000 </r>
       <r>    23.0188     0.0000    16.0000 </r>
       <r>    23.1178     0.0000    16.0000 </r>
      </set>
     </set>
    </array>
   </total>
  </dos>
 </calculation>
 <structure name="finalpos" >
  <crystal>
   <varray name="basis" >
    <v>      -2.45000000       2.45000000       1.27400000 </v>
    <v>       2.45000000      -2.45000000       1.27400000 </v>
    <v>       2.45000000       2.45000000      -1.27400000 </v>
   </varray>
   <i name="volume">     30.58874000 </i>
   <varray name="rec_basis" >
    <v>       0.00000000       0.20408163       0.39246468 </v>
    <v>       0.20408163       0.00000000       0.39246468 </v>
    <v>       0.20408163       0.20408163      -0.00000000 </v>
   </varray>
  </crystal>
  <varray name="positions" >
   <v>       0.25000000       0.75000000       0.50000000 </v>
   <v>       0.00000000       0.00000000       0.00000000 </v>
  </varray>
 </structure>
</modeling>
