unknown system                          
   1.00000000000000     
     0.000000    2.759520    2.759520
     2.759520    0.000000    2.759520
     2.759520    2.759520    0.000000
   Si
     2
Direct
  0.500000  0.500000  0.500000
  0.750000  0.750000  0.750000
 
   36   36   36
 0.82978     0.84534     0.89309     0.97615      1.0992      1.2683      1.4897      1.7699      2.1146      2.5272    
  3.0067      3.5457      4.1274      4.7247      5.3012      5.8139      6.2193      6.4797      6.5696      6.4797    
  6.2193      5.8139      5.3012      4.7248      4.1274      3.5457      3.0067      2.5272      2.1146      1.7699    
  1.4896      1.2683      1.0992     0.97615     0.89310     0.84534     0.84534     0.87247     0.92849      1.0167    
  1.1415      1.3081      1.5219      1.7874      2.1080      2.4841      2.9116      3.3799      3.8707      4.3578    
  4.8089      5.1885      5.4636      5.6083      5.6083      5.4636      5.1885      4.8089      4.3579      3.8707    
  3.3799      2.9116      2.4841      2.1080      1.7874      1.5218      1.3081      1.1415      1.0167     0.92848    
 0.87247     0.84534     0.89309     0.92849     0.98981      1.0803      1.2041      1.3654      1.5683      1.8161    
  2.1097      2.4472      2.8219      3.2214      3.6273      4.0155      4.3585      4.6284      4.8013      4.8609    
  4.8013      4.6284      4.3585      4.0156      3.6273      3.2214      2.8218      2.4472      2.1097      1.8160    
  1.5683      1.3654      1.2041      1.0803     0.98981     0.92848     0.89308     0.88153     0.97615      1.0167    
  1.0803      1.1702      1.2898      1.4426      1.6318      1.8588      2.1230      2.4203      2.7427      3.0770    
  3.4057      3.7077      3.9604      4.1428      4.2384      4.2384      4.1428      3.9604      3.7077      3.4057    
  3.0770      2.7426      2.4203      2.1229      1.8588      1.6318      1.4427      1.2898      1.1702      1.0803    
  1.0167     0.97613     0.95647     0.95647      1.0992      1.1415      1.2041      1.2898      1.4017      1.5427    
  1.7146      1.9177      2.1500      2.4062      2.6774      2.9509      3.2107      3.4391      3.6181      3.7326    
  3.7719      3.7326      3.6181      3.4391      3.2107      2.9508      2.6774      2.4062      2.1500      1.9177    
  1.7146      1.5427      1.4017      1.2898      1.2041      1.1415      1.0992      1.0749      1.0670      1.0749    
  1.2683      1.3081      1.3654      1.4426      1.5427      1.6675      1.8182      1.9941      2.1920      2.4062    
  2.6278      2.8451      3.0443      3.2108      3.3308      3.3938      3.3938      3.3308      3.2108      3.0443    
  2.8451      2.6278      2.4062      2.1920      1.9941      1.8183      1.6676      1.5427      1.4427      1.3654    
  1.3081      1.2682      1.2432      1.2312      1.2312      1.2432      1.4897      1.5219      1.5683      1.6318    
  1.7146      1.8182      1.9431      2.0878      2.2488      2.4203      2.5942      2.7600      2.9062      3.0211    
  3.0948      3.1201      3.0948      3.0211      2.9062      2.7600      2.5942      2.4203      2.2488      2.0878    
  1.9431      1.8183      1.7146      1.6318      1.5683      1.5218      1.4897      1.4691      1.4577      1.4541    
  1.4577      1.4691      1.7699      1.7874      1.8161      1.8588      1.9177      1.9941      2.0878      2.1971    
  2.3188      2.4472      2.5752      2.6941      2.7945      2.8674      2.9058      2.9058      2.8674      2.7945    
  2.6941      2.5752      2.4472      2.3188      2.1972      2.0878      1.9941      1.9177      1.8588      1.8160    
  1.7874      1.7699      1.7605      1.7562      1.7547      1.7547      1.7562      1.7605      2.1146      2.1080    
  2.1097      2.1230      2.1500      2.1920      2.2488      2.3188      2.3988      2.4841      2.5687      2.6454    
  2.7070      2.7469      2.7608      2.7469      2.7070      2.6454      2.5687      2.4841      2.3988      2.3188    
  2.2488      2.1920      2.1500      2.1229      2.1097      2.1080      2.1146      2.1257      2.1373      2.1459    
  2.1491      2.1459      2.1373      2.1257      2.5272      2.4841      2.4472      2.4203      2.4062      2.4062    
  2.4203      2.4472      2.4841      2.5272      2.5713      2.6112      2.6414      2.6577      2.6577      2.6414    
  2.6112      2.5714      2.5272      2.4841      2.4472      2.4203      2.4062      2.4062      2.4203      2.4472    
  2.4841      2.5272      2.5714      2.6112      2.6414      2.6577      2.6577      2.6414      2.6112      2.5713    
  3.0067      2.9116      2.8219      2.7427      2.6774      2.6278      2.5942      2.5752      2.5687      2.5713    
  2.5793      2.5887      2.5960      2.5987      2.5960      2.5887      2.5793      2.5713      2.5687      2.5752    
  2.5941      2.6278      2.6773      2.7426      2.8219      2.9116      3.0067      3.1006      3.1856      3.2536    
  3.2978      3.3131      3.2978      3.2536      3.1855      3.1006      3.5457      3.3799      3.2214      3.0770    
  2.9509      2.8451      2.7600      2.6941      2.6454      2.6112      2.5887      2.5754      2.5692      2.5692    
  2.5754      2.5887      2.6112      2.6454      2.6940      2.7599      2.8451      2.9508      3.0770      3.2214    
  3.3799      3.5457      3.7099      3.8617      3.9895      4.0822      4.1310      4.1310      4.0822      3.9895    
  3.8617      3.7099      4.1274      3.8707      3.6273      3.4057      3.2107      3.0443      2.9062      2.7945    
  2.7070      2.6414      2.5960      2.5692      2.5604      2.5692      2.5960      2.6414      2.7069      2.7944    
  2.9061      3.0443      3.2107      3.4057      3.6274      3.8707      4.1274      4.3856      4.6304      4.8454    
  5.0139      5.1216      5.1587      5.1216      5.0139      4.8454      4.6304      4.3855      4.7247      4.3578    
  4.0155      3.7077      3.4391      3.2108      3.0211      2.8674      2.7469      2.6577      2.5987      2.5692    
  2.5692      2.5987      2.6577      2.7469      2.8673      3.0210      3.2107      3.4391      3.7077      4.0156    
  4.3579      4.7248      5.1013      5.4678      5.8017      6.0792      6.2786      6.3829      6.3829      6.2786    
  6.0793      5.8017      5.4678      5.1012      5.3012      4.8089      4.3585      3.9604      3.6181      3.3308    
  3.0948      2.9058      2.7608      2.6577      2.5960      2.5754      2.5960      2.6577      2.7607      2.9057    
  3.0946      3.3307      3.6182      3.9604      4.3586      4.8089      5.3012      5.8177      6.3339      6.8199    
  7.2434      7.5731      7.7827      7.8547      7.7828      7.5731      7.2434      6.8199      6.3340      5.8177    
  5.8139      5.1885      4.6284      4.1428      3.7326      3.3938      3.1201      2.9058      2.7469      2.6414    
  2.5887      2.5887      2.6414      2.7469      2.9057      3.1200      3.3937      3.7326      4.1428      4.6285    
  5.1885      5.8139      6.4854      7.1740      7.8425      8.4490      8.9510      9.3103      9.4979      9.4979    
  9.3103      8.9510      8.4491      7.8426      7.1740      6.4854      6.2193      5.4636      4.8013      4.2384    
  3.7719      3.3938      3.0948      2.8674      2.7070      2.6112      2.5793      2.6112      2.7069      2.8673    
  3.0946      3.3937      3.7720      4.2385      4.8014      5.4636      6.2193      7.0499      7.9239      8.7976    
  9.6197      10.335      10.892      11.246      11.367      11.246      10.892      10.335      9.6197      8.7977    
  7.9239      7.0500      6.4797      5.6083      4.8609      4.2384      3.7326      3.3308      3.0211      2.7945    
  2.6454      2.5714      2.5713      2.6454      2.7944      3.0210      3.3307      3.7326      4.2385      4.8609    
  5.6083      6.4797      7.4602      8.5184      9.6068      10.666      11.630      12.431      13.006      13.307    
  13.307      13.006      12.431      11.630      10.666      9.6069      8.5184      7.4603      6.5696      5.6083    
  4.8013      4.1428      3.6181      3.2108      2.9062      2.6941      2.5687      2.5272      2.5687      2.6940    
  2.9061      3.2107      3.6182      4.1428      4.8014      5.6083      6.5695      7.6763      8.9009      10.196    
  11.498      12.731      13.814      14.664      15.208      15.396      15.208      14.664      13.814      12.731    
  11.498      10.196      8.9009      7.6764      6.4797      5.4636      4.6284      3.9604      3.4391      3.0443    
  2.7600      2.5752      2.4841      2.4841      2.5752      2.7599      3.0443      3.4391      3.9604      4.6285    
  5.4636      6.4797      7.6763      9.0330      10.507      12.034      13.536      14.920      16.086      16.929    
  17.371      17.371      16.929      16.085      14.920      13.536      12.034      10.507      9.0330      7.6764    
  6.2193      5.1885      4.3585      3.7077      3.2107      2.8451      2.5942      2.4472      2.3988      2.4472    
  2.5941      2.8451      3.2107      3.7077      4.3586      5.1885      6.2193      7.4602      8.9009      10.507    
  12.220      13.962      15.638      17.130      18.304      19.053      19.311      19.053      18.303      17.130    
  15.638      13.962      12.219      10.507      8.9009      7.4603      5.8139      4.8089      4.0156      3.4057    
  2.9508      2.6278      2.4203      2.3188      2.3188      2.4203      2.6278      2.9508      3.4057      4.0156    
  4.8089      5.8139      7.0499      8.5184      10.196      12.034      13.962      15.887      17.683      19.192    
  20.283      20.855      20.855      20.283      19.192      17.682      15.887      13.962      12.034      10.196    
  8.5183      7.0499      5.3012      4.3579      3.6273      3.0770      2.6774      2.4062      2.2488      2.1972    
  2.2488      2.4062      2.6773      3.0770      3.6274      4.3579      5.3012      6.4854      7.9239      9.6068    
  11.498      13.536      15.638      17.683      19.500      20.932      21.851      22.168      21.851      20.932    
  19.500      17.682      15.638      13.536      11.498      9.6068      7.9239      6.4854      4.7248      3.8707    
  3.2214      2.7426      2.4062      2.1920      2.0878      2.0878      2.1920      2.4062      2.7426      3.2214    
  3.8707      4.7248      5.8177      7.1740      8.7976      10.666      12.731      14.920      17.130      19.192    
  20.932      22.196      22.863      22.863      22.196      20.932      19.192      17.130      14.920      12.731    
  10.666      8.7976      7.1740      5.8178      4.1274      3.3799      2.8218      2.4203      2.1500      1.9941    
  1.9431      1.9941      2.1500      2.4203      2.8219      3.3799      4.1274      5.1013      6.3339      7.8425    
  9.6197      11.630      13.814      16.086      18.304      20.283      21.851      22.863      23.213      22.863    
  21.851      20.283      18.304      16.086      13.814      11.630      9.6196      7.8425      6.3340      5.1013    
  3.5457      2.9116      2.4472      2.1229      1.9177      1.8183      1.8183      1.9177      2.1229      2.4472    
  2.9116      3.5457      4.3856      5.4678      6.8199      8.4490      10.335      12.431      14.664      16.929    
  19.053      20.855      22.168      22.863      22.863      22.168      20.855      19.053      16.929      14.664    
  12.431      10.335      8.4490      6.8199      5.4679      4.3856      3.0067      2.4841      2.1097      1.8588    
  1.7146      1.6676      1.7146      1.8588      2.1097      2.4841      3.0067      3.7099      4.6304      5.8017    
  7.2434      8.9510      10.892      13.006      15.208      17.371      19.311      20.855      21.851      22.196    
  21.851      20.855      19.311      17.371      15.208      13.006      10.892      8.9510      7.2434      5.8018    
  4.6305      3.7100      2.5272      2.1080      1.8160      1.6318      1.5427      1.5427      1.6318      1.8160    
  2.1080      2.5272      3.1006      3.8617      4.8454      6.0792      7.5731      9.3103      11.246      13.307    
  15.396      17.371      19.053      20.283      20.932      20.932      20.283      19.053      17.371      15.396    
  13.307      11.246      9.3103      7.5731      6.0793      4.8455      3.8618      3.1006      2.1146      1.7874    
  1.5683      1.4427      1.4017      1.4427      1.5683      1.7874      2.1146      2.5714      3.1856      3.9895    
  5.0139      6.2786      7.7827      9.4979      11.367      13.307      15.208      16.929      18.303      19.192    
  19.500      19.192      18.304      16.929      15.208      13.307      11.367      9.4979      7.7827      6.2787    
  5.0140      3.9896      3.1856      2.5714      1.7699      1.5218      1.3654      1.2898      1.2898      1.3654    
  1.5218      1.7699      2.1257      2.6112      3.2536      4.0822      5.1216      6.3829      7.8547      9.4979    
  11.246      13.006      14.664      16.085      17.130      17.682      17.682      17.130      16.086      14.664    
  13.006      11.246      9.4979      7.8547      6.3830      5.1217      4.0823      3.2537      2.6112      2.1257    
  1.4896      1.3081      1.2041      1.1702      1.2041      1.3081      1.4897      1.7605      2.1373      2.6414    
  3.2978      4.1310      5.1587      6.3829      7.7828      9.3103      10.892      12.431      13.814      14.920    
  15.638      15.887      15.638      14.920      13.814      12.431      10.892      9.3103      7.7827      6.3830    
  5.1588      4.1311      3.2978      2.6414      2.1373      1.7605      1.2683      1.1415      1.0803      1.0803    
  1.1415      1.2682      1.4691      1.7562      2.1459      2.6577      3.3131      4.1310      5.1216      6.2786    
  7.5731      8.9510      10.335      11.630      12.731      13.536      13.962      13.962      13.536      12.731    
  11.630      10.335      8.9510      7.5731      6.2787      5.1217      4.1311      3.3131      2.6577      2.1459    
  1.7562      1.4690      1.0992      1.0167     0.98981      1.0167      1.0992      1.2432      1.4577      1.7547    
  2.1491      2.6577      3.2978      4.0822      5.0139      6.0793      7.2434      8.4491      9.6197      10.666    
  11.498      12.034      12.219      12.034      11.498      10.666      9.6196      8.4490      7.2434      6.0793    
  5.0140      4.0823      3.2978      2.6577      2.1491      1.7547      1.4577      1.2432     0.97615     0.92848    
 0.92848     0.97613      1.0749      1.2312      1.4541      1.7547      2.1459      2.6414      3.2536      3.9895    
  4.8454      5.8017      6.8199      7.8426      8.7977      9.6069      10.196      10.507      10.507      10.196    
  9.6068      8.7976      7.8425      6.8199      5.8018      4.8455      3.9896      3.2537      2.6414      2.1459    
  1.7547      1.4541      1.2312      1.0749     0.89310     0.87247     0.89308     0.95647      1.0670      1.2312    
  1.4577      1.7562      2.1373      2.6112      3.1855      3.8617      4.6304      5.4678      6.3340      7.1740    
  7.9239      8.5184      8.9009      9.0330      8.9009      8.5183      7.9239      7.1740      6.3340      5.4679    
  4.6305      3.8618      3.1856      2.6112      2.1373      1.7562      1.4577      1.2312      1.0670     0.95648    
 0.84534     0.84534     0.88153     0.95647      1.0749      1.2432      1.4691      1.7605      2.1257      2.5713    
  3.1006      3.7099      4.3855      5.1012      5.8177      6.4854      7.0500      7.4603      7.6764      7.6764    
  7.4603      7.0499      6.4854      5.8178      5.1013      4.3856      3.7100      3.1006      2.5714      2.1257    
  1.7605      1.4690      1.2432      1.0749     0.95648     0.88154     0.84534     0.87247     0.92849      1.0167    
  1.1415      1.3081      1.5219      1.7874      2.1080      2.4841      2.9116      3.3799      3.8707      4.3578    
  4.8089      5.1885      5.4636      5.6083      5.6083      5.4636      5.1885      4.8089      4.3579      3.8707    
  3.3799      2.9116      2.4841      2.1080      1.7874      1.5218      1.3081      1.1415      1.0167     0.92848    
 0.87247     0.84534     0.87247     0.90734     0.96767      1.0566      1.1780      1.3362      1.5354      1.7786    
  2.0670      2.3988      2.7673      3.1603      3.5595      3.9412      4.2783      4.5435      4.7134      4.7719    
  4.7134      4.5436      4.2784      3.9413      3.5595      3.1603      2.7672      2.3987      2.0670      1.7785    
  1.5354      1.3362      1.1780      1.0566     0.96766     0.90733     0.87246     0.86108     0.92849     0.96767    
  1.0290      1.1154      1.2301      1.3769      1.5586      1.7770      2.0317      2.3188      2.6302      2.9532    
  3.2706      3.5620      3.8056      3.9813      4.0735      4.0735      3.9813      3.8056      3.5620      3.2706    
  2.9532      2.6302      2.3187      2.0316      1.7770      1.5585      1.3769      1.2302      1.1154      1.0290    
 0.96766     0.92847     0.90941     0.90942      1.0167      1.0566      1.1154      1.1957      1.3005      1.4327    
  1.5943      1.7860      2.0058      2.2488      2.5061      2.7655      3.0116      3.2276      3.3966      3.5045    
  3.5416      3.5045      3.3966      3.2276      3.0116      2.7655      2.5061      2.2488      2.0058      1.7860    
  1.5943      1.4327      1.3005      1.1957      1.1154      1.0566      1.0167     0.99357     0.98603     0.99358    
  1.1415      1.1780      1.2301      1.3005      1.3917      1.5061      1.6451      1.8080      1.9922      2.1920    
  2.3987      2.6011      2.7862      2.9405      3.0514      3.1095      3.1095      3.0514      2.9404      2.7862    
  2.6011      2.3987      2.1920      1.9922      1.8080      1.6451      1.5062      1.3917      1.3005      1.2301    
  1.1780      1.1415      1.1185      1.1073      1.1073      1.1185      1.3081      1.3362      1.3769      1.4327    
  1.5061      1.5991      1.7123      1.8444      1.9922      2.1500      2.3098      2.4618      2.5953      2.7000    
  2.7668      2.7898      2.7668      2.7000      2.5953      2.4618      2.3098      2.1500      1.9922      1.8444    
  1.7123      1.5992      1.5062      1.4327      1.3769      1.3362      1.3081      1.2901      1.2801      1.2769    
  1.2801      1.2901      1.5219      1.5354      1.5586      1.5943      1.6451      1.7123      1.7962      1.8951    
  2.0058      2.1230      2.2395      2.3474      2.4381      2.5037      2.5382      2.5382      2.5037      2.4381    
  2.3474      2.2395      2.1230      2.0059      1.8952      1.7962      1.7123      1.6451      1.5943      1.5585    
  1.5354      1.5219      1.5150      1.5122      1.5113      1.5113      1.5122      1.5150      1.7874      1.7786    
  1.7770      1.7860      1.8080      1.8444      1.8951      1.9586      2.0317      2.1097      2.1869      2.2566    
  2.3123      2.3483      2.3608      2.3484      2.3123      2.2566      2.1869      2.1097      2.0317      1.9586    
  1.8951      1.8444      1.8080      1.7860      1.7770      1.7785      1.7874      1.7998      1.8119      1.8206    
  1.8238      1.8206      1.8119      1.7998      2.1080      2.0670      2.0317      2.0058      1.9922      1.9922    
  2.0058      2.0317      2.0670      2.1080      2.1499      2.1874      2.2158      2.2310      2.2310      2.2158    
  2.1874      2.1499      2.1080      2.0670      2.0317      2.0058      1.9922      1.9922      2.0058      2.0317    
  2.0670      2.1080      2.1499      2.1874      2.2158      2.2310      2.2310      2.2158      2.1874      2.1499    
  2.4841      2.3988      2.3188      2.2488      2.1920      2.1500      2.1230      2.1097      2.1080      2.1146    
  2.1257      2.1373      2.1459      2.1491      2.1459      2.1373      2.1257      2.1146      2.1080      2.1097    
  2.1229      2.1500      2.1920      2.2488      2.3188      2.3988      2.4841      2.5687      2.6454      2.7070    
  2.7469      2.7608      2.7469      2.7070      2.6454      2.5687      2.9116      2.7673      2.6302      2.5061    
  2.3987      2.3098      2.2395      2.1869      2.1499      2.1257      2.1114      2.1038      2.1007      2.1007    
  2.1038      2.1114      2.1257      2.1498      2.1868      2.2395      2.3097      2.3987      2.5061      2.6302    
  2.7673      2.9116      3.0554      3.1890      3.3020      3.3843      3.4276      3.4276      3.3842      3.3020    
  3.1890      3.0554      3.3799      3.1603      2.9532      2.7655      2.6011      2.4618      2.3474      2.2566    
  2.1874      2.1373      2.1038      2.0848      2.0786      2.0848      2.1038      2.1373      2.1874      2.2566    
  2.3473      2.4617      2.6011      2.7655      2.9532      3.1603      3.3799      3.6022      3.8146      4.0023    
  4.1504      4.2454      4.2782      4.2454      4.1504      4.0023      3.8146      3.6022      3.8707      3.5595    
  3.2706      3.0116      2.7862      2.5953      2.4381      2.3123      2.2158      2.1459      2.1007      2.0786    
  2.0786      2.1007      2.1459      2.2157      2.3123      2.4380      2.5953      2.7862      3.0117      3.2707    
  3.5596      3.8707      4.1924      4.5083      4.7987      5.0422      5.2183      5.3109      5.3109      5.2184    
  5.0422      4.7987      4.5083      4.1923      4.3578      3.9412      3.5620      3.2276      2.9405      2.7000    
  2.5037      2.3483      2.2310      2.1491      2.1007      2.0848      2.1007      2.1491      2.2309      2.3483    
  2.5036      2.7000      2.9405      3.2276      3.5621      3.9413      4.3579      4.7985      5.2435      5.6672    
  6.0407      6.3342      6.5222      6.5870      6.5222      6.3342      6.0407      5.6673      5.2435      4.7985    
  4.8089      4.2783      3.8056      3.3966      3.0514      2.7668      2.5382      2.3608      2.2310      2.1459    
  2.1038      2.1038      2.1459      2.2309      2.3607      2.5381      2.7668      3.0515      3.3967      3.8057    
  4.2784      4.8089      5.3837      5.9801      6.5670      7.1067      7.5588      7.8854      8.0569      8.0569    
  7.8854      7.5588      7.1067      6.5670      5.9801      5.3836      5.1885      4.5435      3.9813      3.5045    
  3.1095      2.7898      2.5382      2.3484      2.2158      2.1373      2.1114      2.1373      2.2157      2.3483    
  2.5381      2.7898      3.1096      3.5046      3.9814      4.5436      5.1885      5.9043      6.6671      7.4413    
  8.1807      8.8333      9.3466      9.6753      9.7886      9.6753      9.3466      8.8333      8.1807      7.4413    
  6.6671      5.9043      5.4636      4.7134      4.0735      3.5416      3.1095      2.7668      2.5037      2.3123    
  2.1874      2.1257      2.1257      2.1874      2.3123      2.5036      2.7668      3.1096      3.5417      4.0735    
  4.7134      5.4636      6.3162      7.2487      8.2232      9.1871      10.077      10.824      11.366      11.650    
  11.650      11.366      10.824      10.077      9.1871      8.2232      7.2486      6.3161      5.6083      4.7719    
  4.0735      3.5045      3.0514      2.7000      2.4381      2.2566      2.1499      2.1146      2.1498      2.2566    
  2.4380      2.7000      3.0515      3.5046      4.0735      4.7719      5.6083      6.5808      7.6716      8.8441    
  10.042      11.193      12.215      13.023      13.543      13.722      13.543      13.023      12.215      11.193    
  10.042      8.8440      7.6716      6.5808      5.6083      4.7134      3.9813      3.3966      2.9404      2.5953    
  2.3474      2.1869      2.1080      2.1080      2.1868      2.3473      2.5953      2.9405      3.3967      3.9814    
  4.7134      5.6083      6.6721      7.8945      9.2440      10.666      12.083      13.403      14.521      15.337    
  15.768      15.768      15.337      14.521      13.403      12.083      10.666      9.2439      7.8945      6.6721    
  5.4636      4.5436      3.8056      3.2276      2.7862      2.4618      2.2395      2.1097      2.0670      2.1097    
  2.2395      2.4617      2.7862      3.2276      3.8057      4.5436      5.4636      6.5808      7.8945      9.3822    
  10.995      12.659      14.274      15.723      16.882      17.633      17.894      17.633      16.882      15.723    
  14.274      12.658      10.995      9.3821      7.8945      6.5808      5.1885      4.2784      3.5620      3.0116    
  2.6011      2.3098      2.1230      2.0317      2.0317      2.1229      2.3097      2.6011      3.0117      3.5621    
  4.2784      5.1885      6.3162      7.6716      9.2440      10.995      12.858      14.735      16.505      18.024    
  19.144      19.739      19.739      19.144      18.024      16.505      14.735      12.857      10.995      9.2439    
  7.6716      6.3161      4.8089      3.9413      3.2706      2.7655      2.3987      2.1500      2.0059      1.9586    
  2.0058      2.1500      2.3987      2.7655      3.2707      3.9413      4.8089      5.9043      7.2487      8.8441    
  10.666      12.659      14.735      16.777      18.633      20.131      21.105      21.444      21.106      20.131    
  18.633      16.776      14.735      12.658      10.666      8.8440      7.2486      5.9043      4.3579      3.5595    
  2.9532      2.5061      2.1920      1.9922      1.8952      1.8951      1.9922      2.1920      2.5061      2.9532    
  3.5596      4.3579      5.3837      6.6671      8.2232      10.042      12.083      14.274      16.505      18.633    
  20.474      21.834      22.557      22.557      21.834      20.474      18.633      16.505      14.274      12.083    
  10.042      8.2232      6.6671      5.3837      3.8707      3.1603      2.6302      2.2488      1.9922      1.8444    
  1.7962      1.8444      1.9922      2.2488      2.6302      3.1603      3.8707      4.7985      5.9801      7.4413    
  9.1871      11.193      13.403      15.723      18.024      20.131      21.834      22.944      23.330      22.944    
  21.834      20.131      18.024      15.723      13.403      11.193      9.1870      7.4413      5.9801      4.7986    
  3.3799      2.7672      2.3187      2.0058      1.8080      1.7123      1.7123      1.8080      2.0058      2.3188    
  2.7673      3.3799      4.1924      5.2435      6.5670      8.1807      10.077      12.215      14.521      16.882    
  19.144      21.105      22.557      23.330      23.330      22.557      21.106      19.144      16.882      14.521    
  12.215      10.077      8.1807      6.5670      5.2436      4.1924      2.9116      2.3987      2.0316      1.7860    
  1.6451      1.5992      1.6451      1.7860      2.0317      2.3988      2.9116      3.6022      4.5083      5.6672    
  7.1067      8.8333      10.824      13.023      15.337      17.633      19.739      21.444      22.557      22.944    
  22.557      21.444      19.739      17.633      15.337      13.023      10.824      8.8333      7.1067      5.6674    
  4.5084      3.6022      2.4841      2.0670      1.7770      1.5943      1.5062      1.5062      1.5943      1.7770    
  2.0670      2.4841      3.0554      3.8146      4.7987      6.0407      7.5588      9.3466      11.366      13.543    
  15.768      17.894      19.739      21.106      21.834      21.834      21.106      19.739      17.894      15.768    
  13.543      11.366      9.3466      7.5588      6.0408      4.7988      3.8146      3.0554      2.1080      1.7785    
  1.5585      1.4327      1.3917      1.4327      1.5585      1.7785      2.1080      2.5687      3.1890      4.0023    
  5.0422      6.3342      7.8854      9.6753      11.650      13.722      15.768      17.633      19.144      20.131    
  20.474      20.131      19.144      17.633      15.768      13.722      11.650      9.6753      7.8855      6.3344    
  5.0424      4.0024      3.1890      2.5687      1.7874      1.5354      1.3769      1.3005      1.3005      1.3769    
  1.5354      1.7874      2.1499      2.6454      3.3020      4.1504      5.2183      6.5222      8.0569      9.7886    
  11.650      13.543      15.337      16.882      18.024      18.633      18.633      18.024      16.882      15.337    
  13.543      11.650      9.7885      8.0570      6.5223      5.2185      4.1505      3.3020      2.6454      2.1498    
  1.5218      1.3362      1.2302      1.1957      1.2301      1.3362      1.5219      1.7998      2.1874      2.7070    
  3.3843      4.2454      5.3109      6.5870      8.0569      9.6753      11.366      13.023      14.521      15.723    
  16.505      16.776      16.505      15.723      14.521      13.023      11.366      9.6753      8.0570      6.5871    
  5.3111      4.2455      3.3843      2.7070      2.1874      1.7997      1.3081      1.1780      1.1154      1.1154    
  1.1780      1.3081      1.5150      1.8119      2.2158      2.7469      3.4276      4.2782      5.3109      6.5222    
  7.8854      9.3466      10.824      12.215      13.403      14.274      14.735      14.735      14.274      13.403    
  12.215      10.824      9.3466      7.8855      6.5223      5.3111      4.2783      3.4276      2.7469      2.2157    
  1.8118      1.5150      1.1415      1.0566      1.0290      1.0566      1.1415      1.2901      1.5122      1.8206    
  2.2310      2.7608      3.4276      4.2454      5.2184      6.3342      7.5588      8.8333      10.077      11.193    
  12.083      12.658      12.857      12.658      12.083      11.193      10.077      8.8333      7.5588      6.3344    
  5.2185      4.2455      3.4276      2.7607      2.2309      1.8206      1.5121      1.2901      1.0167     0.96766    