unknown system                          
   1.00000000000000     
     0.000000    2.759520    2.759520
     2.759520    0.000000    2.759520
     2.759520    2.759520    0.000000
   Si
     2
Direct
  0.500000  0.500000  0.500000
  0.750000  0.750000  0.750000
 
   36   36   36
 0.82978219082E+00 0.84533898880E+00 0.89309298883E+00 0.97614594612E+00 0.10992428144E+01
 0.12682625569E+01 0.14896720300E+01 0.17699248754E+01 0.21146216255E+01 0.25271577687E+01
 0.30066986289E+01 0.35456625868E+01 0.41273530486E+01 0.47247158797E+01 0.53011591656E+01
 0.58138721633E+01 0.62193043426E+01 0.64797498405E+01 0.65695880356E+01 0.64797416085E+01
 0.62192950024E+01 0.58138777944E+01 0.53011981039E+01 0.47247923197E+01 0.41274471086E+01
 0.35457402779E+01 0.30067346103E+01 0.25271504690E+01 0.21145892140E+01 0.17698896784E+01
 0.14896477717E+01 0.12682517552E+01 0.10992415320E+01 0.97614913560E+00 0.89309698390E+00
 0.84534155271E+00 0.84533898880E+00 0.87247190579E+00 0.92848536557E+00 0.10166756896E+01
 0.11415101407E+01 0.13081438370E+01 0.15218629185E+01 0.17874051061E+01 0.21080198672E+01
 0.24841277278E+01 0.29115880261E+01 0.33798644891E+01 0.38706720037E+01 0.43578265841E+01
 0.48088638768E+01 0.51885288976E+01 0.54636343234E+01 0.56082877699E+01 0.56082884956E+01
 0.54636379865E+01 0.51885424504E+01 0.48088983898E+01 0.43578842522E+01 0.38707352895E+01
 0.33799051556E+01 0.29115891878E+01 0.24840950963E+01 0.21079733477E+01 0.17873640567E+01
 0.15218379574E+01 0.13081357038E+01 0.11415119715E+01 0.10166782088E+01 0.92848344523E+00
 0.87246721968E+00 0.84533656760E+00 0.89309298883E+00 0.92848536557E+00 0.98981202289E+00
 0.10803217477E+01 0.12040501591E+01 0.13653528576E+01 0.15683280653E+01 0.18160769838E+01
 0.21097272216E+01 0.24472027609E+01 0.28218747125E+01 0.32214160407E+01 0.36273199841E+01
 0.40155392528E+01 0.43585073048E+01 0.46284321258E+01 0.48013215491E+01 0.48608780236E+01
 0.48013252585E+01 0.46284422101E+01 0.43585277027E+01 0.40155683566E+01 0.36273445437E+01
 0.32214175842E+01 0.28218453899E+01 0.24471525501E+01 0.21096750298E+01 0.18160379960E+01
 0.15683090499E+01 0.13653529065E+01 0.12040611435E+01 0.10803311824E+01 0.98981108305E+00
 0.92847549162E+00 0.89308375226E+00 0.88153352532E+00 0.97614594612E+00 0.10166756896E+01
 0.10803217477E+01 0.11701654142E+01 0.12897553871E+01 0.14426425984E+01 0.16317836947E+01
 0.18587816551E+01 0.21229569532E+01 0.24203238289E+01 0.27426639271E+01 0.30769866545E+01
 0.34056893932E+01 0.37076567873E+01 0.39603607510E+01 0.41427534493E+01 0.42384448523E+01
 0.42384447485E+01 0.41427547308E+01 0.39603650350E+01 0.37076602237E+01 0.34056824196E+01
 0.30769614228E+01 0.27426223637E+01 0.24202773920E+01 0.21229188618E+01 0.18587604312E+01
 0.16317821970E+01 0.14426584526E+01 0.12897798565E+01 0.11701852051E+01 0.10803266995E+01
 0.10166661498E+01 0.97613210413E+00 0.95646700063E+00 0.95647329788E+00 0.10992428144E+01
 0.11415101407E+01 0.12040501591E+01 0.12897553871E+01 0.14017002497E+01 0.15426710488E+01
 0.17145721524E+01 0.19177097325E+01 0.21499974432E+01 0.24061978911E+01 0.26773880010E+01
 0.29508708638E+01 0.32107245906E+01 0.34390886716E+01 0.36181476258E+01 0.37325713394E+01
 0.37719430969E+01 0.37325684132E+01 0.36181429280E+01 0.34390793966E+01 0.32107046963E+01
 0.29508395488E+01 0.26773541090E+01 0.24061733274E+01 0.21499886451E+01 0.19177170995E+01
 0.17145939845E+01 0.15427036408E+01 0.14017350048E+01 0.12897805440E+01 0.12040579613E+01
 0.11415021238E+01 0.10992281784E+01 0.10748911326E+01 0.10669604106E+01 0.10749017495E+01
 0.12682625569E+01 0.13081438370E+01 0.13653528576E+01 0.14426425984E+01 0.15426710488E+01
 0.16675383450E+01 0.18182407736E+01 0.19940666445E+01 0.21919941328E+01 0.24061978260E+01
 0.26278162475E+01 0.28451412312E+01 0.30443466209E+01 0.32107922500E+01 0.33308175703E+01
 0.33937615801E+01 0.33937602301E+01 0.33308133132E+01 0.32107830808E+01 0.30443295310E+01
 0.28451186474E+01 0.26277988810E+01 0.24061967682E+01 0.21920117069E+01 0.19940975875E+01
 0.18182790741E+01 0.16675784551E+01 0.15427048484E+01 0.14426615434E+01 0.13653544243E+01
 0.13081332932E+01 0.12682482863E+01 0.12432333144E+01 0.12312288880E+01 0.12312330681E+01
 0.12432445313E+01 0.14896720300E+01 0.15218629185E+01 0.15683280653E+01 0.16317836947E+01
 0.17145721524E+01 0.18182407736E+01 0.19430975068E+01 0.20877658112E+01 0.22487833835E+01
 0.24203238128E+01 0.25941577102E+01 0.27599793533E+01 0.29061896326E+01 0.30211456508E+01
 0.30947540412E+01 0.31201103518E+01 0.30947542577E+01 0.30211431538E+01 0.29061816964E+01
 0.27599684925E+01 0.25941528923E+01 0.24203339946E+01 0.22488099384E+01 0.20878026858E+01
 0.19431367903E+01 0.18182748250E+01 0.17145926884E+01 0.16317852575E+01 0.15683138881E+01
 0.15218436640E+01 0.14896570996E+01 0.14690526773E+01 0.14577305622E+01 0.14541401570E+01
 0.14577337074E+01 0.14690607686E+01 0.17699248754E+01 0.17874051061E+01 0.18160769838E+01
 0.18587816551E+01 0.19177097325E+01 0.19940666445E+01 0.20877658112E+01 0.21971495558E+01
 0.23187583692E+01 0.24472029662E+01 0.25752354053E+01 0.26941362430E+01 0.27945018412E+01
 0.28674151719E+01 0.29058283699E+01 0.29058310033E+01 0.28674201867E+01 0.27945043329E+01
 0.26941356966E+01 0.25752366180E+01 0.24472111434E+01 0.23187749883E+01 0.21971723816E+01
 0.20877898848E+01 0.19940837667E+01 0.19177102789E+01 0.18587616031E+01 0.18160437694E+01
 0.17873739115E+01 0.17699073167E+01 0.17605182171E+01 0.17562424374E+01 0.17547474051E+01
 0.17547452455E+01 0.17562390457E+01 0.17605215285E+01 0.21146216255E+01 0.21080198672E+01
 0.21097272216E+01 0.21229569532E+01 0.21499974432E+01 0.21919941328E+01 0.22487833835E+01
 0.23187583692E+01 0.23987736383E+01 0.24841279634E+01 0.25687119995E+01 0.26454340444E+01
 0.27069920285E+01 0.27469330706E+01 0.27607853017E+01 0.27469426325E+01 0.27070048171E+01
 0.26454442508E+01 0.25687177225E+01 0.24841287163E+01 0.23987695957E+01 0.23187524513E+01
 0.22487786519E+01 0.21919869157E+01 0.21499779508E+01 0.21229204676E+01 0.21096823220E+01
 0.21079830228E+01 0.21146044327E+01 0.21257132017E+01 0.21373316373E+01 0.21459380501E+01
 0.21490938157E+01 0.21459280203E+01 0.21373195133E+01 0.21257109707E+01 0.25271577687E+01
 0.24841277278E+01 0.24472027609E+01 0.24203238289E+01 0.24061978911E+01 0.24061978260E+01
 0.24203238128E+01 0.24472029662E+01 0.24841279634E+01 0.25271578649E+01 0.25713494172E+01
 0.26112129494E+01 0.26414298556E+01 0.26577354473E+01 0.26577433865E+01 0.26414493366E+01
 0.26112340199E+01 0.25713613092E+01 0.25271517364E+01 0.24841008754E+01 0.24471622304E+01
 0.24202826129E+01 0.24061624250E+01 0.24061630994E+01 0.24202842116E+01 0.24471639846E+01
 0.24841023481E+01 0.25271527264E+01 0.25713615721E+01 0.26112335495E+01 0.26414485752E+01
 0.26577427366E+01 0.26577348617E+01 0.26414292171E+01 0.26112124590E+01 0.25713492376E+01
 0.30066986289E+01 0.29115880261E+01 0.28218747125E+01 0.27426639271E+01 0.26773880010E+01
 0.26278162475E+01 0.25941577102E+01 0.25752354053E+01 0.25687119995E+01 0.25713494172E+01
 0.25793298140E+01 0.25887009695E+01 0.25959601353E+01 0.25986772385E+01 0.25959783262E+01
 0.25887278956E+01 0.25793480390E+01 0.25713397798E+01 0.25686654547E+01 0.25751621830E+01
 0.25940816515E+01 0.26277564828E+01 0.26773477208E+01 0.27426380464E+01 0.28218628226E+01
 0.29115937462E+01 0.30067202006E+01 0.31006112631E+01 0.31855668142E+01 0.32536362432E+01
 0.32977665827E+01 0.33130574771E+01 0.32977521877E+01 0.32536123661E+01 0.31855382132E+01
 0.31005823000E+01 0.35456625868E+01 0.33798644891E+01 0.32214160407E+01 0.30769866545E+01
 0.29508708638E+01 0.28451412312E+01 0.27599793533E+01 0.26941362430E+01 0.26454340444E+01
 0.26112129494E+01 0.25887009695E+01 0.25753582545E+01 0.25692268542E+01 0.25692366854E+01
 0.25753823360E+01 0.25887214105E+01 0.26112031533E+01 0.26453764128E+01 0.26940404781E+01
 0.27598788328E+01 0.28450683366E+01 0.29508375375E+01 0.30769874044E+01 0.32214419991E+01
 0.33799083982E+01 0.35457139742E+01 0.37099039657E+01 0.38617101397E+01 0.39894947558E+01
 0.40821779611E+01 0.41309645968E+01 0.41309616246E+01 0.40821687925E+01 0.39894769764E+01
 0.38616789600E+01 0.37098585143E+01 0.41273530486E+01 0.38706720037E+01 0.36273199841E+01
 0.34056893932E+01 0.32107245906E+01 0.30443466209E+01 0.29061896326E+01 0.27945018412E+01
 0.27069920285E+01 0.26414298556E+01 0.25959601353E+01 0.25692268542E+01 0.25604124563E+01
 0.25692420086E+01 0.25959766927E+01 0.26414199156E+01 0.27069306781E+01 0.27943948408E+01
 0.29060771811E+01 0.30442729452E+01 0.32107070501E+01 0.34057178469E+01 0.36273760282E+01
 0.38707400211E+01 0.41274186138E+01 0.43855633033E+01 0.46303974143E+01 0.48453626584E+01
 0.50138844174E+01 0.51216018070E+01 0.51586802352E+01 0.51216100743E+01 0.50138932366E+01
 0.48453599918E+01 0.46303728185E+01 0.43855142602E+01 0.47247158797E+01 0.43578265841E+01
 0.40155392528E+01 0.37076567873E+01 0.34390886716E+01 0.32107922500E+01 0.30211456508E+01
 0.28674151719E+01 0.27469330706E+01 0.26577354473E+01 0.25986772385E+01 0.25692366854E+01
 0.25692420086E+01 0.25986852653E+01 0.26577219055E+01 0.27468700627E+01 0.28673029948E+01
 0.30210274617E+01 0.32107226347E+01 0.34390882272E+01 0.37077049686E+01 0.40156047666E+01
 0.43578904590E+01 0.47247685742E+01 0.51012728543E+01 0.54678323803E+01 0.58017133817E+01
 0.60792424602E+01 0.62786144617E+01 0.63829388826E+01 0.63829495540E+01 0.62786406544E+01
 0.60792704521E+01 0.58017286557E+01 0.54678246910E+01 0.51012398132E+01 0.53011591656E+01
 0.48088638768E+01 0.43585073048E+01 0.39603607510E+01 0.36181476258E+01 0.33308175703E+01
 0.30947540412E+01 0.29058283699E+01 0.27607853017E+01 0.26577433865E+01 0.25959783262E+01
 0.25753823360E+01 0.25959766927E+01 0.26577219055E+01 0.27607183313E+01 0.29057127697E+01
 0.30946315939E+01 0.33307494633E+01 0.36181586446E+01 0.39604200378E+01 0.43585670379E+01
 0.48089013974E+01 0.53011767666E+01 0.58177355533E+01 0.63339410419E+01 0.68199212150E+01
 0.72433730241E+01 0.75730742392E+01 0.77827382116E+01 0.78547118798E+01 0.77827581163E+01
 0.75731071610E+01 0.72434089383E+01 0.68199499539E+01 0.63339550649E+01 0.58177333630E+01
 0.58138721633E+01 0.51885288976E+01 0.46284321258E+01 0.41427534493E+01 0.37325713394E+01
 0.33937615801E+01 0.31201103518E+01 0.29058310033E+01 0.27469426325E+01 0.26414493366E+01
 0.25887278956E+01 0.25887214105E+01 0.26414199156E+01 0.27468700627E+01 0.29057127697E+01
 0.31199858700E+01 0.33936936085E+01 0.37325883397E+01 0.41428190959E+01 0.46284839950E+01
 0.51885373840E+01 0.58138501779E+01 0.64853561912E+01 0.71739876521E+01 0.78425372944E+01
 0.84490333782E+01 0.89510277106E+01 0.93103449734E+01 0.94979025126E+01 0.94979021857E+01
 0.93103474318E+01 0.89510401101E+01 0.84490587607E+01 0.78425702371E+01 0.71740211581E+01
 0.64853876821E+01 0.62193043426E+01 0.54636343234E+01 0.48013215491E+01 0.42384448523E+01
 0.37719430969E+01 0.33937602301E+01 0.30947542577E+01 0.28674201867E+01 0.27070048171E+01
 0.26112340199E+01 0.25793480390E+01 0.26112031533E+01 0.27069306781E+01 0.28673029948E+01
 0.30946315939E+01 0.33936936085E+01 0.37719633557E+01 0.42385150402E+01 0.48013704599E+01
 0.54636245031E+01 0.62192538344E+01 0.70499058641E+01 0.79238647164E+01 0.87976391985E+01
 0.96196640666E+01 0.10335204169E+02 0.10891892311E+02 0.11245741024E+02 0.11367161970E+02
 0.11245696022E+02 0.10891831690E+02 0.10335164383E+02 0.96196618982E+01 0.87976669371E+01
 0.79239100810E+01 0.70499622477E+01 0.64797498405E+01 0.56082877699E+01 0.48608780236E+01
 0.42384447485E+01 0.37325684132E+01 0.33308133132E+01 0.30211431538E+01 0.27945043329E+01
 0.26454442508E+01 0.25713613092E+01 0.25713397798E+01 0.26453764128E+01 0.27943948408E+01
 0.30210274617E+01 0.33307494633E+01 0.37325883397E+01 0.42385150402E+01 0.48609262035E+01
 0.56082712473E+01 0.64796867605E+01 0.74602153671E+01 0.85183515113E+01 0.96068478091E+01
 0.10666302784E+02 0.11630236518E+02 0.12430886477E+02 0.13006018053E+02 0.13307014294E+02
 0.13306957861E+02 0.13005877886E+02 0.12430731533E+02 0.11630130695E+02 0.10666266832E+02
 0.96068639588E+01 0.85183988187E+01 0.74602825875E+01 0.65695880356E+01 0.56082884956E+01
 0.48013252585E+01 0.41427547308E+01 0.36181429280E+01 0.32107830808E+01 0.29061816964E+01
 0.26941356966E+01 0.25687177225E+01 0.25271517364E+01 0.25686654547E+01 0.26940404781E+01
 0.29060771811E+01 0.32107226347E+01 0.36181586446E+01 0.41428190959E+01 0.48013704599E+01
 0.56082712473E+01 0.65695250767E+01 0.76763307632E+01 0.89008937071E+01 0.10195969782E+02
 0.11497868769E+02 0.12731164972E+02 0.13813865182E+02 0.14663832180E+02 0.15208224936E+02
 0.15395728194E+02 0.15208075877E+02 0.14663595381E+02 0.13813634062E+02 0.12731011876E+02
 0.11497806976E+02 0.10195970633E+02 0.89009319209E+01 0.76763946516E+01 0.64797416085E+01
 0.54636379865E+01 0.46284422101E+01 0.39603650350E+01 0.34390793966E+01 0.30443295310E+01
 0.27599684925E+01 0.25752366180E+01 0.24841287163E+01 0.24841008754E+01 0.25751621830E+01
 0.27598788328E+01 0.30442729452E+01 0.34390882272E+01 0.39604200378E+01 0.46284839950E+01
 0.54636245031E+01 0.64796867605E+01 0.76763307632E+01 0.90329669122E+01 0.10506650518E+02
 0.12034140511E+02 0.13535940551E+02 0.14920102110E+02 0.16085648752E+02 0.16928761921E+02
 0.17370627092E+02 0.17370550966E+02 0.16928555492E+02 0.16085377435E+02 0.14919854108E+02
 0.13535777334E+02 0.12034064830E+02 0.10506632029E+02 0.90329869738E+01 0.76763820934E+01
 0.62192950024E+01 0.51885424504E+01 0.43585277027E+01 0.37076602237E+01 0.32107046963E+01
 0.28451186474E+01 0.25941528923E+01 0.24472111434E+01 0.23987695957E+01 0.24471622304E+01
 0.25940816515E+01 0.28450683366E+01 0.32107070501E+01 0.37077049686E+01 0.43585670379E+01
 0.51885373840E+01 0.62192538344E+01 0.74602153671E+01 0.89008937071E+01 0.10506650518E+02
 0.12219544159E+02 0.13961754076E+02 0.15638017860E+02 0.17129741997E+02 0.18303625095E+02
 0.19053420830E+02 0.19311175351E+02 0.19053321106E+02 0.18303436296E+02 0.17129506773E+02
 0.15637802720E+02 0.13961604459E+02 0.12219460302E+02 0.10506612856E+02 0.89008954228E+01
 0.74602515640E+01 0.58138777944E+01 0.48088983898E+01 0.40155683566E+01 0.34056824196E+01
 0.29508395488E+01 0.26277988810E+01 0.24203339946E+01 0.23187749883E+01 0.23187524513E+01
 0.24202826129E+01 0.26277564828E+01 0.29508375375E+01 0.34057178469E+01 0.40156047666E+01
 0.48089013974E+01 0.58138501779E+01 0.70499058641E+01 0.85183515113E+01 0.10195969782E+02
 0.12034140511E+02 0.13961754076E+02 0.15887064502E+02 0.17682629072E+02 0.19192334396E+02
 0.20282573361E+02 0.20854548643E+02 0.20854533219E+02 0.20282510733E+02 0.19192203966E+02
 0.17682449863E+02 0.15886888290E+02 0.13961619814E+02 0.12034053725E+02 0.10195922584E+02
 0.85183433963E+01 0.70499302943E+01 0.53011981039E+01 0.43578842522E+01 0.36273445437E+01
 0.30769614228E+01 0.26773541090E+01 0.24061967682E+01 0.22488099384E+01 0.21971723816E+01
 0.22487786519E+01 0.24061624250E+01 0.26773477208E+01 0.30769874044E+01 0.36273760282E+01
 0.43578904590E+01 0.53011767666E+01 0.64853561912E+01 0.79238647164E+01 0.96068478091E+01
 0.11497868769E+02 0.13535940551E+02 0.15638017860E+02 0.17682629072E+02 0.19499877214E+02
 0.20932383954E+02 0.21851213784E+02 0.22168133949E+02 0.21851235017E+02 0.20932371946E+02
 0.19499788690E+02 0.17682481303E+02 0.15637865016E+02 0.13535820542E+02 0.11497788381E+02
 0.96068034424E+01 0.79238577179E+01 0.64853775862E+01 0.47247923197E+01 0.38707352895E+01
 0.32214175842E+01 0.27426223637E+01 0.24061733274E+01 0.21920117069E+01 0.20878026858E+01
 0.20877898848E+01 0.21919869157E+01 0.24061630994E+01 0.27426380464E+01 0.32214419991E+01
 0.38707400211E+01 0.47247685742E+01 0.58177355533E+01 0.71739876521E+01 0.87976391985E+01
 0.10666302784E+02 0.12731164972E+02 0.14920102110E+02 0.17129741997E+02 0.19192334396E+02
 0.20932383954E+02 0.22196225251E+02 0.22862702552E+02 0.22862741464E+02 0.22196295127E+02
 0.20932397310E+02 0.19192254091E+02 0.17129606666E+02 0.14919969602E+02 0.12731062933E+02
 0.10666233139E+02 0.87976042662E+01 0.71739920541E+01 0.58177653910E+01 0.41274471086E+01
 0.33799051556E+01 0.28218453899E+01 0.24202773920E+01 0.21499886451E+01 0.19940975875E+01
 0.19431367903E+01 0.19940837667E+01 0.21499779508E+01 0.24202842116E+01 0.28218628226E+01
 0.33799083982E+01 0.41274186138E+01 0.51012728543E+01 0.63339410419E+01 0.78425372944E+01
 0.96196640666E+01 0.11630236518E+02 0.13813865182E+02 0.16085648752E+02 0.18303625095E+02
 0.20282573361E+02 0.21851213784E+02 0.22862702552E+02 0.23212720991E+02 0.22862796274E+02
 0.21851307858E+02 0.20282582280E+02 0.18303546663E+02 0.16085536893E+02 0.13813759980E+02
 0.11630149121E+02 0.96196030054E+01 0.78425201225E+01 0.63339702097E+01 0.51013201491E+01
 0.35457402779E+01 0.29115891878E+01 0.24471525501E+01 0.21229188618E+01 0.19177170995E+01
 0.18182790741E+01 0.18182748250E+01 0.19177102789E+01 0.21229204676E+01 0.24471639846E+01
 0.29115937462E+01 0.35457139742E+01 0.43855633033E+01 0.54678323803E+01 0.68199212150E+01
 0.84490333782E+01 0.10335204169E+02 0.12430886477E+02 0.14663832180E+02 0.16928761921E+02
 0.19053420830E+02 0.20854548643E+02 0.22168133949E+02 0.22862741464E+02 0.22862796274E+02
 0.22168248581E+02 0.20854630168E+02 0.19053425577E+02 0.16928712224E+02 0.14663759472E+02
 0.12430802595E+02 0.10335124896E+02 0.84489925200E+01 0.68199427472E+01 0.54678972968E+01
 0.43856247924E+01 0.30067346103E+01 0.24840950963E+01 0.21096750298E+01 0.18587604312E+01
 0.17145939845E+01 0.16675784551E+01 0.17145926884E+01 0.18587616031E+01 0.21096823220E+01
 0.24841023481E+01 0.30067202006E+01 0.37099039657E+01 0.46303974143E+01 0.58017133817E+01
 0.72433730241E+01 0.89510277106E+01 0.10891892311E+02 0.13006018053E+02 0.15208224936E+02
 0.17370627092E+02 0.19311175351E+02 0.20854533219E+02 0.21851235017E+02 0.22196295127E+02
 0.21851307858E+02 0.20854630168E+02 0.19311249493E+02 0.17370664204E+02 0.15208223274E+02
 0.13005972335E+02 0.10891817490E+02 0.89509716288E+01 0.72433839677E+01 0.58017899537E+01
 0.46304891067E+01 0.37099617379E+01 0.25271504690E+01 0.21079733477E+01 0.18160379960E+01
 0.16317821970E+01 0.15427036408E+01 0.15427048484E+01 0.16317852575E+01 0.18160437694E+01
 0.21079830228E+01 0.25271527264E+01 0.31006112631E+01 0.38617101397E+01 0.48453626584E+01
 0.60792424602E+01 0.75730742392E+01 0.93103449734E+01 0.11245741024E+02 0.13307014294E+02
 0.15395728194E+02 0.17370550966E+02 0.19053321106E+02 0.20282510733E+02 0.20932371946E+02
 0.20932397310E+02 0.20282582280E+02 0.19053425577E+02 0.17370664204E+02 0.15395811888E+02
 0.13307031638E+02 0.11245694492E+02 0.93102886185E+01 0.75730760202E+01 0.60793229723E+01
 0.48454771817E+01 0.38617964197E+01 0.31006440236E+01 0.21145892140E+01 0.17873640567E+01
 0.15683090499E+01 0.14426584526E+01 0.14017350048E+01 0.14426615434E+01 0.15683138881E+01
 0.17873739115E+01 0.21146044327E+01 0.25713615721E+01 0.31855668142E+01 0.39894947558E+01
 0.50138844174E+01 0.62786144617E+01 0.77827382116E+01 0.94979025126E+01 0.11367161970E+02
 0.13306957861E+02 0.15208075877E+02 0.16928555492E+02 0.18303436296E+02 0.19192203966E+02
 0.19499788690E+02 0.19192254091E+02 0.18303546663E+02 0.16928712224E+02 0.15208223274E+02
 0.13307031638E+02 0.11367147808E+02 0.94978533729E+01 0.77827323734E+01 0.62786894986E+01
 0.50140076949E+01 0.39895998814E+01 0.31856135968E+01 0.25713605395E+01 0.17698896784E+01
 0.15218379574E+01 0.13653529065E+01 0.12897798565E+01 0.12897805440E+01 0.13653544243E+01
 0.15218436640E+01 0.17699073167E+01 0.21257132017E+01 0.26112335495E+01 0.32536362432E+01
 0.40821779611E+01 0.51216018070E+01 0.63829388826E+01 0.78547118798E+01 0.94979021857E+01
 0.11245696022E+02 0.13005877886E+02 0.14663595381E+02 0.16085377435E+02 0.17129506773E+02
 0.17682449863E+02 0.17682481303E+02 0.17129606666E+02 0.16085536893E+02 0.14663759472E+02
 0.13005972335E+02 0.11245694492E+02 0.94978533729E+01 0.78546969140E+01 0.63830026866E+01
 0.51217211223E+01 0.40822895614E+01 0.32536914197E+01 0.26112316980E+01 0.21256885464E+01
 0.14896477717E+01 0.13081357038E+01 0.12040611435E+01 0.11701852051E+01 0.12040579613E+01
 0.13081332932E+01 0.14896570996E+01 0.17605182171E+01 0.21373316373E+01 0.26414485752E+01
 0.32977665827E+01 0.41309645968E+01 0.51586802352E+01 0.63829495540E+01 0.77827581163E+01
 0.93103474318E+01 0.10891831690E+02 0.12430731533E+02 0.13813634062E+02 0.14919854108E+02
 0.15637802720E+02 0.15886888290E+02 0.15637865016E+02 0.14919969602E+02 0.13813759980E+02
 0.12430802595E+02 0.10891817490E+02 0.93102886185E+01 0.77827323734E+01 0.63830026866E+01
 0.51587929366E+01 0.41310773515E+01 0.32978279692E+01 0.26414483955E+01 0.21372988794E+01
 0.17604896471E+01 0.12682517552E+01 0.11415119715E+01 0.10803311824E+01 0.10803266995E+01
 0.11415021238E+01 0.12682482863E+01 0.14690526773E+01 0.17562424374E+01 0.21459380501E+01
 0.26577427366E+01 0.33130574771E+01 0.41309616246E+01 0.51216100743E+01 0.62786406544E+01
 0.75731071610E+01 0.89510401101E+01 0.10335164383E+02 0.11630130695E+02 0.12731011876E+02
 0.13535777334E+02 0.13961604459E+02 0.13961619814E+02 0.13535820542E+02 0.12731062933E+02
 0.11630149121E+02 0.10335124896E+02 0.89509716288E+01 0.75730760202E+01 0.62786894986E+01
 0.51217211223E+01 0.41310773515E+01 0.33131263108E+01 0.26577491035E+01 0.21459036448E+01
 0.17562043319E+01 0.14690355046E+01 0.10992415320E+01 0.10166782088E+01 0.98981108305E+00
 0.10166661498E+01 0.10992281784E+01 0.12432333144E+01 0.14577305622E+01 0.17547474051E+01
 0.21490938157E+01 0.26577348617E+01 0.32977521877E+01 0.40821687925E+01 0.50138932366E+01
 0.60792704521E+01 0.72434089383E+01 0.84490587607E+01 0.96196618982E+01 0.10666266832E+02
 0.11497806976E+02 0.12034064830E+02 0.12219460302E+02 0.12034053725E+02 0.11497788381E+02
 0.10666233139E+02 0.96196030054E+01 0.84489925200E+01 0.72433839677E+01 0.60793229723E+01
 0.50140076949E+01 0.40822895614E+01 0.32978279692E+01 0.26577491035E+01 0.21490636997E+01
 0.17547054062E+01 0.14577042591E+01 0.12432316538E+01 0.97614913560E+00 0.92848344523E+00
 0.92847549162E+00 0.97613210413E+00 0.10748911326E+01 0.12312288880E+01 0.14541401570E+01
 0.17547452455E+01 0.21459280203E+01 0.26414292171E+01 0.32536123661E+01 0.39894769764E+01
 0.48453599918E+01 0.58017286557E+01 0.68199499539E+01 0.78425702371E+01 0.87976669371E+01
 0.96068639588E+01 0.10195970633E+02 0.10506632029E+02 0.10506612856E+02 0.10195922584E+02
 0.96068034424E+01 0.87976042662E+01 0.78425201225E+01 0.68199427472E+01 0.58017899537E+01
 0.48454771817E+01 0.39895998814E+01 0.32536914197E+01 0.26414483955E+01 0.21459036448E+01
 0.17547054062E+01 0.14541089776E+01 0.12312192451E+01 0.10749015434E+01 0.89309698390E+00
 0.87246721968E+00 0.89308375226E+00 0.95646700063E+00 0.10669604106E+01 0.12312330681E+01
 0.14577337074E+01 0.17562390457E+01 0.21373195133E+01 0.26112124590E+01 0.31855382132E+01
 0.38616789600E+01 0.46303728185E+01 0.54678246910E+01 0.63339550649E+01 0.71740211581E+01
 0.79239100810E+01 0.85183988187E+01 0.89009319209E+01 0.90329869738E+01 0.89008954228E+01
 0.85183433963E+01 0.79238577179E+01 0.71739920541E+01 0.63339702097E+01 0.54678972968E+01
 0.46304891067E+01 0.38617964197E+01 0.31856135968E+01 0.26112316980E+01 0.21372988794E+01
 0.17562043319E+01 0.14577042591E+01 0.12312192451E+01 0.10669645932E+01 0.95648241523E+00
 0.84534155271E+00 0.84533656760E+00 0.88153352532E+00 0.95647329788E+00 0.10749017495E+01
 0.12432445313E+01 0.14690607686E+01 0.17605215285E+01 0.21257109707E+01 0.25713492376E+01
 0.31005823000E+01 0.37098585143E+01 0.43855142602E+01 0.51012398132E+01 0.58177333630E+01
 0.64853876821E+01 0.70499622477E+01 0.74602825875E+01 0.76763946516E+01 0.76763820934E+01
 0.74602515640E+01 0.70499302943E+01 0.64853775862E+01 0.58177653910E+01 0.51013201491E+01
 0.43856247924E+01 0.37099617379E+01 0.31006440236E+01 0.25713605395E+01 0.21256885464E+01
 0.17604896471E+01 0.14690355046E+01 0.12432316538E+01 0.10749015434E+01 0.95648241523E+00
 0.88154473289E+00 0.84533919491E+00 0.87247199326E+00 0.92848549360E+00 0.10166758509E+01
 0.11415102066E+01 0.13081438098E+01 0.15218629238E+01 0.17874051599E+01 0.21080198841E+01
 0.24841277365E+01 0.29115881354E+01 0.33798646419E+01 0.38706719853E+01 0.43578262668E+01
 0.48088632588E+01 0.51885279688E+01 0.54636331708E+01 0.56082867995E+01 0.56082882520E+01
 0.54636386521E+01 0.51885436553E+01 0.48088994781E+01 0.43578845800E+01 0.38707344170E+01
 0.33799031226E+01 0.29115866715E+01 0.24840930498E+01 0.21079723800E+01 0.17873642343E+01
 0.15218390615E+01 0.13081374005E+01 0.11415137910E+01 0.10166797033E+01 0.92848447037E+00
 0.87246789886E+00 0.84533700088E+00 0.87247199326E+00 0.90733567338E+00 0.96766799817E+00
 0.10565878613E+01 0.11780163607E+01 0.13362464047E+01 0.15353791265E+01 0.17785717799E+01
 0.20670336243E+01 0.23987734169E+01 0.27672504698E+01 0.31602582925E+01 0.35594904662E+01
 0.39412210023E+01 0.42783298299E+01 0.45435450326E+01 0.47133690815E+01 0.47718602911E+01
 0.47133720157E+01 0.45435541175E+01 0.42783501928E+01 0.39412530749E+01 0.35595232692E+01
 0.31602739045E+01 0.27672381572E+01 0.23987379254E+01 0.20669899108E+01 0.17785347358E+01
 0.15353578251E+01 0.13362422632E+01 0.11780226208E+01 0.10565931648E+01 0.96766466447E+00
 0.90732539101E+00 0.87246321894E+00 0.86107649337E+00 0.92848549360E+00 0.96766799817E+00
 0.10290086339E+01 0.11153663868E+01 0.12301414302E+01 0.13768563397E+01 0.15585560815E+01
 0.17770011719E+01 0.20316801555E+01 0.23187582358E+01 0.26301787841E+01 0.29531989521E+01
 0.32706362569E+01 0.35620155034E+01 0.38056343470E+01 0.39813273042E+01 0.40734530921E+01
 0.40734520302E+01 0.39813264672E+01 0.38056378956E+01 0.35620236213E+01 0.32706423994E+01
 0.29531939656E+01 0.26301583027E+01 0.23187260872E+01 0.20316454439E+01 0.17769733885E+01
 0.15585419893E+01 0.13768576355E+01 0.12301526310E+01 0.11153765876E+01 0.10290086945E+01
 0.96765741304E+00 0.92847234913E+00 0.90941402844E+00 0.90941984147E+00 0.10166758509E+01
 0.10565878613E+01 0.11153663868E+01 0.11956672223E+01 0.13004736645E+01 0.14326506448E+01
 0.15943074446E+01 0.17859957654E+01 0.20058422914E+01 0.22487833685E+01 0.25061054822E+01
 0.27654796563E+01 0.30116149645E+01 0.32275659936E+01 0.33966158683E+01 0.35045050509E+01
 0.35416014912E+01 0.35044998924E+01 0.33966093072E+01 0.32275594633E+01 0.30116051728E+01
 0.27654634716E+01 0.25060844297E+01 0.22487619816E+01 0.20058246311E+01 0.17859853026E+01
 0.15943077736E+01 0.14326627234E+01 0.13004923150E+01 0.11956827975E+01 0.11153712408E+01
 0.10565814000E+01 0.10166641715E+01 0.99357336957E+00 0.98602547358E+00 0.99358199442E+00
 0.11415102066E+01 0.11780163607E+01 0.12301414302E+01 0.13004736645E+01 0.13917019193E+01
 0.15061316863E+01 0.16450521892E+01 0.18080264187E+01 0.19922300909E+01 0.21919941100E+01
 0.23986970475E+01 0.26011068723E+01 0.27862040696E+01 0.29404543433E+01 0.30514256070E+01
 0.31095282561E+01 0.31095256940E+01 0.30514192835E+01 0.29404456169E+01 0.27861917538E+01
 0.26010909718E+01 0.23986824712E+01 0.21919870741E+01 0.19922324519E+01 0.18080365271E+01
 0.16450690856E+01 0.15061543168E+01 0.13917253142E+01 0.13004901988E+01 0.12301467323E+01
 0.11780121618E+01 0.11415017636E+01 0.11184531792E+01 0.11073286858E+01 0.11073316153E+01
 0.11184606623E+01 0.13081438098E+01 0.13362464047E+01 0.13768563397E+01 0.14326506448E+01
 0.15061316863E+01 0.15991368690E+01 0.17122825084E+01 0.18444230628E+01 0.19922300695E+01
 0.21499973543E+01 0.23097593280E+01 0.24617693007E+01 0.25953387690E+01 0.26999919284E+01
 0.27668188707E+01 0.27898040527E+01 0.27668184464E+01 0.26999893901E+01 0.25953321356E+01
 0.24617596864E+01 0.23097526051E+01 0.21500002054E+01 0.19922443572E+01 0.18444455998E+01
 0.17123089376E+01 0.15991627892E+01 0.15061513163E+01 0.14326589646E+01 0.13768537644E+01
 0.13362386995E+01 0.13081366037E+01 0.12900779116E+01 0.12800913559E+01 0.12769090988E+01
 0.12800937182E+01 0.12900826590E+01 0.15218629238E+01 0.15353791265E+01 0.15585560815E+01
 0.15943074446E+01 0.16450521892E+01 0.17122825084E+01 0.17961525930E+01 0.18951404955E+01
 0.20058422559E+01 0.21229569126E+01 0.22395143050E+01 0.23473815228E+01 0.24380529627E+01
 0.25036729311E+01 0.25381531528E+01 0.25381555989E+01 0.25036773574E+01 0.24380541816E+01
 0.23473784677E+01 0.22395115779E+01 0.21229603791E+01 0.20058543939E+01 0.18951598441E+01
 0.17961751579E+01 0.17123020111E+01 0.16450611598E+01 0.15943018819E+01 0.15585399912E+01
 0.15353623882E+01 0.15218533724E+01 0.15150153916E+01 0.15121649529E+01 0.15112819218E+01
 0.15112808603E+01 0.15121632243E+01 0.15150171428E+01 0.17874051599E+01 0.17785717799E+01
 0.17770011719E+01 0.17859957654E+01 0.18080264187E+01 0.18444230628E+01 0.18951404955E+01
 0.19586076765E+01 0.20316801498E+01 0.21097272858E+01 0.21868998644E+01 0.22566238235E+01
 0.23123295894E+01 0.23483487417E+01 0.23608163600E+01 0.23483553841E+01 0.23123369278E+01
 0.22566267807E+01 0.21868984170E+01 0.21097243254E+01 0.20316786226E+01 0.19586101619E+01
 0.18951475279E+01 0.18444298371E+01 0.18080241946E+01 0.17859795727E+01 0.17769756160E+01
 0.17785479248E+01 0.17873921226E+01 0.17997537707E+01 0.18118990656E+01 0.18206337139E+01
 0.18237974047E+01 0.18206274344E+01 0.18118922063E+01 0.17997542734E+01 0.21080198841E+01
 0.20670336243E+01 0.20316801555E+01 0.20058422914E+01 0.19922300909E+01 0.19922300695E+01
 0.20058422559E+01 0.20316801498E+01 0.20670336526E+01 0.21080199196E+01 0.21498724445E+01
 0.21874195299E+01 0.22157529363E+01 0.22309966623E+01 0.22310013749E+01 0.22157633262E+01
 0.21874277814E+01 0.21498722659E+01 0.21080089335E+01 0.20670140538E+01 0.20316590751E+01
 0.20058276625E+01 0.19922227586E+01 0.19922220960E+01 0.20058260033E+01 0.20316572449E+01
 0.20670129511E+01 0.21080090627E+01 0.21498735401E+01 0.21874297046E+01 0.22157653271E+01
 0.22310030258E+01 0.22309977517E+01 0.22157534780E+01 0.21874197026E+01 0.21498724522E+01
 0.24841277365E+01 0.23987734169E+01 0.23187582358E+01 0.22487833685E+01 0.21919941100E+01
 0.21499973543E+01 0.21229569126E+01 0.21097272858E+01 0.21080199196E+01 0.21146215899E+01