   2   2   0   0
  0.2101361E+02  0.3902551E-09  0.3902551E-09  0.3902551E-09  0.5000000E-15
  1.000000000000000E-004
  CAR 
 unknown system                          
     16.54397015     -8.23716908  301      5.69340265      1.00000000
     -8.237  0.0000E+00  0.0000E+00
     -8.155  0.0000E+00  0.0000E+00
     -8.072  0.0000E+00  0.0000E+00
     -7.989  0.0000E+00  0.0000E+00
     -7.907  0.0000E+00  0.0000E+00
     -7.824  0.0000E+00  0.0000E+00
     -7.742  0.0000E+00  0.0000E+00
     -7.659  0.0000E+00  0.0000E+00
     -7.576  0.0000E+00  0.0000E+00
     -7.494  0.0000E+00  0.0000E+00
     -7.411  0.3500E-18  0.2891E-19
     -7.329  0.3710E-16  0.3094E-17
     -7.246  0.3066E-14  0.2564E-15
     -7.163  0.1804E-12  0.1516E-13
     -7.081  0.7593E-11  0.6423E-12
     -6.998  0.2289E-09  0.1955E-10
     -6.916  0.4952E-08  0.4286E-09
     -6.833  0.7710E-07  0.6797E-08
     -6.750  0.8674E-06  0.7845E-07
     -6.668  0.7097E-05  0.6647E-06
     -6.585  0.4264E-04  0.4187E-05
     -6.502  0.1908E-03  0.1994E-04
     -6.420  0.6471E-03  0.7340E-04
     -6.337  0.1702E-02  0.2140E-03
     -6.255  0.3561E-02  0.5082E-03
     -6.172  0.6087E-02  0.1011E-02
     -6.089  0.8802E-02  0.1738E-02
     -6.007  0.1129E-01  0.2671E-02
     -5.924  0.1356E-01  0.3791E-02
     -5.842  0.1576E-01  0.5093E-02
     -5.759  0.1763E-01  0.6550E-02
     -5.676  0.1880E-01  0.8103E-02
     -5.594  0.1968E-01  0.9728E-02
     -5.511  0.2132E-01  0.1149E-01
     -5.429  0.2386E-01  0.1346E-01
     -5.346  0.2588E-01  0.1560E-01
     -5.263  0.2634E-01  0.1777E-01
     -5.181  0.2622E-01  0.1994E-01
     -5.098  0.2711E-01  0.2218E-01
     -5.016  0.2916E-01  0.2459E-01
     -4.933  0.3149E-01  0.2719E-01
     -4.850  0.3374E-01  0.2998E-01
     -4.768  0.3585E-01  0.3294E-01
     -4.685  0.3718E-01  0.3601E-01
     -4.603  0.3716E-01  0.3908E-01
     -4.520  0.3635E-01  0.4208E-01
     -4.437  0.3695E-01  0.4513E-01
     -4.355  0.4115E-01  0.4853E-01
     -4.272  0.4811E-01  0.5251E-01
     -4.190  0.5401E-01  0.5697E-01
     -4.107  0.5643E-01  0.6163E-01
     -4.024  0.5665E-01  0.6631E-01
     -3.942  0.5674E-01  0.7100E-01
     -3.859  0.5646E-01  0.7566E-01
     -3.777  0.5412E-01  0.8013E-01
     -3.694  0.5003E-01  0.8426E-01
     -3.611  0.4780E-01  0.8821E-01
     -3.529  0.5050E-01  0.9238E-01
     -3.446  0.5575E-01  0.9699E-01
     -3.364  0.5746E-01  0.1017E+00
     -3.281  0.5221E-01  0.1060E+00
     -3.198  0.4238E-01  0.1095E+00
     -3.116  0.3293E-01  0.1123E+00
     -3.033  0.2706E-01  0.1145E+00
     -2.951  0.2575E-01  0.1166E+00
     -2.868  0.2880E-01  0.1190E+00
     -2.785  0.3449E-01  0.1219E+00
     -2.703  0.3884E-01  0.1251E+00
     -2.620  0.3759E-01  0.1282E+00
     -2.538  0.2980E-01  0.1306E+00
     -2.455  0.1880E-01  0.1322E+00
     -2.372  0.9236E-02  0.1329E+00
     -2.290  0.3507E-02  0.1332E+00
     -2.207  0.1305E-02  0.1333E+00
     -2.124  0.1824E-02  0.1335E+00
     -2.042  0.5748E-02  0.1340E+00
     -1.959  0.1466E-01  0.1352E+00
     -1.877  0.2749E-01  0.1375E+00
     -1.794  0.3829E-01  0.1406E+00
     -1.711  0.4085E-01  0.1440E+00
     -1.629  0.3618E-01  0.1470E+00
     -1.546  0.3200E-01  0.1496E+00
     -1.464  0.3539E-01  0.1525E+00
     -1.381  0.4752E-01  0.1565E+00
     -1.298  0.6359E-01  0.1617E+00
     -1.216  0.7662E-01  0.1681E+00
     -1.133  0.8256E-01  0.1749E+00
     -1.051  0.8097E-01  0.1816E+00
     -0.968  0.7226E-01  0.1875E+00
     -0.885  0.5918E-01  0.1924E+00
     -0.803  0.4849E-01  0.1964E+00
     -0.720  0.4470E-01  0.2001E+00
     -0.638  0.4394E-01  0.2037E+00
     -0.555  0.3932E-01  0.2070E+00
     -0.472  0.3076E-01  0.2095E+00
     -0.390  0.2468E-01  0.2116E+00
     -0.307  0.2537E-01  0.2137E+00
     -0.225  0.3124E-01  0.2162E+00
     -0.142  0.3730E-01  0.2193E+00
     -0.059  0.3839E-01  0.2225E+00
      0.023  0.3278E-01  0.2252E+00
      0.106  0.2399E-01  0.2272E+00
      0.188  0.1776E-01  0.2287E+00
      0.271  0.1740E-01  0.2301E+00
      0.354  0.2181E-01  0.2319E+00
      0.436  0.2621E-01  0.2341E+00
      0.519  0.2567E-01  0.2362E+00
      0.601  0.1988E-01  0.2378E+00
      0.684  0.1345E-01  0.2389E+00
      0.767  0.1069E-01  0.2398E+00
      0.849  0.1199E-01  0.2408E+00
      0.932  0.1568E-01  0.2421E+00
      1.014  0.2120E-01  0.2439E+00
      1.097  0.2877E-01  0.2462E+00
      1.180  0.3736E-01  0.2493E+00
      1.262  0.4505E-01  0.2530E+00
      1.345  0.5088E-01  0.2572E+00
      1.427  0.5620E-01  0.2619E+00
      1.510  0.6364E-01  0.2671E+00
      1.593  0.7337E-01  0.2732E+00
      1.675  0.8113E-01  0.2799E+00
      1.758  0.8255E-01  0.2867E+00
      1.840  0.7829E-01  0.2932E+00
      1.923  0.7302E-01  0.2992E+00
      2.006  0.7052E-01  0.3050E+00
      2.088  0.7072E-01  0.3109E+00
      2.171  0.7143E-01  0.3168E+00
      2.254  0.7221E-01  0.3228E+00
      2.336  0.7582E-01  0.3290E+00
      2.419  0.8480E-01  0.3360E+00
      2.501  0.9615E-01  0.3440E+00
      2.584  0.1020E+00  0.3524E+00
      2.667  0.9909E-01  0.3606E+00
      2.749  0.9433E-01  0.3684E+00
      2.832  0.9514E-01  0.3762E+00
      2.914  0.9957E-01  0.3844E+00
      2.997  0.1004E+00  0.3927E+00
      3.080  0.9635E-01  0.4007E+00
      3.162  0.9405E-01  0.4085E+00
      3.245  0.9882E-01  0.4166E+00
      3.327  0.1059E+00  0.4254E+00
      3.410  0.1050E+00  0.4341E+00
      3.493  0.9304E-01  0.4417E+00
      3.575  0.7843E-01  0.4482E+00
      3.658  0.7234E-01  0.4542E+00
      3.740  0.7811E-01  0.4607E+00
      3.823  0.8893E-01  0.4680E+00
      3.906  0.9475E-01  0.4758E+00
      3.988  0.9080E-01  0.4833E+00
      4.071  0.7970E-01  0.4899E+00
      4.153  0.6800E-01  0.4955E+00
      4.236  0.6126E-01  0.5006E+00
      4.319  0.5978E-01  0.5055E+00
      4.401  0.5792E-01  0.5103E+00
      4.484  0.5038E-01  0.5145E+00
      4.566  0.3903E-01  0.5177E+00
      4.649  0.3049E-01  0.5202E+00
      4.732  0.2804E-01  0.5225E+00
      4.814  0.2855E-01  0.5249E+00
      4.897  0.2703E-01  0.5271E+00
      4.979  0.2221E-01  0.5290E+00
      5.062  0.1660E-01  0.5303E+00
      5.145  0.1242E-01  0.5314E+00
      5.227  0.9559E-02  0.5321E+00
      5.310  0.6944E-02  0.5327E+00
      5.392  0.4298E-02  0.5331E+00
      5.475  0.2121E-02  0.5332E+00
      5.558  0.8037E-03  0.5333E+00
      5.640  0.2322E-03  0.5333E+00
      5.723  0.7914E-04  0.5333E+00
      5.805  0.1928E-03  0.5334E+00
      5.888  0.7991E-03  0.5334E+00
      5.971  0.2499E-02  0.5336E+00
      6.053  0.5751E-02  0.5341E+00
      6.136  0.9934E-02  0.5349E+00
      6.218  0.1351E-01  0.5360E+00
      6.301  0.1603E-01  0.5374E+00
      6.384  0.1928E-01  0.5390E+00
      6.466  0.2498E-01  0.5410E+00
      6.549  0.3187E-01  0.5436E+00
      6.632  0.3697E-01  0.5467E+00
      6.714  0.4000E-01  0.5500E+00
      6.797  0.4377E-01  0.5536E+00
      6.879  0.4932E-01  0.5577E+00
      6.962  0.5436E-01  0.5622E+00
      7.045  0.5716E-01  0.5669E+00
      7.127  0.5882E-01  0.5718E+00
      7.210  0.6200E-01  0.5769E+00
      7.292  0.7001E-01  0.5827E+00
      7.375  0.8509E-01  0.5897E+00
      7.458  0.1041E+00  0.5983E+00
      7.540  0.1177E+00  0.6080E+00
      7.623  0.1177E+00  0.6177E+00
      7.705  0.1062E+00  0.6265E+00
      7.788  0.9280E-01  0.6342E+00
      7.871  0.8543E-01  0.6412E+00
      7.953  0.8497E-01  0.6483E+00
      8.036  0.8601E-01  0.6554E+00
      8.118  0.8296E-01  0.6622E+00
      8.201  0.7626E-01  0.6685E+00
      8.284  0.7121E-01  0.6744E+00
      8.366  0.7310E-01  0.6804E+00
      8.449  0.8501E-01  0.6875E+00
      8.531  0.1055E+00  0.6962E+00
      8.614  0.1263E+00  0.7066E+00
      8.697  0.1374E+00  0.7179E+00
      8.779  0.1353E+00  0.7291E+00
      8.862  0.1261E+00  0.7395E+00
      8.944  0.1178E+00  0.7493E+00
      9.027  0.1127E+00  0.7586E+00
      9.110  0.1078E+00  0.7675E+00
      9.192  0.1012E+00  0.7758E+00
      9.275  0.9465E-01  0.7837E+00
      9.357  0.8992E-01  0.7911E+00
      9.440  0.8744E-01  0.7983E+00
      9.523  0.8679E-01  0.8055E+00
      9.605  0.8648E-01  0.8126E+00
      9.688  0.8567E-01  0.8197E+00
      9.770  0.8557E-01  0.8268E+00
      9.853  0.8688E-01  0.8339E+00
      9.936  0.8817E-01  0.8412E+00
     10.018  0.8951E-01  0.8486E+00
     10.101  0.9361E-01  0.8564E+00
     10.183  0.9981E-01  0.8646E+00
     10.266  0.1015E+00  0.8730E+00
     10.349  0.9379E-01  0.8807E+00
     10.431  0.8012E-01  0.8874E+00
     10.514  0.6832E-01  0.8930E+00
     10.596  0.6233E-01  0.8981E+00
     10.679  0.6058E-01  0.9032E+00
     10.762  0.6137E-01  0.9082E+00
     10.844  0.6693E-01  0.9137E+00
     10.927  0.7902E-01  0.9203E+00
     11.010  0.9303E-01  0.9280E+00
     11.092  0.1016E+00  0.9364E+00
     11.175  0.1011E+00  0.9447E+00
     11.257  0.9180E-01  0.9523E+00
     11.340  0.7633E-01  0.9586E+00
     11.423  0.5979E-01  0.9635E+00
     11.505  0.4857E-01  0.9675E+00
     11.588  0.4595E-01  0.9713E+00
     11.670  0.4869E-01  0.9754E+00
     11.753  0.4991E-01  0.9795E+00
     11.836  0.4658E-01  0.9833E+00
     11.918  0.4272E-01  0.9869E+00
     12.001  0.4496E-01  0.9906E+00
     12.083  0.5682E-01  0.9953E+00
     12.166  0.7455E-01  0.1001E+01
     12.249  0.8711E-01  0.1009E+01
     12.331  0.8460E-01  0.1016E+01
     12.414  0.6775E-01  0.1021E+01
     12.496  0.4625E-01  0.1025E+01
     12.579  0.3030E-01  0.1028E+01
     12.662  0.2473E-01  0.1030E+01
     12.744  0.2718E-01  0.1032E+01
     12.827  0.3057E-01  0.1034E+01
     12.909  0.3040E-01  0.1037E+01
     12.992  0.2870E-01  0.1039E+01
     13.075  0.2914E-01  0.1042E+01
     13.157  0.3178E-01  0.1044E+01
     13.240  0.3488E-01  0.1047E+01
     13.322  0.3781E-01  0.1050E+01
     13.405  0.3914E-01  0.1053E+01
     13.488  0.3550E-01  0.1056E+01
     13.570  0.2587E-01  0.1059E+01
     13.653  0.1436E-01  0.1060E+01
     13.735  0.5948E-02  0.1060E+01
     13.818  0.1983E-02  0.1060E+01
     13.901  0.1219E-02  0.1060E+01
     13.983  0.2512E-02  0.1061E+01
     14.066  0.5221E-02  0.1061E+01
     14.148  0.8053E-02  0.1062E+01
     14.231  0.9303E-02  0.1063E+01
     14.314  0.8845E-02  0.1063E+01
     14.396  0.8407E-02  0.1064E+01
     14.479  0.8896E-02  0.1065E+01
     14.561  0.8983E-02  0.1065E+01
     14.644  0.7282E-02  0.1066E+01
     14.727  0.4409E-02  0.1066E+01
     14.809  0.1951E-02  0.1067E+01
     14.892  0.6273E-03  0.1067E+01
     14.974  0.1461E-03  0.1067E+01
     15.057  0.2461E-04  0.1067E+01
     15.140  0.2995E-05  0.1067E+01
     15.222  0.2629E-06  0.1067E+01
     15.305  0.1662E-07  0.1067E+01
     15.388  0.7558E-09  0.1067E+01
     15.470  0.2469E-10  0.1067E+01
     15.553  0.5786E-12  0.1067E+01
     15.635  0.9719E-14  0.1067E+01
     15.718  0.1176E-15  0.1067E+01
     15.801  0.0000E+00  0.1067E+01
     15.883  0.0000E+00  0.1067E+01
     15.966  0.0000E+00  0.1067E+01
     16.048  0.0000E+00  0.1067E+01
     16.131  0.0000E+00  0.1067E+01
     16.214  0.0000E+00  0.1067E+01
     16.296  0.0000E+00  0.1067E+01
     16.379  0.0000E+00  0.1067E+01
     16.461  0.0000E+00  0.1067E+01
     16.544  0.0000E+00  0.1067E+01
