    2    2   15    1
  0.2101361E+02  0.3902551E-09  0.3902551E-09  0.3902551E-09  0.5000000E-15
  1.000000000000000E-004
  CAR 
 unknown system                          
      8     60      8
 
  0.6250000E-01  0.6250000E-01  0.6250000E-01  0.3906250E-02
    1       -6.237169   1.000000
    2        4.810749   1.000000
    3        5.266050   0.998744
    4        5.266050   0.998744
    5        7.885292   0.000000
    6        8.009889   0.000000
    7        8.009889   0.000000
    8        8.627452   0.000000
 
  0.1875000E+00  0.6250000E-01  0.6250000E-01  0.1171875E-01
    1       -5.977191   1.000000
    2        3.320567   1.000000
    3        4.487815   1.000000
    4        5.149297   0.999940
    5        7.904497   0.000000
    6        8.249171   0.000000
    7        8.515413   0.000000
    8       10.146247   0.000000
 
  0.3125000E+00  0.6250000E-01  0.6250000E-01  0.1171875E-01
    1       -5.350670   1.000000
    2        1.153614   1.000000
    3        4.008593   1.000000
    4        4.700421   1.000000
    5        7.451826   0.000000
    6        8.740396   0.000000
    7        9.017045   0.000000
    8       11.749812   0.000000
 
  0.4375000E+00  0.6250000E-01  0.6250000E-01  0.1171875E-01
    1       -4.480997   1.000000
    2       -0.674885   1.000000
    3        3.793749   1.000000
    4        4.305366   1.000000
    5        7.138819   0.000000
    6        8.821471   0.000000
    7        8.835092   0.000000
    8       13.044916   0.000000
 
 -0.4375000E+00  0.6250000E-01  0.6250000E-01  0.1171875E-01
    1       -4.053702   1.000000
    2       -1.347852   1.000000
    3        3.838854   1.000000
    4        4.094852   1.000000
    5        7.060362   0.000000
    6        8.637732   0.000000
    7        8.900263   0.000000
    8       13.143462   0.000000
 
 -0.3125000E+00  0.6250000E-01  0.6250000E-01  0.1171875E-01
    1       -4.777919   1.000000
    2       -0.135545   1.000000
    3        4.116673   1.000000
    4        4.117608   1.000000
    5        7.228392   0.000000
    6        8.633044   0.000000
    7        9.141058   0.000000
    8       12.182828   0.000000
 
 -0.1875000E+00  0.6250000E-01  0.6250000E-01  0.1171875E-01
    1       -5.596098   1.000000
    2        1.863557   1.000000
    3        4.388202   1.000000
    4        4.569255   1.000000
    5        7.592435   0.000000
    6        8.464265   0.000000
    7        9.173923   0.000000
    8       10.978357   0.000000
 
 -0.6250000E-01  0.6250000E-01  0.6250000E-01  0.1171875E-01
    1       -6.106475   1.000000
    2        4.058950   1.000000
    3        4.856296   1.000000
    4        5.001636   0.999999
    5        7.728319   0.000000
    6        8.228000   0.000000
    7        8.569258   0.000000
    8        9.397814   0.000000
 
  0.1875000E+00  0.1875000E+00  0.6250000E-01  0.1171875E-01
    1       -5.846313   1.000000
    2        3.164529   1.000000
    3        4.317542   1.000000
    4        4.388684   1.000000
    5        7.322481   0.000000
    6        8.953233   0.000000
    7        9.402432   0.000000
    8        9.865955   0.000000
 
  0.3125000E+00  0.1875000E+00  0.6250000E-01  0.2343750E-01
    1       -5.337983   1.000000
    2        1.696179   1.000000
    3        3.376210   1.000000
    4        4.138982   1.000000
    5        7.485225   0.000000
    6        9.057539   0.000000
    7        9.793713   0.000000
    8       10.181567   0.000000
 
  0.4375000E+00  0.1875000E+00  0.6250000E-01  0.2343750E-01
    1       -4.521526   1.000000
    2       -0.099592   1.000000
    3        2.883116   1.000000
    4        3.745404   1.000000
    5        7.663759   0.000000
    6        9.041474   0.000000
    7       10.209275   0.000000
    8       10.511782   0.000000
 
 -0.4375000E+00  0.1875000E+00  0.6250000E-01  0.2343750E-01
    1       -3.792553   1.000000
    2       -1.261750   1.000000
    3        2.598809   1.000000
    4        3.656596   1.000000
    5        7.716479   0.000000
    6        8.774011   0.000000
    7       10.072607   0.000000
    8       12.464243   0.000000
 
 -0.3125000E+00  0.1875000E+00  0.6250000E-01  0.2343750E-01
    1       -4.229752   1.000000
    2       -0.599946   1.000000
    3        2.533229   1.000000
    4        3.930064   1.000000
    5        7.966939   0.000000
    6        8.707670   0.000000
    7       10.013246   0.000000
    8       11.738466   0.000000
 
 -0.1875000E+00  0.1875000E+00  0.6250000E-01  0.2343750E-01
    1       -5.098221   1.000000
    2        1.067285   1.000000
    3        2.838573   1.000000
    4        4.418938   1.000000
    5        8.280028   0.000000
    6        8.601357   0.000000
    7        9.886319   0.000000
    8       10.380589   0.000000
 
 -0.6250000E-01  0.1875000E+00  0.6250000E-01  0.2343750E-01
    1       -5.720021   1.000000
    2        2.514155   1.000000
    3        3.929097   1.000000
    4        4.778830   1.000000
    5        7.859261   0.000000
    6        8.448847   0.000000
    7        9.221202   0.000000
    8       10.402740   0.000000
 
  0.3125000E+00  0.3125000E+00  0.6250000E-01  0.1171875E-01
    1       -4.949285   1.000000
    2        1.183987   1.000000
    3        3.239611   1.000000
    4        3.357448   1.000000
    5        6.538186   0.000000
    6        8.174110   0.000000
    7       11.202698   0.000000
    8       11.356692   0.000000
 
  0.4375000E+00  0.3125000E+00  0.6250000E-01  0.2343750E-01
    1       -4.221442   1.000000
    2       -0.020002   1.000000
    3        2.480610   1.000000
    4        3.023197   1.000000
    5        6.846815   0.000000
    6        8.016235   0.000000
    7       11.168149   0.000000
    8       12.322048   0.000000
 
 -0.4375000E+00  0.3125000E+00  0.6250000E-01  0.2343750E-01
    1       -3.357402   1.000000
    2       -1.174115   1.000000
    3        1.668480   1.000000
    4        2.992241   1.000000
    5        7.080447   0.000000
    6        9.634940   0.000000
    7       10.753025   0.000000
    8       12.234950   0.000000
 
 -0.3125000E+00  0.3125000E+00  0.6250000E-01  0.2343750E-01
    1       -3.428187   1.000000
    2       -1.081817   1.000000
    3        1.330899   1.000000
    4        3.324049   1.000000
    5        7.466075   0.000000
    6       10.331825   0.000000
    7       11.581269   0.000000
    8       11.932476   0.000000
 
 -0.1875000E+00  0.3125000E+00  0.6250000E-01  0.2343750E-01
    1       -4.291669   1.000000
    2       -0.148831   1.000000
    3        1.909503   1.000000
    4        3.888038   1.000000
    5        8.057906   0.000000
    6        9.252277   0.000000
    7       10.628175   0.000000
    8       10.932386   0.000000
 
 -0.6250000E-01  0.3125000E+00  0.6250000E-01  0.2343750E-01
    1       -4.989184   1.000000
    2        0.494571   1.000000
    3        3.478367   1.000000
    4        4.321968   1.000000
    5        7.728879   0.000000
    6        8.639192   0.000000
    7        9.480176   0.000000
    8       11.139447   0.000000
 
  0.4375000E+00  0.4375000E+00  0.6250000E-01  0.1171875E-01
    1       -3.587090   1.000000
    2       -0.861569   1.000000
    3        2.574185   1.000000
    4        2.781102   1.000000
    5        6.162607   0.000454
    6        6.867935   0.000000
    7       13.439679   0.000000
    8       13.466722   0.000000
 
 -0.4375000E+00  0.4375000E+00  0.6250000E-01  0.2343750E-01
    1       -2.707101   1.000000
    2       -1.823013   1.000000
    3        2.040215   1.000000
    4        2.548509   1.000000
    5        6.586660   0.000000
    6        7.295542   0.000000
    7       13.207883   0.000000
    8       14.170360   0.000000
 
 -0.3125000E+00  0.4375000E+00  0.6250000E-01  0.2343750E-01
    1       -2.808810   1.000000
    2       -1.656906   1.000000
    3        1.340572   1.000000
    4        2.853107   1.000000
    5        6.939100   0.000000
    6        9.478980   0.000000
    7       11.721188   0.000000
    8       12.824549   0.000000
 
 -0.1875000E+00  0.4375000E+00  0.6250000E-01  0.2343750E-01
    1       -3.543963   1.000000
    2       -1.231940   1.000000
    3        1.853348   1.000000
    4        3.433621   1.000000
    5        7.577161   0.000000
    6        9.493280   0.000000
    7       10.993371   0.000000
    8       12.221391   0.000000
 
 -0.6250000E-01  0.4375000E+00  0.6250000E-01  0.2343750E-01
    1       -4.132094   1.000000
    2       -1.066700   1.000000
    3        3.302243   1.000000
    4        3.998918   1.000000
    5        7.520292   0.000000
    6        8.572161   0.000000
    7        9.316335   0.000000
    8       12.785388   0.000000
 
 -0.4375000E+00 -0.4375000E+00  0.6250000E-01  0.1171875E-01
    1       -2.754930   1.000000
    2       -1.838662   1.000000
    3        2.440667   1.000000
    4        2.663285   1.000000
    5        6.164740   0.000430
    6        6.516434   0.000000
    7       14.490237   0.000000
    8       14.543970   0.000000
 
 -0.3125000E+00 -0.4375000E+00  0.6250000E-01  0.2343750E-01
    1       -3.505508   1.000000
    2       -0.924114   1.000000
    3        2.190992   1.000000
    4        2.703583   1.000000
    5        6.667842   0.000000
    6        7.544185   0.000000
    7       12.162036   0.000000
    8       13.448454   0.000000
 
 -0.1875000E+00 -0.4375000E+00  0.6250000E-01  0.2343750E-01
    1       -3.965542   1.000000
    2       -0.645228   1.000000
    3        2.236106   1.000000
    4        3.282494   1.000000
    5        7.344938   0.000000
    6        9.813996   0.000000
    7        9.983774   0.000000
    8       11.203805   0.000000
 
 -0.3125000E+00 -0.3125000E+00  0.6250000E-01  0.1171875E-01
    1       -4.322440   1.000000
    2        0.155052   1.000000
    3        2.840893   1.000000
    4        3.014326   1.000000
    5        6.285623   0.000014
    6        7.433318   0.000000
    7       12.304558   0.000000
    8       12.398068   0.000000
 
 -0.1875000E+00 -0.3125000E+00  0.6250000E-01  0.2343750E-01
    1       -4.835976   1.000000
    2        0.856232   1.000000
    3        2.884535   1.000000
    4        3.513319   1.000000
    5        7.126020   0.000000
    6        8.667048   0.000000
    7       10.247834   0.000000
    8       11.222108   0.000000
 
 -0.1875000E+00 -0.1875000E+00  0.6250000E-01  0.1171875E-01
    1       -5.459233   1.000000
    2        2.196627   1.000000
    3        3.764475   1.000000
    4        3.799485   1.000000
    5        6.898007   0.000000
    6        8.978116   0.000000
    7       10.194427   0.000000
    8       10.351523   0.000000
 
  0.1875000E+00  0.1875000E+00  0.1875000E+00  0.3906250E-02
    1       -5.849582   1.000000
    2        2.618861   1.000000
    3        4.838530   1.000000
    4        4.838530   1.000000
    5        7.452794   0.000000
    6        8.611309   0.000000
    7        8.611309   0.000000
    8       10.773258   0.000000
 
  0.3125000E+00  0.1875000E+00  0.1875000E+00  0.1171875E-01
    1       -5.469323   1.000000
    2        1.783677   1.000000
    3        3.374485   1.000000
    4        4.852199   1.000000
    5        8.105404   0.000000
    6        8.733949   0.000000
    7        9.009627   0.000000
    8       10.926923   0.000000
 
  0.4375000E+00  0.1875000E+00  0.1875000E+00  0.1171875E-01
    1       -4.745955   1.000000
    2        0.441710   1.000000
    3        2.327127   1.000000
    4        4.363835   1.000000
    5        7.996801   0.000000
    6        9.474206   0.000000
    7        9.660004   0.000000
    8       11.212282   0.000000
 
 -0.4375000E+00  0.1875000E+00  0.1875000E+00  0.1171875E-01
    1       -3.885064   1.000000
    2       -0.992590   1.000000
    3        2.167899   1.000000
    4        3.850456   1.000000
    5        7.532513   0.000000
    6        9.621605   0.000000
    7        9.872903   0.000000
    8       13.044794   0.000000
 
 -0.3125000E+00  0.1875000E+00  0.1875000E+00  0.1171875E-01
    1       -3.869593   1.000000
    2       -1.020347   1.000000
    3        2.454597   1.000000
    4        3.543740   1.000000
    5        7.274565   0.000000
    6        9.681675   0.000000
    7       10.211438   0.000000
    8       11.159898   0.000000
 
 -0.1875000E+00  0.1875000E+00  0.1875000E+00  0.1171875E-01
    1       -4.728930   1.000000
    2        0.438538   1.000000
    3        3.051077   1.000000
    4        3.522435   1.000000
    5        7.211781   0.000000
    6        9.340682   0.000000
    7        9.970484   0.000000
    8       10.561498   0.000000
 
  0.3125000E+00  0.3125000E+00  0.1875000E+00  0.1171875E-01
    1       -5.220419   1.000000
    2        1.138707   1.000000
    3        3.848891   1.000000
    4        3.928321   1.000000
    5        7.576614   0.000000
    6        8.874734   0.000000
    7        9.832291   0.000000
    8       10.227188   0.000000
 
  0.4375000E+00  0.3125000E+00  0.1875000E+00  0.2343750E-01
    1       -4.613611   1.000000
    2        0.369515   1.000000
    3        2.382445   1.000000
    4        3.737096   1.000000
    5        8.071112   0.000000
    6        9.055865   0.000000
    7        9.596554   0.000000
    8       11.050099   0.000000
 
 -0.4375000E+00  0.3125000E+00  0.1875000E+00  0.2343750E-01
    1       -3.752813   1.000000
    2       -0.708338   1.000000
    3        1.621148   1.000000
    4        3.191611   1.000000
    5        8.514937   0.000000
    6        8.992566   0.000000
    7       10.240947   0.000000
    8       12.121673   0.000000
 
 -0.3125000E+00  0.3125000E+00  0.1875000E+00  0.2343750E-01
    1       -3.284831   1.000000
    2       -1.297575   1.000000
    3        1.619276   1.000000
    4        2.891196   1.000000
    5        8.062549   0.000000
    6        9.312727   0.000000
    7       11.006593   0.000000
    8       12.239863   0.000000
 
 -0.1875000E+00  0.3125000E+00  0.1875000E+00  0.2343750E-01
    1       -4.026382   1.000000
    2       -0.331506   1.000000
    3        2.032334   1.000000
    4        3.063122   1.000000
    5        7.798403   0.000000
    6        8.998938   0.000000
    7        9.809763   0.000000
    8       12.239509   0.000000
 
  0.4375000E+00  0.4375000E+00  0.1875000E+00  0.1171875E-01
    1       -4.131997   1.000000
    2       -0.271036   1.000000
    3        2.351725   1.000000
    4        3.201443   1.000000
    5        6.848602   0.000000
    6        8.834386   0.000000
    7       10.997359   0.000000
    8       11.366947   0.000000
 
 -0.4375000E+00  0.4375000E+00  0.1875000E+00  0.2343750E-01
    1       -3.354035   1.000000
    2       -1.059568   1.000000
    3        1.800481   1.000000
    4        2.546319   1.000000
    5        7.603223   0.000000
    6        8.599453   0.000000
    7       10.686046   0.000000
    8       13.411977   0.000000
 
 -0.3125000E+00  0.4375000E+00  0.1875000E+00  0.2343750E-01
    1       -2.574692   1.000000
    2       -1.796533   1.000000
    3        1.497727   1.000000
    4        2.064229   1.000000
    5        8.702646   0.000000
    6        9.623831   0.000000
    7       10.239325   0.000000
    8       11.234601   0.000000
 
 -0.1875000E+00  0.4375000E+00  0.1875000E+00  0.2343750E-01
    1       -3.158443   1.000000
    2       -1.258253   1.000000
    3        1.485900   1.000000
    4        2.522712   1.000000
    5        8.798585   0.000000
    6        9.206843   0.000000
    7        9.938071   0.000000
    8       12.373568   0.000000
 
 -0.4375000E+00 -0.4375000E+00  0.1875000E+00  0.1171875E-01
    1       -2.730555   1.000000
    2       -1.771999   1.000000
    3        1.597738   1.000000
    4        2.868899   1.000000
    5        6.433286   0.000000
    6        8.285680   0.000000
    7       13.134824   0.000000
    8       13.299306   0.000000
 
 -0.3125000E+00 -0.4375000E+00  0.1875000E+00  0.2343750E-01
    1       -2.632990   1.000000
    2       -1.804996   1.000000
    3        1.688334   1.000000
    4        2.268721   1.000000
    5        7.503367   0.000000
    6        8.398302   0.000000
    7       11.669266   0.000000
    8       12.755936   0.000000
 
 -0.3125000E+00 -0.3125000E+00  0.1875000E+00  0.1171875E-01
    1       -3.447971   1.000000
    2       -1.019607   1.000000
    3        1.851734   1.000000
    4        2.980899   1.000000
    5        6.576845   0.000000
    6        8.467565   0.000000
    7       12.132337   0.000000
    8       12.250143   0.000000
 
  0.3125000E+00  0.3125000E+00  0.3125000E+00  0.3906250E-02
    1       -5.117204   1.000000
    2        0.471876   1.000000
    3        4.435253   1.000000
    4        4.435253   1.000000
    5        6.999817   0.000000
    6        8.856672   0.000000
    7        8.856672   0.000000
    8       12.808544   0.000000
 
  0.4375000E+00  0.3125000E+00  0.3125000E+00  0.1171875E-01
    1       -4.653211   1.000000
    2       -0.097474   1.000000
    3        3.008110   1.000000
    4        4.349037   1.000000
    5        7.732241   0.000000
    6        9.070244   0.000000
    7        9.122516   0.000000
    8       12.218606   0.000000
 
 -0.4375000E+00  0.3125000E+00  0.3125000E+00  0.1171875E-01
    1       -3.887141   1.000000
    2       -0.639443   1.000000
    3        1.543076   1.000000
    4        3.788845   1.000000
    5        7.469897   0.000000
    6       10.473230   0.000000
    7       10.620872   0.000000
    8       11.960310   0.000000
 
 -0.3125000E+00  0.3125000E+00  0.3125000E+00  0.1171875E-01
    1       -3.094989   1.000000
    2       -1.406774   1.000000
    3        1.222526   1.000000
    4        3.260102   1.000000
    5        6.883029   0.000000
    6       10.697924   0.000000
    7       11.713327   0.000000
    8       11.925617   0.000000
 
  0.4375000E+00  0.4375000E+00  0.3125000E+00  0.1171875E-01
    1       -4.350448   1.000000
    2       -0.637289   1.000000
    3        3.326651   1.000000
    4        3.806121   1.000000
    5        7.482498   0.000000
    6        8.827588   0.000000
    7        9.597792   0.000000
    8       11.586548   0.000000
 
 -0.4375000E+00  0.4375000E+00  0.3125000E+00  0.2343750E-01
    1       -3.751736   1.000000
    2       -1.000790   1.000000
    3        2.065790   1.000000
    4        3.350333   1.000000
    5        8.255292   0.000000
    6        8.623572   0.000000
    7       11.066536   0.000000
    8       11.346699   0.000000
 
 -0.3125000E+00  0.4375000E+00  0.3125000E+00  0.2343750E-01
    1       -2.960339   1.000000
    2       -1.475398   1.000000
    3        1.311840   1.000000
    4        2.662812   1.000000
    5        7.939888   0.000000
    6       10.142186   0.000000
    7       10.894030   0.000000
    8       11.399629   0.000000
 
 -0.4375000E+00 -0.4375000E+00  0.3125000E+00  0.1171875E-01
    1       -3.406224   1.000000
    2       -1.277928   1.000000
    3        1.692815   1.000000
    4        3.356816   1.000000
    5        7.024560   0.000000
    6       10.655173   0.000000
    7       10.953612   0.000000
    8       10.975877   0.000000
 
  0.4375000E+00  0.4375000E+00  0.4375000E+00  0.3906250E-02
    1       -4.261670   1.000000
    2       -1.120655   1.000000
    3        4.218751   1.000000
    4        4.218751   1.000000
    5        6.747872   0.000000
    6        8.735158   0.000000
    7        8.735158   0.000000
    8       13.046471   0.000000
 
 -0.4375000E+00  0.4375000E+00  0.4375000E+00  0.1171875E-01
    1       -3.923980   1.000000
    2       -1.295183   1.000000
    3        3.021296   1.000000
    4        3.960933   1.000000
    5        7.495665   0.000000
    6        8.838380   0.000000
    7        9.297534   0.000000
    8       13.378261   0.000000
