 running on    8 total cores
 distrk:  each k-point on    8 cores,    1 groups
 distr:  one band on    1 cores,    8 groups
 using from now: INCAR     
 vasp.5.4.4.18Apr17-6-g9f103f2a35 (build Dec 09 2018 21:25:21) complex          
  
 POSCAR found type information on POSCAR  Si
 POSCAR found :  1 types and       2 ions
 scaLAPACK will be used

 ----------------------------------------------------------------------------- 
|                                                                             |
|           W    W    AA    RRRRR   N    N  II  N    N   GGGG   !!!           |
|           W    W   A  A   R    R  NN   N  II  NN   N  G    G  !!!           |
|           W    W  A    A  R    R  N N  N  II  N N  N  G       !!!           |
|           W WW W  AAAAAA  RRRRR   N  N N  II  N  N N  G  GGG   !            |
|           WW  WW  A    A  R   R   N   NN  II  N   NN  G    G                |
|           W    W  A    A  R    R  N    N  II  N    N   GGGG   !!!           |
|                                                                             |
|      For optimal performance we recommend to set                            |
|        NCORE= 4 - approx SQRT( number of cores)                             |
|      NCORE specifies how many cores store one orbital (NPAR=cpu/NCORE).     |
|      This setting can  greatly improve the performance of VASP for DFT.     |
|      The default,   NCORE=1            might be grossly inefficient         |
|      on modern multi-core architectures or massively parallel machines.     |
|      Do your own testing !!!!                                               |
|      Unfortunately you need to use the default for GW and RPA calculations. |
|      (for HF NCORE is supported but not extensively tested yet)             |
|                                                                             |
 ----------------------------------------------------------------------------- 

 LDA part: xc-table for Pade appr. of Perdew
 POSCAR, INCAR and KPOINTS ok, starting setup
 FFT: planning ...
 WAVECAR not read
 entering main loop
       N       E                     dE             d eps       ncg     rms          rms(c)
DAV:   1     0.479590069963E+01    0.47959E+01   -0.27589E+03   960   0.586E+02
DAV:   2    -0.107962464346E+02   -0.15592E+02   -0.14974E+02  1520   0.724E+01
DAV:   3    -0.109914752439E+02   -0.19523E+00   -0.19523E+00  1096   0.107E+01
DAV:   4    -0.109925655490E+02   -0.10903E-02   -0.10903E-02  1656   0.887E-01
DAV:   5    -0.109925659495E+02   -0.40051E-06   -0.40070E-06  1192   0.163E-02    0.289E+00
DAV:   6    -0.108876669796E+02    0.10490E+00   -0.66974E-02  1176   0.135E+00    0.172E+00
DAV:   7    -0.108380290819E+02    0.49638E-01   -0.12922E-01  1208   0.200E+00    0.143E-01
DAV:   8    -0.108393591749E+02   -0.13301E-02   -0.37923E-03  1136   0.453E-01    0.251E-02
DAV:   9    -0.108394637795E+02   -0.10460E-03   -0.10595E-04   776   0.825E-02
   1 F= -.10839464E+02 E0= -.10839453E+02  d E =-.108395E+02
 curvature:   0.00 expect dE= 0.000E+00 dE for cont linesearch  0.000E+00
 trial: gam= 0.00000 g(F)=  0.105E-45 g(S)=  0.000E+00 ort = 0.000E+00 (trialstep = 0.100E+01)
 search vector abs. value=  0.100E-09
 reached required accuracy - stopping structural energy minimisation
 writing wavefunctions
