<?xml version="1.0" encoding="ISO-8859-1"?>
<modeling>
 <generator>
  <i name="program" type="string">vasp </i>
  <i name="version" type="string">5.4.4.18Apr17-6-g9f103f2a35  </i>
  <i name="subversion" type="string">(build Dec 09 2018 21:25:21) complex            parallel </i>
  <i name="platform" type="string">IFC18.0.1.163_CrayMPICH7.7.0_MKL18.0.1.163 </i>
  <i name="date" type="string">2019 03 23 </i>
  <i name="time" type="string">21:18:15 </i>
 </generator>
 <incar>
  <i type="string" name="PREC">normal</i>
  <i type="int" name="IBRION">     2</i>
  <i name="EDIFF">      0.00040000</i>
  <i name="EDIFFG">     -0.01000000</i>
  <i type="int" name="NSW">    15</i>
  <i type="int" name="ISIF">     2</i>
  <i name="ENCUT">    350.00000000</i>
  <i type="int" name="NBANDS">     8</i>
  <i type="logical" name="LREAL"> F  </i>
  <i type="int" name="ISMEAR">     0</i>
  <i name="SIGMA">      0.20000000</i>
  <v type="int" name="KPOINT_BSE">    -1     0     0     0</v>
 </incar>
 <structure name="primitive_cell" >
  <crystal>
   <varray name="basis" >
    <v>       0.00000000       2.75952000       2.75952000 </v>
    <v>       2.75952000       0.00000000       2.75952000 </v>
    <v>       2.75952000       2.75952000       0.00000000 </v>
   </varray>
   <i name="volume">     42.02721713 </i>
   <varray name="rec_basis" >
    <v>      -0.18119093       0.18119093       0.18119093 </v>
    <v>       0.18119093      -0.18119093       0.18119093 </v>
    <v>       0.18119093       0.18119093      -0.18119093 </v>
   </varray>
  </crystal>
  <varray name="positions" >
   <v>      -0.50000000      -0.50000000      -0.50000000 </v>
   <v>      -0.25000000      -0.25000000      -0.25000000 </v>
  </varray>
 </structure>
 <varray name="primitive_index" >
  <v type="int" >        1 </v>
  <v type="int" >        2 </v>
 </varray>
 <kpoints>
  <generation param="Monkhorst-Pack">
   <v type="int" name="divisions">       8        8        8 </v>
   <v name="usershift">      0.00000000       0.00000000       0.00000000 </v>
   <v name="genvec1">      0.12500000       0.00000000      -0.00000000 </v>
   <v name="genvec2">      0.00000000       0.12500000       0.00000000 </v>
   <v name="genvec3">     -0.00000000      -0.00000000       0.12500000 </v>
   <v name="shift">      0.50000000       0.50000000       0.50000000 </v>
  </generation>
  <varray name="kpointlist" >
   <v>       0.06250000       0.06250000       0.06250000 </v>
   <v>       0.18750000       0.06250000       0.06250000 </v>
   <v>       0.31250000       0.06250000       0.06250000 </v>
   <v>       0.43750000       0.06250000       0.06250000 </v>
   <v>      -0.43750000       0.06250000       0.06250000 </v>
   <v>      -0.31250000       0.06250000       0.06250000 </v>
   <v>      -0.18750000       0.06250000       0.06250000 </v>
   <v>      -0.06250000       0.06250000       0.06250000 </v>
   <v>       0.18750000       0.18750000       0.06250000 </v>
   <v>       0.31250000       0.18750000       0.06250000 </v>
   <v>       0.43750000       0.18750000       0.06250000 </v>
   <v>      -0.43750000       0.18750000       0.06250000 </v>
   <v>      -0.31250000       0.18750000       0.06250000 </v>
   <v>      -0.18750000       0.18750000       0.06250000 </v>
   <v>      -0.06250000       0.18750000       0.06250000 </v>
   <v>       0.31250000       0.31250000       0.06250000 </v>
   <v>       0.43750000       0.31250000       0.06250000 </v>
   <v>      -0.43750000       0.31250000       0.06250000 </v>
   <v>      -0.31250000       0.31250000       0.06250000 </v>
   <v>      -0.18750000       0.31250000       0.06250000 </v>
   <v>      -0.06250000       0.31250000       0.06250000 </v>
   <v>       0.43750000       0.43750000       0.06250000 </v>
   <v>      -0.43750000       0.43750000       0.06250000 </v>
   <v>      -0.31250000       0.43750000       0.06250000 </v>
   <v>      -0.18750000       0.43750000       0.06250000 </v>
   <v>      -0.06250000       0.43750000       0.06250000 </v>
   <v>      -0.43750000      -0.43750000       0.06250000 </v>
   <v>      -0.31250000      -0.43750000       0.06250000 </v>
   <v>      -0.18750000      -0.43750000       0.06250000 </v>
   <v>      -0.31250000      -0.31250000       0.06250000 </v>
   <v>      -0.18750000      -0.31250000       0.06250000 </v>
   <v>      -0.18750000      -0.18750000       0.06250000 </v>
   <v>       0.18750000       0.18750000       0.18750000 </v>
   <v>       0.31250000       0.18750000       0.18750000 </v>
   <v>       0.43750000       0.18750000       0.18750000 </v>
   <v>      -0.43750000       0.18750000       0.18750000 </v>
   <v>      -0.31250000       0.18750000       0.18750000 </v>
   <v>      -0.18750000       0.18750000       0.18750000 </v>
   <v>       0.31250000       0.31250000       0.18750000 </v>
   <v>       0.43750000       0.31250000       0.18750000 </v>
   <v>      -0.43750000       0.31250000       0.18750000 </v>
   <v>      -0.31250000       0.31250000       0.18750000 </v>
   <v>      -0.18750000       0.31250000       0.18750000 </v>
   <v>       0.43750000       0.43750000       0.18750000 </v>
   <v>      -0.43750000       0.43750000       0.18750000 </v>
   <v>      -0.31250000       0.43750000       0.18750000 </v>
   <v>      -0.18750000       0.43750000       0.18750000 </v>
   <v>      -0.43750000      -0.43750000       0.18750000 </v>
   <v>      -0.31250000      -0.43750000       0.18750000 </v>
   <v>      -0.31250000      -0.31250000       0.18750000 </v>
   <v>       0.31250000       0.31250000       0.31250000 </v>
   <v>       0.43750000       0.31250000       0.31250000 </v>
   <v>      -0.43750000       0.31250000       0.31250000 </v>
   <v>      -0.31250000       0.31250000       0.31250000 </v>
   <v>       0.43750000       0.43750000       0.31250000 </v>
   <v>      -0.43750000       0.43750000       0.31250000 </v>
   <v>      -0.31250000       0.43750000       0.31250000 </v>
   <v>      -0.43750000      -0.43750000       0.31250000 </v>
   <v>       0.43750000       0.43750000       0.43750000 </v>
   <v>      -0.43750000       0.43750000       0.43750000 </v>
  </varray>
  <varray name="weights" >
   <v>       0.00390625 </v>
   <v>       0.01171875 </v>
   <v>       0.01171875 </v>
   <v>       0.01171875 </v>
   <v>       0.01171875 </v>
   <v>       0.01171875 </v>
   <v>       0.01171875 </v>
   <v>       0.01171875 </v>
   <v>       0.01171875 </v>
   <v>       0.02343750 </v>
   <v>       0.02343750 </v>
   <v>       0.02343750 </v>
   <v>       0.02343750 </v>
   <v>       0.02343750 </v>
   <v>       0.02343750 </v>
   <v>       0.01171875 </v>
   <v>       0.02343750 </v>
   <v>       0.02343750 </v>
   <v>       0.02343750 </v>
   <v>       0.02343750 </v>
   <v>       0.02343750 </v>
   <v>       0.01171875 </v>
   <v>       0.02343750 </v>
   <v>       0.02343750 </v>
   <v>       0.02343750 </v>
   <v>       0.02343750 </v>
   <v>       0.01171875 </v>
   <v>       0.02343750 </v>
   <v>       0.02343750 </v>
   <v>       0.01171875 </v>
   <v>       0.02343750 </v>
   <v>       0.01171875 </v>
   <v>       0.00390625 </v>
   <v>       0.01171875 </v>
   <v>       0.01171875 </v>
   <v>       0.01171875 </v>
   <v>       0.01171875 </v>
   <v>       0.01171875 </v>
   <v>       0.01171875 </v>
   <v>       0.02343750 </v>
   <v>       0.02343750 </v>
   <v>       0.02343750 </v>
   <v>       0.02343750 </v>
   <v>       0.01171875 </v>
   <v>       0.02343750 </v>
   <v>       0.02343750 </v>
   <v>       0.02343750 </v>
   <v>       0.01171875 </v>
   <v>       0.02343750 </v>
   <v>       0.01171875 </v>
   <v>       0.00390625 </v>
   <v>       0.01171875 </v>
   <v>       0.01171875 </v>
   <v>       0.01171875 </v>
   <v>       0.01171875 </v>
   <v>       0.02343750 </v>
   <v>       0.02343750 </v>
   <v>       0.01171875 </v>
   <v>       0.00390625 </v>
   <v>       0.01171875 </v>
  </varray>
 </kpoints>
 <parameters>
  <separator name="general" >
   <i type="string" name="SYSTEM">unknown system</i>
   <i type="logical" name="LCOMPAT"> F  </i>
  </separator>
  <separator name="electronic" >
   <i type="string" name="PREC">normal</i>
   <i name="ENMAX">    350.00000000</i>
   <i name="ENAUG">    322.06900000</i>
   <i name="EDIFF">      0.00040000</i>
   <i type="int" name="IALGO">    38</i>
   <i type="int" name="IWAVPR">    11</i>
   <i type="int" name="NBANDS">     8</i>
   <i name="NELECT">      8.00000000</i>
   <i type="int" name="TURBO">     0</i>
   <i type="int" name="IRESTART">     0</i>
   <i type="int" name="NREBOOT">     0</i>
   <i type="int" name="NMIN">     0</i>
   <i name="EREF">      0.00000000</i>
   <separator name="electronic smearing" >
    <i type="int" name="ISMEAR">     0</i>
    <i name="SIGMA">      0.20000000</i>
    <i name="KSPACING">      0.50000000</i>
    <i type="logical" name="KGAMMA"> T  </i>
   </separator>
   <separator name="electronic projectors" >
    <i type="logical" name="LREAL"> F  </i>
    <v name="ROPT">      0.00000000</v>
    <i type="int" name="LMAXPAW">  -100</i>
    <i type="int" name="LMAXMIX">     2</i>
    <i type="logical" name="NLSPLINE"> F  </i>
   </separator>
   <separator name="electronic startup" >
    <i type="int" name="ISTART">     0</i>
    <i type="int" name="ICHARG">     2</i>
    <i type="int" name="INIWAV">     1</i>
   </separator>
   <separator name="electronic spin" >
    <i type="int" name="ISPIN">     1</i>
    <i type="logical" name="LNONCOLLINEAR"> F  </i>
    <v name="MAGMOM">      1.00000000      1.00000000</v>
    <i name="NUPDOWN">     -1.00000000</i>
    <i type="logical" name="LSORBIT"> F  </i>
    <v name="SAXIS">      0.00000000      0.00000000      1.00000000</v>
    <i type="logical" name="LSPIRAL"> F  </i>
    <v name="QSPIRAL">      0.00000000      0.00000000      0.00000000</v>
    <i type="logical" name="LZEROZ"> F  </i>
   </separator>
   <separator name="electronic exchange-correlation" >
    <i type="logical" name="LASPH"> F  </i>
    <i type="logical" name="LMETAGGA"> F  </i>
   </separator>
   <separator name="electronic convergence" >
    <i type="int" name="NELM">    60</i>
    <i type="int" name="NELMDL">    -5</i>
    <i type="int" name="NELMIN">     2</i>
    <i name="ENINI">    350.00000000</i>
    <separator name="electronic convergence detail" >
     <i type="logical" name="LDIAG"> T  </i>
     <i type="logical" name="LSUBROT"> F  </i>
     <i name="WEIMIN">      0.00100000</i>
     <i name="EBREAK">      0.00001250</i>
     <i name="DEPER">      0.30000000</i>
     <i type="int" name="NRMM">     4</i>
     <i name="TIME">      0.40000000</i>
    </separator>
   </separator>
   <separator name="electronic mixer" >
    <i name="AMIX">      0.40000000</i>
    <i name="BMIX">      1.00000000</i>
    <i name="AMIN">      0.10000000</i>
    <i name="AMIX_MAG">      1.60000000</i>
    <i name="BMIX_MAG">      1.00000000</i>
    <separator name="electronic mixer details" >
     <i type="int" name="IMIX">     4</i>
     <i type="logical" name="MIXFIRST"> F  </i>
     <i type="int" name="MAXMIX">   -45</i>
     <i name="WC">    100.00000000</i>
     <i type="int" name="INIMIX">     1</i>
     <i type="int" name="MIXPRE">     1</i>
     <i type="int" name="MREMOVE">     5</i>
    </separator>
   </separator>
   <separator name="electronic dipolcorrection" >
    <i type="logical" name="LDIPOL"> F  </i>
    <i type="logical" name="LMONO"> F  </i>
    <i type="int" name="IDIPOL">     0</i>
    <i name="EPSILON">      1.00000000</i>
    <v name="DIPOL">   -100.00000000   -100.00000000   -100.00000000</v>
    <i name="EFIELD">      0.00000000</i>
   </separator>
  </separator>
  <separator name="grids" >
   <i type="int" name="NGX">    18</i>
   <i type="int" name="NGY">    18</i>
   <i type="int" name="NGZ">    18</i>
   <i type="int" name="NGXF">    36</i>
   <i type="int" name="NGYF">    36</i>
   <i type="int" name="NGZF">    36</i>
   <i type="logical" name="ADDGRID"> F  </i>
  </separator>
  <separator name="ionic" >
   <i type="int" name="NSW">    15</i>
   <i type="int" name="IBRION">     2</i>
   <i type="int" name="MDALGO">     0</i>
   <i type="int" name="ISIF">     2</i>
   <i name="PSTRESS">      0.00000000</i>
   <i name="EDIFFG">     -0.01000000</i>
   <i type="int" name="NFREE">     1</i>
   <i name="POTIM">      0.50000000</i>
   <i name="SMASS">     -3.00000000</i>
   <i name="SCALEE">      1.00000000</i>
  </separator>
  <separator name="ionic md" >
   <i name="TEBEG">      0.00010000</i>
   <i name="TEEND">      0.00010000</i>
   <i type="int" name="NBLOCK">     1</i>
   <i type="int" name="KBLOCK">    15</i>
   <i type="int" name="NPACO">   256</i>
   <i name="APACO">     16.00000000</i>
  </separator>
  <separator name="symmetry" >
   <i type="int" name="ISYM">     2</i>
   <i name="SYMPREC">      0.00001000</i>
  </separator>
  <separator name="dos" >
   <i type="int" name="LORBIT">     0</i>
   <v name="RWIGS">     -1.00000000</v>
   <i type="int" name="NEDOS">   301</i>
   <i name="EMIN">     10.00000000</i>
   <i name="EMAX">    -10.00000000</i>
   <i name="EFERMI">      0.00000000</i>
  </separator>
  <separator name="writing" >
   <i type="int" name="NWRITE">     2</i>
   <i type="logical" name="LWAVE"> T  </i>
   <i type="logical" name="LDOWNSAMPLE"> F  </i>
   <i type="logical" name="LCHARG"> T  </i>
   <i type="logical" name="LPARD"> F  </i>
   <i type="logical" name="LVTOT"> F  </i>
   <i type="logical" name="LVHAR"> F  </i>
   <i type="logical" name="LELF"> F  </i>
   <i type="logical" name="LOPTICS"> F  </i>
   <v name="STM">      0.00000000      0.00000000      0.00000000      0.00000000      0.00000000      0.00000000      0.00000000</v>
  </separator>
  <separator name="performance" >
   <i type="int" name="NPAR">     8</i>
   <i type="int" name="NSIM">     4</i>
   <i type="int" name="NBLK">    -1</i>
   <i type="logical" name="LPLANE"> T  </i>
   <i type="logical" name="LSCALAPACK"> T  </i>
   <i type="logical" name="LSCAAWARE"> F  </i>
   <i type="logical" name="LSCALU"> F  </i>
   <i type="logical" name="LASYNC"> F  </i>
   <i type="logical" name="LORBITALREAL"> F  </i>
  </separator>
  <separator name="miscellaneous" >
   <i type="int" name="IDIOT">     3</i>
   <i type="int" name="ISPECIAL">     0</i>
   <i type="logical" name="LMUSIC"> F  </i>
   <v name="POMASS">     28.08500000</v>
   <v name="DARWINR">      0.00000000</v>
   <v name="DARWINV">      1.00000000</v>
   <i type="logical" name="LCORR"> T  </i>
  </separator>
  <i type="logical" name="GGA_COMPAT"> T  </i>
  <i type="logical" name="LBERRY"> F  </i>
  <i type="int" name="ICORELEVEL">     0</i>
  <i type="logical" name="LDAU"> F  </i>
  <i type="int" name="I_CONSTRAINED_M">     0</i>
  <separator name="electronic exchange-correlation" >
   <i type="string" name="GGA">--</i>
   <i type="int" name="VOSKOWN">     0</i>
   <i type="logical" name="LHFCALC"> F  </i>
   <i type="string" name="PRECFOCK"></i>
   <i type="logical" name="LSYMGRAD"> F  </i>
   <i type="logical" name="LHFONE"> F  </i>
   <i type="logical" name="LRHFCALC"> F  </i>
   <i type="logical" name="LTHOMAS"> F  </i>
   <i type="logical" name="LMODELHF"> F  </i>
   <i name="ENCUT4O">     -1.00000000</i>
   <i type="int" name="EXXOEP">     0</i>
   <i type="int" name="FOURORBIT">     0</i>
   <i name="AEXX">      0.00000000</i>
   <i name="HFALPHA">      0.00000000</i>
   <i name="MCALPHA">      0.00000000</i>
   <i name="ALDAX">      1.00000000</i>
   <i name="AGGAX">      1.00000000</i>
   <i name="ALDAC">      1.00000000</i>
   <i name="AGGAC">      1.00000000</i>
   <i type="int" name="NKREDX">     1</i>
   <i type="int" name="NKREDY">     1</i>
   <i type="int" name="NKREDZ">     1</i>
   <i type="logical" name="SHIFTRED"> F  </i>
   <i type="logical" name="ODDONLY"> F  </i>
   <i type="logical" name="EVENONLY"> F  </i>
   <i type="int" name="LMAXFOCK">     0</i>
   <i type="int" name="NMAXFOCKAE">     0</i>
   <i type="logical" name="LFOCKAEDFT"> F  </i>
   <i name="HFSCREEN">      0.00000000</i>
   <i name="HFSCREENC">      0.00000000</i>
   <i type="int" name="NBANDSGWLOW">     0</i>
  </separator>
  <separator name="vdW DFT" >
   <i type="logical" name="LUSE_VDW"> F  </i>
   <i name="Zab_VDW">     -0.84910000</i>
   <i name="PARAM1">      0.12340000</i>
   <i name="PARAM2">      1.00000000</i>
   <i name="PARAM3">      0.00000000</i>
  </separator>
  <separator name="model GW" >
   <i type="int" name="MODEL_GW">     0</i>
   <i name="MODEL_EPS0">     12.60816514</i>
   <i name="MODEL_ALPHA">      1.00000000</i>
  </separator>
  <separator name="linear response parameters" >
   <i type="logical" name="LEPSILON"> F  </i>
   <i type="logical" name="LRPA"> F  </i>
   <i type="logical" name="LNABLA"> F  </i>
   <i type="logical" name="LVEL"> F  </i>
   <i type="int" name="KINTER">     0</i>
   <i name="CSHIFT">      0.10000000</i>
   <i name="OMEGAMAX">     -1.00000000</i>
   <i name="DEG_THRESHOLD">      0.00200000</i>
   <i name="RTIME">     -0.10000000</i>
   <i name="WPLASMAI">      0.00000000</i>
   <v name="DFIELD">      0.00000000      0.00000000      0.00000000</v>
   <v name="WPLASMA">      0.00000000      0.00000000      0.00000000      0.00000000      0.00000000      0.00000000      0.00000000      0.00000000      0.00000000</v>
  </separator>
  <separator name="orbital magnetization" >
   <i type="logical" name="NUCIND"> F  </i>
   <v name="MAGPOS">      0.00000000      0.00000000      0.00000000</v>
   <i type="logical" name="LNICSALL"> T  </i>
   <i type="logical" name="ORBITALMAG"> F  </i>
   <i type="logical" name="LMAGBLOCH"> F  </i>
   <i type="logical" name="LCHIMAG"> F  </i>
   <i type="logical" name="LGAUGE"> T  </i>
   <i type="int" name="MAGATOM">     0</i>
   <v name="MAGDIPOL">      0.00000000      0.00000000      0.00000000</v>
   <v name="AVECCONST">      0.00000000      0.00000000      0.00000000</v>
  </separator>
  <separator name="response functions" >
   <i type="logical" name="LADDER"> F  </i>
   <i type="logical" name="LRPAFORCE"> F  </i>
   <i type="logical" name="LFXC"> F  </i>
   <i type="logical" name="LHARTREE"> T  </i>
   <i type="int" name="IBSE">     0</i>
   <v type="int" name="KPOINT">    -1     0     0     0</v>
   <i type="logical" name="LTCTE"> F  </i>
   <i type="logical" name="LTETE"> F  </i>
   <i type="logical" name="LTRIPLET"> F  </i>
   <i type="logical" name="LFXCEPS"> F  </i>
   <i type="logical" name="LFXHEG"> F  </i>
   <i type="int" name="NATURALO">     2</i>
   <i type="logical" name="L2ORDER"> F  </i>
   <i type="logical" name="LMP2LT"> F  </i>
   <i type="logical" name="LUSEW"> F  </i>
   <i name="ENCUTGW">     -2.00000000</i>
   <i name="ENCUTGWSOFT">     -2.00000000</i>
   <i name="ENCUTLF">     -1.00000000</i>
   <i type="int" name="LMAXMP2">    -1</i>
   <i name="SCISSOR">      0.00000000</i>
   <i type="int" name="NOMEGA">     0</i>
   <i type="int" name="NOMEGAR">     0</i>
   <i type="int" name="NBANDSGW">    -1</i>
   <i type="int" name="NBANDSO">    -1</i>
   <i type="int" name="NBANDSV">    -1</i>
   <i type="int" name="NELM">     1</i>
   <i type="int" name="NELMHF">     1</i>
   <i type="int" name="DIM">     3</i>
   <i type="int" name="ANTIRES">     0</i>
   <i name="OMEGAMAX">    -30.00000000</i>
   <i name="OMEGAMIN">    -30.00000000</i>
   <i name="OMEGATL">   -200.00000000</i>
   <i type="int" name="OMEGAGRID">   140</i>
   <i name="CSHIFT">     -0.10000000</i>
   <i type="logical" name="SELFENERGY"> F  </i>
   <i type="logical" name="LSPECTRAL"> F  </i>
   <i type="logical" name="LSPECTRALGW"> F  </i>
   <i type="logical" name="LSINGLES"> F  </i>
   <i type="logical" name="LFERMIGW"> F  </i>
   <i type="logical" name="ODDONLYGW"> F  </i>
   <i type="logical" name="EVENONLYGW"> F  </i>
   <i type="int" name="NKREDLFX">     1</i>
   <i type="int" name="NKREDLFY">     1</i>
   <i type="int" name="NKREDLFZ">     1</i>
   <i type="int" name="MAXMEM">  2800</i>
   <i type="int" name="TELESCOPE">     0</i>
   <i type="int" name="TAUPAR">     1</i>
   <i type="int" name="OMEGAPAR">    -1</i>
   <i name="LAMBDA">      1.00000000</i>
  </separator>
  <separator name="External order field" >
   <i name="OFIELD_KAPPA">      0.00000000</i>
   <v name="OFIELD_K">      0.00000000      0.00000000      0.00000000</v>
   <i name="OFIELD_Q6_NEAR">      0.00000000</i>
   <i name="OFIELD_Q6_FAR">      0.00000000</i>
   <i name="OFIELD_A">      0.00000000</i>
  </separator>
 </parameters>
 <atominfo>
  <atoms>       2 </atoms>
  <types>       1 </types>
  <array name="atoms" >
   <dimension dim="1">ion</dimension>
   <field type="string">element</field>
   <field type="int">atomtype</field>
   <set>
    <rc><c>Si</c><c>   1</c></rc>
    <rc><c>Si</c><c>   1</c></rc>
   </set>
  </array>
  <array name="atomtypes" >
   <dimension dim="1">type</dimension>
   <field type="int">atomspertype</field>
   <field type="string">element</field>
   <field>mass</field>
   <field>valence</field>
   <field type="string">pseudopotential</field>
   <set>
    <rc><c>   2</c><c>Si</c><c>     28.08500000</c><c>      4.00000000</c><c> PAW_PBE Si 05Jan2001                   </c></rc>
   </set>
  </array>
 </atominfo>
 <structure name="initialpos" >
  <crystal>
   <varray name="basis" >
    <v>       0.00000000       2.75952000       2.75952000 </v>
    <v>       2.75952000       0.00000000       2.75952000 </v>
    <v>       2.75952000       2.75952000       0.00000000 </v>
   </varray>
   <i name="volume">     42.02721713 </i>
   <varray name="rec_basis" >
    <v>      -0.18119093       0.18119093       0.18119093 </v>
    <v>       0.18119093      -0.18119093       0.18119093 </v>
    <v>       0.18119093       0.18119093      -0.18119093 </v>
   </varray>
  </crystal>
  <varray name="positions" >
   <v>       0.50000000       0.50000000       0.50000000 </v>
   <v>       0.75000000       0.75000000       0.75000000 </v>
  </varray>
 </structure>
 <calculation>
  <scstep>
   <time name="dav">    0.80    0.80</time>
   <time name="total">    0.85    0.86</time>
   <energy>
    <i name="alphaZ">      3.20393123 </i>
    <i name="ewald">   -224.87605460 </i>
    <i name="hartreedc">    -11.74556925 </i>
    <i name="XCdc">    -18.79089067 </i>
    <i name="pawpsdc">     65.95520812 </i>
    <i name="pawaedc">    -30.76852678 </i>
    <i name="eentropy">     -0.01169269 </i>
    <i name="bandstr">     15.69824120 </i>
    <i name="atom">    206.13125414 </i>
    <i name="e_fr_energy">      4.79590070 </i>
    <i name="e_wo_entrp">      4.80759339 </i>
    <i name="e_0_energy">      4.80174704 </i>
   </energy>
  </scstep>
  <scstep>
   <time name="dav">    1.23    1.24</time>
   <time name="total">    1.23    1.24</time>
   <energy>
    <i name="e_fr_energy">    -10.79624643 </i>
    <i name="e_wo_entrp">    -10.79624557 </i>
    <i name="e_0_energy">    -10.79624600 </i>
   </energy>
  </scstep>
  <scstep>
   <time name="dav">    0.90    0.91</time>
   <time name="total">    0.90    0.91</time>
   <energy>
    <i name="e_fr_energy">    -10.99147524 </i>
    <i name="e_wo_entrp">    -10.99147461 </i>
    <i name="e_0_energy">    -10.99147493 </i>
   </energy>
  </scstep>
  <scstep>
   <time name="dav">    1.34    1.37</time>
   <time name="total">    1.35    1.37</time>
   <energy>
    <i name="e_fr_energy">    -10.99256555 </i>
    <i name="e_wo_entrp">    -10.99256492 </i>
    <i name="e_0_energy">    -10.99256523 </i>
   </energy>
  </scstep>
  <scstep>
   <time name="dav">    0.98    1.00</time>
   <time name="total">    1.04    1.06</time>
   <energy>
    <i name="e_fr_energy">    -10.99256595 </i>
    <i name="e_wo_entrp">    -10.99256532 </i>
    <i name="e_0_energy">    -10.99256563 </i>
   </energy>
  </scstep>
  <scstep>
   <time name="dav">    0.96    0.96</time>
   <time name="total">    1.06    1.07</time>
   <energy>
    <i name="e_fr_energy">    -10.88766698 </i>
    <i name="e_wo_entrp">    -10.88766333 </i>
    <i name="e_0_energy">    -10.88766516 </i>
   </energy>
  </scstep>
  <scstep>
   <time name="dav">    0.97    0.97</time>
   <time name="total">    1.08    1.09</time>
   <energy>
    <i name="e_fr_energy">    -10.83802908 </i>
    <i name="e_wo_entrp">    -10.83800204 </i>
    <i name="e_0_energy">    -10.83801556 </i>
   </energy>
  </scstep>
  <scstep>
   <time name="dav">    0.92    0.92</time>
   <time name="total">    1.02    1.03</time>
   <energy>
    <i name="e_fr_energy">    -10.83935917 </i>
    <i name="e_wo_entrp">    -10.83933821 </i>
    <i name="e_0_energy">    -10.83934869 </i>
   </energy>
  </scstep>
  <scstep>
   <time name="dav">    0.69    0.69</time>
   <time name="total">    0.73    0.74</time>
   <energy>
    <i name="alphaZ">      3.20393123 </i>
    <i name="ewald">   -224.87605460 </i>
    <i name="hartreedc">    -15.49062147 </i>
    <i name="XCdc">    -18.18291644 </i>
    <i name="pawpsdc">     72.84331739 </i>
    <i name="pawaedc">    -37.83931653 </i>
    <i name="eentropy">     -0.00002070 </i>
    <i name="bandstr">      3.37096320 </i>
    <i name="atom">    206.13125414 </i>
    <i name="e_fr_energy">    -10.83946378 </i>
    <i name="e_wo_entrp">    -10.83944308 </i>
    <i name="e_0_energy">    -10.83945343 </i>
   </energy>
  </scstep>
  <structure>
   <crystal>
    <varray name="basis" >
     <v>       0.00000000       2.75952000       2.75952000 </v>
     <v>       2.75952000       0.00000000       2.75952000 </v>
     <v>       2.75952000       2.75952000       0.00000000 </v>
    </varray>
    <i name="volume">     42.02721713 </i>
    <varray name="rec_basis" >
     <v>      -0.18119093       0.18119093       0.18119093 </v>
     <v>       0.18119093      -0.18119093       0.18119093 </v>
     <v>       0.18119093       0.18119093      -0.18119093 </v>
    </varray>
   </crystal>
   <varray name="positions" >
    <v>       0.50000000       0.50000000       0.50000000 </v>
    <v>       0.75000000       0.75000000       0.75000000 </v>
   </varray>
  </structure>
  <varray name="forces" >
   <v>       0.00000000       0.00000000      -0.00000000 </v>
   <v>      -0.00000000      -0.00000000       0.00000000 </v>
  </varray>
  <varray name="stress" >
   <v>     -23.21795457      -0.00000000       0.00000000 </v>
   <v>      -0.00000000     -23.21795457       0.00000000 </v>
   <v>      -0.00000000      -0.00000000     -23.21795457 </v>
  </varray>
  <energy>
   <i name="e_fr_energy">    -10.83946378 </i>
   <i name="e_wo_entrp">    -10.83945343 </i>
   <i name="e_0_energy">     -0.00002070 </i>
  </energy>
  <time name="totalsc">   10.95   12.51</time>
  <eigenvalues>
   <array>
    <dimension dim="1">band</dimension>
    <dimension dim="2">kpoint</dimension>
    <dimension dim="3">spin</dimension>
    <field>eigene</field>
    <field>occ</field>
    <set>
     <set comment="spin 1">
      <set comment="kpoint 1">
       <r>   -6.2372    1.0000 </r>
       <r>    4.8107    1.0000 </r>
       <r>    5.2660    0.9987 </r>
       <r>    5.2660    0.9987 </r>
       <r>    7.8853    0.0000 </r>
       <r>    8.0099    0.0000 </r>
       <r>    8.0099    0.0000 </r>
       <r>    8.6275    0.0000 </r>
      </set>
      <set comment="kpoint 2">
       <r>   -5.9772    1.0000 </r>
       <r>    3.3206    1.0000 </r>
       <r>    4.4878    1.0000 </r>
       <r>    5.1493    0.9999 </r>
       <r>    7.9045    0.0000 </r>
       <r>    8.2492    0.0000 </r>
       <r>    8.5154    0.0000 </r>
       <r>   10.1462    0.0000 </r>
      </set>
      <set comment="kpoint 3">
       <r>   -5.3507    1.0000 </r>
       <r>    1.1536    1.0000 </r>
       <r>    4.0086    1.0000 </r>
       <r>    4.7004    1.0000 </r>
       <r>    7.4518    0.0000 </r>
       <r>    8.7404    0.0000 </r>
       <r>    9.0170    0.0000 </r>
       <r>   11.7498    0.0000 </r>
      </set>
      <set comment="kpoint 4">
       <r>   -4.4810    1.0000 </r>
       <r>   -0.6749    1.0000 </r>
       <r>    3.7937    1.0000 </r>
       <r>    4.3054    1.0000 </r>
       <r>    7.1388    0.0000 </r>
       <r>    8.8215    0.0000 </r>
       <r>    8.8351    0.0000 </r>
       <r>   13.0449    0.0000 </r>
      </set>
      <set comment="kpoint 5">
       <r>   -4.0537    1.0000 </r>
       <r>   -1.3479    1.0000 </r>
       <r>    3.8389    1.0000 </r>
       <r>    4.0949    1.0000 </r>
       <r>    7.0604    0.0000 </r>
       <r>    8.6377    0.0000 </r>
       <r>    8.9003    0.0000 </r>
       <r>   13.1435    0.0000 </r>
      </set>
      <set comment="kpoint 6">
       <r>   -4.7779    1.0000 </r>
       <r>   -0.1355    1.0000 </r>
       <r>    4.1167    1.0000 </r>
       <r>    4.1176    1.0000 </r>
       <r>    7.2284    0.0000 </r>
       <r>    8.6330    0.0000 </r>
       <r>    9.1411    0.0000 </r>
       <r>   12.1828    0.0000 </r>
      </set>
      <set comment="kpoint 7">
       <r>   -5.5961    1.0000 </r>
       <r>    1.8636    1.0000 </r>
       <r>    4.3882    1.0000 </r>
       <r>    4.5693    1.0000 </r>
       <r>    7.5924    0.0000 </r>
       <r>    8.4643    0.0000 </r>
       <r>    9.1739    0.0000 </r>
       <r>   10.9784    0.0000 </r>
      </set>
      <set comment="kpoint 8">
       <r>   -6.1065    1.0000 </r>
       <r>    4.0590    1.0000 </r>
       <r>    4.8563    1.0000 </r>
       <r>    5.0016    1.0000 </r>
       <r>    7.7283    0.0000 </r>
       <r>    8.2280    0.0000 </r>
       <r>    8.5693    0.0000 </r>
       <r>    9.3978    0.0000 </r>
      </set>
      <set comment="kpoint 9">
       <r>   -5.8463    1.0000 </r>
       <r>    3.1645    1.0000 </r>
       <r>    4.3175    1.0000 </r>
       <r>    4.3887    1.0000 </r>
       <r>    7.3225    0.0000 </r>
       <r>    8.9532    0.0000 </r>
       <r>    9.4024    0.0000 </r>
       <r>    9.8660    0.0000 </r>
      </set>
      <set comment="kpoint 10">
       <r>   -5.3380    1.0000 </r>
       <r>    1.6962    1.0000 </r>
       <r>    3.3762    1.0000 </r>
       <r>    4.1390    1.0000 </r>
       <r>    7.4852    0.0000 </r>
       <r>    9.0575    0.0000 </r>
       <r>    9.7937    0.0000 </r>
       <r>   10.1816    0.0000 </r>
      </set>
      <set comment="kpoint 11">
       <r>   -4.5215    1.0000 </r>
       <r>   -0.0996    1.0000 </r>
       <r>    2.8831    1.0000 </r>
       <r>    3.7454    1.0000 </r>
       <r>    7.6638    0.0000 </r>
       <r>    9.0415    0.0000 </r>
       <r>   10.2093    0.0000 </r>
       <r>   10.5118    0.0000 </r>
      </set>
      <set comment="kpoint 12">
       <r>   -3.7926    1.0000 </r>
       <r>   -1.2618    1.0000 </r>
       <r>    2.5988    1.0000 </r>
       <r>    3.6566    1.0000 </r>
       <r>    7.7165    0.0000 </r>
       <r>    8.7740    0.0000 </r>
       <r>   10.0726    0.0000 </r>
       <r>   12.4642    0.0000 </r>
      </set>
      <set comment="kpoint 13">
       <r>   -4.2298    1.0000 </r>
       <r>   -0.5999    1.0000 </r>
       <r>    2.5332    1.0000 </r>
       <r>    3.9301    1.0000 </r>
       <r>    7.9669    0.0000 </r>
       <r>    8.7077    0.0000 </r>
       <r>   10.0132    0.0000 </r>
       <r>   11.7385    0.0000 </r>
      </set>
      <set comment="kpoint 14">
       <r>   -5.0982    1.0000 </r>
       <r>    1.0673    1.0000 </r>
       <r>    2.8386    1.0000 </r>
       <r>    4.4189    1.0000 </r>
       <r>    8.2800    0.0000 </r>
       <r>    8.6014    0.0000 </r>
       <r>    9.8863    0.0000 </r>
       <r>   10.3806    0.0000 </r>
      </set>
      <set comment="kpoint 15">
       <r>   -5.7200    1.0000 </r>
       <r>    2.5142    1.0000 </r>
       <r>    3.9291    1.0000 </r>
       <r>    4.7788    1.0000 </r>
       <r>    7.8593    0.0000 </r>
       <r>    8.4488    0.0000 </r>
       <r>    9.2212    0.0000 </r>
       <r>   10.4027    0.0000 </r>
      </set>
      <set comment="kpoint 16">
       <r>   -4.9493    1.0000 </r>
       <r>    1.1840    1.0000 </r>
       <r>    3.2396    1.0000 </r>
       <r>    3.3574    1.0000 </r>
       <r>    6.5382    0.0000 </r>
       <r>    8.1741    0.0000 </r>
       <r>   11.2027    0.0000 </r>
       <r>   11.3567    0.0000 </r>
      </set>
      <set comment="kpoint 17">
       <r>   -4.2214    1.0000 </r>
       <r>   -0.0200    1.0000 </r>
       <r>    2.4806    1.0000 </r>
       <r>    3.0232    1.0000 </r>
       <r>    6.8468    0.0000 </r>
       <r>    8.0162    0.0000 </r>
       <r>   11.1681    0.0000 </r>
       <r>   12.3220    0.0000 </r>
      </set>
      <set comment="kpoint 18">
       <r>   -3.3574    1.0000 </r>
       <r>   -1.1741    1.0000 </r>
       <r>    1.6685    1.0000 </r>
       <r>    2.9922    1.0000 </r>
       <r>    7.0804    0.0000 </r>
       <r>    9.6349    0.0000 </r>
       <r>   10.7530    0.0000 </r>
       <r>   12.2350    0.0000 </r>
      </set>
      <set comment="kpoint 19">
       <r>   -3.4282    1.0000 </r>
       <r>   -1.0818    1.0000 </r>
       <r>    1.3309    1.0000 </r>
       <r>    3.3240    1.0000 </r>
       <r>    7.4661    0.0000 </r>
       <r>   10.3318    0.0000 </r>
       <r>   11.5813    0.0000 </r>
       <r>   11.9325    0.0000 </r>
      </set>
      <set comment="kpoint 20">
       <r>   -4.2917    1.0000 </r>
       <r>   -0.1488    1.0000 </r>
       <r>    1.9095    1.0000 </r>
       <r>    3.8880    1.0000 </r>
       <r>    8.0579    0.0000 </r>
       <r>    9.2523    0.0000 </r>
       <r>   10.6282    0.0000 </r>
       <r>   10.9324    0.0000 </r>
      </set>
      <set comment="kpoint 21">
       <r>   -4.9892    1.0000 </r>
       <r>    0.4946    1.0000 </r>
       <r>    3.4784    1.0000 </r>
       <r>    4.3220    1.0000 </r>
       <r>    7.7289    0.0000 </r>
       <r>    8.6392    0.0000 </r>
       <r>    9.4802    0.0000 </r>
       <r>   11.1394    0.0000 </r>
      </set>
      <set comment="kpoint 22">
       <r>   -3.5871    1.0000 </r>
       <r>   -0.8616    1.0000 </r>
       <r>    2.5742    1.0000 </r>
       <r>    2.7811    1.0000 </r>
       <r>    6.1626    0.0005 </r>
       <r>    6.8679    0.0000 </r>
       <r>   13.4397    0.0000 </r>
       <r>   13.4667    0.0000 </r>
      </set>
      <set comment="kpoint 23">
       <r>   -2.7071    1.0000 </r>
       <r>   -1.8230    1.0000 </r>
       <r>    2.0402    1.0000 </r>
       <r>    2.5485    1.0000 </r>
       <r>    6.5867    0.0000 </r>
       <r>    7.2955    0.0000 </r>
       <r>   13.2079    0.0000 </r>
       <r>   14.1704    0.0000 </r>
      </set>
      <set comment="kpoint 24">
       <r>   -2.8088    1.0000 </r>
       <r>   -1.6569    1.0000 </r>
       <r>    1.3406    1.0000 </r>
       <r>    2.8531    1.0000 </r>
       <r>    6.9391    0.0000 </r>
       <r>    9.4790    0.0000 </r>
       <r>   11.7212    0.0000 </r>
       <r>   12.8245    0.0000 </r>
      </set>
      <set comment="kpoint 25">
       <r>   -3.5440    1.0000 </r>
       <r>   -1.2319    1.0000 </r>
       <r>    1.8533    1.0000 </r>
       <r>    3.4336    1.0000 </r>
       <r>    7.5772    0.0000 </r>
       <r>    9.4933    0.0000 </r>
       <r>   10.9934    0.0000 </r>
       <r>   12.2214    0.0000 </r>
      </set>
      <set comment="kpoint 26">
       <r>   -4.1321    1.0000 </r>
       <r>   -1.0667    1.0000 </r>
       <r>    3.3022    1.0000 </r>
       <r>    3.9989    1.0000 </r>
       <r>    7.5203    0.0000 </r>
       <r>    8.5722    0.0000 </r>
       <r>    9.3163    0.0000 </r>
       <r>   12.7854    0.0000 </r>
      </set>
      <set comment="kpoint 27">
       <r>   -2.7549    1.0000 </r>
       <r>   -1.8387    1.0000 </r>
       <r>    2.4407    1.0000 </r>
       <r>    2.6633    1.0000 </r>
       <r>    6.1647    0.0004 </r>
       <r>    6.5164    0.0000 </r>
       <r>   14.4902    0.0000 </r>
       <r>   14.5440    0.0000 </r>
      </set>
      <set comment="kpoint 28">
       <r>   -3.5055    1.0000 </r>
       <r>   -0.9241    1.0000 </r>
       <r>    2.1910    1.0000 </r>
       <r>    2.7036    1.0000 </r>
       <r>    6.6678    0.0000 </r>
       <r>    7.5442    0.0000 </r>
       <r>   12.1620    0.0000 </r>
       <r>   13.4485    0.0000 </r>
      </set>
      <set comment="kpoint 29">
       <r>   -3.9655    1.0000 </r>
       <r>   -0.6452    1.0000 </r>
       <r>    2.2361    1.0000 </r>
       <r>    3.2825    1.0000 </r>
       <r>    7.3449    0.0000 </r>
       <r>    9.8140    0.0000 </r>
       <r>    9.9838    0.0000 </r>
       <r>   11.2038    0.0000 </r>
      </set>
      <set comment="kpoint 30">
       <r>   -4.3224    1.0000 </r>
       <r>    0.1551    1.0000 </r>
       <r>    2.8409    1.0000 </r>
       <r>    3.0143    1.0000 </r>
       <r>    6.2856    0.0000 </r>
       <r>    7.4333    0.0000 </r>
       <r>   12.3046    0.0000 </r>
       <r>   12.3981    0.0000 </r>
      </set>
      <set comment="kpoint 31">
       <r>   -4.8360    1.0000 </r>
       <r>    0.8562    1.0000 </r>
       <r>    2.8845    1.0000 </r>
       <r>    3.5133    1.0000 </r>
       <r>    7.1260    0.0000 </r>
       <r>    8.6670    0.0000 </r>
       <r>   10.2478    0.0000 </r>
       <r>   11.2221    0.0000 </r>
      </set>
      <set comment="kpoint 32">
       <r>   -5.4592    1.0000 </r>
       <r>    2.1966    1.0000 </r>
       <r>    3.7645    1.0000 </r>
       <r>    3.7995    1.0000 </r>
       <r>    6.8980    0.0000 </r>
       <r>    8.9781    0.0000 </r>
       <r>   10.1944    0.0000 </r>
       <r>   10.3515    0.0000 </r>
      </set>
      <set comment="kpoint 33">
       <r>   -5.8496    1.0000 </r>
       <r>    2.6189    1.0000 </r>
       <r>    4.8385    1.0000 </r>
       <r>    4.8385    1.0000 </r>
       <r>    7.4528    0.0000 </r>
       <r>    8.6113    0.0000 </r>
       <r>    8.6113    0.0000 </r>
       <r>   10.7733    0.0000 </r>
      </set>
      <set comment="kpoint 34">
       <r>   -5.4693    1.0000 </r>
       <r>    1.7837    1.0000 </r>
       <r>    3.3745    1.0000 </r>
       <r>    4.8522    1.0000 </r>
       <r>    8.1054    0.0000 </r>
       <r>    8.7339    0.0000 </r>
       <r>    9.0096    0.0000 </r>
       <r>   10.9269    0.0000 </r>
      </set>
      <set comment="kpoint 35">
       <r>   -4.7460    1.0000 </r>
       <r>    0.4417    1.0000 </r>
       <r>    2.3271    1.0000 </r>
       <r>    4.3638    1.0000 </r>
       <r>    7.9968    0.0000 </r>
       <r>    9.4742    0.0000 </r>
       <r>    9.6600    0.0000 </r>
       <r>   11.2123    0.0000 </r>
      </set>
      <set comment="kpoint 36">
       <r>   -3.8851    1.0000 </r>
       <r>   -0.9926    1.0000 </r>
       <r>    2.1679    1.0000 </r>
       <r>    3.8505    1.0000 </r>
       <r>    7.5325    0.0000 </r>
       <r>    9.6216    0.0000 </r>
       <r>    9.8729    0.0000 </r>
       <r>   13.0448    0.0000 </r>
      </set>
      <set comment="kpoint 37">
       <r>   -3.8696    1.0000 </r>
       <r>   -1.0203    1.0000 </r>
       <r>    2.4546    1.0000 </r>
       <r>    3.5437    1.0000 </r>
       <r>    7.2746    0.0000 </r>
       <r>    9.6817    0.0000 </r>
       <r>   10.2114    0.0000 </r>
       <r>   11.1599    0.0000 </r>
      </set>
      <set comment="kpoint 38">
       <r>   -4.7289    1.0000 </r>
       <r>    0.4385    1.0000 </r>
       <r>    3.0511    1.0000 </r>
       <r>    3.5224    1.0000 </r>
       <r>    7.2118    0.0000 </r>
       <r>    9.3407    0.0000 </r>
       <r>    9.9705    0.0000 </r>
       <r>   10.5615    0.0000 </r>
      </set>
      <set comment="kpoint 39">
       <r>   -5.2204    1.0000 </r>
       <r>    1.1387    1.0000 </r>
       <r>    3.8489    1.0000 </r>
       <r>    3.9283    1.0000 </r>
       <r>    7.5766    0.0000 </r>
       <r>    8.8747    0.0000 </r>
       <r>    9.8323    0.0000 </r>
       <r>   10.2272    0.0000 </r>
      </set>
      <set comment="kpoint 40">
       <r>   -4.6136    1.0000 </r>
       <r>    0.3695    1.0000 </r>
       <r>    2.3824    1.0000 </r>
       <r>    3.7371    1.0000 </r>
       <r>    8.0711    0.0000 </r>
       <r>    9.0559    0.0000 </r>
       <r>    9.5966    0.0000 </r>
       <r>   11.0501    0.0000 </r>
      </set>
      <set comment="kpoint 41">
       <r>   -3.7528    1.0000 </r>
       <r>   -0.7083    1.0000 </r>
       <r>    1.6211    1.0000 </r>
       <r>    3.1916    1.0000 </r>
       <r>    8.5149    0.0000 </r>
       <r>    8.9926    0.0000 </r>
       <r>   10.2409    0.0000 </r>
       <r>   12.1217    0.0000 </r>
      </set>
      <set comment="kpoint 42">
       <r>   -3.2848    1.0000 </r>
       <r>   -1.2976    1.0000 </r>
       <r>    1.6193    1.0000 </r>
       <r>    2.8912    1.0000 </r>
       <r>    8.0625    0.0000 </r>
       <r>    9.3127    0.0000 </r>
       <r>   11.0066    0.0000 </r>
       <r>   12.2399    0.0000 </r>
      </set>
      <set comment="kpoint 43">
       <r>   -4.0264    1.0000 </r>
       <r>   -0.3315    1.0000 </r>
       <r>    2.0323    1.0000 </r>
       <r>    3.0631    1.0000 </r>
       <r>    7.7984    0.0000 </r>
       <r>    8.9989    0.0000 </r>
       <r>    9.8098    0.0000 </r>
       <r>   12.2395    0.0000 </r>
      </set>
      <set comment="kpoint 44">
       <r>   -4.1320    1.0000 </r>
       <r>   -0.2710    1.0000 </r>
       <r>    2.3517    1.0000 </r>
       <r>    3.2014    1.0000 </r>
       <r>    6.8486    0.0000 </r>
       <r>    8.8344    0.0000 </r>
       <r>   10.9974    0.0000 </r>
       <r>   11.3669    0.0000 </r>
      </set>
      <set comment="kpoint 45">
       <r>   -3.3540    1.0000 </r>
       <r>   -1.0596    1.0000 </r>
       <r>    1.8005    1.0000 </r>
       <r>    2.5463    1.0000 </r>
       <r>    7.6032    0.0000 </r>
       <r>    8.5995    0.0000 </r>
       <r>   10.6860    0.0000 </r>
       <r>   13.4120    0.0000 </r>
      </set>
      <set comment="kpoint 46">
       <r>   -2.5747    1.0000 </r>
       <r>   -1.7965    1.0000 </r>
       <r>    1.4977    1.0000 </r>
       <r>    2.0642    1.0000 </r>
       <r>    8.7026    0.0000 </r>
       <r>    9.6238    0.0000 </r>
       <r>   10.2393    0.0000 </r>
       <r>   11.2346    0.0000 </r>
      </set>
      <set comment="kpoint 47">
       <r>   -3.1584    1.0000 </r>
       <r>   -1.2583    1.0000 </r>
       <r>    1.4859    1.0000 </r>
       <r>    2.5227    1.0000 </r>
       <r>    8.7986    0.0000 </r>
       <r>    9.2068    0.0000 </r>
       <r>    9.9381    0.0000 </r>
       <r>   12.3736    0.0000 </r>
      </set>
      <set comment="kpoint 48">
       <r>   -2.7306    1.0000 </r>
       <r>   -1.7720    1.0000 </r>
       <r>    1.5977    1.0000 </r>
       <r>    2.8689    1.0000 </r>
       <r>    6.4333    0.0000 </r>
       <r>    8.2857    0.0000 </r>
       <r>   13.1348    0.0000 </r>
       <r>   13.2993    0.0000 </r>
      </set>
      <set comment="kpoint 49">
       <r>   -2.6330    1.0000 </r>
       <r>   -1.8050    1.0000 </r>
       <r>    1.6883    1.0000 </r>
       <r>    2.2687    1.0000 </r>
       <r>    7.5034    0.0000 </r>
       <r>    8.3983    0.0000 </r>
       <r>   11.6693    0.0000 </r>
       <r>   12.7559    0.0000 </r>
      </set>
      <set comment="kpoint 50">
       <r>   -3.4480    1.0000 </r>
       <r>   -1.0196    1.0000 </r>
       <r>    1.8517    1.0000 </r>
       <r>    2.9809    1.0000 </r>
       <r>    6.5768    0.0000 </r>
       <r>    8.4676    0.0000 </r>
       <r>   12.1323    0.0000 </r>
       <r>   12.2501    0.0000 </r>
      </set>
      <set comment="kpoint 51">
       <r>   -5.1172    1.0000 </r>
       <r>    0.4719    1.0000 </r>
       <r>    4.4353    1.0000 </r>
       <r>    4.4353    1.0000 </r>
       <r>    6.9998    0.0000 </r>
       <r>    8.8567    0.0000 </r>
       <r>    8.8567    0.0000 </r>
       <r>   12.8085    0.0000 </r>
      </set>
      <set comment="kpoint 52">
       <r>   -4.6532    1.0000 </r>
       <r>   -0.0975    1.0000 </r>
       <r>    3.0081    1.0000 </r>
       <r>    4.3490    1.0000 </r>
       <r>    7.7322    0.0000 </r>
       <r>    9.0702    0.0000 </r>
       <r>    9.1225    0.0000 </r>
       <r>   12.2186    0.0000 </r>
      </set>
      <set comment="kpoint 53">
       <r>   -3.8871    1.0000 </r>
       <r>   -0.6394    1.0000 </r>
       <r>    1.5431    1.0000 </r>
       <r>    3.7888    1.0000 </r>
       <r>    7.4699    0.0000 </r>
       <r>   10.4732    0.0000 </r>
       <r>   10.6209    0.0000 </r>
       <r>   11.9603    0.0000 </r>
      </set>
      <set comment="kpoint 54">
       <r>   -3.0950    1.0000 </r>
       <r>   -1.4068    1.0000 </r>
       <r>    1.2225    1.0000 </r>
       <r>    3.2601    1.0000 </r>
       <r>    6.8830    0.0000 </r>
       <r>   10.6979    0.0000 </r>
       <r>   11.7133    0.0000 </r>
       <r>   11.9256    0.0000 </r>
      </set>
      <set comment="kpoint 55">
       <r>   -4.3504    1.0000 </r>
       <r>   -0.6373    1.0000 </r>
       <r>    3.3267    1.0000 </r>
       <r>    3.8061    1.0000 </r>
       <r>    7.4825    0.0000 </r>
       <r>    8.8276    0.0000 </r>
       <r>    9.5978    0.0000 </r>
       <r>   11.5865    0.0000 </r>
      </set>
      <set comment="kpoint 56">
       <r>   -3.7517    1.0000 </r>
       <r>   -1.0008    1.0000 </r>
       <r>    2.0658    1.0000 </r>
       <r>    3.3503    1.0000 </r>
       <r>    8.2553    0.0000 </r>
       <r>    8.6236    0.0000 </r>
       <r>   11.0665    0.0000 </r>
       <r>   11.3467    0.0000 </r>
      </set>
      <set comment="kpoint 57">
       <r>   -2.9603    1.0000 </r>
       <r>   -1.4754    1.0000 </r>
       <r>    1.3118    1.0000 </r>
       <r>    2.6628    1.0000 </r>
       <r>    7.9399    0.0000 </r>
       <r>   10.1422    0.0000 </r>
       <r>   10.8940    0.0000 </r>
       <r>   11.3996    0.0000 </r>
      </set>
      <set comment="kpoint 58">
       <r>   -3.4062    1.0000 </r>
       <r>   -1.2779    1.0000 </r>
       <r>    1.6928    1.0000 </r>
       <r>    3.3568    1.0000 </r>
       <r>    7.0246    0.0000 </r>
       <r>   10.6552    0.0000 </r>
       <r>   10.9536    0.0000 </r>
       <r>   10.9759    0.0000 </r>
      </set>
      <set comment="kpoint 59">
       <r>   -4.2617    1.0000 </r>
       <r>   -1.1207    1.0000 </r>
       <r>    4.2188    1.0000 </r>
       <r>    4.2188    1.0000 </r>
       <r>    6.7479    0.0000 </r>
       <r>    8.7352    0.0000 </r>
       <r>    8.7352    0.0000 </r>
       <r>   13.0465    0.0000 </r>
      </set>
      <set comment="kpoint 60">
       <r>   -3.9240    1.0000 </r>
       <r>   -1.2952    1.0000 </r>
       <r>    3.0213    1.0000 </r>
       <r>    3.9609    1.0000 </r>
       <r>    7.4957    0.0000 </r>
       <r>    8.8384    0.0000 </r>
       <r>    9.2975    0.0000 </r>
       <r>   13.3783    0.0000 </r>
      </set>
     </set>
    </set>
   </array>
  </eigenvalues>
  <separator name="orbital magnetization" >
   <v name="MAGDIPOLOUT">      0.00000000      0.00000000      0.00000000</v>
  </separator>
  <dos>
   <i name="efermi">      5.69340265 </i>
   <total>
    <array>
     <dimension dim="1">gridpoints</dimension>
     <dimension dim="2">spin</dimension>
     <field>energy</field>
     <field>total</field>
     <field>integrated</field>
     <set>
      <set comment="spin 1">
       <r>    -8.2372     0.0000     0.0000 </r>
       <r>    -8.1546     0.0000     0.0000 </r>
       <r>    -8.0720     0.0000     0.0000 </r>
       <r>    -7.9894     0.0000     0.0000 </r>
       <r>    -7.9068     0.0000     0.0000 </r>
       <r>    -7.8242     0.0000     0.0000 </r>
       <r>    -7.7415     0.0000     0.0000 </r>
       <r>    -7.6589     0.0000     0.0000 </r>
       <r>    -7.5763     0.0000     0.0000 </r>
       <r>    -7.4937     0.0000     0.0000 </r>
       <r>    -7.4111     0.0000     0.0000 </r>
       <r>    -7.3285     0.0000     0.0000 </r>
       <r>    -7.2459     0.0000     0.0000 </r>
       <r>    -7.1633     0.0000     0.0000 </r>
       <r>    -7.0807     0.0000     0.0000 </r>
       <r>    -6.9981     0.0000     0.0000 </r>
       <r>    -6.9155     0.0000     0.0000 </r>
       <r>    -6.8329     0.0000     0.0000 </r>
       <r>    -6.7503     0.0000     0.0000 </r>
       <r>    -6.6677     0.0001     0.0000 </r>
       <r>    -6.5851     0.0006     0.0001 </r>
       <r>    -6.5025     0.0029     0.0003 </r>
       <r>    -6.4199     0.0097     0.0011 </r>
       <r>    -6.3373     0.0255     0.0032 </r>
       <r>    -6.2547     0.0534     0.0076 </r>
       <r>    -6.1721     0.0913     0.0152 </r>
       <r>    -6.0895     0.1320     0.0261 </r>
       <r>    -6.0069     0.1694     0.0401 </r>
       <r>    -5.9243     0.2034     0.0569 </r>
       <r>    -5.8417     0.2364     0.0764 </r>
       <r>    -5.7591     0.2645     0.0982 </r>
       <r>    -5.6765     0.2821     0.1215 </r>
       <r>    -5.5938     0.2952     0.1459 </r>
       <r>    -5.5112     0.3199     0.1723 </r>
       <r>    -5.4286     0.3579     0.2019 </r>
       <r>    -5.3460     0.3882     0.2340 </r>
       <r>    -5.2634     0.3951     0.2666 </r>
       <r>    -5.1808     0.3932     0.2991 </r>
       <r>    -5.0982     0.4067     0.3327 </r>
       <r>    -5.0156     0.4374     0.3688 </r>
       <r>    -4.9330     0.4723     0.4078 </r>
       <r>    -4.8504     0.5061     0.4497 </r>
       <r>    -4.7678     0.5377     0.4941 </r>
       <r>    -4.6852     0.5578     0.5401 </r>
       <r>    -4.6026     0.5573     0.5862 </r>
       <r>    -4.5200     0.5452     0.6312 </r>
       <r>    -4.4374     0.5542     0.6770 </r>
       <r>    -4.3548     0.6172     0.7280 </r>
       <r>    -4.2722     0.7217     0.7876 </r>
       <r>    -4.1896     0.8102     0.8545 </r>
       <r>    -4.1070     0.8464     0.9244 </r>
       <r>    -4.0244     0.8498     0.9946 </r>
       <r>    -3.9418     0.8512     1.0649 </r>
       <r>    -3.8592     0.8469     1.1349 </r>
       <r>    -3.7766     0.8119     1.2019 </r>
       <r>    -3.6940     0.7505     1.2639 </r>
       <r>    -3.6114     0.7170     1.3232 </r>
       <r>    -3.5288     0.7574     1.3857 </r>
       <r>    -3.4461     0.8363     1.4548 </r>
       <r>    -3.3635     0.8618     1.5260 </r>
       <r>    -3.2809     0.7831     1.5907 </r>
       <r>    -3.1983     0.6358     1.6432 </r>
       <r>    -3.1157     0.4939     1.6840 </r>
       <r>    -3.0331     0.4060     1.7175 </r>
       <r>    -2.9505     0.3862     1.7494 </r>
       <r>    -2.8679     0.4320     1.7851 </r>
       <r>    -2.7853     0.5173     1.8279 </r>
       <r>    -2.7027     0.5826     1.8760 </r>
       <r>    -2.6201     0.5639     1.9226 </r>
       <r>    -2.5375     0.4470     1.9595 </r>
       <r>    -2.4549     0.2820     1.9828 </r>
       <r>    -2.3723     0.1385     1.9942 </r>
       <r>    -2.2897     0.0526     1.9986 </r>
       <r>    -2.2071     0.0196     2.0002 </r>
       <r>    -2.1245     0.0274     2.0024 </r>
       <r>    -2.0419     0.0862     2.0096 </r>
       <r>    -1.9593     0.2198     2.0277 </r>
       <r>    -1.8767     0.4124     2.0618 </r>
       <r>    -1.7941     0.5743     2.1092 </r>
       <r>    -1.7115     0.6128     2.1599 </r>
       <r>    -1.6289     0.5427     2.2047 </r>
       <r>    -1.5463     0.4800     2.2443 </r>
       <r>    -1.4637     0.5309     2.2882 </r>
       <r>    -1.3811     0.7128     2.3471 </r>
       <r>    -1.2985     0.9538     2.4259 </r>
       <r>    -1.2158     1.1493     2.5208 </r>
       <r>    -1.1332     1.2384     2.6231 </r>
       <r>    -1.0506     1.2146     2.7234 </r>
       <r>    -0.9680     1.0838     2.8129 </r>
       <r>    -0.8854     0.8877     2.8863 </r>
       <r>    -0.8028     0.7273     2.9463 </r>
       <r>    -0.7202     0.6704     3.0017 </r>
       <r>    -0.6376     0.6591     3.0562 </r>
       <r>    -0.5550     0.5897     3.1049 </r>
       <r>    -0.4724     0.4614     3.1430 </r>
       <r>    -0.3898     0.3702     3.1736 </r>
       <r>    -0.3072     0.3805     3.2050 </r>
       <r>    -0.2246     0.4686     3.2437 </r>
       <r>    -0.1420     0.5595     3.2899 </r>
       <r>    -0.0594     0.5759     3.3375 </r>
       <r>     0.0232     0.4916     3.3781 </r>
       <r>     0.1058     0.3598     3.4078 </r>
       <r>     0.1884     0.2664     3.4299 </r>
       <r>     0.2710     0.2610     3.4514 </r>
       <r>     0.3536     0.3272     3.4784 </r>
       <r>     0.4362     0.3932     3.5109 </r>
       <r>     0.5188     0.3850     3.5427 </r>
       <r>     0.6014     0.2982     3.5674 </r>
       <r>     0.6840     0.2017     3.5840 </r>
       <r>     0.7666     0.1604     3.5973 </r>
       <r>     0.8492     0.1799     3.6121 </r>
       <r>     0.9319     0.2352     3.6315 </r>
       <r>     1.0145     0.3180     3.6578 </r>
       <r>     1.0971     0.4316     3.6935 </r>
       <r>     1.1797     0.5604     3.7398 </r>
       <r>     1.2623     0.6757     3.7956 </r>
       <r>     1.3449     0.7633     3.8586 </r>
       <r>     1.4275     0.8430     3.9283 </r>
       <r>     1.5101     0.9547     4.0071 </r>
       <r>     1.5927     1.1006     4.0980 </r>
       <r>     1.6753     1.2170     4.1986 </r>
       <r>     1.7579     1.2382     4.3008 </r>
       <r>     1.8405     1.1743     4.3978 </r>
       <r>     1.9231     1.0954     4.4883 </r>
       <r>     2.0057     1.0578     4.5757 </r>
       <r>     2.0883     1.0609     4.6633 </r>
       <r>     2.1709     1.0714     4.7518 </r>
       <r>     2.2535     1.0832     4.8413 </r>
       <r>     2.3361     1.1372     4.9353 </r>
       <r>     2.4187     1.2720     5.0403 </r>
       <r>     2.5013     1.4422     5.1595 </r>
       <r>     2.5839     1.5294     5.2858 </r>
       <r>     2.6665     1.4864     5.4086 </r>
       <r>     2.7491     1.4149     5.5255 </r>
       <r>     2.8317     1.4271     5.6433 </r>
       <r>     2.9143     1.4935     5.7667 </r>
       <r>     2.9969     1.5062     5.8911 </r>
       <r>     3.0796     1.4453     6.0105 </r>
       <r>     3.1622     1.4107     6.1270 </r>
       <r>     3.2448     1.4823     6.2495 </r>
       <r>     3.3274     1.5890     6.3807 </r>
       <r>     3.4100     1.5753     6.5109 </r>
       <r>     3.4926     1.3957     6.6262 </r>
       <r>     3.5752     1.1765     6.7233 </r>
       <r>     3.6578     1.0851     6.8130 </r>
       <r>     3.7404     1.1717     6.9098 </r>
       <r>     3.8230     1.3339     7.0199 </r>
       <r>     3.9056     1.4213     7.1373 </r>
       <r>     3.9882     1.3620     7.2499 </r>
       <r>     4.0708     1.1955     7.3486 </r>
       <r>     4.1534     1.0200     7.4329 </r>
       <r>     4.2360     0.9190     7.5088 </r>
       <r>     4.3186     0.8967     7.5828 </r>
       <r>     4.4012     0.8687     7.6546 </r>
       <r>     4.4838     0.7557     7.7170 </r>
       <r>     4.5664     0.5854     7.7654 </r>
       <r>     4.6490     0.4573     7.8032 </r>
       <r>     4.7316     0.4205     7.8379 </r>
       <r>     4.8142     0.4282     7.8733 </r>
       <r>     4.8968     0.4055     7.9068 </r>
       <r>     4.9794     0.3332     7.9343 </r>
       <r>     5.0620     0.2490     7.9549 </r>
       <r>     5.1446     0.1864     7.9703 </r>
       <r>     5.2272     0.1434     7.9821 </r>
       <r>     5.3099     0.1042     7.9907 </r>
       <r>     5.3925     0.0645     7.9960 </r>
       <r>     5.4751     0.0318     7.9987 </r>
       <r>     5.5577     0.0121     7.9996 </r>
       <r>     5.6403     0.0035     7.9999 </r>
       <r>     5.7229     0.0012     8.0000 </r>
       <r>     5.8055     0.0029     8.0003 </r>
       <r>     5.8881     0.0120     8.0013 </r>
       <r>     5.9707     0.0375     8.0044 </r>
       <r>     6.0533     0.0863     8.0115 </r>
       <r>     6.1359     0.1490     8.0238 </r>
       <r>     6.2185     0.2027     8.0405 </r>
       <r>     6.3011     0.2405     8.0604 </r>
       <r>     6.3837     0.2892     8.0843 </r>
       <r>     6.4663     0.3747     8.1152 </r>
       <r>     6.5489     0.4780     8.1547 </r>
       <r>     6.6315     0.5546     8.2005 </r>
       <r>     6.7141     0.6001     8.2501 </r>
       <r>     6.7967     0.6565     8.3043 </r>
       <r>     6.8793     0.7398     8.3654 </r>
       <r>     6.9619     0.8154     8.4328 </r>
       <r>     7.0445     0.8574     8.5036 </r>
       <r>     7.1271     0.8824     8.5765 </r>
       <r>     7.2097     0.9301     8.6533 </r>
       <r>     7.2923     1.0502     8.7401 </r>
       <r>     7.3749     1.2764     8.8455 </r>
       <r>     7.4576     1.5622     8.9746 </r>
       <r>     7.5402     1.7651     9.1204 </r>
       <r>     7.6228     1.7649     9.2662 </r>
       <r>     7.7054     1.5927     9.3977 </r>
       <r>     7.7880     1.3920     9.5127 </r>
       <r>     7.8706     1.2814     9.6186 </r>
       <r>     7.9532     1.2746     9.7238 </r>
       <r>     8.0358     1.2901     9.8304 </r>
       <r>     8.1184     1.2444     9.9332 </r>
       <r>     8.2010     1.1440    10.0277 </r>
       <r>     8.2836     1.0682    10.1159 </r>
       <r>     8.3662     1.0965    10.2065 </r>
       <r>     8.4488     1.2752    10.3118 </r>
       <r>     8.5314     1.5818    10.4425 </r>
       <r>     8.6140     1.8943    10.5990 </r>
       <r>     8.6966     2.0603    10.7692 </r>
       <r>     8.7792     2.0297    10.9368 </r>
       <r>     8.8618     1.8912    11.0931 </r>
       <r>     8.9444     1.7669    11.2390 </r>
       <r>     9.0270     1.6912    11.3787 </r>
       <r>     9.1096     1.6169    11.5123 </r>
       <r>     9.1922     1.5179    11.6377 </r>
       <r>     9.2748     1.4198    11.7549 </r>
       <r>     9.3574     1.3488    11.8664 </r>
       <r>     9.4400     1.3117    11.9747 </r>
       <r>     9.5226     1.3019    12.0822 </r>
       <r>     9.6053     1.2972    12.1894 </r>
       <r>     9.6879     1.2851    12.2956 </r>
       <r>     9.7705     1.2836    12.4016 </r>
       <r>     9.8531     1.3032    12.5092 </r>
       <r>     9.9357     1.3225    12.6185 </r>
       <r>    10.0183     1.3427    12.7294 </r>
       <r>    10.1009     1.4041    12.8454 </r>
       <r>    10.1835     1.4971    12.9690 </r>
       <r>    10.2661     1.5228    13.0948 </r>
       <r>    10.3487     1.4068    13.2110 </r>
       <r>    10.4313     1.2018    13.3103 </r>
       <r>    10.5139     1.0248    13.3950 </r>
       <r>    10.5965     0.9350    13.4722 </r>
       <r>    10.6791     0.9087    13.5473 </r>
       <r>    10.7617     0.9205    13.6233 </r>
       <r>    10.8443     1.0040    13.7062 </r>
       <r>    10.9269     1.1853    13.8041 </r>
       <r>    11.0095     1.3954    13.9194 </r>
       <r>    11.0921     1.5235    14.0453 </r>
       <r>    11.1747     1.5158    14.1705 </r>
       <r>    11.2573     1.3770    14.2842 </r>
       <r>    11.3399     1.1449    14.3788 </r>
       <r>    11.4225     0.8968    14.4529 </r>
       <r>    11.5051     0.7286    14.5130 </r>
       <r>    11.5877     0.6892    14.5700 </r>
       <r>    11.6703     0.7304    14.6303 </r>
       <r>    11.7529     0.7486    14.6921 </r>
       <r>    11.8356     0.6987    14.7499 </r>
       <r>    11.9182     0.6409    14.8028 </r>
       <r>    12.0008     0.6744    14.8585 </r>
       <r>    12.0834     0.8522    14.9289 </r>
       <r>    12.1660     1.1183    15.0213 </r>
       <r>    12.2486     1.3066    15.1292 </r>
       <r>    12.3312     1.2691    15.2340 </r>
       <r>    12.4138     1.0162    15.3180 </r>
       <r>    12.4964     0.6938    15.3753 </r>
       <r>    12.5790     0.4545    15.4128 </r>
       <r>    12.6616     0.3710    15.4435 </r>
       <r>    12.7442     0.4077    15.4772 </r>
       <r>    12.8268     0.4585    15.5150 </r>
       <r>    12.9094     0.4560    15.5527 </r>
       <r>    12.9920     0.4305    15.5883 </r>
       <r>    13.0746     0.4372    15.6244 </r>
       <r>    13.1572     0.4767    15.6638 </r>
       <r>    13.2398     0.5231    15.7070 </r>
       <r>    13.3224     0.5671    15.7538 </r>
       <r>    13.4050     0.5872    15.8023 </r>
       <r>    13.4876     0.5325    15.8463 </r>
       <r>    13.5702     0.3880    15.8784 </r>
       <r>    13.6528     0.2155    15.8962 </r>
       <r>    13.7354     0.0892    15.9035 </r>
       <r>    13.8180     0.0298    15.9060 </r>
       <r>    13.9006     0.0183    15.9075 </r>
       <r>    13.9833     0.0377    15.9106 </r>
       <r>    14.0659     0.0783    15.9171 </r>
       <r>    14.1485     0.1208    15.9270 </r>
       <r>    14.2311     0.1395    15.9386 </r>
       <r>    14.3137     0.1327    15.9495 </r>
       <r>    14.3963     0.1261    15.9599 </r>
       <r>    14.4789     0.1334    15.9710 </r>
       <r>    14.5615     0.1347    15.9821 </r>
       <r>    14.6441     0.1092    15.9911 </r>
       <r>    14.7267     0.0661    15.9966 </r>
       <r>    14.8093     0.0293    15.9990 </r>
       <r>    14.8919     0.0094    15.9998 </r>
       <r>    14.9745     0.0022    16.0000 </r>
       <r>    15.0571     0.0004    16.0000 </r>
       <r>    15.1397     0.0000    16.0000 </r>
       <r>    15.2223     0.0000    16.0000 </r>
       <r>    15.3049     0.0000    16.0000 </r>
       <r>    15.3875     0.0000    16.0000 </r>
       <r>    15.4701     0.0000    16.0000 </r>
       <r>    15.5527     0.0000    16.0000 </r>
       <r>    15.6353     0.0000    16.0000 </r>
       <r>    15.7179     0.0000    16.0000 </r>
       <r>    15.8005     0.0000    16.0000 </r>
       <r>    15.8831     0.0000    16.0000 </r>
       <r>    15.9657     0.0000    16.0000 </r>
       <r>    16.0483     0.0000    16.0000 </r>
       <r>    16.1310     0.0000    16.0000 </r>
       <r>    16.2136     0.0000    16.0000 </r>
       <r>    16.2962     0.0000    16.0000 </r>
       <r>    16.3788     0.0000    16.0000 </r>
       <r>    16.4614     0.0000    16.0000 </r>
       <r>    16.5440     0.0000    16.0000 </r>
      </set>
     </set>
    </array>
   </total>
  </dos>
 </calculation>
 <structure name="finalpos" >
  <crystal>
   <varray name="basis" >
    <v>       0.00000000       2.75952000       2.75952000 </v>
    <v>       2.75952000       0.00000000       2.75952000 </v>
    <v>       2.75952000       2.75952000       0.00000000 </v>
   </varray>
   <i name="volume">     42.02721713 </i>
   <varray name="rec_basis" >
    <v>      -0.18119093       0.18119093       0.18119093 </v>
    <v>       0.18119093      -0.18119093       0.18119093 </v>
    <v>       0.18119093       0.18119093      -0.18119093 </v>
   </varray>
  </crystal>
  <varray name="positions" >
   <v>       0.50000000       0.50000000       0.50000000 </v>
   <v>       0.75000000       0.75000000       0.75000000 </v>
  </varray>
 </structure>
</modeling>
