   2   2   0   0
  0.2001288E+02  0.3839590E-09  0.3839590E-09  0.3839590E-09  0.5000000E-15
  1.000000000000000E-004
  CAR 
 unknown system                          
     15.81184216     -8.04430446  301      6.29232474      1.00000000
     -8.044  0.0000E+00  0.0000E+00
     -7.965  0.0000E+00  0.0000E+00
     -7.885  0.0000E+00  0.0000E+00
     -7.806  0.0000E+00  0.0000E+00
     -7.726  0.0000E+00  0.0000E+00
     -7.647  0.0000E+00  0.0000E+00
     -7.567  0.0000E+00  0.0000E+00
     -7.488  0.0000E+00  0.0000E+00
     -7.408  0.0000E+00  0.0000E+00
     -7.329  0.0000E+00  0.0000E+00
     -7.249  0.0000E+00  0.0000E+00
     -7.170  0.5516E-16  0.4386E-17
     -7.090  0.4350E-14  0.3503E-15
     -7.011  0.2551E-12  0.2063E-13
     -6.931  0.1095E-10  0.8914E-12
     -6.851  0.3443E-09  0.2827E-10
     -6.772  0.7933E-08  0.6591E-09
     -6.692  0.1339E-06  0.1131E-07
     -6.613  0.1658E-05  0.1432E-06
     -6.533  0.1506E-04  0.1341E-05
     -6.454  0.1004E-03  0.9325E-05
     -6.374  0.4913E-03  0.4839E-04
     -6.295  0.1765E-02  0.1888E-03
     -6.215  0.4660E-02  0.5593E-03
     -6.136  0.9038E-02  0.1278E-02
     -6.056  0.1288E-01  0.2302E-02
     -5.977  0.1349E-01  0.3375E-02
     -5.897  0.1039E-01  0.4201E-02
     -5.818  0.5878E-02  0.4669E-02
     -5.738  0.2444E-02  0.4863E-02
     -5.659  0.7463E-03  0.4922E-02
     -5.579  0.1674E-03  0.4936E-02
     -5.500  0.2757E-04  0.4938E-02
     -5.420  0.3354E-05  0.4938E-02
     -5.341  0.6946E-06  0.4938E-02
     -5.261  0.5547E-05  0.4939E-02
     -5.182  0.5617E-04  0.4943E-02
     -5.102  0.4188E-03  0.4977E-02
     -5.023  0.2292E-02  0.5159E-02
     -4.943  0.9209E-02  0.5891E-02
     -4.863  0.2718E-01  0.8052E-02
     -4.784  0.5894E-01  0.1274E-01
     -4.704  0.9393E-01  0.2021E-01
     -4.625  0.1101E+00  0.2896E-01
     -4.545  0.9527E-01  0.3654E-01
     -4.466  0.6282E-01  0.4153E-01
     -4.386  0.3839E-01  0.4459E-01
     -4.307  0.3739E-01  0.4756E-01
     -4.227  0.5651E-01  0.5205E-01
     -4.148  0.7767E-01  0.5823E-01
     -4.068  0.8105E-01  0.6467E-01
     -3.989  0.6243E-01  0.6964E-01
     -3.909  0.3536E-01  0.7245E-01
     -3.830  0.1472E-01  0.7362E-01
     -3.750  0.4499E-02  0.7398E-01
     -3.671  0.1010E-02  0.7406E-01
     -3.591  0.1666E-03  0.7407E-01
     -3.512  0.2021E-04  0.7407E-01
     -3.432  0.2760E-05  0.7407E-01
     -3.353  0.1285E-04  0.7408E-01
     -3.273  0.1225E-03  0.7408E-01
     -3.194  0.8651E-03  0.7415E-01
     -3.114  0.4485E-02  0.7451E-01
     -3.035  0.1707E-01  0.7587E-01
     -2.955  0.4774E-01  0.7966E-01
     -2.875  0.9809E-01  0.8746E-01
     -2.796  0.1481E+00  0.9924E-01
     -2.716  0.1643E+00  0.1123E+00
     -2.637  0.1340E+00  0.1230E+00
     -2.557  0.8032E-01  0.1294E+00
     -2.478  0.3537E-01  0.1322E+00
     -2.398  0.1144E-01  0.1331E+00
     -2.319  0.2720E-02  0.1333E+00
     -2.239  0.4746E-03  0.1333E+00
     -2.160  0.6078E-04  0.1333E+00
     -2.080  0.5711E-05  0.1333E+00
     -2.001  0.3936E-06  0.1333E+00
     -1.921  0.1989E-07  0.1333E+00
     -1.842  0.7368E-09  0.1333E+00
     -1.762  0.4636E-10  0.1333E+00
     -1.683  0.9512E-09  0.1333E+00
     -1.603  0.2509E-07  0.1333E+00
     -1.524  0.4853E-06  0.1333E+00
     -1.444  0.6882E-05  0.1333E+00
     -1.365  0.7157E-04  0.1333E+00
     -1.285  0.5461E-03  0.1334E+00
     -1.206  0.3059E-02  0.1336E+00
     -1.126  0.1258E-01  0.1346E+00
     -1.047  0.3800E-01  0.1376E+00
     -0.967  0.8432E-01  0.1444E+00
     -0.887  0.1375E+00  0.1553E+00
     -0.808  0.1648E+00  0.1684E+00
     -0.728  0.1452E+00  0.1799E+00
     -0.649  0.9397E-01  0.1874E+00
     -0.569  0.4470E-01  0.1910E+00
     -0.490  0.1562E-01  0.1922E+00
     -0.410  0.4011E-02  0.1925E+00
     -0.331  0.7562E-03  0.1926E+00
     -0.251  0.1046E-03  0.1926E+00
     -0.172  0.1064E-04  0.1926E+00
     -0.092  0.1130E-05  0.1926E+00
     -0.013  0.4818E-05  0.1926E+00
      0.067  0.4941E-04  0.1926E+00
      0.146  0.3752E-03  0.1926E+00
      0.226  0.2091E-02  0.1928E+00
      0.305  0.8558E-02  0.1935E+00
      0.385  0.2574E-01  0.1955E+00
      0.464  0.5696E-01  0.2000E+00
      0.544  0.9318E-01  0.2075E+00
      0.623  0.1145E+00  0.2166E+00
      0.703  0.1112E+00  0.2254E+00
      0.782  0.9766E-01  0.2332E+00
      0.862  0.9205E-01  0.2405E+00
      0.942  0.9132E-01  0.2478E+00
      1.021  0.7995E-01  0.2541E+00
      1.101  0.5601E-01  0.2586E+00
      1.180  0.3538E-01  0.2614E+00
      1.260  0.3642E-01  0.2643E+00
      1.339  0.6764E-01  0.2697E+00
      1.419  0.1192E+00  0.2791E+00
      1.498  0.1597E+00  0.2918E+00
      1.578  0.1579E+00  0.3044E+00
      1.657  0.1148E+00  0.3135E+00
      1.737  0.6132E-01  0.3184E+00
      1.816  0.2407E-01  0.3203E+00
      1.896  0.6942E-02  0.3209E+00
      1.975  0.1470E-02  0.3210E+00
      2.055  0.2286E-03  0.3210E+00
      2.134  0.2609E-04  0.3210E+00
      2.214  0.2184E-05  0.3210E+00
      2.293  0.1340E-06  0.3210E+00
      2.373  0.6031E-08  0.3210E+00
      2.452  0.1988E-09  0.3210E+00
      2.532  0.6820E-11  0.3210E+00
      2.611  0.8971E-10  0.3210E+00
      2.691  0.2912E-08  0.3210E+00
      2.770  0.6934E-07  0.3210E+00
      2.850  0.1210E-05  0.3210E+00
      2.930  0.1548E-04  0.3210E+00
      3.009  0.1453E-03  0.3210E+00
      3.089  0.1001E-02  0.3211E+00
      3.168  0.5059E-02  0.3215E+00
      3.248  0.1880E-01  0.3230E+00
      3.327  0.5139E-01  0.3271E+00
      3.407  0.1038E+00  0.3353E+00
      3.486  0.1570E+00  0.3478E+00
      3.566  0.1847E+00  0.3625E+00
      3.645  0.1860E+00  0.3773E+00
      3.725  0.1845E+00  0.3920E+00
      3.804  0.1872E+00  0.4068E+00
      3.884  0.1722E+00  0.4205E+00
      3.963  0.1270E+00  0.4306E+00
      4.043  0.7089E-01  0.4363E+00
      4.122  0.2935E-01  0.4386E+00
      4.202  0.8950E-02  0.4393E+00
      4.281  0.2008E-02  0.4395E+00
      4.361  0.3490E-03  0.4395E+00
      4.440  0.2173E-03  0.4395E+00
      4.520  0.1241E-02  0.4396E+00
      4.599  0.6340E-02  0.4401E+00
      4.679  0.2384E-01  0.4420E+00
      4.758  0.6587E-01  0.4473E+00
      4.838  0.1337E+00  0.4579E+00
      4.918  0.1994E+00  0.4737E+00
      4.997  0.2186E+00  0.4911E+00
      5.077  0.1761E+00  0.5051E+00
      5.156  0.1043E+00  0.5134E+00
      5.236  0.4538E-01  0.5170E+00
      5.315  0.1451E-01  0.5182E+00
      5.395  0.3411E-02  0.5185E+00
      5.474  0.6344E-03  0.5185E+00
      5.554  0.3876E-03  0.5185E+00
      5.633  0.1530E-02  0.5187E+00
      5.713  0.5434E-02  0.5191E+00
      5.792  0.1424E-01  0.5202E+00
      5.872  0.2743E-01  0.5224E+00
      5.951  0.3882E-01  0.5255E+00
      6.031  0.4038E-01  0.5287E+00
      6.110  0.3089E-01  0.5312E+00
      6.190  0.1750E-01  0.5326E+00
      6.269  0.8097E-02  0.5332E+00
      6.349  0.6405E-02  0.5337E+00
      6.428  0.1452E-01  0.5349E+00
      6.508  0.3429E-01  0.5376E+00
      6.587  0.6125E-01  0.5425E+00
      6.667  0.8058E-01  0.5489E+00
      6.747  0.7792E-01  0.5551E+00
      6.826  0.5537E-01  0.5595E+00
      6.906  0.2893E-01  0.5618E+00
      6.985  0.1118E-01  0.5627E+00
      7.065  0.3753E-02  0.5630E+00
      7.144  0.4077E-02  0.5633E+00
      7.224  0.1396E-01  0.5644E+00
      7.303  0.4144E-01  0.5677E+00
      7.383  0.9217E-01  0.5750E+00
      7.462  0.1551E+00  0.5874E+00
      7.542  0.2034E+00  0.6035E+00
      7.621  0.2190E+00  0.6209E+00
      7.701  0.2074E+00  0.6374E+00
      7.780  0.1843E+00  0.6521E+00
      7.860  0.1588E+00  0.6647E+00
      7.939  0.1311E+00  0.6751E+00
      8.019  0.9791E-01  0.6829E+00
      8.098  0.6153E-01  0.6878E+00
      8.178  0.3208E-01  0.6904E+00
      8.257  0.1815E-01  0.6918E+00
      8.337  0.2013E-01  0.6934E+00
      8.416  0.3118E-01  0.6959E+00
      8.496  0.4036E-01  0.6991E+00
      8.575  0.3901E-01  0.7022E+00
      8.655  0.2777E-01  0.7044E+00
      8.735  0.1453E-01  0.7056E+00
      8.814  0.5598E-02  0.7060E+00
      8.894  0.1683E-02  0.7062E+00
      8.973  0.1013E-02  0.7062E+00
      9.053  0.3529E-02  0.7065E+00
      9.132  0.1374E-01  0.7076E+00
      9.212  0.4181E-01  0.7109E+00
      9.291  0.9710E-01  0.7187E+00
      9.371  0.1703E+00  0.7322E+00
      9.450  0.2235E+00  0.7500E+00
      9.530  0.2181E+00  0.7673E+00
      9.609  0.1577E+00  0.7798E+00
      9.689  0.8417E-01  0.7865E+00
      9.768  0.3311E-01  0.7892E+00
      9.848  0.9585E-02  0.7899E+00
      9.927  0.2040E-02  0.7901E+00
     10.007  0.3190E-03  0.7901E+00
     10.086  0.3662E-04  0.7901E+00
     10.166  0.3085E-05  0.7901E+00
     10.245  0.1906E-06  0.7901E+00
     10.325  0.8634E-08  0.7901E+00
     10.404  0.2865E-09  0.7901E+00
     10.484  0.6965E-11  0.7901E+00
     10.563  0.1239E-12  0.7901E+00
     10.643  0.1820E-14  0.7901E+00
     10.723  0.1390E-13  0.7901E+00
     10.802  0.8988E-12  0.7901E+00
     10.882  0.4249E-10  0.7901E+00
     10.961  0.1471E-08  0.7901E+00
     11.041  0.3731E-07  0.7901E+00
     11.120  0.6935E-06  0.7901E+00
     11.200  0.9450E-05  0.7901E+00
     11.279  0.9446E-04  0.7901E+00
     11.359  0.6928E-03  0.7902E+00
     11.438  0.3730E-02  0.7905E+00
     11.518  0.1474E-01  0.7917E+00
     11.597  0.4281E-01  0.7951E+00
     11.677  0.9133E-01  0.8023E+00
     11.756  0.1432E+00  0.8137E+00
     11.836  0.1650E+00  0.8268E+00
     11.915  0.1397E+00  0.8379E+00
     11.995  0.8748E-01  0.8449E+00
     12.074  0.4284E-01  0.8483E+00
     12.154  0.2604E-01  0.8504E+00
     12.233  0.4153E-01  0.8537E+00
     12.313  0.8528E-01  0.8605E+00
     12.392  0.1379E+00  0.8714E+00
     12.472  0.1648E+00  0.8845E+00
     12.552  0.1450E+00  0.8961E+00
     12.631  0.9428E-01  0.9036E+00
     12.711  0.4814E-01  0.9074E+00
     12.790  0.3035E-01  0.9098E+00
     12.870  0.4816E-01  0.9136E+00
     12.949  0.9961E-01  0.9215E+00
     13.029  0.1700E+00  0.9351E+00
     13.108  0.2317E+00  0.9535E+00
     13.188  0.2608E+00  0.9742E+00
     13.267  0.2480E+00  0.9940E+00
     13.347  0.1971E+00  0.1010E+01
     13.426  0.1274E+00  0.1020E+01
     13.506  0.6872E-01  0.1025E+01
     13.585  0.4319E-01  0.1029E+01
     13.665  0.5366E-01  0.1033E+01
     13.744  0.8449E-01  0.1040E+01
     13.824  0.1082E+00  0.1048E+01
     13.903  0.1031E+00  0.1056E+01
     13.983  0.7230E-01  0.1062E+01
     14.062  0.3728E-01  0.1065E+01
     14.142  0.1412E-01  0.1066E+01
     14.221  0.3930E-02  0.1067E+01
     14.301  0.8032E-03  0.1067E+01
     14.380  0.1205E-03  0.1067E+01
     14.460  0.1327E-04  0.1067E+01
     14.540  0.1072E-05  0.1067E+01
     14.619  0.6346E-07  0.1067E+01
     14.699  0.2755E-08  0.1067E+01
     14.778  0.8760E-10  0.1067E+01
     14.858  0.2040E-11  0.1067E+01
     14.937  0.3480E-13  0.1067E+01
     15.017  0.4413E-15  0.1067E+01
     15.096  0.0000E+00  0.1067E+01
     15.176  0.0000E+00  0.1067E+01
     15.255  0.0000E+00  0.1067E+01
     15.335  0.0000E+00  0.1067E+01
     15.414  0.0000E+00  0.1067E+01
     15.494  0.0000E+00  0.1067E+01
     15.573  0.0000E+00  0.1067E+01
     15.653  0.0000E+00  0.1067E+01
     15.732  0.0000E+00  0.1067E+01
     15.812  0.0000E+00  0.1067E+01
