unknown system                          
   1.00000000000000     
     0.000000    2.715000    2.715000
     2.715000    0.000000    2.715000
     2.715000    2.715000    0.000000
   Si
     2
Direct
  0.500000  0.500000  0.500000
  0.750000  0.750000  0.750000
 
   28   28   28
 0.88822     0.91520     0.99840      1.1450      1.3670      1.6802      2.1003      2.6368      3.2855      4.0217    
  4.7963      5.5373      6.1581      6.5734      6.7196      6.5733      6.1581      5.5373      4.7963      4.0217    
  3.2855      2.6368      2.1004      1.6803      1.3671      1.1450     0.99837     0.91517     0.91520     0.96070    
  1.0552      1.2059      1.4233      1.7196      2.1046      2.5807      3.1364      3.7421      4.3491      4.8937    
  5.3074      5.5314      5.5314      5.3074      4.8937      4.3491      3.7422      3.1365      2.5808      2.1047    
  1.7197      1.4234      1.2059      1.0552     0.96069     0.91519     0.99840      1.0552      1.1545      1.3031    
  1.5096      1.7823      2.1259      2.5370      2.9993      3.4816      3.9394      4.3200      4.5730      4.6619    
  4.5730      4.3200      3.9394      3.4817      2.9993      2.5371      2.1260      1.7823      1.5096      1.3031    
  1.1545      1.0552     0.99840     0.97992      1.1450      1.2059      1.3031      1.4427      1.6312      1.8735    
  2.1700      2.5132      2.8845      3.2543      3.5843      3.8337      3.9683      3.9683      3.8337      3.5843    
  3.2544      2.8846      2.5132      2.1701      1.8735      1.6311      1.4426      1.3031      1.2059      1.1450    
  1.1157      1.1157      1.3670      1.4233      1.5096      1.6312      1.7928      1.9967      2.2400      2.5132    
  2.7976      3.0672      3.2911      3.4398      3.4919      3.4397      3.2911      3.0672      2.7977      2.5132    
  2.2400      1.9966      1.7927      1.6311      1.5095      1.4234      1.3671      1.3356      1.3255      1.3356    
  1.6802      1.7196      1.7823      1.8735      1.9967      2.1522      2.3357      2.5370      2.7395      2.9216    
  3.0601      3.1350      3.1350      3.0601      2.9216      2.7395      2.5370      2.3357      2.1521      1.9966    
  1.8735      1.7823      1.7196      1.6803      1.6584      1.6489      1.6488      1.6583      2.1003      2.1046    
  2.1259      2.1700      2.2400      2.3357      2.4523      2.5807      2.7071      2.8149      2.8877      2.9135    
  2.8877      2.8149      2.7071      2.5807      2.4523      2.3357      2.2401      2.1701      2.1260      2.1047    
  2.1003      2.1055      2.1124      2.1154      2.1124      2.1054      2.6368      2.5807      2.5370      2.5132    
  2.5132      2.5370      2.5807      2.6368      2.6947      2.7423      2.7693      2.7693      2.7423      2.6947    
  2.6368      2.5808      2.5370      2.5132      2.5132      2.5370      2.5808      2.6368      2.6947      2.7424    
  2.7693      2.7693      2.7423      2.6947      3.2855      3.1364      2.9993      2.8845      2.7976      2.7395    
  2.7071      2.6947      2.6943      2.6983      2.7003      2.6983      2.6944      2.6947      2.7072      2.7396    
  2.7978      2.8846      2.9993      3.1364      3.2855      3.4311      3.5548      3.6382      3.6677      3.6382    
  3.5548      3.4311      4.0217      3.7421      3.4816      3.2543      3.0672      2.9216      2.8149      2.7423    
  2.6983      2.6777      2.6777      2.6983      2.7424      2.8150      2.9217      3.0673      3.2544      3.4816    
  3.7421      4.0216      4.2985      4.5449      4.7312      4.8318      4.8318      4.7312      4.5449      4.2985    
  4.7963      4.3491      3.9394      3.5843      3.2911      3.0601      2.8877      2.7693      2.7003      2.6777    
  2.7004      2.7694      2.8879      3.0602      3.2912      3.5843      3.9393      4.3490      4.7961      5.2520    
  5.6773      6.0269      6.2577      6.3385      6.2578      6.0270      5.6774      5.2521      5.5373      4.8937    
  4.3200      3.8337      3.4398      3.1350      2.9135      2.7693      2.6983      2.6983      2.7694      2.9136    
  3.1352      3.4399      3.8338      4.3199      4.8936      5.5371      6.2163      6.8797      7.4635      7.9009    
  8.1358      8.1358      7.9009      7.4635      6.8798      6.2165      6.1581      5.3074      4.5730      3.9683    
  3.4919      3.1350      2.8877      2.7423      2.6944      2.7424      2.8879      3.1352      3.4921      3.9684    
  4.5730      5.3072      6.1579      7.0896      8.0419      8.9317      9.6639      10.148      10.317      10.147    
  9.6637      8.9317      8.0419      7.0898      6.5734      5.5314      4.6619      3.9683      3.4397      3.0601    
  2.8149      2.6947      2.6947      2.8150      3.0602      3.4399      3.9684      4.6618      5.5312      6.5731    
  7.7586      9.0255      10.277      11.389      12.229      12.683      12.683      12.229      11.389      10.277    
  9.0255      7.7588      6.7196      5.5314      4.5730      3.8337      3.2911      2.9216      2.7071      2.6368    
  2.7072      2.9217      3.2912      3.8338      4.5730      5.5312      6.7194      8.1228      9.6888      11.318    
  12.868      14.163      15.028      15.333      15.028      14.163      12.868      11.318      9.6888      8.1230    
  6.5733      5.3074      4.3200      3.5843      3.0672      2.7395      2.5807      2.5808      2.7396      3.0673    
  3.5843      4.3199      5.3072      6.5731      8.1228      9.9236      11.890      13.876      15.677      17.047    
  17.783      17.783      17.047      15.677      13.875      11.890      9.9236      8.1230      6.1581      4.8937    
  3.9394      3.2544      2.7977      2.5370      2.4523      2.5370      2.7978      3.2544      3.9393      4.8936    
  6.1579      7.7586      9.6888      11.890      14.234      16.510      18.411      19.661      20.097      19.662    
  18.411      16.510      14.234      11.890      9.6888      7.7587      5.5373      4.3491      3.4817      2.8846    
  2.5132      2.3357      2.3357      2.5132      2.8846      3.4816      4.3490      5.5371      7.0896      9.0255    
  11.318      13.876      16.510      18.892      20.678      21.632      21.632      20.679      18.892      16.510    
  13.875      11.318      9.0254      7.0897      4.7963      3.7422      2.9993      2.5132      2.2400      2.1521    
  2.2401      2.5132      2.9993      3.7421      4.7961      6.2163      8.0419      10.277      12.868      15.677    
  18.411      20.678      22.169      22.687      22.169      20.679      18.411      15.677      12.868      10.277    
  8.0418      6.2164      4.0217      3.1365      2.5371      2.1701      1.9966      1.9966      2.1701      2.5370    
  3.1364      4.0216      5.2520      6.8797      8.9317      11.389      14.163      17.047      19.661      21.632    
  22.687      22.687      21.632      19.662      17.047      14.163      11.389      8.9315      6.8797      5.2521    
  3.2855      2.5808      2.1260      1.8735      1.7927      1.8735      2.1260      2.5808      3.2855      4.2985    
  5.6773      7.4635      9.6639      12.229      15.028      17.783      20.097      21.632      22.169      21.632    
  20.097      17.783      15.028      12.229      9.6636      7.4634      5.6773      4.2985      2.6368      2.1047    
  1.7823      1.6311      1.6311      1.7823      2.1047      2.6368      3.4311      4.5449      6.0269      7.9009    
  10.148      12.683      15.333      17.783      19.662      20.679      20.679      19.662      17.783      15.332    
  12.683      10.147      7.9008      6.0268      4.5449      3.4311      2.1004      1.7197      1.5096      1.4426    
  1.5095      1.7196      2.1003      2.6947      3.5548      4.7312      6.2577      8.1358      10.317      12.683    
  15.028      17.047      18.411      18.892      18.411      17.047      15.028      12.683      10.317      8.1357    
  6.2577      4.7311      3.5548      2.6947      1.6803      1.4234      1.3031      1.3031      1.4234      1.6803    
  2.1055      2.7424      3.6382      4.8318      6.3385      8.1358      10.147      12.229      14.163      15.677    
  16.510      16.510      15.677      14.163      12.229      10.147      8.1357      6.3384      4.8317      3.6382    
  2.7424      2.1055      1.3671      1.2059      1.1545      1.2059      1.3671      1.6584      2.1124      2.7693    
  3.6677      4.8318      6.2578      7.9009      9.6637      11.389      12.868      13.875      14.234      13.875    
  12.868      11.389      9.6636      7.9008      6.2577      4.8317      3.6677      2.7694      2.1125      1.6584    
  1.1450      1.0552      1.0552      1.1450      1.3356      1.6489      2.1154      2.7693      3.6382      4.7312    
  6.0270      7.4635      8.9317      10.277      11.318      11.890      11.890      11.318      10.277      8.9315    
  7.4634      6.0268      4.7311      3.6382      2.7694      2.1155      1.6489      1.3356     0.99837     0.96069    
 0.99840      1.1157      1.3255      1.6488      2.1124      2.7423      3.5548      4.5449      5.6774      6.8798    
  8.0419      9.0255      9.6888      9.9236      9.6888      9.0254      8.0418      6.8797      5.6773      4.5449    
  3.5548      2.7424      2.1125      1.6489      1.3256      1.1157     0.91517     0.91519     0.97992      1.1157    
  1.3356      1.6583      2.1054      2.6947      3.4311      4.2985      5.2521      6.2165      7.0898      7.7588    
  8.1230      8.1230      7.7587      7.0897      6.2164      5.2521      4.2985      3.4311      2.6947      2.1055    
  1.6584      1.3356      1.1157     0.97988     0.91520     0.96071      1.0552      1.2059      1.4233      1.7196    
  2.1046      2.5807      3.1364      3.7421      4.3491      4.8937      5.3074      5.5314      5.5314      5.3074    
  4.8937      4.3491      3.7422      3.1365      2.5808      2.1047      1.7197      1.4234      1.2059      1.0552    
 0.96069     0.91519     0.96071      1.0160      1.1125      1.2566      1.4566      1.7208      2.0538      2.4523    
  2.9005      3.3681      3.8115      4.1799      4.4247      4.5106      4.4247      4.1799      3.8115      3.3681    
  2.9006      2.4524      2.0539      1.7209      1.4566      1.2566      1.1125      1.0160     0.96071     0.94269    
  1.0552      1.1125      1.2035      1.3338      1.5097      1.7362      2.0139      2.3357      2.6840      3.0305    
  3.3392      3.5722      3.6978      3.6978      3.5722      3.3392      3.0305      2.6840      2.3357      2.0140    
  1.7363      1.5097      1.3338      1.2035      1.1125      1.0552      1.0276      1.0276      1.2059      1.2566    
  1.3338      1.4426      1.5877      1.7716      1.9921      2.2401      2.4983      2.7426      2.9449      3.0788    
  3.1258      3.0788      2.9448      2.7426      2.4984      2.2401      1.9921      1.7716      1.5877      1.4426    
  1.3338      1.2566      1.2059      1.1775      1.1683      1.1774      1.4233      1.4566      1.5097      1.5877    
  1.6944      1.8304      1.9921      2.1700      2.3489      2.5092      2.6306      2.6961      2.6961      2.6305    
  2.5092      2.3489      2.1700      1.9921      1.8304      1.6943      1.5877      1.5097      1.4566      1.4234    
  1.4048      1.3966      1.3966      1.4047      1.7196      1.7208      1.7362      1.7716      1.8304      1.9125    
  2.0139      2.1259      2.2360      2.3294      2.3923      2.4144      2.3923      2.3294      2.2360      2.1259    
  2.0139      1.9125      1.8304      1.7716      1.7362      1.7208      1.7196      1.7258      1.7326      1.7355    
  1.7326      1.7257      2.1046      2.0538      2.0139      1.9921      1.9921      2.0139      2.0538      2.1047    
  2.1566      2.1991      2.2230      2.2230      2.1991      2.1566      2.1046      2.0538      2.0139      1.9921    
  1.9921      2.0139      2.0538      2.1046      2.1566      2.1991      2.2230      2.2230      2.1991      2.1566    
  2.5807      2.4523      2.3357      2.2401      2.1700      2.1259      2.1047      2.1003      2.1054      2.1124    
  2.1154      2.1124      2.1055      2.1003      2.1047      2.1260      2.1701      2.2401      2.3357      2.4523    
  2.5807      2.7071      2.8149      2.8877      2.9135      2.8877      2.8149      2.7071      3.1364      2.9005    
  2.6840      2.4983      2.3489      2.2360      2.1566      2.1054      2.0762      2.0633      2.0634      2.0763    
  2.1055      2.1567      2.2361      2.3489      2.4983      2.6839      2.9005      3.1364      3.3731      3.5859    
  3.7479      3.8358      3.8358      3.7479      3.5859      3.3731      3.7421      3.3681      3.0305      2.7426    
  2.5092      2.3294      2.1991      2.1124      2.0633      2.0476      2.0634      2.1125      2.1992      2.3295    
  2.5092      2.7426      3.0304      3.3680      3.7421      4.1292      4.4953      4.7998      5.0026      5.0739    
  5.0026      4.7998      4.4953      4.1292      4.3491      3.8115      3.3392      2.9449      2.6306      2.3923    
  2.2230      2.1154      2.0634      2.0634      2.1155      2.2231      2.3924      2.6306      2.9448      3.3391    
  3.8113      4.3490      4.9252      5.4969      6.0073      6.3942      6.6036      6.6036      6.3942      6.0073    
  5.4969      4.9253      4.8937      4.1799      3.5722      3.0788      2.6961      2.4144      2.2230      2.1124    
  2.0763      2.1125      2.2231      2.4145      2.6961      3.0787      3.5720      4.1797      4.8935      5.6872    
  6.5114      7.2937      7.9462      8.3816      8.5349      8.3816      7.9461      7.2936      6.5114      5.6873    
  5.3074      4.4247      3.6978      3.1258      2.6961      2.3923      2.1991      2.1055      2.1055      2.1992    
  2.3924      2.6961      3.1257      3.6976      4.4245      5.3072      6.3260      7.4316      8.5408      9.5406    
  10.305      10.720      10.720      10.304      9.5406      8.5407      7.4315      6.3261      5.5314      4.5106    
  3.6978      3.0788      2.6305      2.3294      2.1566      2.1003      2.1567      2.3295      2.6306      3.0787    
  3.6976      4.5104      5.5312      6.7535      8.1373      9.5988      11.008      12.199      13.001      13.285    
  13.001      12.199      11.008      9.5986      8.1372      6.7536      5.5314      4.4247      3.5722      2.9448    
  2.5092      2.2360      2.1046      2.1047      2.2361      2.5092      2.9448      3.5720      4.4245      5.5312    
  6.9041      8.5219      10.314      12.147      13.830      15.134      15.851      15.851      15.135      13.830    
  12.147      10.313      8.5217      6.9042      5.3074      4.1799      3.3392      2.7426      2.3489      2.1259    
  2.0538      2.1260      2.3489      2.7426      3.3391      4.1797      5.3072      6.7535      8.5219      10.567    
  12.773      14.944      16.813      18.090      18.545      18.090      16.813      14.944      12.773      10.566    
  8.5217      6.7535      4.8937      3.8115      3.0305      2.4984      2.1700      2.0139      2.0139      2.1701    
  2.4983      3.0304      3.8113      4.8935      6.3260      8.1373      10.314      12.773      15.341      17.744    
  19.634      20.678      20.678      19.634      17.744      15.341      12.773      10.313      8.1371      6.3261    
  4.3491      3.3681      2.6840      2.2401      1.9921      1.9125      1.9921      2.2401      2.6839      3.3680    
  4.3490      5.6872      7.4316      9.5988      12.147      14.944      17.744      20.185      21.859      22.455    
  21.859      20.186      17.744      14.944      12.147      9.5986      7.4315      5.6873      3.7422      2.9006    
  2.3357      1.9921      1.8304      1.8304      1.9921      2.3357      2.9005      3.7421      4.9252      6.5114    
  8.5408      11.008      13.830      16.813      19.634      21.859      23.088      23.088      21.859      19.634    
  16.813      13.830      11.008      8.5406      6.5113      4.9252      3.1365      2.4524      2.0140      1.7716    
  1.6943      1.7716      2.0139      2.4523      3.1364      4.1292      5.4969      7.2937      9.5406      12.199    
  15.134      18.090      20.678      22.455      23.088      22.455      20.678      18.090      15.134      12.199    
  9.5405      7.2936      5.4968      4.1292      2.5808      2.0539      1.7363      1.5877      1.5877      1.7362    
  2.0538      2.5807      3.3731      4.4953      6.0073      7.9462      10.305      13.001      15.851      18.545    
  20.678      21.859      21.859      20.678      18.544      15.851      13.001      10.304      7.9461      6.0072    
  4.4953      3.3731      2.1047      1.7209      1.5097      1.4426      1.5097      1.7208      2.1046      2.7071    
  3.5859      4.7998      6.3942      8.3816      10.720      13.285      15.851      18.090      19.634      20.186    
  19.634      18.090      15.851      13.285      10.720      8.3816      6.3942      4.7998      3.5859      2.7072    
  1.7197      1.4566      1.3338      1.3338      1.4566      1.7196      2.1566      2.8149      3.7479      5.0026    
  6.6036      8.5349      10.720      13.001      15.135      16.813      17.744      17.744      16.813      15.134    
  13.001      10.720      8.5349      6.6036      5.0026      3.7479      2.8150      2.1567      1.4234      1.2566    
  1.2035      1.2566      1.4234      1.7258      2.1991      2.8877      3.8358      5.0739      6.6036      8.3816    
  10.304      12.199      13.830      14.944      15.341      14.944      13.830      12.199      10.304      8.3816    
  6.6036      5.0739      3.8358      2.8878      2.1992      1.7258      1.2059      1.1125      1.1125      1.2059    
  1.4048      1.7326      2.2230      2.9135      3.8358      5.0026      6.3942      7.9461      9.5406      11.008    
  12.147      12.773      12.773      12.147      11.008      9.5405      7.9461      6.3942      5.0026      3.8358    
  2.9136      2.2232      1.7327      1.4048      1.0552      1.0160      1.0552      1.1775      1.3966      1.7355    
  2.2230      2.8877      3.7479      4.7998      6.0073      7.2936      8.5407      9.5986      10.313      10.566    
  10.313      9.5986      8.5406      7.2936      6.0072      4.7998      3.7479      2.8878      2.2232      1.7356    
  1.3966      1.1774     0.96069     0.96071      1.0276      1.1683      1.3966      1.7326      2.1991      2.8149    
  3.5859      4.4953      5.4969      6.5114      7.4315      8.1372      8.5217      8.5217      8.1371      7.4315    
  6.5113      5.4968      4.4953      3.5859      2.8150      2.1992      1.7327      1.3966      1.1683      1.0276    
 0.91519     0.94269      1.0276      1.1774      1.4047      1.7257      2.1566      2.7071      3.3731      4.1292    
  4.9253      5.6873      6.3261      6.7536      6.9042      6.7535      6.3261      5.6873      4.9252      4.1292    
  3.3731      2.7072      2.1567      1.7258      1.4048      1.1774      1.0276     0.94266     0.99840      1.0552    
  1.1545      1.3031      1.5096      1.7823      2.1259      2.5370      2.9993      3.4816      3.9394      4.3200    
  4.5730      4.6619      4.5730      4.3200      3.9394      3.4817      2.9993      2.5371      2.1260      1.7823    
  1.5095      1.3031      1.1545      1.0552     0.99840     0.97992      1.0552      1.1125      1.2035      1.3338    
  1.5097      1.7362      2.0139      2.3357      2.6840      3.0305      3.3392      3.5722      3.6978      3.6978    
  3.5722      3.3392      3.0305      2.6840      2.3357      2.0140      1.7363      1.5097      1.3338      1.2035    
  1.1125      1.0552      1.0276      1.0276      1.1545      1.2035      1.2778      1.3826      1.5223      1.6996    
  1.9125      2.1522      2.4018      2.6376      2.8327      2.9617      3.0069      2.9617      2.8326      2.6376    
  2.4018      2.1522      1.9126      1.6996      1.5223      1.3825      1.2778      1.2035      1.1546      1.1269    
  1.1180      1.1269      1.3031      1.3338      1.3826      1.4543      1.5529      1.6794      1.8304      1.9967    
  2.1637      2.3129      2.4256      2.4862      2.4862      2.4256      2.3129      2.1637      1.9967      1.8304    
  1.6794      1.5529      1.4543      1.3825      1.3338      1.3031      1.2858      1.2781      1.2781      1.2857    
  1.5096      1.5097      1.5223      1.5529      1.6052      1.6794      1.7716      1.8735      1.9732      2.0573    
  2.1136      2.1334      2.1136      2.0573      1.9732      1.8735      1.7716      1.6794      1.6052      1.5529    
  1.5223      1.5097      1.5096      1.5154      1.5216      1.5241      1.5216      1.5154      1.7823      1.7362    
  1.6996      1.6794      1.6794      1.6996      1.7362      1.7823      1.8287      1.8663      1.8872      1.8872    
  1.8663      1.8287      1.7823      1.7362      1.6996      1.6794      1.6794      1.6996      1.7362      1.7823    
  1.8287      1.8663      1.8872      1.8872      1.8663      1.8287      2.1259      2.0139      1.9125      1.8304    
  1.7716      1.7362      1.7208      1.7196      1.7257      1.7326      1.7355      1.7326      1.7258      1.7196    
  1.7208      1.7362      1.7716      1.8304      1.9125      2.0139      2.1259      2.2360      2.3294      2.3923    
  2.4144      2.3923      2.3294      2.2360      2.5370      2.3357      2.1522      1.9967      1.8735      1.7823    
  1.7196      1.6802      1.6583      1.6488      1.6489      1.6584      1.6803      1.7196      1.7823      1.8735    
  1.9966      2.1521      2.3357      2.5370      2.7395      2.9216      3.0601      3.1350      3.1350      3.0601    
  2.9216      2.7395      2.9993      2.6840      2.4018      2.1637      1.9732      1.8287      1.7257      1.6583    
  1.6207      1.6087      1.6208      1.6584      1.7258      1.8287      1.9731      2.1636      2.4017      2.6839    
  2.9992      3.3273      3.6385      3.8976      4.0702      4.1309      4.0702      3.8976      3.6385      3.3273    
  3.4816      3.0305      2.6376      2.3129      2.0573      1.8663      1.7326      1.6488      1.6087      1.6088    
  1.6489      1.7327      1.8663      2.0573      2.3128      2.6374      3.0304      3.4816      3.9683      4.4535    
  4.8879      5.2180      5.3968      5.3968      5.2180      4.8879      4.4534      3.9683      3.9394      3.3392    
  2.8327      2.4256      2.1136      1.8872      1.7355      1.6489      1.6208      1.6489      1.7356      1.8873    
  2.1136      2.4254      2.8324      3.3391      3.9393      4.6113      5.3128      5.9815      6.5408      6.9149    
  7.0466      6.9149      6.5409      5.9815      5.3128      4.6112      4.3200      3.5722      2.9617      2.4862    
  2.1334      1.8872      1.7326      1.6584      1.6584      1.7327      1.8873      2.1334      2.4861      2.9615    
  3.5720      4.3199      5.1889      6.1370      7.0924      7.9563      8.6177      8.9778      8.9778      8.6177    
  7.9563      7.0923      6.1369      5.1888      4.5730      3.6978      3.0069      2.4862      2.1136      1.8663    
  1.7258      1.6803      1.7258      1.8663      2.1136      2.4861      3.0067      3.6976      4.5729      5.6282    
  6.8292      8.1027      9.3339      10.377      11.080      11.329      11.080      10.377      9.3338      8.1026    
  6.8290      5.6281      4.6619      3.6978      2.9617      2.4256      2.0573      1.8287      1.7196      1.7196    
  1.8287      2.0573      2.4254      2.9615      3.6976      4.6618      5.8662      7.2930      8.8792      10.506    
  12.002      13.162      13.799      13.799      13.162      12.002      10.506      8.8790      7.2928      5.8661    
  4.5730      3.5722      2.8326      2.3129      1.9732      1.7823      1.7208      1.7823      1.9731      2.3128    
  2.8324      3.5720      4.5729      5.8662      7.4565      9.3029      11.300      13.268      14.962      16.119    
  16.531      16.119      14.962      13.268      11.300      9.3028      7.4563      5.8661      4.3200      3.3392    
  2.6376      2.1637      1.8735      1.7362      1.7362      1.8735      2.1636      2.6374      3.3391      4.3199    
  5.6282      7.2930      9.3029      11.582      13.965      16.195      17.949      18.921      18.921      17.949    
  16.195      13.965      11.582      9.3028      7.2928      5.6281      3.9394      3.0305      2.4018      1.9967    
  1.7716      1.6996      1.7716      1.9966      2.4017      3.0304      3.9393      5.1889      6.8292      8.8792    
  11.300      13.965      16.635      18.966      20.574      21.150      20.574      18.966      16.635      13.965    
  11.300      8.8790      6.8290      5.1888      3.4817      2.6840      2.1522      1.8304      1.6794      1.6794    
  1.8304      2.1521      2.6839      3.4816      4.6113      6.1370      8.1027      10.506      13.268      16.195    
  18.966      21.166      22.392      22.392      21.166      18.966      16.195      13.268      10.506      8.1025    
  6.1369      4.6113      2.9993      2.3357      1.9126      1.6794      1.6052      1.6794      1.9125      2.3357    
  2.9992      3.9683      5.3128      7.0924      9.3339      12.002      14.962      17.949      20.574      22.392    
  23.045      22.392      20.574      17.949      14.962      12.002      9.3338      7.0923      5.3128      3.9683    
  2.5371      2.0140      1.6996      1.5529      1.5529      1.6996      2.0139      2.5370      3.3273      4.4535    
  5.9815      7.9563      10.377      13.162      16.119      18.921      21.150      22.392      22.392      21.149    
  18.921      16.119      13.162      10.377      7.9562      5.9814      4.4534      3.3273      2.1260      1.7363    
  1.5223      1.4543      1.5223      1.7362      2.1259      2.7395      3.6385      4.8879      6.5408      8.6177    
  11.080      13.799      16.531      18.921      20.574      21.166      20.574      18.921      16.531      13.799    
  11.080      8.6177      6.5409      4.8880      3.6386      2.7396      1.7823      1.5097      1.3825      1.3825    
  1.5097      1.7823      2.2360      2.9216      3.8976      5.2180      6.9149      8.9778      11.329      13.799    
  16.119      17.949      18.966      18.966      17.949      16.119      13.799      11.329      8.9778      6.9149    
  5.2181      3.8977      2.9217      2.2361      1.5095      1.3338      1.2778      1.3338      1.5096      1.8287    
  2.3294      3.0601      4.0702      5.3968      7.0466      8.9778      11.080      13.162      14.962      16.195    
  16.635      16.195      14.962      13.162      11.080      8.9778      7.0467      5.3968      4.0704      3.0602    
  2.3295      1.8288      1.3031      1.2035      1.2035      1.3031      1.5154      1.8663      2.3923      3.1350    
  4.1309      5.3968      6.9149      8.6177      10.377      12.002      13.268      13.965      13.965      13.268    
  12.002      10.377      8.6177      6.9149      5.3968      4.1310      3.1352      2.3924      1.8663      1.5154    
  1.1545      1.1125      1.1546      1.2858      1.5216      1.8872      2.4144      3.1350      4.0702      5.2180    
  6.5409      7.9563      9.3338      10.506      11.300      11.582      11.300      10.506      9.3338      7.9562    
  6.5409      5.2181      4.0704      3.1352      2.4146      1.8873      1.5216      1.2857      1.0552      1.0552    
  1.1269      1.2781      1.5241      1.8872      2.3923      3.0601      3.8976      4.8879      5.9815      7.0923    
  8.1026      8.8790      9.3028      9.3028      8.8790      8.1025      7.0923      5.9814      4.8880      3.8977    
  3.0602      2.3924      1.8873      1.5241      1.2780      1.1269     0.99840      1.0276      1.1180      1.2781    
  1.5216      1.8663      2.3294      2.9216      3.6385      4.4534      5.3128      6.1369      6.8290      7.2928    
  7.4563      7.2928      6.8290      6.1369      5.3128      4.4534      3.6386      2.9217      2.3295      1.8663    
  1.5216      1.2780      1.1180      1.0276     0.97992      1.0276      1.1269      1.2857      1.5154      1.8287    
  2.2360      2.7395      3.3273      3.9683      4.6112      5.1888      5.6281      5.8661      5.8661      5.6281    
  5.1888      4.6113      3.9683      3.3273      2.7396      2.2361      1.8288      1.5154      1.2857      1.1269    
  1.0276     0.97991      1.1450      1.2059      1.3031      1.4427      1.6312      1.8735      2.1700      2.5132    
  2.8845      3.2543      3.5843      3.8337      3.9683      3.9683      3.8337      3.5843      3.2544      2.8846    
  2.5132      2.1701      1.8735      1.6311      1.4426      1.3031      1.2059      1.1450      1.1157      1.1157    
  1.2059      1.2566      1.3338      1.4426      1.5877      1.7716      1.9921      2.2400      2.4983      2.7426    
  2.9449      3.0788      3.1258      3.0788      2.9448      2.7426      2.4984      2.2401      1.9921      1.7716    
  1.5877      1.4426      1.3338      1.2566      1.2059      1.1775      1.1683      1.1774      1.3031      1.3338    
  1.3826      1.4543      1.5529      1.6794      1.8304      1.9967      2.1637      2.3129      2.4256      2.4862    
  2.4862      2.4256      2.3129      2.1637      1.9967      1.8304      1.6794      1.5529      1.4543      1.3825    
  1.3338      1.3031      1.2858      1.2781      1.2781      1.2857      1.4427      1.4426      1.4543      1.4835    
  1.5336      1.6052      1.6944      1.7928      1.8890      1.9700      2.0241      2.0431      2.0241      1.9700    