   2   2   0   0
  0.1529437E+02  0.3691622E-09  0.3691622E-09  0.3691622E-09  0.5000000E-15
  1.000000000000000E-004
  CAR 
 unknown system                          
     23.06524086     -6.57470520  301      9.07288781      1.00000000
     -6.575  0.0000E+00  0.0000E+00
     -6.476  0.0000E+00  0.0000E+00
     -6.377  0.0000E+00  0.0000E+00
     -6.278  0.0000E+00  0.0000E+00
     -6.180  0.0000E+00  0.0000E+00
     -6.081  0.0000E+00  0.0000E+00
     -5.982  0.0000E+00  0.0000E+00
     -5.883  0.0000E+00  0.0000E+00
     -5.784  0.0000E+00  0.0000E+00
     -5.686  0.6243E-17  0.6168E-18
     -5.587  0.1293E-14  0.1284E-15
     -5.488  0.1656E-12  0.1649E-13
     -5.389  0.1313E-10  0.1314E-11
     -5.290  0.6467E-09  0.6521E-10
     -5.192  0.1984E-07  0.2025E-08
     -5.093  0.3810E-06  0.3967E-07
     -4.994  0.4624E-05  0.4965E-06
     -4.895  0.3607E-04  0.4060E-05
     -4.796  0.1864E-03  0.2247E-04
     -4.698  0.6699E-03  0.8866E-04
     -4.599  0.1774E-02  0.2640E-03
     -4.500  0.3607E-02  0.6203E-03
     -4.401  0.5715E-02  0.1185E-02
     -4.302  0.7313E-02  0.1907E-02
     -4.204  0.8444E-02  0.2742E-02
     -4.105  0.9821E-02  0.3712E-02
     -4.006  0.1122E-01  0.4820E-02
     -3.907  0.1211E-01  0.6017E-02
     -3.808  0.1302E-01  0.7303E-02
     -3.710  0.1433E-01  0.8719E-02
     -3.611  0.1538E-01  0.1024E-01
     -3.512  0.1574E-01  0.1179E-01
     -3.413  0.1554E-01  0.1333E-01
     -3.314  0.1499E-01  0.1481E-01
     -3.216  0.1514E-01  0.1631E-01
     -3.117  0.1749E-01  0.1803E-01
     -3.018  0.2129E-01  0.2014E-01
     -2.919  0.2386E-01  0.2250E-01
     -2.820  0.2316E-01  0.2478E-01
     -2.722  0.1944E-01  0.2670E-01
     -2.623  0.1634E-01  0.2832E-01
     -2.524  0.1778E-01  0.3008E-01
     -2.425  0.2219E-01  0.3227E-01
     -2.326  0.2460E-01  0.3470E-01
     -2.228  0.2419E-01  0.3709E-01
     -2.129  0.2395E-01  0.3945E-01
     -2.030  0.2488E-01  0.4191E-01
     -1.931  0.2594E-01  0.4448E-01
     -1.832  0.2625E-01  0.4707E-01
     -1.734  0.2571E-01  0.4961E-01
     -1.635  0.2532E-01  0.5211E-01
     -1.536  0.2578E-01  0.5466E-01
     -1.437  0.2654E-01  0.5728E-01
     -1.338  0.2770E-01  0.6002E-01
     -1.240  0.3040E-01  0.6302E-01
     -1.141  0.3309E-01  0.6629E-01
     -1.042  0.3171E-01  0.6942E-01
     -0.943  0.2652E-01  0.7204E-01
     -0.844  0.2247E-01  0.7426E-01
     -0.746  0.2297E-01  0.7653E-01
     -0.647  0.2773E-01  0.7927E-01
     -0.548  0.3421E-01  0.8265E-01
     -0.449  0.3906E-01  0.8651E-01
     -0.350  0.3987E-01  0.9045E-01
     -0.252  0.3727E-01  0.9413E-01
     -0.153  0.3482E-01  0.9757E-01
     -0.054  0.3472E-01  0.1010E+00
      0.045  0.3487E-01  0.1044E+00
      0.144  0.3316E-01  0.1077E+00
      0.242  0.3161E-01  0.1108E+00
      0.341  0.3200E-01  0.1140E+00
      0.440  0.3325E-01  0.1173E+00
      0.539  0.3507E-01  0.1208E+00
      0.638  0.3865E-01  0.1246E+00
      0.736  0.4317E-01  0.1288E+00
      0.835  0.4468E-01  0.1333E+00
      0.934  0.4139E-01  0.1373E+00
      1.033  0.3724E-01  0.1410E+00
      1.132  0.3708E-01  0.1447E+00
      1.230  0.4109E-01  0.1487E+00
      1.329  0.4433E-01  0.1531E+00
      1.428  0.4187E-01  0.1573E+00
      1.527  0.3441E-01  0.1607E+00
      1.626  0.2771E-01  0.1634E+00
      1.724  0.2761E-01  0.1661E+00
      1.823  0.3363E-01  0.1695E+00
      1.922  0.3999E-01  0.1734E+00
      2.021  0.4320E-01  0.1777E+00
      2.120  0.4300E-01  0.1819E+00
      2.218  0.3994E-01  0.1859E+00
      2.317  0.3707E-01  0.1895E+00
      2.416  0.3671E-01  0.1932E+00
      2.515  0.3633E-01  0.1967E+00
      2.614  0.3407E-01  0.2001E+00
      2.712  0.3160E-01  0.2032E+00
      2.811  0.3031E-01  0.2062E+00
      2.910  0.3070E-01  0.2093E+00
      3.009  0.3373E-01  0.2126E+00
      3.108  0.4032E-01  0.2166E+00
      3.206  0.4871E-01  0.2214E+00
      3.305  0.5388E-01  0.2267E+00
      3.404  0.5281E-01  0.2319E+00
      3.503  0.4707E-01  0.2366E+00
      3.602  0.4073E-01  0.2406E+00
      3.700  0.3851E-01  0.2444E+00
      3.799  0.4070E-01  0.2484E+00
      3.898  0.4255E-01  0.2526E+00
      3.997  0.4226E-01  0.2568E+00
      4.096  0.4280E-01  0.2610E+00
      4.194  0.4541E-01  0.2655E+00
      4.293  0.4667E-01  0.2701E+00
      4.392  0.4359E-01  0.2744E+00
      4.491  0.4002E-01  0.2784E+00
      4.590  0.4242E-01  0.2826E+00
      4.688  0.4949E-01  0.2875E+00
      4.787  0.5450E-01  0.2929E+00
      4.886  0.5566E-01  0.2984E+00
      4.985  0.5443E-01  0.3037E+00
      5.084  0.5132E-01  0.3088E+00
      5.182  0.4785E-01  0.3135E+00
      5.281  0.4561E-01  0.3180E+00
      5.380  0.4505E-01  0.3225E+00
      5.479  0.4634E-01  0.3271E+00
      5.578  0.4923E-01  0.3319E+00
      5.676  0.5291E-01  0.3372E+00
      5.775  0.5681E-01  0.3428E+00
      5.874  0.6039E-01  0.3487E+00
      5.973  0.6282E-01  0.3550E+00
      6.072  0.6260E-01  0.3611E+00
      6.170  0.5941E-01  0.3670E+00
      6.269  0.5562E-01  0.3725E+00
      6.368  0.5319E-01  0.3778E+00
      6.467  0.5405E-01  0.3831E+00
      6.566  0.5955E-01  0.3890E+00
      6.664  0.6470E-01  0.3954E+00
      6.763  0.6395E-01  0.4017E+00
      6.862  0.5881E-01  0.4075E+00
      6.961  0.5299E-01  0.4127E+00
      7.060  0.4963E-01  0.4176E+00
      7.158  0.5111E-01  0.4227E+00
      7.257  0.5748E-01  0.4284E+00
      7.356  0.6779E-01  0.4351E+00
      7.455  0.7822E-01  0.4428E+00
      7.554  0.8160E-01  0.4509E+00
      7.652  0.7489E-01  0.4583E+00
      7.751  0.6237E-01  0.4644E+00
      7.850  0.5170E-01  0.4695E+00
      7.949  0.4876E-01  0.4743E+00
      8.048  0.5273E-01  0.4796E+00
      8.146  0.5861E-01  0.4853E+00
      8.245  0.6255E-01  0.4915E+00
      8.344  0.6151E-01  0.4976E+00
      8.443  0.5531E-01  0.5031E+00
      8.542  0.4866E-01  0.5079E+00
      8.640  0.4604E-01  0.5124E+00
      8.739  0.4746E-01  0.5171E+00
      8.838  0.4965E-01  0.5220E+00
      8.937  0.4941E-01  0.5269E+00
      9.036  0.4751E-01  0.5316E+00
      9.134  0.4679E-01  0.5362E+00
      9.233  0.4679E-01  0.5408E+00
      9.332  0.4541E-01  0.5453E+00
      9.431  0.4481E-01  0.5498E+00
      9.530  0.4799E-01  0.5545E+00
      9.628  0.5210E-01  0.5596E+00
      9.727  0.5211E-01  0.5648E+00
      9.826  0.4743E-01  0.5695E+00
      9.925  0.4218E-01  0.5736E+00
     10.024  0.4072E-01  0.5777E+00
     10.122  0.4256E-01  0.5819E+00
     10.221  0.4383E-01  0.5862E+00
     10.320  0.4338E-01  0.5905E+00
     10.419  0.4320E-01  0.5948E+00
     10.518  0.4427E-01  0.5991E+00
     10.616  0.4532E-01  0.6036E+00
     10.715  0.4592E-01  0.6081E+00
     10.814  0.4795E-01  0.6129E+00
     10.913  0.5240E-01  0.6181E+00
     11.012  0.5818E-01  0.6238E+00
     11.110  0.6422E-01  0.6301E+00
     11.209  0.7038E-01  0.6371E+00
     11.308  0.7728E-01  0.6447E+00
     11.407  0.8194E-01  0.6528E+00
     11.506  0.7828E-01  0.6606E+00
     11.604  0.6802E-01  0.6673E+00
     11.703  0.5905E-01  0.6731E+00
     11.802  0.5362E-01  0.6784E+00
     11.901  0.5187E-01  0.6835E+00
     12.000  0.5555E-01  0.6890E+00
     12.098  0.6032E-01  0.6950E+00
     12.197  0.5997E-01  0.7009E+00
     12.296  0.5685E-01  0.7065E+00
     12.395  0.5517E-01  0.7120E+00
     12.494  0.5463E-01  0.7174E+00
     12.592  0.5614E-01  0.7229E+00
     12.691  0.6220E-01  0.7291E+00
     12.790  0.7200E-01  0.7362E+00
     12.889  0.8160E-01  0.7443E+00
     12.988  0.8551E-01  0.7527E+00
     13.086  0.8026E-01  0.7606E+00
     13.185  0.7004E-01  0.7675E+00
     13.284  0.6302E-01  0.7738E+00
     13.383  0.6273E-01  0.7800E+00
     13.482  0.6648E-01  0.7865E+00
     13.580  0.6888E-01  0.7933E+00
     13.679  0.6782E-01  0.8000E+00
     13.778  0.6771E-01  0.8067E+00
     13.877  0.7301E-01  0.8139E+00
     13.976  0.8093E-01  0.8219E+00
     14.074  0.8458E-01  0.8303E+00
     14.173  0.8106E-01  0.8383E+00
     14.272  0.7459E-01  0.8457E+00
     14.371  0.7075E-01  0.8527E+00
     14.470  0.6993E-01  0.8596E+00
     14.568  0.6908E-01  0.8664E+00
     14.667  0.6604E-01  0.8729E+00
     14.766  0.6103E-01  0.8790E+00
     14.865  0.5571E-01  0.8845E+00
     14.964  0.5189E-01  0.8896E+00
     15.062  0.5190E-01  0.8947E+00
     15.161  0.5643E-01  0.9003E+00
     15.260  0.6195E-01  0.9064E+00
     15.359  0.6421E-01  0.9128E+00
     15.458  0.6216E-01  0.9189E+00
     15.556  0.5724E-01  0.9246E+00
     15.655  0.5342E-01  0.9298E+00
     15.754  0.5387E-01  0.9352E+00
     15.853  0.5661E-01  0.9407E+00
     15.952  0.5738E-01  0.9464E+00
     16.050  0.5431E-01  0.9518E+00
     16.149  0.5047E-01  0.9568E+00
     16.248  0.5084E-01  0.9618E+00
     16.347  0.5479E-01  0.9672E+00
     16.446  0.5663E-01  0.9728E+00
     16.544  0.5285E-01  0.9780E+00
     16.643  0.4428E-01  0.9824E+00
     16.742  0.3408E-01  0.9858E+00
     16.841  0.2733E-01  0.9885E+00
     16.940  0.2890E-01  0.9913E+00
     17.038  0.3742E-01  0.9950E+00
     17.137  0.4490E-01  0.9995E+00
     17.236  0.4510E-01  0.1004E+01
     17.335  0.4020E-01  0.1008E+01
     17.434  0.3583E-01  0.1011E+01
     17.532  0.3243E-01  0.1015E+01
     17.631  0.2781E-01  0.1017E+01
     17.730  0.2349E-01  0.1020E+01
     17.829  0.2229E-01  0.1022E+01
     17.928  0.2425E-01  0.1024E+01
     18.026  0.2814E-01  0.1027E+01
     18.125  0.3236E-01  0.1030E+01
     18.224  0.3410E-01  0.1034E+01
     18.323  0.3153E-01  0.1037E+01
     18.422  0.2676E-01  0.1039E+01
     18.520  0.2293E-01  0.1042E+01
     18.619  0.2033E-01  0.1044E+01
     18.718  0.1881E-01  0.1046E+01
     18.817  0.1995E-01  0.1048E+01
     18.916  0.2316E-01  0.1050E+01
     19.014  0.2436E-01  0.1052E+01
     19.113  0.2123E-01  0.1054E+01
     19.212  0.1555E-01  0.1056E+01
     19.311  0.9787E-02  0.1057E+01
     19.410  0.5856E-02  0.1057E+01
     19.508  0.5130E-02  0.1058E+01
     19.607  0.7276E-02  0.1059E+01
     19.706  0.1013E-01  0.1060E+01
     19.805  0.1126E-01  0.1061E+01
     19.904  0.1017E-01  0.1062E+01
     20.002  0.8350E-02  0.1063E+01
     20.101  0.7101E-02  0.1063E+01
     20.200  0.6539E-02  0.1064E+01
     20.299  0.6409E-02  0.1065E+01
     20.398  0.6137E-02  0.1065E+01
     20.496  0.4909E-02  0.1066E+01
     20.595  0.2912E-02  0.1066E+01
     20.694  0.1322E-02  0.1066E+01
     20.793  0.8176E-03  0.1066E+01
     20.892  0.1090E-02  0.1066E+01
     20.990  0.1453E-02  0.1066E+01
     21.089  0.1420E-02  0.1067E+01
     21.188  0.9787E-03  0.1067E+01
     21.287  0.4630E-03  0.1067E+01
     21.386  0.1458E-03  0.1067E+01
     21.484  0.2974E-04  0.1067E+01
     21.583  0.3865E-05  0.1067E+01
     21.682  0.3165E-06  0.1067E+01
     21.781  0.1623E-07  0.1067E+01
     21.880  0.5189E-09  0.1067E+01
     21.978  0.1032E-10  0.1067E+01
     22.077  0.1274E-12  0.1067E+01
     22.176  0.9746E-15  0.1067E+01
     22.275  0.4509E-17  0.1067E+01
     22.374  0.0000E+00  0.1067E+01
     22.472  0.0000E+00  0.1067E+01
     22.571  0.0000E+00  0.1067E+01
     22.670  0.0000E+00  0.1067E+01
     22.769  0.0000E+00  0.1067E+01
     22.868  0.0000E+00  0.1067E+01
     22.966  0.0000E+00  0.1067E+01
     23.065  0.0000E+00  0.1067E+01
