   2   2   0   0
  0.2001288E+02  0.3839590E-09  0.3839590E-09  0.3839590E-09  0.5000000E-15
  1.000000000000000E-004
  CAR 
 unknown system                          
     15.85299569     -7.99714077  301      5.93762132      1.00000000
     -7.997  0.0000E+00  0.0000E+00
     -7.918  0.0000E+00  0.0000E+00
     -7.838  0.0000E+00  0.0000E+00
     -7.759  0.0000E+00  0.0000E+00
     -7.679  0.0000E+00  0.0000E+00
     -7.600  0.0000E+00  0.0000E+00
     -7.520  0.0000E+00  0.0000E+00
     -7.441  0.0000E+00  0.0000E+00
     -7.361  0.0000E+00  0.0000E+00
     -7.282  0.0000E+00  0.0000E+00
     -7.202  0.0000E+00  0.0000E+00
     -7.123  0.4655E-16  0.3701E-17
     -7.043  0.3622E-14  0.2917E-15
     -6.964  0.2125E-12  0.1719E-13
     -6.884  0.9125E-11  0.7426E-12
     -6.805  0.2870E-09  0.2356E-10
     -6.725  0.6615E-08  0.5494E-09
     -6.646  0.1118E-06  0.9434E-08
     -6.566  0.1385E-05  0.1195E-06
     -6.487  0.1259E-04  0.1120E-05
     -6.407  0.8399E-04  0.7797E-05
     -6.328  0.4114E-03  0.4051E-04
     -6.248  0.1480E-02  0.1582E-03
     -6.169  0.3914E-02  0.4693E-03
     -6.089  0.7603E-02  0.1074E-02
     -6.010  0.1086E-01  0.1938E-02
     -5.930  0.1147E-01  0.2849E-02
     -5.851  0.9253E-02  0.3585E-02
     -5.771  0.7017E-02  0.4143E-02
     -5.692  0.8619E-02  0.4828E-02
     -5.612  0.1611E-01  0.6109E-02
     -5.533  0.2703E-01  0.8258E-02
     -5.453  0.3441E-01  0.1099E-01
     -5.374  0.3254E-01  0.1358E-01
     -5.294  0.2365E-01  0.1546E-01
     -5.215  0.1620E-01  0.1675E-01
     -5.135  0.1683E-01  0.1809E-01
     -5.056  0.2501E-01  0.2007E-01
     -4.976  0.3341E-01  0.2273E-01
     -4.897  0.3417E-01  0.2545E-01
     -4.817  0.2684E-01  0.2758E-01
     -4.738  0.1899E-01  0.2909E-01
     -4.658  0.1865E-01  0.3057E-01
     -4.579  0.2742E-01  0.3275E-01
     -4.499  0.3929E-01  0.3588E-01
     -4.420  0.4514E-01  0.3947E-01
     -4.340  0.4149E-01  0.4276E-01
     -4.261  0.3567E-01  0.4560E-01
     -4.181  0.3969E-01  0.4876E-01
     -4.102  0.5715E-01  0.5330E-01
     -4.022  0.7780E-01  0.5948E-01
     -3.943  0.8710E-01  0.6641E-01
     -3.863  0.7979E-01  0.7275E-01
     -3.784  0.6124E-01  0.7762E-01
     -3.704  0.3991E-01  0.8079E-01
     -3.625  0.2317E-01  0.8263E-01
     -3.545  0.1626E-01  0.8393E-01
     -3.466  0.2005E-01  0.8552E-01
     -3.386  0.2944E-01  0.8786E-01
     -3.307  0.3591E-01  0.9072E-01
     -3.227  0.3522E-01  0.9352E-01
     -3.148  0.3274E-01  0.9612E-01
     -3.068  0.3807E-01  0.9914E-01
     -2.989  0.5456E-01  0.1035E+00
     -2.909  0.7575E-01  0.1095E+00
     -2.830  0.8952E-01  0.1166E+00
     -2.750  0.8572E-01  0.1234E+00
     -2.671  0.6448E-01  0.1286E+00
     -2.591  0.3716E-01  0.1315E+00
     -2.512  0.1613E-01  0.1328E+00
     -2.432  0.5215E-02  0.1332E+00
     -2.353  0.1248E-02  0.1333E+00
     -2.273  0.2200E-03  0.1333E+00
     -2.194  0.2855E-04  0.1333E+00
     -2.114  0.2721E-05  0.1333E+00
     -2.035  0.1964E-06  0.1333E+00
     -1.955  0.1350E-06  0.1333E+00
     -1.876  0.1886E-05  0.1333E+00
     -1.796  0.2088E-04  0.1333E+00
     -1.717  0.1703E-03  0.1333E+00
     -1.637  0.1025E-02  0.1334E+00
     -1.558  0.4570E-02  0.1338E+00
     -1.478  0.1516E-01  0.1350E+00
     -1.399  0.3773E-01  0.1380E+00
     -1.319  0.7135E-01  0.1437E+00
     -1.240  0.1049E+00  0.1520E+00
     -1.160  0.1245E+00  0.1619E+00
     -1.081  0.1251E+00  0.1719E+00
     -1.001  0.1105E+00  0.1806E+00
     -0.922  0.8603E-01  0.1875E+00
     -0.842  0.5679E-01  0.1920E+00
     -0.763  0.3036E-01  0.1944E+00
     -0.683  0.1277E-01  0.1954E+00
     -0.604  0.4618E-02  0.1958E+00
     -0.524  0.3657E-02  0.1961E+00
     -0.445  0.9578E-02  0.1968E+00
     -0.365  0.2477E-01  0.1988E+00
     -0.286  0.4884E-01  0.2027E+00
     -0.206  0.7206E-01  0.2084E+00
     -0.127  0.7925E-01  0.2147E+00
     -0.047  0.6478E-01  0.2199E+00
      0.032  0.3926E-01  0.2230E+00
      0.112  0.1761E-01  0.2244E+00
      0.191  0.5849E-02  0.2249E+00
      0.271  0.1576E-02  0.2250E+00
      0.350  0.1074E-02  0.2251E+00
      0.430  0.3244E-02  0.2253E+00
      0.509  0.9259E-02  0.2261E+00
      0.589  0.1967E-01  0.2276E+00
      0.668  0.3102E-01  0.2301E+00
      0.748  0.3729E-01  0.2331E+00
      0.827  0.3691E-01  0.2360E+00
      0.907  0.3533E-01  0.2388E+00
      0.986  0.3676E-01  0.2417E+00
      1.066  0.3745E-01  0.2447E+00
      1.145  0.3173E-01  0.2472E+00
      1.225  0.2088E-01  0.2489E+00
      1.304  0.1201E-01  0.2498E+00
      1.384  0.1203E-01  0.2508E+00
      1.463  0.2582E-01  0.2529E+00
      1.543  0.5396E-01  0.2571E+00
      1.622  0.8616E-01  0.2640E+00
      1.702  0.1024E+00  0.2721E+00
      1.781  0.9057E-01  0.2793E+00
      1.861  0.5988E-01  0.2841E+00
      1.940  0.3107E-01  0.2866E+00
      2.020  0.1816E-01  0.2880E+00
      2.099  0.2522E-01  0.2900E+00
      2.179  0.5146E-01  0.2941E+00
      2.258  0.8977E-01  0.3012E+00
      2.338  0.1227E+00  0.3110E+00
      2.417  0.1314E+00  0.3214E+00
      2.497  0.1145E+00  0.3305E+00
      2.576  0.9189E-01  0.3378E+00
      2.656  0.8265E-01  0.3444E+00
      2.735  0.8567E-01  0.3512E+00
      2.815  0.8931E-01  0.3583E+00
      2.894  0.8974E-01  0.3655E+00
      2.974  0.8839E-01  0.3725E+00
      3.053  0.8227E-01  0.3790E+00
      3.133  0.7147E-01  0.3847E+00
      3.212  0.6730E-01  0.3901E+00
      3.292  0.7900E-01  0.3963E+00
      3.371  0.9804E-01  0.4041E+00
      3.451  0.1070E+00  0.4126E+00
      3.530  0.1030E+00  0.4208E+00
      3.610  0.1003E+00  0.4288E+00
      3.689  0.1080E+00  0.4374E+00
      3.769  0.1143E+00  0.4465E+00
      3.848  0.1047E+00  0.4548E+00
      3.928  0.8411E-01  0.4615E+00
      4.007  0.6832E-01  0.4669E+00
      4.087  0.6333E-01  0.4720E+00
      4.166  0.6491E-01  0.4771E+00
      4.246  0.7066E-01  0.4827E+00
      4.325  0.7929E-01  0.4890E+00
      4.405  0.8401E-01  0.4957E+00
      4.484  0.7776E-01  0.5019E+00
      4.564  0.6229E-01  0.5069E+00
      4.643  0.4643E-01  0.5105E+00
      4.723  0.3794E-01  0.5136E+00
      4.802  0.3739E-01  0.5165E+00
      4.882  0.3791E-01  0.5195E+00
      4.961  0.3264E-01  0.5221E+00
      5.041  0.2265E-01  0.5239E+00
      5.120  0.1503E-01  0.5251E+00
      5.200  0.1460E-01  0.5263E+00
      5.279  0.1945E-01  0.5278E+00
      5.359  0.2322E-01  0.5297E+00
      5.438  0.2114E-01  0.5314E+00
      5.518  0.1423E-01  0.5325E+00
      5.597  0.7049E-02  0.5331E+00
      5.677  0.2566E-02  0.5333E+00
      5.756  0.6861E-03  0.5333E+00
      5.836  0.1348E-03  0.5333E+00
      5.915  0.1994E-04  0.5333E+00
      5.995  0.8051E-05  0.5333E+00
      6.074  0.5208E-04  0.5333E+00
      6.154  0.3300E-03  0.5334E+00
      6.233  0.1540E-02  0.5335E+00
      6.313  0.5280E-02  0.5339E+00
      6.392  0.1330E-01  0.5350E+00
      6.472  0.2463E-01  0.5369E+00
      6.551  0.3362E-01  0.5396E+00
      6.631  0.3419E-01  0.5423E+00
      6.710  0.2746E-01  0.5445E+00
      6.790  0.2179E-01  0.5462E+00
      6.869  0.2399E-01  0.5481E+00
      6.949  0.3225E-01  0.5507E+00
      7.028  0.3857E-01  0.5538E+00
      7.108  0.3770E-01  0.5568E+00
      7.187  0.3232E-01  0.5593E+00
      7.267  0.2931E-01  0.5617E+00
      7.346  0.3406E-01  0.5644E+00
      7.426  0.4752E-01  0.5681E+00
      7.505  0.6584E-01  0.5734E+00
      7.585  0.8341E-01  0.5800E+00
      7.664  0.9717E-01  0.5877E+00
      7.744  0.1060E+00  0.5962E+00
      7.823  0.1094E+00  0.6049E+00
      7.903  0.1095E+00  0.6136E+00
      7.982  0.1089E+00  0.6222E+00
      8.062  0.1046E+00  0.6305E+00
      8.141  0.9374E-01  0.6380E+00
      8.221  0.8301E-01  0.6446E+00
      8.300  0.8392E-01  0.6513E+00
      8.380  0.1006E+00  0.6593E+00
      8.459  0.1235E+00  0.6691E+00
      8.539  0.1331E+00  0.6797E+00
      8.618  0.1157E+00  0.6889E+00
      8.698  0.7877E-01  0.6951E+00
      8.777  0.4415E-01  0.6986E+00
      8.857  0.3005E-01  0.7010E+00
      8.936  0.4423E-01  0.7045E+00
      9.016  0.8473E-01  0.7113E+00
      9.095  0.1366E+00  0.7221E+00
      9.175  0.1739E+00  0.7360E+00
      9.254  0.1776E+00  0.7501E+00
      9.334  0.1509E+00  0.7621E+00
      9.413  0.1131E+00  0.7711E+00
      9.493  0.8145E-01  0.7775E+00
      9.572  0.6366E-01  0.7826E+00
      9.652  0.6133E-01  0.7875E+00
      9.731  0.7243E-01  0.7932E+00
      9.811  0.9024E-01  0.8004E+00
      9.890  0.1046E+00  0.8087E+00
      9.970  0.1071E+00  0.8172E+00
     10.049  0.9593E-01  0.8249E+00
     10.129  0.7769E-01  0.8310E+00
     10.208  0.6176E-01  0.8360E+00
     10.288  0.5460E-01  0.8403E+00
     10.367  0.5692E-01  0.8448E+00
     10.447  0.6617E-01  0.8501E+00
     10.526  0.7957E-01  0.8564E+00
     10.606  0.9286E-01  0.8638E+00
     10.685  0.1018E+00  0.8719E+00
     10.765  0.1069E+00  0.8804E+00
     10.844  0.1109E+00  0.8892E+00
     10.924  0.1127E+00  0.8982E+00
     11.003  0.1082E+00  0.9068E+00
     11.083  0.9406E-01  0.9142E+00
     11.162  0.7147E-01  0.9199E+00
     11.242  0.5098E-01  0.9240E+00
     11.321  0.4779E-01  0.9278E+00
     11.401  0.6724E-01  0.9331E+00
     11.480  0.9564E-01  0.9407E+00
     11.560  0.1106E+00  0.9495E+00
     11.639  0.1048E+00  0.9578E+00
     11.719  0.9203E-01  0.9652E+00
     11.798  0.8479E-01  0.9719E+00
     11.878  0.7734E-01  0.9780E+00
     11.957  0.5996E-01  0.9828E+00
     12.037  0.3603E-01  0.9857E+00
     12.116  0.1650E-01  0.9870E+00
     12.196  0.7093E-02  0.9876E+00
     12.275  0.7160E-02  0.9881E+00
     12.355  0.1456E-01  0.9893E+00
     12.434  0.2581E-01  0.9913E+00
     12.514  0.3434E-01  0.9941E+00
     12.593  0.3503E-01  0.9968E+00
     12.673  0.3181E-01  0.9994E+00
     12.752  0.3677E-01  0.1002E+01
     12.832  0.5804E-01  0.1007E+01
     12.911  0.8742E-01  0.1014E+01
     12.991  0.1033E+00  0.1022E+01
     13.070  0.9144E-01  0.1029E+01
     13.150  0.6047E-01  0.1034E+01
     13.229  0.3103E-01  0.1037E+01
     13.309  0.1528E-01  0.1038E+01
     13.388  0.1170E-01  0.1039E+01
     13.468  0.1356E-01  0.1040E+01
     13.547  0.1745E-01  0.1041E+01
     13.627  0.2590E-01  0.1043E+01
     13.706  0.4199E-01  0.1047E+01
     13.786  0.6059E-01  0.1051E+01
     13.865  0.6875E-01  0.1057E+01
     13.945  0.5888E-01  0.1062E+01
     14.024  0.3763E-01  0.1065E+01
     14.104  0.1789E-01  0.1066E+01
     14.183  0.6315E-02  0.1067E+01
     14.263  0.1654E-02  0.1067E+01
     14.342  0.3210E-03  0.1067E+01
     14.422  0.4610E-04  0.1067E+01
     14.501  0.4892E-05  0.1067E+01
     14.581  0.3832E-06  0.1067E+01
     14.660  0.2213E-07  0.1067E+01
     14.740  0.9408E-09  0.1067E+01
     14.819  0.2942E-10  0.1067E+01
     14.899  0.6758E-12  0.1067E+01
     14.978  0.1138E-13  0.1067E+01
     15.058  0.1396E-15  0.1067E+01
     15.137  0.0000E+00  0.1067E+01
     15.217  0.0000E+00  0.1067E+01
     15.296  0.0000E+00  0.1067E+01
     15.376  0.0000E+00  0.1067E+01
     15.455  0.0000E+00  0.1067E+01
     15.535  0.0000E+00  0.1067E+01
     15.614  0.0000E+00  0.1067E+01
     15.694  0.0000E+00  0.1067E+01
     15.773  0.0000E+00  0.1067E+01
     15.853  0.0000E+00  0.1067E+01
