unknown system                          
   1.00000000000000     
     0.000000    2.733559    2.733559
     2.733559    0.000000    2.733559
     2.733559    2.733559   -0.000000
   Si
     2
Direct
  0.500000  0.500000  0.500000
  0.750000  0.750000  0.750000
 
   32   32   32
 0.85598822464E+00 0.87604007519E+00 0.93807023425E+00 0.10472979065E+01 0.12113178796E+01
 0.14390285112E+01 0.17396831621E+01 0.21216966733E+01 0.25904210079E+01 0.31444276114E+01
 0.37709191114E+01 0.44420115380E+01 0.51139035658E+01 0.57301991448E+01 0.62294160025E+01
 0.65554860205E+01 0.66689150036E+01 0.65554544187E+01 0.62293783241E+01 0.57301770480E+01
 0.51138945180E+01 0.44420002736E+01 0.37709003512E+01 0.31444105356E+01 0.25904156483E+01
 0.21217031306E+01 0.17396939543E+01 0.14390367023E+01 0.12113215551E+01 0.10472990975E+01
 0.93807125717E+00 0.87604111271E+00 0.87604007519E+00 0.91031306161E+00 0.98201738965E+00
 0.10967442160E+01 0.12614104692E+01 0.14831618361E+01 0.17683927177E+01 0.21215460240E+01
 0.25431533171E+01 0.30269305535E+01 0.35565688994E+01 0.41036276880E+01 0.46280718880E+01
 0.50823308875E+01 0.54185831562E+01 0.55977438613E+01 0.55977498153E+01 0.54185787908E+01
 0.50822837159E+01 0.46279920759E+01 0.41035639112E+01 0.35565540426E+01 0.30269510491E+01
 0.25431756879E+01 0.21215564894E+01 0.17684006774E+01 0.14831761575E+01 0.12614272236E+01
 0.10967559672E+01 0.98202312785E+00 0.91031578760E+00 0.87604105160E+00 0.93807023425E+00
 0.98201738965E+00 0.10595361118E+01 0.11759670743E+01 0.13370720832E+01 0.15480334077E+01
 0.18125616225E+01 0.21318012875E+01 0.25026939329E+01 0.29158135430E+01 0.33532891648E+01
 0.37879388293E+01 0.41847693649E+01 0.45053485337E+01 0.47144281827E+01 0.47871190058E+01
 0.47144299211E+01 0.45053515285E+01 0.41847733348E+01 0.37879413757E+01 0.33532864341E+01
 0.29158082696E+01 0.25026968961E+01 0.21318166145E+01 0.18125768715E+01 0.15480348676E+01
 0.13370642423E+01 0.11759645802E+01 0.10595415771E+01 0.98202141466E+00 0.93806958730E+00
 0.92388183944E+00 0.10472979065E+01 0.10967442160E+01 0.11759670743E+01 0.12896313897E+01
 0.14421771313E+01 0.16369966585E+01 0.18756611538E+01 0.21569386149E+01 0.24754334718E+01
 0.28200153555E+01 0.31726493640E+01 0.35085298678E+01 0.37982696635E+01 0.40122210674E+01
 0.41260631694E+01 0.41260519161E+01 0.40122007631E+01 0.37982689698E+01 0.35085633732E+01
 0.31726961766E+01 0.28200363981E+01 0.24754148018E+01 0.21569057858E+01 0.18756445459E+01
 0.16369971449E+01 0.14421765667E+01 0.12896229629E+01 0.11759594734E+01 0.10967436505E+01
 0.10473009787E+01 0.10237042089E+01 0.10237026231E+01 0.12113178796E+01 0.12614104692E+01
 0.13370720832E+01 0.14421771313E+01 0.15800294513E+01 0.17527196165E+01 0.19604038040E+01
 0.22003536414E+01 0.24658138051E+01 0.27449756685E+01 0.30206233077E+01 0.32710694176E+01
 0.34727166503E+01 0.36039723852E+01 0.36495716872E+01 0.36039819664E+01 0.34727138636E+01
 0.32710431096E+01 0.30205896102E+01 0.27449555878E+01 0.24658068635E+01 0.22003435716E+01
 0.19603831500E+01 0.17526982811E+01 0.15800208626E+01 0.14421837422E+01 0.13370852439E+01
 0.12614199490E+01 0.12113200225E+01 0.11830839717E+01 0.11740056759E+01 0.11830854516E+01
 0.14390285112E+01 0.14831618361E+01 0.15480334077E+01 0.16369966585E+01 0.17527196165E+01
 0.18966164251E+01 0.20680751421E+01 0.22634991305E+01 0.24754323259E+01 0.26921516378E+01
 0.28980744763E+01 0.30752188791E+01 0.32057303051E+01 0.32750798939E+01 0.32750845222E+01
 0.32057426486E+01 0.30752267841E+01 0.28980553435E+01 0.26920996093E+01 0.24753768414E+01
 0.22634771803E+01 0.20680886502E+01 0.18966343288E+01 0.17527203603E+01 0.16369904126E+01
 0.15480388773E+01 0.14831780337E+01 0.14390399908E+01 0.14121436086E+01 0.13995504474E+01
 0.13995524846E+01 0.14121431286E+01 0.17396831621E+01 0.17683927177E+01 0.18125616225E+01
 0.18756611538E+01 0.19604038040E+01 0.20680751421E+01 0.21976766442E+01 0.23450967481E+01
 0.25026931258E+01 0.26595555712E+01 0.28024854443E+01 0.29176122771E+01 0.29925161125E+01
 0.30185181834E+01 0.29925038310E+01 0.29176077461E+01 0.28024986797E+01 0.26595743802E+01
 0.25027026852E+01 0.23450952655E+01 0.21976697713E+01 0.20680693597E+01 0.19604061208E+01
 0.18756718949E+01 0.18125687111E+01 0.17683866230E+01 0.17396737076E+01 0.17227389152E+01
 0.17141989177E+01 0.17116390705E+01 0.17141890999E+01 0.17227363911E+01 0.21216966733E+01
 0.21215460240E+01 0.21318012875E+01 0.21569386149E+01 0.22003536414E+01 0.22634991305E+01
 0.23450967481E+01 0.24407450683E+01 0.25431527224E+01 0.26429623785E+01 0.27299546895E+01
 0.27944545280E+01 0.28288241107E+01 0.28288223521E+01 0.27944485021E+01 0.27299460284E+01
 0.26429617600E+01 0.25431748866E+01 0.24407871575E+01 0.23451278008E+01 0.22634891208E+01
 0.22003124417E+01 0.21569061350E+01 0.21317969948E+01 0.21215511732E+01 0.21216915126E+01
 0.21274379837E+01 0.21343053270E+01 0.21387318834E+01 0.21387291332E+01 0.21343051241E+01
 0.21274464918E+01 0.25904210079E+01 0.25431533171E+01 0.25026939329E+01 0.24754334718E+01
 0.24658138051E+01 0.24754323259E+01 0.25026931258E+01 0.25431527224E+01 0.25904189338E+01
 0.26372745978E+01 0.26767456510E+01 0.27030213116E+01 0.27122329414E+01 0.27030228240E+01
 0.26767526929E+01 0.26372834519E+01 0.25904181655E+01 0.25431389260E+01 0.25026772548E+01
 0.24754244378E+01 0.24658087527E+01 0.24754191760E+01 0.25026693729E+01 0.25431302827E+01
 0.25904092874E+01 0.26372760399E+01 0.26767491921E+01 0.27030231963E+01 0.27122348588E+01
 0.27030236586E+01 0.26767489500E+01 0.26372781851E+01 0.31444276114E+01 0.30269305535E+01
 0.29158135430E+01 0.28200153555E+01 0.27449756685E+01 0.26921516378E+01 0.26595555712E+01
 0.26429623785E+01 0.26372745978E+01 0.26376406355E+01 0.26401392768E+01 0.26420761491E+01
 0.26420800328E+01 0.26401469562E+01 0.26376499598E+01 0.26372888414E+01 0.26429713907E+01
 0.26595365099E+01 0.26921067574E+01 0.27449452838E+01 0.28200287953E+01 0.29158466591E+01
 0.30269378039E+01 0.31444009927E+01 0.32572376930E+01 0.33540959529E+01 0.34249341031E+01
 0.34623209951E+01 0.34623161282E+01 0.34249273805E+01 0.33541046579E+01 0.32572673093E+01
 0.37709191114E+01 0.35565688994E+01 0.33532891648E+01 0.31726493640E+01 0.30206233077E+01
 0.28980744763E+01 0.28024854443E+01 0.27299546895E+01 0.26767456510E+01 0.26401392768E+01
 0.26186056644E+01 0.26114932243E+01 0.26186212592E+01 0.26401394602E+01 0.26767291458E+01
 0.27299549337E+01 0.28025108059E+01 0.28980958375E+01 0.30206261792E+01 0.31726491857E+01
 0.33532913231E+01 0.35565616706E+01 0.37709086610E+01 0.39804289389E+01 0.41673368983E+01
 0.43147719678E+01 0.44091246109E+01 0.44416023282E+01 0.44091467551E+01 0.43147820337E+01
 0.41673262520E+01 0.39804239474E+01 0.44420115380E+01 0.41036276880E+01 0.37879388293E+01
 0.35085298678E+01 0.32710694176E+01 0.30752188791E+01 0.29176122771E+01 0.27944545280E+01
 0.27030213116E+01 0.26420761491E+01 0.26114932243E+01 0.26114975889E+01 0.26420791828E+01
 0.27030118639E+01 0.27944413077E+01 0.29176109160E+01 0.30752354369E+01 0.32711034144E+01
 0.35085683564E+01 0.37879458729E+01 0.41035785944E+01 0.44419433211E+01 0.47819837081E+01
 0.50978251121E+01 0.53628771334E+01 0.55538714709E+01 0.56538388261E+01 0.56538613972E+01
 0.55538984737E+01 0.53628586687E+01 0.50977929036E+01 0.47820037832E+01 0.51139035658E+01
 0.46280718880E+01 0.41847693649E+01 0.37982696635E+01 0.34727166503E+01 0.32057303051E+01
 0.29925161125E+01 0.28288241107E+01 0.27122329414E+01 0.26420800328E+01 0.26186212592E+01
 0.26420791828E+01 0.27122305740E+01 0.28288237879E+01 0.29925237947E+01 0.32057438634E+01
 0.34727227838E+01 0.37982584827E+01 0.41847486614E+01 0.46280568932E+01 0.51138933326E+01
 0.56167170275E+01 0.61020590667E+01 0.65314812407E+01 0.68684159415E+01 0.70832876715E+01
 0.71570838594E+01 0.70832846681E+01 0.68684300116E+01 0.65315188211E+01 0.61020993745E+01
 0.56167396553E+01 0.57301991448E+01 0.50823308875E+01 0.45053485337E+01 0.40122210674E+01
 0.36039723852E+01 0.32750798939E+01 0.30185181834E+01 0.28288223521E+01 0.27030228240E+01
 0.26401469562E+01 0.26401394602E+01 0.27030118639E+01 0.28288237879E+01 0.30185316028E+01
 0.32750983477E+01 0.36039889911E+01 0.40122178589E+01 0.45053122168E+01 0.50822894451E+01
 0.57302008338E+01 0.64209147991E+01 0.71121819971E+01 0.77528580459E+01 0.82903151740E+01
 0.86778568144E+01 0.88808214298E+01 0.88808229224E+01 0.86778796023E+01 0.82903680916E+01
 0.77528961005E+01 0.71121644965E+01 0.64208741716E+01 0.62294160025E+01 0.54185831562E+01
 0.47144281827E+01 0.41260631694E+01 0.36495716872E+01 0.32750845222E+01 0.29925038310E+01
 0.27944485021E+01 0.26767526929E+01 0.26376499598E+01 0.26767291458E+01 0.27944413077E+01
 0.29925237947E+01 0.32750983477E+01 0.36495639760E+01 0.41260616426E+01 0.47144505623E+01
 0.54186045531E+01 0.62294120355E+01 0.71193300705E+01 0.80413110428E+01 0.89329875177E+01
 0.97246423949E+01 0.10348583766E+02 0.10748213376E+02 0.10885839505E+02 0.10748214779E+02
 0.10348579130E+02 0.97246251137E+01 0.89329666141E+01 0.80413069774E+01 0.71193438304E+01
 0.65554860205E+01 0.55977438613E+01 0.47871190058E+01 0.41260519161E+01 0.36039819664E+01
 0.32057426486E+01 0.29176077461E+01 0.27299460284E+01 0.26372834519E+01 0.26372888414E+01
 0.27299549337E+01 0.29176109160E+01 0.32057438634E+01 0.36039889911E+01 0.41260616426E+01
 0.47871261382E+01 0.55977567250E+01 0.65555137064E+01 0.76372354523E+01 0.87955700736E+01
 0.99612894315E+01 0.11050216197E+02 0.11972657080E+02 0.12644353366E+02 0.12998719232E+02
 0.12998679018E+02 0.12644275294E+02 0.11972618213E+02 0.11050240667E+02 0.99613316269E+01
 0.87955789716E+01 0.76372099417E+01 0.66689150036E+01 0.55977498153E+01 0.47144299211E+01
 0.40122007631E+01 0.34727138636E+01 0.30752267841E+01 0.28024986797E+01 0.26429617600E+01
 0.25904181655E+01 0.26429713907E+01 0.28025108059E+01 0.30752354369E+01 0.34727227838E+01
 0.40122178589E+01 0.47144505623E+01 0.55977567250E+01 0.66689032827E+01 0.79133669903E+01
 0.92891204161E+01 0.10726454905E+02 0.12132923714E+02 0.13400844106E+02 0.14417062495E+02
 0.15077311187E+02 0.15306254759E+02 0.15077305846E+02 0.14417061352E+02 0.13400843907E+02
 0.12132910375E+02 0.10726431390E+02 0.92891091937E+01 0.79133770312E+01 0.65554544187E+01
 0.54185787908E+01 0.45053515285E+01 0.37982689698E+01 0.32710431096E+01 0.28980553435E+01
 0.26595743802E+01 0.25431748866E+01 0.25431389260E+01 0.26595365099E+01 0.28980958375E+01
 0.32711034144E+01 0.37982584827E+01 0.45053122168E+01 0.54186045531E+01 0.65555137064E+01
 0.79133669903E+01 0.94609267593E+01 0.11135547916E+02 0.12845483138E+02 0.14474077861E+02
 0.15883698434E+02 0.16922697298E+02 0.17472748908E+02 0.17472803849E+02 0.16922789034E+02
 0.15883693996E+02 0.14473950708E+02 0.12845358001E+02 0.11135543368E+02 0.94609967409E+01
 0.79133797018E+01 0.62293783241E+01 0.50822837159E+01 0.41847733348E+01 0.35085633732E+01
 0.30205896102E+01 0.26920996093E+01 0.25027026852E+01 0.24407871575E+01 0.25026772548E+01
 0.26921067574E+01 0.30206261792E+01 0.35085683564E+01 0.41847486614E+01 0.50822894451E+01
 0.62294120355E+01 0.76372354523E+01 0.92891204161E+01 0.11135547916E+02 0.13094413795E+02
 0.15052209266E+02 0.16854992906E+02 0.18308404242E+02 0.19250348257E+02 0.19576419775E+02
 0.19250299701E+02 0.18308374514E+02 0.16854983725E+02 0.15052157279E+02 0.13094326048E+02
 0.11135503050E+02 0.92891291110E+01 0.76372296840E+01 0.57301770480E+01 0.46279920759E+01
 0.37879413757E+01 0.31726961766E+01 0.27449555878E+01 0.24753768414E+01 0.23450952655E+01
 0.23451278008E+01 0.24754244378E+01 0.27449452838E+01 0.31726491857E+01 0.37879458729E+01
 0.46280568932E+01 0.57302008338E+01 0.71193300705E+01 0.87955700736E+01 0.10726454905E+02
 0.12845483138E+02 0.15052209266E+02 0.17194866061E+02 0.19052202625E+02 0.20420614609E+02
 0.21146954018E+02 0.21146858083E+02 0.20420475969E+02 0.19052228437E+02 0.17194994222E+02
 0.15052218761E+02 0.12845342110E+02 0.10726348007E+02 0.87956009913E+01 0.71193919158E+01
 0.51138945180E+01 0.41035639112E+01 0.33532864341E+01 0.28200363981E+01 0.24658068635E+01
 0.22634771803E+01 0.21976697713E+01 0.22634891208E+01 0.24658087527E+01 0.28200287953E+01
 0.33532913231E+01 0.41035785944E+01 0.51138933326E+01 0.64209147991E+01 0.80413110428E+01
 0.99612894315E+01 0.12132923714E+02 0.14474077861E+02 0.16854992906E+02 0.19052202625E+02
 0.20829376031E+02 0.21988660441E+02 0.22391957186E+02 0.21988660583E+02 0.20829369517E+02
 0.19052196682E+02 0.16854997820E+02 0.14474080104E+02 0.12132904887E+02 0.99612646222E+01
 0.80413095278E+01 0.64209301389E+01 0.44420002736E+01 0.35565540426E+01 0.29158082696E+01
 0.24754148018E+01 0.22003435716E+01 0.20680886502E+01 0.20680693597E+01 0.22003124417E+01
 0.24754191760E+01 0.29158466591E+01 0.35565616706E+01 0.44419433211E+01 0.56167170275E+01
 0.71121819971E+01 0.89329875177E+01 0.11050216197E+02 0.13400844106E+02 0.15883698434E+02
 0.18308404242E+02 0.20420614609E+02 0.21988660441E+02 0.22826588200E+02 0.22826636955E+02
 0.21988707679E+02 0.20420542881E+02 0.18308296461E+02 0.15883707540E+02 0.13400941956E+02
 0.11050249617E+02 0.89329278274E+01 0.71121476769E+01 0.56167670477E+01 0.37709003512E+01
 0.30269510491E+01 0.25026968961E+01 0.21569057858E+01 0.19603831500E+01 0.18966343288E+01
 0.19604061208E+01 0.21569061350E+01 0.25026693729E+01 0.30269378039E+01 0.37709086610E+01
 0.47819837081E+01 0.61020590667E+01 0.77528580459E+01 0.97246423949E+01 0.11972657080E+02
 0.14417062495E+02 0.16922697298E+02 0.19250348257E+02 0.21146954018E+02 0.22391957186E+02
 0.22826636955E+02 0.22391981025E+02 0.21146974600E+02 0.19250361852E+02 0.16922719512E+02
 0.14417080919E+02 0.11972647668E+02 0.97246245128E+01 0.77528703495E+01 0.61020902278E+01
 0.47819923907E+01 0.31444105356E+01 0.25431756879E+01 0.21318166145E+01 0.18756445459E+01
 0.17526982811E+01 0.17527203603E+01 0.18756718949E+01 0.21317969948E+01 0.25431302827E+01
 0.31444009927E+01 0.39804289389E+01 0.50978251121E+01 0.65314812407E+01 0.82903151740E+01
 0.10348583766E+02 0.12644353366E+02 0.15077311187E+02 0.17472748908E+02 0.19576419775E+02
 0.21146858083E+02 0.21988660583E+02 0.21988707679E+02 0.21146974600E+02 0.19576544063E+02
 0.17472818074E+02 0.15077305542E+02 0.12644314649E+02 0.10348575245E+02 0.82903514282E+01
 0.65315129835E+01 0.50978106535E+01 0.39803977682E+01 0.25904156483E+01 0.21215564894E+01
 0.18125768715E+01 0.16369971449E+01 0.15800208626E+01 0.16369904126E+01 0.18125687111E+01
 0.21215511732E+01 0.25904092874E+01 0.32572376930E+01 0.41673368983E+01 0.53628771334E+01
 0.68684159415E+01 0.86778568144E+01 0.10748213376E+02 0.12998719232E+02 0.15306254759E+02
 0.17472803849E+02 0.19250299701E+02 0.20420475969E+02 0.20829369517E+02 0.20420542881E+02
 0.19250361852E+02 0.17472818074E+02 0.15306252934E+02 0.12998742824E+02 0.10748252006E+02
 0.86778779985E+01 0.68684184795E+01 0.53628831051E+01 0.41673527100E+01 0.32572514952E+01
 0.21217031306E+01 0.17684006774E+01 0.15480348676E+01 0.14421765667E+01 0.14421837422E+01
 0.15480388773E+01 0.17683866230E+01 0.21216915126E+01 0.26372760399E+01 0.33540959529E+01
 0.43147719678E+01 0.55538714709E+01 0.70832876715E+01 0.88808214298E+01 0.10885839505E+02
 0.12998679018E+02 0.15077305846E+02 0.16922789034E+02 0.18308374514E+02 0.19052228437E+02
 0.19052196682E+02 0.18308296461E+02 0.16922719512E+02 0.15077305542E+02 0.12998742824E+02
 0.10885894615E+02 0.88808260576E+01 0.70832826650E+01 0.55539014381E+01 0.43148135661E+01
 0.33541096484E+01 0.26372742452E+01 0.17396939543E+01 0.14831761575E+01 0.13370642423E+01
 0.12896229629E+01 0.13370852439E+01 0.14831780337E+01 0.17396737076E+01 0.21274379837E+01
 0.26767491921E+01 0.34249341031E+01 0.44091246109E+01 0.56538388261E+01 0.71570838594E+01
 0.88808229224E+01 0.10748214779E+02 0.12644275294E+02 0.14417061352E+02 0.15883693996E+02
 0.16854983725E+02 0.17194994222E+02 0.16854997820E+02 0.15883707540E+02 0.14417080919E+02
 0.12644314649E+02 0.10748252006E+02 0.88808260576E+01 0.71570697267E+01 0.56538481542E+01
 0.44091502987E+01 0.34249371944E+01 0.26767339267E+01 0.21274422134E+01 0.14390367023E+01
 0.12614272236E+01 0.11759645802E+01 0.11759594734E+01 0.12614199490E+01 0.14390399908E+01
 0.17227389152E+01 0.21343053270E+01 0.27030231963E+01 0.34623209951E+01 0.44416023282E+01
 0.56538613972E+01 0.70832846681E+01 0.86778796023E+01 0.10348579130E+02 0.11972618213E+02
 0.13400843907E+02 0.14473950708E+02 0.15052157279E+02 0.15052218761E+02 0.14474080104E+02
 0.13400941956E+02 0.11972647668E+02 0.10348575245E+02 0.86778779985E+01 0.70832826650E+01
 0.56538481542E+01 0.44415867197E+01 0.34623147731E+01 0.27030204968E+01 0.21342953388E+01
 0.17227259179E+01 0.12113215551E+01 0.10967559672E+01 0.10595415771E+01 0.10967436505E+01
 0.12113200225E+01 0.14121436086E+01 0.17141989177E+01 0.21387318834E+01 0.27122348588E+01
 0.34623161282E+01 0.44091467551E+01 0.55538984737E+01 0.68684300116E+01 0.82903680916E+01
 0.97246251137E+01 0.11050240667E+02 0.12132910375E+02 0.12845358001E+02 0.13094326048E+02
 0.12845342110E+02 0.12132904887E+02 0.11050249617E+02 0.97246245128E+01 0.82903514282E+01
 0.68684184795E+01 0.55539014381E+01 0.44091502987E+01 0.34623147731E+01 0.27122380940E+01
 0.21387365929E+01 0.17141913713E+01 0.14121304494E+01 0.10472990975E+01 0.98202312785E+00
 0.98202141466E+00 0.10473009787E+01 0.11830839717E+01 0.13995504474E+01 0.17116390705E+01
 0.21387291332E+01 0.27030236586E+01 0.34249273805E+01 0.43147820337E+01 0.53628586687E+01
 0.65315188211E+01 0.77528961005E+01 0.89329666141E+01 0.99613316269E+01 0.10726431390E+02
 0.11135543368E+02 0.11135503050E+02 0.10726348007E+02 0.99612646222E+01 0.89329278274E+01
 0.77528703495E+01 0.65315129835E+01 0.53628831051E+01 0.43148135661E+01 0.34249371944E+01
 0.27030204968E+01 0.21387365929E+01 0.17116523089E+01 0.13995510366E+01 0.11830760017E+01
 0.93807125717E+00 0.91031578760E+00 0.93806958730E+00 0.10237042089E+01 0.11740056759E+01
 0.13995524846E+01 0.17141890999E+01 0.21343051241E+01 0.26767489500E+01 0.33541046579E+01
 0.41673262520E+01 0.50977929036E+01 0.61020993745E+01 0.71121644965E+01 0.80413069774E+01
 0.87955789716E+01 0.92891091937E+01 0.94609967409E+01 0.92891291110E+01 0.87956009913E+01
 0.80413095278E+01 0.71121476769E+01 0.61020902278E+01 0.50978106535E+01 0.41673527100E+01
 0.33541096484E+01 0.26767339267E+01 0.21342953388E+01 0.17141913713E+01 0.13995510366E+01
 0.11739955977E+01 0.10236981185E+01 0.87604111271E+00 0.87604105160E+00 0.92388183944E+00
 0.10237026231E+01 0.11830854516E+01 0.14121431286E+01 0.17227363911E+01 0.21274464918E+01
 0.26372781851E+01 0.32572673093E+01 0.39804239474E+01 0.47820037832E+01 0.56167396553E+01
 0.64208741716E+01 0.71193438304E+01 0.76372099417E+01 0.79133770312E+01 0.79133797018E+01
 0.76372296840E+01 0.71193919158E+01 0.64209301389E+01 0.56167670477E+01 0.47819923907E+01
 0.39803977682E+01 0.32572514952E+01 0.26372742452E+01 0.21274422134E+01 0.17227259179E+01
 0.14121304494E+01 0.11830760017E+01 0.10236981185E+01 0.92388083524E+00 0.87604262175E+00
 0.91031580688E+00 0.98201902298E+00 0.10967452527E+01 0.12614122170E+01 0.14831638470E+01
 0.17683937554E+01 0.21215465581E+01 0.25431545277E+01 0.30269318828E+01 0.35565691571E+01
 0.41036275801E+01 0.46280728699E+01 0.50823324993E+01 0.54185840881E+01 0.55977447096E+01
 0.55977522098E+01 0.54185826920E+01 0.50822879970E+01 0.46279966535E+01 0.41035686639E+01
 0.35565566735E+01 0.30269488476E+01 0.25431688181E+01 0.21215473058E+01 0.17683908460E+01
 0.14831667923E+01 0.12614204811E+01 0.10967535308E+01 0.98202382228E+00 0.91031719847E+00
 0.87604268255E+00 0.91031580688E+00 0.95278131287E+00 0.10279213273E+01 0.11411634987E+01
 0.12983554407E+01 0.15047219614E+01 0.17639283167E+01 0.20769966121E+01 0.24407452045E+01
 0.28457235403E+01 0.32742284533E+01 0.36995272304E+01 0.40874082271E+01 0.44004785044E+01
 0.46045460881E+01 0.46754831807E+01 0.46045511455E+01 0.44004510781E+01 0.40873439678E+01
 0.36994765249E+01 0.32742284923E+01 0.28457467087E+01 0.24407431719E+01 0.20769694529E+01
 0.17639163634E+01 0.15047426023E+01 0.12983828353E+01 0.11411714349E+01 0.10279165121E+01
 0.95278301740E+00 0.91032362657E+00 0.89663831963E+00 0.98201902298E+00 0.10279213273E+01
 0.11020899142E+01 0.12094184512E+01 0.13545045681E+01 0.15407457701E+01 0.17695604155E+01
 0.20395071871E+01 0.23450970865E+01 0.26753928714E+01 0.30129551479E+01 0.33340130951E+01
 0.36105836675E+01 0.38145796415E+01 0.39230494415E+01 0.39230486314E+01 0.38145774912E+01
 0.36105838198E+01 0.33340216187E+01 0.30129704794E+01 0.26754037345E+01 0.23450970815E+01
 0.20395041663E+01 0.17695641631E+01 0.15407537073E+01 0.13545078199E+01 0.12094155730E+01
 0.11020859828E+01 0.10279185781E+01 0.98201653745E+00 0.96025092079E+00 0.96025219498E+00
 0.10967452527E+01 0.11411634987E+01 0.12094184512E+01 0.13057244186E+01 0.14335314721E+01
 0.15948155160E+01 0.17894665506E+01 0.20145705618E+01 0.22635003702E+01 0.25250334855E+01
 0.27830203833E+01 0.30172180330E+01 0.32056416676E+01 0.33282040263E+01 0.33707450262E+01
 0.33281736862E+01 0.32056257124E+01 0.30172454700E+01 0.27830653756E+01 0.25250492312E+01
 0.22634784936E+01 0.20145470471E+01 0.17894712984E+01 0.15948365935E+01 0.14335372985E+01
 0.13057060273E+01 0.12093955428E+01 0.11411558249E+01 0.10967524686E+01 0.10720985598E+01
 0.10642363592E+01 0.10720897429E+01 0.12614122170E+01 0.12983554407E+01 0.13545045681E+01
 0.14335314721E+01 0.15381194563E+01 0.16694224649E+01 0.18265300375E+01 0.20058314292E+01
 0.22003541642E+01 0.23993590130E+01 0.25885877915E+01 0.27515070884E+01 0.28716211692E+01
 0.29354676589E+01 0.29354598015E+01 0.28716088443E+01 0.27515057045E+01 0.25885922661E+01
 0.23993525108E+01 0.22003341927E+01 0.20058119084E+01 0.18265203087E+01 0.16694178312E+01
 0.15381127110E+01 0.14335228745E+01 0.13544983177E+01 0.12983536552E+01 0.12614143733E+01
 0.12397112435E+01 0.12298446515E+01 0.12298427711E+01 0.12397074722E+01 0.14831638470E+01
 0.15047219614E+01 0.15407457701E+01 0.15948155160E+01 0.16694224649E+01 0.17654848590E+01
 0.18818120988E+01 0.20145698859E+01 0.21569378822E+01 0.22991795208E+01 0.24293140031E+01
 0.25345123722E+01 0.26031381401E+01 0.26270054772E+01 0.26031580639E+01 0.25345390824E+01
 0.24293220295E+01 0.22991546865E+01 0.21569023233E+01 0.20145611250E+01 0.18818335036E+01
 0.17655002927E+01 0.16694075251E+01 0.15947904472E+01 0.15407433362E+01 0.15047412451E+01
 0.14831753463E+01 0.14719346672E+01 0.14671187963E+01 0.14658745610E+01 0.14671372118E+01
 0.14719466425E+01 0.17683937554E+01 0.17639283167E+01 0.17695604155E+01 0.17894665506E+01
 0.18265300375E+01 0.18818120988E+01 0.19540749337E+01 0.20395072309E+01 0.21318010303E+01
 0.22226314738E+01 0.23025442525E+01 0.23622524127E+01 0.23942289511E+01 0.23942347855E+01
 0.23622672697E+01 0.23025591889E+01 0.22226368181E+01 0.21317997582E+01 0.20395139272E+01
 0.19540947080E+01 0.18818312828E+01 0.18265363215E+01 0.17894669290E+01 0.17695678688E+01
 0.17639403520E+01 0.17683971211E+01 0.17780438567E+01 0.17879667821E+01 0.17940962345E+01
 0.17941017587E+01 0.17879794986E+01 0.17780531682E+01 0.21215465581E+01 0.20769966121E+01
 0.20395071871E+01 0.20145705618E+01 0.20058314292E+01 0.20145698859E+01 0.20395072309E+01
 0.20769974370E+01 0.21215468957E+01 0.21665418219E+01 0.22051141961E+01 0.22311450884E+01
 0.22403426020E+01 0.22311468539E+01 0.22051068714E+01 0.21665300765E+01 0.21215536231E+01
 0.20770289213E+01 0.20395340386E+01 0.20145618946E+01 0.20058019467E+01 0.20145622181E+01
 0.20395349696E+01 0.20770289805E+01 0.21215504759E+01 0.21665238493E+01 0.22051001049E+01
 0.22311411409E+01 0.22403377600E+01 0.22311414186E+01 0.22051126435E+01 0.21665417719E+01
 0.25431545277E+01 0.24407452045E+01 0.23450970865E+01 0.22635003702E+01 0.22003541642E+01
 0.21569378822E+01 0.21318010303E+01 0.21215468957E+01 0.21216971427E+01 0.21274463345E+01
 0.21343066525E+01 0.21387336186E+01 0.21387379162E+01 0.21343117962E+01 0.21274452953E+01
 0.21216987067E+01 0.21215553476E+01 0.21317970351E+01 0.21569038726E+01 0.22003089765E+01
 0.22634832957E+01 0.23451194421E+01 0.24407784125E+01 0.25431671025E+01 0.26429543562E+01
 0.27299395961E+01 0.27944455166E+01 0.28288234137E+01 0.28288267252E+01 0.27944568690E+01
 0.27299573711E+01 0.26429654694E+01 0.30269318828E+01 0.28457235403E+01 0.26753928714E+01
 0.25250334855E+01 0.23993590130E+01 0.22991795208E+01 0.22226314738E+01 0.21665418219E+01
 0.21274463345E+01 0.21021675511E+01 0.20881358349E+01 0.20836526300E+01 0.20881277952E+01
 0.21021734619E+01 0.21274788873E+01 0.21665705724E+01 0.22226014809E+01 0.22990850788E+01
 0.23992757321E+01 0.25250403875E+01 0.26754764016E+01 0.28457982546E+01 0.30269462638E+01
 0.32061204368E+01 0.33681988714E+01 0.34978028928E+01 0.35816330574E+01 0.36106450127E+01
 0.35816293043E+01 0.34978022332E+01 0.33682135756E+01 0.32061418996E+01 0.35565691571E+01
 0.32742284533E+01 0.30129551479E+01 0.27830203833E+01 0.25885877915E+01 0.24293140031E+01
 0.23025442525E+01 0.22051141961E+01 0.21343066525E+01 0.20881358349E+01 0.20653414117E+01
 0.20653301584E+01 0.20881245422E+01 0.21343269899E+01 0.22051450200E+01 0.23025150362E+01
 0.24291964831E+01 0.25884637544E+01 0.27830095029E+01 0.30130738788E+01 0.32743697899E+01
 0.35566336189E+01 0.38434510623E+01 0.41135961454E+01 0.43436968860E+01 0.45116987205E+01
 0.46004089005E+01 0.46004020710E+01 0.45116804436E+01 0.43436830663E+01 0.41136048592E+01
 0.38434555924E+01 0.41036275801E+01 0.36995272304E+01 0.33340130951E+01 0.30172180330E+01
 0.27515070884E+01 0.25345123722E+01 0.23622524127E+01 0.22311450884E+01 0.21387336186E+01
 0.20836526300E+01 0.20653301584E+01 0.20836510957E+01 0.21387575314E+01 0.22311662620E+01
 0.23621859038E+01 0.25343390256E+01 0.27513445971E+01 0.30172081757E+01 0.33341573809E+01
 0.36996907190E+01 0.41037008132E+01 0.45269391760E+01 0.49416939990E+01 0.53147533179E+01
 0.56120400036E+01 0.58039490337E+01 0.58703113423E+01 0.58039536642E+01 0.56120292351E+01
 0.53147345946E+01 0.49416951200E+01 0.45269394614E+01 0.46280728699E+01 0.40874082271E+01
 0.36105836675E+01 0.32056416676E+01 0.28716211692E+01 0.26031381401E+01 0.23942289511E+01
 0.22403426020E+01 0.21387379162E+01 0.20881277952E+01 0.20881245422E+01 0.21387575314E+01
 0.22403823365E+01 0.23941762425E+01 0.26029194404E+01 0.28713728879E+01 0.32055928250E+01
 0.36107761049E+01 0.40876489629E+01 0.46281749056E+01 0.52121678636E+01 0.58064702224E+01
 0.63674548236E+01 0.68464462582E+01 0.71969544579E+01 0.73823405346E+01 0.73823557017E+01
 0.71969775539E+01 0.68464516570E+01 0.63674665567E+01 0.58065195357E+01 0.52121994904E+01
 0.50823324993E+01 0.44004785044E+01 0.38145796415E+01 0.33282040263E+01 0.29354676589E+01
 0.26270054772E+01 0.23942347855E+01 0.22311468539E+01 0.21343117962E+01 0.21021734619E+01
 0.21343269899E+01 0.22311662620E+01 0.23941762425E+01 0.26267947680E+01 0.29352059045E+01
 0.33281244215E+01 0.38147766789E+01 0.44007792087E+01 0.50825005524E+01 0.58416128059E+01
 0.66421035508E+01 0.74313388540E+01 0.81453263837E+01 0.87172546483E+01 0.90879515266E+01
 0.92164292191E+01 0.90879810830E+01 0.87172803654E+01 0.81453393095E+01 0.74313775931E+01
 0.66421782238E+01 0.58416263573E+01 0.54185840881E+01 0.46045460881E+01 0.39230494415E+01
 0.33707450262E+01 0.29354598015E+01 0.26031580639E+01 0.23622672697E+01 0.22051068714E+01
 0.21274452953E+01 0.21274788873E+01 0.22051450200E+01 0.23621859038E+01 0.26029194404E+01
 0.29352059045E+01 0.33706966889E+01 0.39232762806E+01 0.46048731758E+01 0.54187698280E+01
 0.63520524921E+01 0.73699618758E+01 0.84145674536E+01 0.94086139315E+01 0.10264045456E+02
 0.10894341047E+02 0.11229309705E+02 0.11229327009E+02 0.10894365015E+02 0.10264038682E+02
 0.94086018875E+01 0.84146174224E+01 0.73700658213E+01 0.63520752298E+01 0.55977447096E+01
 0.46754831807E+01 0.39230486314E+01 0.33281736862E+01 0.28716088443E+01 0.25345390824E+01
 0.23025591889E+01 0.21665300765E+01 0.21216987067E+01 0.21665705724E+01 0.23025150362E+01
 0.25343390256E+01 0.28713728879E+01 0.33281244215E+01 0.39232762806E+01 0.46758313493E+01
 0.55979570592E+01 0.66857415777E+01 0.79107877495E+01 0.92157916709E+01 0.10515670665E+02
 0.11704201737E+02 0.12666111257E+02 0.13294812193E+02 0.13513734542E+02 0.13294840485E+02
 0.12666121411E+02 0.11704183858E+02 0.10515693586E+02 0.92159194589E+01 0.79109571469E+01
 0.66857753278E+01 0.55977522098E+01 0.46045511455E+01 0.38145774912E+01 0.32056257124E+01
 0.27515057045E+01 0.24293220295E+01 0.22226368181E+01 0.21215536231E+01 0.21215553476E+01
 0.22226014809E+01 0.24291964831E+01 0.27513445971E+01 0.32055928250E+01 0.38147766789E+01
 0.46048731758E+01 0.55979570592E+01 0.68019125725E+01 0.81996567922E+01 0.97414899165E+01
 0.11342743720E+02 0.12886848420E+02 0.14234237303E+02 0.15239574294E+02 0.15778584188E+02
 0.15778601655E+02 0.15239618416E+02 0.14234284007E+02 0.12886885974E+02 0.11342813422E+02
 0.97416426512E+01 0.81998359754E+01 0.68019489463E+01 0.54185826920E+01 0.44004510781E+01
 0.36105838198E+01 0.30172454700E+01 0.25885922661E+01 0.22991546865E+01 0.21317997582E+01
 0.20770289213E+01 0.21317970351E+01 0.22990850788E+01 0.25884637544E+01 0.30172081757E+01
 0.36107761049E+01 0.44007792087E+01 0.54187698280E+01 0.66857415777E+01 0.81996567922E+01
 0.99248595762E+01 0.11786182590E+02 0.13667846800E+02 0.15417006539E+02 0.16855854010E+02
 0.17808659543E+02 0.18142803247E+02 0.17808650968E+02 0.16855915794E+02 0.15417118679E+02
 0.13667900454E+02 0.11786190634E+02 0.99249641154E+01 0.81998646081E+01 0.66858332056E+01
 0.50822879970E+01 0.40873439678E+01 0.33340216187E+01 0.27830653756E+01 0.23993525108E+01
 0.21569023233E+01 0.20395139272E+01 0.20395340386E+01 0.21569038726E+01 0.23992757321E+01
 0.27830095029E+01 0.33341573809E+01 0.40876489629E+01 0.50825005524E+01 0.63520524921E+01
 0.79107877495E+01 0.97414899165E+01 0.11786182590E+02 0.13941256317E+02 0.16055468761E+02
 0.17933901319E+02 0.19356623489E+02 0.20124997577E+02 0.20124952676E+02 0.19356594662E+02
 0.17934009717E+02 0.16055616849E+02 0.13941287317E+02 0.11786163401E+02 0.97416092209E+01