    2    2   15    1
  0.2001288E+02  0.3839590E-09  0.3839590E-09  0.3839590E-09  0.5000000E-15
  1.000000000000000E-004
  CAR 
 unknown system                          
      8     10      8
 
  0.1250000E+00  0.1250000E+00  0.1250000E+00  0.3125000E-01
    1       -5.994789   1.000000
    2        4.035899   1.000000
    3        5.344587   0.999990
    4        5.344587   0.999990
    5        8.075127   0.000000
    6        8.602917   0.000000
    7        8.602917   0.000000
    8       10.168453   0.000000
 
  0.3750000E+00  0.1250000E+00  0.1250000E+00  0.9375000E-01
    1       -4.967627   1.000000
    2        1.043101   1.000000
    3        3.358214   1.000000
    4        4.865481   1.000000
    5        8.289143   0.000000
    6        9.294271   0.000000
    7        9.470237   0.000000
    8       11.848321   0.000000
 
 -0.3750000E+00  0.1250000E+00  0.1250000E+00  0.9375000E-01
    1       -3.827311   1.000000
    2       -1.035842   1.000000
    3        3.379940   1.000000
    4        4.093554   1.000000
    5        7.795741   0.000000
    6        9.122965   0.000000
    7        9.729013   0.000000
    8       12.945468   0.000000
 
 -0.1250000E+00  0.1250000E+00  0.1250000E+00  0.9375000E-01
    1       -5.466636   1.000000
    2        2.420074   1.000000
    3        4.336709   1.000000
    4        4.401394   1.000000
    5        7.776116   0.000000
    6        9.258812   0.000000
    7       10.062725   0.000000
    8       10.375169   0.000000
 
  0.3750000E+00  0.3750000E+00  0.1250000E+00  0.9375000E-01
    1       -4.434803   1.000000
    2        0.710015   1.000000
    3        3.009651   1.000000
    4        3.462603   1.000000
    5        7.001487   0.000000
    6        8.536035   0.000000
    7       11.548646   0.000000
    8       11.846873   0.000000
 
 -0.3750000E+00  0.3750000E+00  0.1250000E+00  0.1875000E+00
    1       -2.794303   1.000000
    2       -1.252481   1.000000
    3        1.654284   1.000000
    4        2.731420   1.000000
    5        8.026565   0.000000
    6        9.904008   0.000000
    7       10.849831   0.000000
    8       12.992903   0.000000
 
 -0.1250000E+00  0.3750000E+00  0.1250000E+00  0.1875000E+00
    1       -4.019081   1.000000
    2       -0.164015   1.000000
    3        2.367640   1.000000
    4        3.737279   1.000000
    5        8.496923   0.000000
    6        9.163536   0.000000
    7       10.613578   0.000000
    8       11.518503   0.000000
 
 -0.3750000E+00 -0.3750000E+00  0.1250000E+00  0.9375000E-01
    1       -2.962219   1.000000
    2       -1.155004   1.000000
    3        2.264664   1.000000
    4        2.995743   1.000000
    5        6.561000   0.000007
    6        7.616131   0.000000
    7       13.818782   0.000000
    8       13.874477   0.000000
 
  0.3750000E+00  0.3750000E+00  0.3750000E+00  0.3125000E-01
    1       -4.534487   1.000000
    2       -0.247789   1.000000
    3        4.558163   1.000000
    4        4.558163   1.000000
    5        7.227643   0.000000
    6        9.086289   0.000000
    7        9.086289   0.000000
    8       13.470034   0.000000
 
 -0.3750000E+00  0.3750000E+00  0.3750000E+00  0.9375000E-01
    1       -3.331472   1.000000
    2       -0.950398   1.000000
    3        1.712926   1.000000
    4        3.776339   1.000000
    5        7.487477   0.000000
    6       11.039875   0.000000
    7       11.080419   0.000000
    8       12.524063   0.000000
