unknown system                          
   1.00000000000000     
    -2.450000    2.450000    1.274000
     2.450000   -2.450000    1.274000
     2.450000    2.450000   -1.274000
   Si
     2
Direct
  0.250000  0.750000  0.500000
  0.000000  0.000000  0.000000
 
   24   24   24
 -.55578154867E+01 -.35425389925E+01 0.14704169045E+01 0.70422897892E+01 0.10818573413E+02
 0.11795105924E+02 0.10568467727E+02 0.85614159632E+01 0.66897452302E+01 0.52310970858E+01
 0.42485112698E+01 0.36993777402E+01 0.35246420128E+01 0.36994168913E+01 0.42484868115E+01
 0.52310357211E+01 0.66897554730E+01 0.85614382005E+01 0.10568368426E+02 0.11794965272E+02
 0.10818560419E+02 0.70423156842E+01 0.14702718981E+01 -.35427602498E+01 -.35427602498E+01
 -.45925800982E+01 -.18224428208E+01 0.33379291604E+01 0.84037758357E+01 0.11333302477E+02
 0.11565764736E+02 0.99907139467E+01 0.79885778709E+01 0.62251673000E+01 0.49033494166E+01
 0.40481528793E+01 0.36062134604E+01 0.35245780050E+01 0.37909144358E+01 0.44409603503E+01
 0.55356689536E+01 0.71020195294E+01 0.90387595244E+01 0.10991743787E+02 0.11879418808E+02
 0.10386817358E+02 0.62450043730E+01 0.78969479622E+00 0.14702718981E+01 -.18226370450E+01
 -.19245880327E+01 0.12075908954E+01 0.59238328633E+01 0.99402905169E+01 0.11705550435E+02
 0.11131406470E+02 0.93013648155E+01 0.73642223228E+01 0.57443748300E+01 0.45768965500E+01
 0.38540387778E+01 0.35177357344E+01 0.35244583281E+01 0.38743099798E+01 0.46108613756E+01
 0.57922348955E+01 0.74270507068E+01 0.93817807795E+01 0.11245593395E+02 0.11895831027E+02
 0.10219799611E+02 0.62450043730E+01 0.70423156842E+01 0.33378160481E+01 0.12074465877E+01
 0.18305409234E+01 0.48496396995E+01 0.86091374067E+01 0.11234419003E+02 0.11752264056E+02
 0.10487820385E+02 0.85563989074E+01 0.67331717347E+01 0.52810789816E+01 0.42734821825E+01
 0.36786136338E+01 0.34396362907E+01 0.35242798355E+01 0.39433547034E+01 0.47442096628E+01
 0.59780569468E+01 0.76353679021E+01 0.95611831123E+01 0.11329634446E+02 0.11895831027E+02
 0.10386817358E+02 0.10818560419E+02 0.84038069015E+01 0.59237661721E+01 0.48495600129E+01
 0.58499314668E+01 0.83233270912E+01 0.10811305119E+02 0.11975244574E+02 0.11403936982E+02
 0.97052938262E+01 0.78072171577E+01 0.61377914804E+01 0.48644376823E+01 0.40110356783E+01
 0.35320203543E+01 0.33766659253E+01 0.35240919339E+01 0.39927275929E+01 0.48293967895E+01
 0.60756922999E+01 0.77071259764E+01 0.95611831123E+01 0.11245593395E+02 0.11879418808E+02
 0.11794965272E+02 0.11333304695E+02 0.99403240609E+01 0.86091221545E+01 0.83233155640E+01
 0.93397547666E+01 0.10988007566E+02 0.12151860359E+02 0.12052555652E+02 0.10732970660E+02
 0.88947068258E+01 0.71062318068E+01 0.56154794787E+01 0.45177911051E+01 0.38032148498E+01
 0.34220036765E+01 0.33325796122E+01 0.35239559396E+01 0.40184507350E+01 0.48586824225E+01
 0.60756922999E+01 0.76353679021E+01 0.93817807795E+01 0.10991743787E+02 0.10568368426E+02
 0.11565696870E+02 0.11705563351E+02 0.11234448075E+02 0.10811335828E+02 0.10988056315E+02
 0.11750814920E+02 0.12509175799E+02 0.12549108915E+02 0.11578385927E+02 0.99263037270E+01
 0.81337755848E+01 0.65029844170E+01 0.51969029644E+01 0.42585534280E+01 0.36597000396E+01
 0.33539253433E+01 0.33098835150E+01 0.35238912648E+01 0.40184507350E+01 0.48293967895E+01
 0.59780569468E+01 0.74270507068E+01 0.90387595244E+01 0.85614382005E+01 0.99907016562E+01
 0.11131408061E+02 0.11752278167E+02 0.11975260896E+02 0.12151923471E+02 0.12509268075E+02
 0.12904483593E+02 0.12917342719E+02 0.12208255443E+02 0.10830572302E+02 0.91580887127E+01
 0.74914750314E+01 0.60399221520E+01 0.49051990398E+01 0.40985313358E+01 0.35864918730E+01
 0.33308797762E+01 0.33098835150E+01 0.35239559396E+01 0.39927275929E+01 0.47442096628E+01
 0.57922348955E+01 0.71020195294E+01 0.66897554730E+01 0.79886279345E+01 0.93014284681E+01
 0.10487875292E+02 0.11403943968E+02 0.12052554328E+02 0.12549187574E+02 0.12917457533E+02
 0.12993059219E+02 0.12546536273E+02 0.11518755290E+02 0.10100135854E+02 0.85285946872E+01
 0.70274088188E+01 0.57490113681E+01 0.47555773672E+01 0.40444483957E+01 0.35864918730E+01
 0.33539253433E+01 0.33325796122E+01 0.35240919339E+01 0.39433547034E+01 0.46108613756E+01
 0.55356689536E+01 0.52310357211E+01 0.62251704319E+01 0.73642877809E+01 0.85565130216E+01
 0.97053814356E+01 0.10732968745E+02 0.11578367969E+02 0.12208333958E+02 0.12546653833E+02
 0.12463979184E+02 0.11882881650E+02 0.10856792486E+02 0.95345402459E+01 0.81168809183E+01
 0.67843226405E+01 0.56498365164E+01 0.47555773672E+01 0.40985313358E+01 0.36597000396E+01
 0.34220036765E+01 0.33766659253E+01 0.35242798355E+01 0.38743099798E+01 0.44409603503E+01
 0.42484868115E+01 0.49033247968E+01 0.57443697075E+01 0.67332352866E+01 0.78073512677E+01
 0.88948097488E+01 0.99262980591E+01 0.10830543012E+02 0.11518822133E+02 0.11882988220E+02
 0.11825637990E+02 0.11310665947E+02 0.10397106118E+02 0.92270831956E+01 0.79738218980E+01
 0.67843226405E+01 0.57490113681E+01 0.49051990398E+01 0.42585534280E+01 0.38032148498E+01
 0.35320203543E+01 0.34396362907E+01 0.35244583281E+01 0.37909144358E+01 0.36994168913E+01
 0.40482038819E+01 0.45769091554E+01 0.52810670733E+01 0.61378360441E+01 0.71063585143E+01
 0.81338819595E+01 0.91580867571E+01 0.10100100905E+02 0.10856842487E+02 0.11310756885E+02
 0.11364934073E+02 0.10987312359E+02 0.10233101990E+02 0.92270831956E+01 0.81168809183E+01
 0.70274088188E+01 0.60399221520E+01 0.51969029644E+01 0.45177911051E+01 0.40110356783E+01
 0.36786136338E+01 0.35177357344E+01 0.35245780050E+01 0.35246420128E+01 0.36063018278E+01
 0.38541516307E+01 0.42735348878E+01 0.48644225793E+01 0.56154921307E+01 0.65030840203E+01
 0.74915776816E+01 0.85286006952E+01 0.95345032364E+01 0.10397141605E+02 0.10987392457E+02
 0.11198100754E+02 0.10987312359E+02 0.10397106118E+02 0.95345402459E+01 0.85285946872E+01
 0.74914750314E+01 0.65029844170E+01 0.56154794787E+01 0.48644376823E+01 0.42734821825E+01
 0.38540387778E+01 0.36062134604E+01 0.36993777402E+01 0.35246054904E+01 0.35178534118E+01
 0.36787736455E+01 0.40111291113E+01 0.45177750644E+01 0.51968768738E+01 0.60399863023E+01
 0.70275046847E+01 0.81168940753E+01 0.92270456006E+01 0.10233131778E+02 0.10987392457E+02
 0.11364934073E+02 0.11310665947E+02 0.10856792486E+02 0.10100135854E+02 0.91580887127E+01
 0.81337755848E+01 0.71062318068E+01 0.61377914804E+01 0.52810789816E+01 0.45768965500E+01
 0.40481528793E+01 0.42485112698E+01 0.37909387137E+01 0.35245076148E+01 0.34397628425E+01
 0.35322114044E+01 0.38033437267E+01 0.42585353719E+01 0.49051365682E+01 0.57490455606E+01
 0.67844133587E+01 0.79738378027E+01 0.92270456006E+01 0.10397141605E+02 0.11310756885E+02
 0.11825637990E+02 0.11882881650E+02 0.11518755290E+02 0.10830572302E+02 0.99263037270E+01
 0.88947068258E+01 0.78072171577E+01 0.67331717347E+01 0.57443748300E+01 0.49033494166E+01
 0.52310970858E+01 0.44410692081E+01 0.38744022772E+01 0.35243407606E+01 0.33767841526E+01
 0.34222112285E+01 0.36598533858E+01 0.40985100371E+01 0.47554923223E+01 0.56498589696E+01
 0.67844133587E+01 0.81168940753E+01 0.95345032364E+01 0.10856842487E+02 0.11882988220E+02
 0.12463979184E+02 0.12546536273E+02 0.12208255443E+02 0.11578385927E+02 0.10732970660E+02
 0.97052938262E+01 0.85563989074E+01 0.73642223228E+01 0.62251673000E+01 0.66897452302E+01
 0.55357653708E+01 0.46110522743E+01 0.39435070494E+01 0.35241537916E+01 0.33326812262E+01
 0.33541386611E+01 0.35866571209E+01 0.40444254176E+01 0.47554923223E+01 0.57490455606E+01
 0.70275046847E+01 0.85286006952E+01 0.10100100905E+02 0.11518822133E+02 0.12546653833E+02
 0.12993059219E+02 0.12917342719E+02 0.12549108915E+02 0.12052555652E+02 0.11403936982E+02
 0.10487820385E+02 0.93013648155E+01 0.79885778709E+01 0.85614159632E+01 0.71020032265E+01
 0.57923604174E+01 0.47444682175E+01 0.39929226066E+01 0.35240125045E+01 0.33099720062E+01
 0.33310940314E+01 0.35866571209E+01 0.40985100371E+01 0.49051365682E+01 0.60399863023E+01
 0.74915776816E+01 0.91580867571E+01 0.10830543012E+02 0.12208333958E+02 0.12917457533E+02
 0.12904483593E+02 0.12509175799E+02 0.12151860359E+02 0.11975244574E+02 0.11752264056E+02
 0.11131406470E+02 0.99907139467E+01 0.10568467727E+02 0.90387678165E+01 0.74270275282E+01
 0.59782016336E+01 0.48296986533E+01 0.40186668803E+01 0.35239446561E+01 0.33099720062E+01
 0.33541386611E+01 0.36598533858E+01 0.42585353719E+01 0.51968768738E+01 0.65030840203E+01
 0.81338819595E+01 0.99262980591E+01 0.11578367969E+02 0.12549187574E+02 0.12509268075E+02
 0.11750814920E+02 0.10988007566E+02 0.10811305119E+02 0.11234419003E+02 0.11705550435E+02
 0.11565764736E+02 0.11795105924E+02 0.10991922052E+02 0.93818129351E+01 0.76353380891E+01
 0.60758459042E+01 0.48589989857E+01 0.40186668803E+01 0.35240125045E+01 0.33326812262E+01
 0.34222112285E+01 0.38033437267E+01 0.45177750644E+01 0.56154921307E+01 0.71063585143E+01
 0.88948097488E+01 0.10732968745E+02 0.12052554328E+02 0.12151923471E+02 0.10988056315E+02
 0.93397547666E+01 0.83233270912E+01 0.86091374067E+01 0.99402905169E+01 0.11333302477E+02
 0.10818573413E+02 0.11879619188E+02 0.11245825653E+02 0.95612275838E+01 0.77070932776E+01
 0.60758459042E+01 0.48296986533E+01 0.39929226066E+01 0.35241537916E+01 0.33767841526E+01
 0.35322114044E+01 0.40111291113E+01 0.48644225793E+01 0.61378360441E+01 0.78073512677E+01
 0.97053814356E+01 0.11403943968E+02 0.11975260896E+02 0.10811335828E+02 0.83233155640E+01
 0.58499314668E+01 0.48496396995E+01 0.59238328633E+01 0.84037758357E+01 0.70422897892E+01
 0.10386842974E+02 0.11896064768E+02 0.11329885733E+02 0.95612275838E+01 0.76353380891E+01
 0.59782016336E+01 0.47444682175E+01 0.39435070494E+01 0.35243407606E+01 0.34397628425E+01
 0.36787736455E+01 0.42735348878E+01 0.52810670733E+01 0.67332352866E+01 0.85565130216E+01
 0.10487875292E+02 0.11752278167E+02 0.11234448075E+02 0.86091221545E+01 0.48495600129E+01
 0.18305409234E+01 0.12075908954E+01 0.33379291604E+01 0.14704169045E+01 0.62449821462E+01
 0.10219830013E+02 0.11896064768E+02 0.11245825653E+02 0.93818129351E+01 0.74270275282E+01
 0.57923604174E+01 0.46110522743E+01 0.38744022772E+01 0.35245076148E+01 0.35178534118E+01
 0.38541516307E+01 0.45769091554E+01 0.57443697075E+01 0.73642877809E+01 0.93014284681E+01
 0.11131408061E+02 0.11705563351E+02 0.99403240609E+01 0.59237661721E+01 0.12074465877E+01
 -.19245880327E+01 -.18224428208E+01 -.35425389925E+01 0.78985110973E+00 0.62449821462E+01
 0.10386842974E+02 0.11879619188E+02 0.10991922052E+02 0.90387678165E+01 0.71020032265E+01
 0.55357653708E+01 0.44410692081E+01 0.37909387137E+01 0.35246054904E+01 0.36063018278E+01
 0.40482038819E+01 0.49033247968E+01 0.62251704319E+01 0.79886279345E+01 0.99907016562E+01
 0.11565696870E+02 0.11333304695E+02 0.84038069015E+01 0.33378160481E+01 -.18226370450E+01
 -.45925800982E+01 -.35421443255E+01 -.21026655639E+01 0.22000262723E+01 0.72131833691E+01
 0.10712285808E+02 0.11642108674E+02 0.10458605596E+02 0.84774577563E+01 0.66062652742E+01
 0.51286292184E+01 0.41157053889E+01 0.35295003423E+01 0.33100537164E+01 0.34271683626E+01
 0.38984436320E+01 0.47786742185E+01 0.61168269729E+01 0.78765435345E+01 0.98420481573E+01
 0.11312089239E+02 0.10957449396E+02 0.80385353269E+01 0.32487918830E+01 -.13764118750E+01
 -.21028860317E+01 -.35421146392E+01 -.13761633229E+01 0.32489334129E+01 0.80385031362E+01
 0.10957481247E+02 0.11312248652E+02 0.98421426159E+01 0.78765239965E+01 0.61168542110E+01
 0.47787804409E+01 0.38984878442E+01 0.34271301659E+01 0.33100386455E+01 0.35294859449E+01
 0.41155958920E+01 0.51285025860E+01 0.66062481639E+01 0.84774486122E+01 0.10458452823E+02
 0.11641939904E+02 0.10712297383E+02 0.72132401213E+01 0.21998817743E+01 0.23591905659E+01
 -.12020438622E+01 -.18220849838E+01 0.79053424240E+00 0.52141878872E+01 0.92374708230E+01
 0.11206730394E+02 0.10855497151E+02 0.91421184946E+01 0.72430544431E+01 0.56270739575E+01
 0.44464748638E+01 0.37054369743E+01 0.33494615834E+01 0.33326295099E+01 0.36502885790E+01
 0.43428295978E+01 0.54713946594E+01 0.70591129289E+01 0.90014382678E+01 0.10952795609E+02
 0.11895846846E+02 0.10648446367E+02 0.70409830138E+01 0.76074025717E+01 0.37040778981E+01
 0.11143118939E+01 0.12078614911E+01 0.38688222782E+01 0.75824050996E+01 0.10433404281E+02
 0.11273569068E+02 0.10248099352E+02 0.84098090650E+01 0.66188590314E+01 0.51689005317E+01
 0.41523213496E+01 0.35479573319E+01 0.33010355923E+01 0.33765448043E+01 0.37818698124E+01
 0.45640674319E+01 0.57807112988E+01 0.74380735248E+01 0.94052317201E+01 0.11300796194E+02
 0.12113541865E+02 0.10860811641E+02 0.11320762819E+02 0.87727216170E+01 0.59028816165E+01
 0.42987318997E+01 0.48497775615E+01 0.71480269195E+01 0.97793937890E+01 0.11280331999E+02
 0.11039641370E+02 0.95226902072E+01 0.76886839359E+01 0.60412144421E+01 0.47687000365E+01
 0.39123411645E+01 0.34344024750E+01 0.32845706313E+01 0.34393246138E+01 0.39154930511E+01
 0.47624186704E+01 0.60302026585E+01 0.77089061542E+01 0.96518304785E+01 0.11481949868E+02
 0.12293885797E+02 0.12387417051E+02 0.11882766123E+02 0.10215928895E+02 0.84167302845E+01
 0.76314563160E+01 0.83233467591E+01 0.99454866994E+01 0.11344745367E+02 0.11576737325E+02
 0.10505552647E+02 0.87670001712E+01 0.70204273604E+01 0.55420303288E+01 0.44468073933E+01
 0.37379857714E+01 0.33702479443E+01 0.33010297028E+01 0.35173119539E+01 0.40418123269E+01
 0.49218253333E+01 0.61973927595E+01 0.78454119401E+01 0.97159031356E+01 0.11474306336E+02
 0.11259102764E+02 0.12314746882E+02 0.12336234835E+02 0.11539605978E+02 0.10664555821E+02
 0.10431277917E+02 0.10987925554E+02 0.11797873453E+02 0.12061227165E+02 0.11324824494E+02
 0.97948767761E+01 0.80537514961E+01 0.64455337739E+01 0.51476025969E+01 0.42180828661E+01
 0.36366979389E+01 0.33582222106E+01 0.33494785176E+01 0.36057502570E+01 0.41517011312E+01
 0.50289415030E+01 0.62666494456E+01 0.78334787359E+01 0.95882295406E+01 0.92777806031E+01
 0.10833359912E+02 0.12003514792E+02 0.12484161636E+02 0.12399764518E+02 0.12196318955E+02
 0.12244648718E+02 0.12509008945E+02 0.12571812353E+02 0.11996482247E+02 0.10714821398E+02
 0.90821970025E+01 0.74401568108E+01 0.60012390335E+01 0.48786388497E+01 0.40925285132E+01
 0.36123406929E+01 0.33985178865E+01 0.34272175282E+01 0.36990194568E+01 0.42369247598E+01
 0.50746571983E+01 0.62315529528E+01 0.76736250804E+01 0.73808623293E+01 0.88107393322E+01
 0.10224506523E+02 0.11428889676E+02 0.12219093206E+02 0.12615077203E+02 0.12816626013E+02
 0.12952261703E+02 0.12917163045E+02 0.12460668465E+02 0.11446922365E+02 0.10031393771E+02
 0.84713493204E+01 0.69819299494E+01 0.57187278723E+01 0.47500132405E+01 0.40758525550E+01
 0.36657451967E+01 0.34889713460E+01 0.35297019974E+01 0.37907769336E+01 0.42909278839E+01
 0.50553646534E+01 0.60958535181E+01 0.58726727474E+01 0.69823697375E+01 0.82271426515E+01
 0.94884769086E+01 0.10639300364E+02 0.11567332212E+02 0.12217684536E+02 0.12618807030E+02
 0.12761568504E+02 0.12546370976E+02 0.11877156451E+02 0.10799133302E+02 0.94588266635E+01
 0.80425488021E+01 0.67254201808E+01 0.56206654978E+01 0.47706324739E+01 0.41697533102E+01
 0.37947304359E+01 0.36249395068E+01 0.36506753367E+01 0.38744931081E+01 0.43095147708E+01
 0.49732184908E+01 0.48357852425E+01 0.55825301652E+01 0.65134388240E+01 0.75755764033E+01
 0.86850643662E+01 0.97481496950E+01 0.10683886959E+02 0.11428405384E+02 0.11922012134E+02
 0.12096199638E+02 0.11882788879E+02 0.11261653303E+02 0.10290299501E+02 0.91010830790E+01
 0.78578640149E+01 0.67018281831E+01 0.57193460149E+01 0.49427883559E+01 0.43715526683E+01
 0.39939236970E+01 0.37993646464E+01 0.37824319512E+01 0.39438660206E+01 0.42911828294E+01
 0.42374083656E+01 0.46549428630E+01 0.52502831007E+01 0.60127076130E+01 0.69075663128E+01
 0.78779583588E+01 0.88558659140E+01 0.97721845929E+01 0.10556201247E+02 0.11128380294E+02
 0.11402769843E+02 0.11310635350E+02 0.10835839883E+02 0.10035770796E+02 0.90285022484E+01
 0.79522968999E+01 0.69233783666E+01 0.60149715195E+01 0.52612836030E+01 0.46736558077E+01
 0.42543633557E+01 0.40026056601E+01 0.39161226729E+01 0.39934751571E+01 0.40193477922E+01
 0.41523551045E+01 0.44453052270E+01 0.49021421676E+01 0.55179318273E+01 0.62722687178E+01
 0.71294930417E+01 0.80430726818E+01 0.89568534185E+01 0.97998976819E+01 0.10482208184E+02
 0.10904585819E+02 0.10987323216E+02 0.10704245495E+02 0.10098636341E+02 0.92682103929E+01
 0.83289134563E+01 0.73809895431E+01 0.64942907310E+01 0.57122889088E+01 0.50625222712E+01
 0.45629136377E+01 0.42226001032E+01 0.40424554591E+01 0.41522546059E+01 0.40193327107E+01
 0.40425503136E+01 0.42227339304E+01 0.45629869356E+01 0.50625217343E+01 0.57123059286E+01
 0.64943855883E+01 0.73810860409E+01 0.83289120127E+01 0.92681531068E+01 0.10098644274E+02
 0.10704320140E+02 0.10987348656E+02 0.10904530455E+02 0.10482177056E+02 0.97999466576E+01
 0.89568886624E+01 0.80430036895E+01 0.71293748436E+01 0.62722085871E+01 0.55179299553E+01
 0.49021121419E+01 0.44452091784E+01 0.46548571001E+01 0.42373235193E+01 0.39934687477E+01
 0.39162166992E+01 0.40027479685E+01 0.42544590638E+01 0.46736672610E+01 0.52612885828E+01
 0.60150480866E+01 0.69234658655E+01 0.79522902946E+01 0.90284443971E+01 0.10035797269E+02
 0.10835945254E+02 0.11310673443E+02 0.11402704617E+02 0.11128349306E+02 0.10556272541E+02
 0.97722310493E+01 0.88557736744E+01 0.78778078892E+01 0.69074964369E+01 0.60127137326E+01
 0.52502614958E+01 0.55825083500E+01 0.48357640135E+01 0.42911547263E+01 0.39438433264E+01
 0.37824848004E+01 0.37995236150E+01 0.39940748203E+01 0.43715697700E+01 0.49427334256E+01
 0.57193713274E+01 0.67019166714E+01 0.78578748909E+01 0.91010237041E+01 0.10290323053E+02
 0.11261777117E+02 0.11882851287E+02 0.12096136188E+02 0.11921952042E+02 0.11428431245E+02
 0.10683898191E+02 0.97480508743E+01 0.86849178512E+01 0.75754822692E+01 0.65134014132E+01
 0.69823194654E+01 0.58726710947E+01 0.49732526118E+01 0.43095235792E+01 0.38744662445E+01
 0.36507248749E+01 0.36251182636E+01 0.37948811910E+01 0.41697234793E+01 0.47705317362E+01
 0.56206860381E+01 0.67255127404E+01 0.80425399147E+01 0.94587577024E+01 0.10799188989E+02
 0.11877311639E+02 0.12546405236E+02 0.12761431151E+02 0.12618678267E+02 0.12217660569E+02
 0.11567304673E+02 0.10639180709E+02 0.94883265014E+01 0.82270389319E+01 0.88106641210E+01
 0.73807751204E+01 0.60958479395E+01 0.50554742383E+01 0.42910137269E+01 0.37907573282E+01
 0.35297201030E+01 0.34891335837E+01 0.36658876969E+01 0.40757993515E+01 0.47498867435E+01
 0.57187358080E+01 0.69820199039E+01 0.84713512661E+01 0.10031350347E+02 0.11446979499E+02
 0.12460761623E+02 0.12917107141E+02 0.12952060863E+02 0.12816445809E+02 0.12614970519E+02
 0.12218989964E+02 0.11428781485E+02 0.10224430187E+02 0.10833363047E+02 0.92777134380E+01
 0.76735204577E+01 0.62315924037E+01 0.50748504141E+01 0.42370448018E+01 0.36989837138E+01
 0.34272350102E+01 0.33986958418E+01 0.36124599847E+01 0.40924260093E+01 0.48785058056E+01
 0.60012898559E+01 0.74402776410E+01 0.90821900252E+01 0.10714747071E+02 0.11996486703E+02
 0.12571820321E+02 0.12508859989E+02 0.12244381441E+02 0.12196081412E+02 0.12399598028E+02
 0.12484049057E+02 0.12003478690E+02 0.12314776784E+02 0.11259202398E+02 0.95882104656E+01
 0.78333798753E+01 0.62667102025E+01 0.50291777128E+01 0.41518574446E+01 0.36057412635E+01
 0.33495118579E+01 0.33583790934E+01 0.36367734067E+01 0.42179815090E+01 0.51475280639E+01
 0.64456208071E+01 0.80538428412E+01 0.97948289111E+01 0.11324731043E+02 0.12061171649E+02
 0.11797751862E+02 0.10987673899E+02 0.10431010508E+02 0.10664360311E+02 0.11539442662E+02
 0.12336122583E+02 0.11882684110E+02 0.12387549312E+02 0.11474493105E+02 0.97158925130E+01
 0.78453066494E+01 0.61974975335E+01 0.49221178531E+01 0.40419841439E+01 0.35172996711E+01
 0.33010723612E+01 0.33704081920E+01 0.37380513453E+01 0.44467154886E+01 0.55419835450E+01
 0.70205167111E+01 0.87670624543E+01 0.10505479984E+02 0.11576606525E+02 0.11344594611E+02
 0.99452628677E+01 0.83230929499E+01 0.76312830031E+01 0.84166041066E+01 0.10215768868E+02
 0.87726117553E+01 0.11320719068E+02 0.12294061452E+02 0.11482161262E+02 0.96518378370E+01
 0.77088439486E+01 0.60303464687E+01 0.47626989459E+01 0.39156381000E+01 0.34393362566E+01
 0.32846547198E+01 0.34345435597E+01 0.39123551200E+01 0.47686130115E+01 0.60412161573E+01
 0.76887685744E+01 0.95226851320E+01 0.11039521395E+02 0.11280193360E+02 0.97792200367E+01
 0.71477689180E+01 0.48495570699E+01 0.42986672801E+01 0.59028552169E+01 0.37041460247E+01
 0.76073014011E+01 0.10860767781E+02 0.12113745440E+02 0.11301031120E+02 0.94052479577E+01
 0.74380248643E+01 0.57808603412E+01 0.45643272929E+01 0.37819978056E+01 0.33765631604E+01
 0.33011083252E+01 0.35480496243E+01 0.41523098795E+01 0.51688447873E+01 0.66188724858E+01
 0.84098270601E+01 0.10248028700E+02 0.11273470590E+02 0.10433317410E+02 0.75822186495E+01
 0.38685391569E+01 0.12077169785E+01 0.11143959941E+01 -.12018791567E+01 0.23592924035E+01
 0.70409014185E+01 0.10648433429E+02 0.11896050401E+02 0.10952986171E+02 0.90014368668E+01
 0.70591045165E+01 0.54715611484E+01 0.43430281850E+01 0.36503446101E+01 0.33326352187E+01
 0.33495365571E+01 0.37054874564E+01 0.44464151610E+01 0.56270131603E+01 0.72430656669E+01
 0.91420951667E+01 0.10855392552E+02 0.11206655500E+02 0.92374258857E+01 0.52140183142E+01
 0.79028361569E+00 -.18221481038E+01 0.14714959823E+01 0.23600731119E+01 0.54677783926E+01
 0.91396356879E+01 0.11582310798E+02 0.11925002388E+02 0.10556122631E+02 0.85864465593E+01
 0.67416899764E+01 0.52719298316E+01 0.42444810983E+01 0.36246302157E+01 0.33538596200E+01
 0.33983630195E+01 0.37677872650E+01 0.45088978677E+01 0.56721134032E+01 0.72474724533E+01
 0.90853648678E+01 0.10769817939E+02 0.11280301232E+02 0.98075120408E+01 0.66425561518E+01
 0.32494076021E+01 0.22006139518E+01 0.79108280317E+00 0.22008396229E+01 0.56435056322E+01
 0.92825000782E+01 0.11403671708E+02 0.11387134740E+02 0.98496085727E+01 0.79252854664E+01
 0.61995082662E+01 0.48734270281E+01 0.39847379222E+01 0.34886755685E+01 0.33308349436E+01
 0.34887108103E+01 0.39846518853E+01 0.48732740739E+01 0.61994828969E+01 0.79253239440E+01
 0.98495059792E+01 0.11386994156E+02 0.11403744830E+02 0.92826686471E+01 0.56434382437E+01
 0.54677204116E+01 0.23598775994E+01 0.14715415731E+01 0.32496517222E+01 0.66426508700E+01
 0.98074361135E+01 0.11280325157E+02 0.10769969628E+02 0.90854344597E+01 0.72474572762E+01
 0.56721880051E+01 0.45090250352E+01 0.37677997045E+01 0.33983140611E+01 0.33538904228E+01
 0.36246387441E+01 0.42443268558E+01 0.52717738968E+01 0.67417251783E+01 0.85865046111E+01
 0.10555989416E+02 0.11924870792E+02 0.11582448167E+02 0.91398480411E+01 0.95041526799E+01
 0.62071231778E+01 0.37046115191E+01 0.33387967588E+01 0.52146962698E+01 0.81455260865E+01
 0.10464724573E+02 0.11088517584E+02 0.10068948609E+02 0.83150015948E+01 0.65966198546E+01
 0.51923494786E+01 0.41995872191E+01 0.36051518344E+01 0.33581379291E+01 0.34219757767E+01
 0.37990553791E+01 0.45316812868E+01 0.56783227344E+01 0.72598657573E+01 0.91810937994E+01
 0.11153583171E+02 0.12390918426E+02 0.11899097463E+02 0.12350621709E+02 0.10325623781E+02
 0.76919066863E+01 0.59031809041E+01 0.59243164353E+01 0.75826290341E+01 0.97121559986E+01
 0.10974493971E+02 0.10725672389E+02 0.93090504836E+01 0.75792454180E+01 0.60085745219E+01
 0.47853588844E+01 0.39604791729E+01 0.35046062956E+01 0.33703095197E+01 0.35319985742E+01
 0.40023620997E+01 0.48281601046E+01 0.60628561048E+01 0.77115467457E+01 0.96574369360E+01
 0.11595904217E+02 0.12770175681E+02 0.13014728831E+02 0.12839498815E+02 0.11390794864E+02
 0.95425007359E+01 0.84167589144E+01 0.86092113374E+01 0.97793502983E+01 0.10927076669E+02
 0.11130218776E+02 0.10164397133E+02 0.85537941313E+01 0.69135106557E+01 0.55115571377E+01
 0.44696524456E+01 0.38020567849E+01 0.34706973249E+01 0.34346222133E+01 0.36786008698E+01
 0.42224375269E+01 0.51127530083E+01 0.63940166255E+01 0.80558096655E+01 0.99687280010E+01
 0.11839096193E+02 0.11846479675E+02 0.13053972816E+02 0.13204698003E+02 0.12392429059E+02
 0.11289344199E+02 0.10664362169E+02 0.10811036879E+02 0.11344462831E+02 0.11530871968E+02
 0.10872914421E+02 0.94750865457E+01 0.78570121432E+01 0.63496487873E+01 0.51275392953E+01
 0.42580078576E+01 0.37304907433E+01 0.35048601032E+01 0.35482917540E+01 0.38540454719E+01
 0.44451226223E+01 0.53636323070E+01 0.66425976425E+01 0.82587622599E+01 0.10080610431E+02
 0.99775415259E+01 0.11599872532E+02 0.12822416523E+02 0.13281505436E+02 0.13033376446E+02
 0.12520282949E+02 0.12195947753E+02 0.12151328143E+02 0.12060831622E+02 0.11492443073E+02
 0.10307758270E+02 0.87896924561E+01 0.72604829581E+01 0.59169402290E+01 0.48735689750E+01
 0.41586597316E+01 0.37483323693E+01 0.36055809612E+01 0.37058803492E+01 0.40481965484E+01
 0.46548306006E+01 0.55601986167E+01 0.67854880271E+01 0.82991194873E+01 0.81717673211E+01
 0.96661024239E+01 0.11113120621E+02 0.12293943749E+02 0.12967501894E+02 0.13127532355E+02
 0.13005474512E+02 0.12816202713E+02 0.12548507793E+02 0.11996081165E+02 0.10997976882E+02
 0.96529988844E+01 0.81938465897E+01 0.68084588268E+01 0.56414292098E+01 0.47623977620E+01
 0.41761265077E+01 0.38549810982E+01 0.37683341021E+01 0.38989807377E+01 0.42486123418E+01
 0.48357265882E+01 0.56855583260E+01 0.68090528722E+01 0.67111422252E+01 0.78888118025E+01
 0.91745631822E+01 0.10430962277E+02 0.11507066852E+02 0.12269135862E+02 0.12662014194E+02
 0.12757318583E+02 0.12618425916E+02 0.12207714548E+02 0.11446608194E+02 0.10360976810E+02
 0.90791965017E+01 0.77553224488E+01 0.65422949897E+01 0.55444023658E+01 0.48025858755E+01
 0.43113845724E+01 0.40464668449E+01 0.39852233660E+01 0.41162073633E+01 0.44412214879E+01
 0.49731850767E+01 0.57285507730E+01 0.56853309358E+01 0.65014490411E+01 0.74775884830E+01
 0.85485311097E+01 0.96141449114E+01 0.10564122376E+02 0.11309722320E+02 0.11797603071E+02
 0.12006220476E+02 0.11921747429E+02 0.11518393730E+02 0.10798953879E+02 0.98172811830E+01
 0.86830132704E+01 0.75345915001E+01 0.64949394086E+01 0.56403771147E+01 0.49975821340E+01
 0.45612126525E+01 0.43149866006E+01 0.42448212042E+01 0.43434592504E+01 0.46112340378E+01
 0.50553414712E+01 0.50746941886E+01 0.55598505550E+01 0.61998096752E+01 0.69763287763E+01
 0.78443196301E+01 0.87346775025E+01 0.95691062012E+01 0.10277097598E+02 0.10802933125E+02
 0.11100584392E+02 0.11128263275E+02 0.10856624543E+02 0.10290211210E+02 0.94845383469E+01
 0.85404163469E+01 0.75747880294E+01 0.66861079135E+01 0.59346316900E+01 0.53442445515E+01
 0.49171426728E+01 0.46481716363E+01 0.45319586445E+01 0.45645979323E+01 0.47446529356E+01
 0.48298629127E+01 0.50290551362E+01 0.53632722674E+01 0.58333334171E+01 0.64287167050E+01
 0.71212398268E+01 0.78665958822E+01 0.86119975318E+01 0.93029963383E+01 0.98842375051E+01
 0.10296894695E+02 0.10482183671E+02 0.10397056308E+02 0.10035752142E+02 0.94413402417E+01
 0.86960429603E+01 0.78947942553E+01 0.71184183697E+01 0.64206279162E+01 0.58307837239E+01
 0.53639103664E+01 0.50283895030E+01 0.48281511019E+01 0.47627852041E+01 0.49219963283E+01
 0.48591275352E+01 0.49220693103E+01 0.51125536317E+01 0.54326666000E+01 0.58782431509E+01
 0.64346205861E+01 0.70772402498E+01 0.77740407045E+01 0.84846979352E+01 0.91559488459E+01
 0.97191428874E+01 0.10098684239E+02 0.10233120734E+02 0.10098614376E+02 0.97191302535E+01
 0.91560246226E+01 0.84847384428E+01 0.77739706527E+01 0.70771534675E+01 0.64346289078E+01
 0.58783136812E+01 0.54326854025E+01 0.51124886074E+01 0.53631777857E+01 0.50289217584E+01
 0.48297780552E+01 0.47627828803E+01 0.48281911740E+01 0.50283926152E+01 0.53638577997E+01
 0.58307629614E+01 0.64207050069E+01 0.71185099147E+01 0.78947758677E+01 0.86959542688E+01
 0.94413281364E+01 0.10035826271E+02 0.10397077741E+02 0.10482115058E+02 0.10296870430E+02
 0.98843258375E+01 0.93030724806E+01 0.86119479063E+01 0.78664993618E+01 0.71212309259E+01
 0.64287788300E+01 0.58333422723E+01 0.61997823869E+01 0.55597398601E+01 0.50745319437E+01
 0.47444983673E+01 0.45645248453E+01 0.45319902096E+01 0.46482146930E+01 0.49171061339E+01
 0.53441953914E+01 0.59346850756E+01 0.66862024579E+01 0.75747629448E+01 0.85402964009E+01
 0.94845098453E+01 0.10290305411E+02 0.10856669250E+02 0.11128193306E+02 0.11100553274E+02
 0.10803029586E+02 0.10277183728E+02 0.95690519386E+01 0.87345621743E+01 0.78442781166E+01
 0.69763456147E+01 0.74775356176E+01 0.65013772229E+01 0.56852308843E+01 0.50551870870E+01
 0.46110336110E+01 0.43433344587E+01 0.42448598725E+01 0.43150639782E+01 0.45611654647E+01
 0.49974827255E+01 0.56403976145E+01 0.64950242762E+01 0.75345471488E+01 0.86828724068E+01
 0.98172631565E+01 0.10799075020E+02 0.11518440597E+02 0.11921651681E+02 0.12006157634E+02
 0.11797663912E+02 0.11309765957E+02 0.10564038779E+02 0.96140154974E+01 0.85484519999E+01
 0.91744591507E+01 0.78886851610E+01 0.67110363314E+01 0.57284919883E+01 0.49730683498E+01
 0.44410002946E+01 0.41160571958E+01 0.39852788444E+01 0.40465559383E+01 0.43112977062E+01
 0.48024328432E+01 0.55444032694E+01 0.65423764932E+01 0.77552671969E+01 0.90790584649E+01
 0.10360980348E+02 0.11446725794E+02 0.12207706314E+02 0.12618257191E+02 0.12757185166E+02
 0.12661989778E+02 0.12269099299E+02 0.11506959748E+02 0.10430849372E+02 0.11113066133E+02
 0.96659921176E+01 0.81715779207E+01 0.68089362146E+01 0.56855645237E+01 0.48356634694E+01
 0.42483943023E+01 0.38988345809E+01 0.37684102034E+01 0.38550591283E+01 0.41759913446E+01
 0.47622178764E+01 0.56414412259E+01 0.68085477531E+01 0.81937862612E+01 0.96528684638E+01
 0.10997974021E+02 0.11996125118E+02 0.12548383805E+02 0.12815939068E+02 0.13005263119E+02
 0.13127410427E+02 0.12967390462E+02 0.12293852178E+02 0.12822381982E+02 0.11599902078E+02
 0.99774362603E+01 0.82988900098E+01 0.67853911743E+01 0.55602826837E+01 0.46548229301E+01
 0.40480004413E+01 0.37057629357E+01 0.36056773605E+01 0.37483861112E+01 0.41584927358E+01
 0.48734044855E+01 0.59169858917E+01 0.72605693075E+01 0.87896113679E+01 0.10307613483E+02
 0.11492383319E+02 0.12060744530E+02 0.12151072745E+02 0.12195625060E+02 0.12520037691E+02