   2   2   0   0
  0.1529437E+02  0.3691622E-09  0.3691622E-09  0.3691622E-09  0.5000000E-15
  1.000000000000000E-004
  CAR 
 unknown system                          
     21.14659874     -6.61574845  301      8.75847274      1.00000000
     -6.616  0.0000E+00  0.0000E+00
     -6.523  0.0000E+00  0.0000E+00
     -6.431  0.0000E+00  0.0000E+00
     -6.338  0.0000E+00  0.0000E+00
     -6.246  0.0000E+00  0.0000E+00
     -6.153  0.0000E+00  0.0000E+00
     -6.061  0.0000E+00  0.0000E+00
     -5.968  0.0000E+00  0.0000E+00
     -5.875  0.0000E+00  0.0000E+00
     -5.783  0.2962E-17  0.2741E-18
     -5.690  0.7968E-15  0.7401E-16
     -5.598  0.1008E-12  0.9403E-14
     -5.505  0.8382E-11  0.7851E-12
     -5.413  0.4575E-09  0.4313E-10
     -5.320  0.1641E-07  0.1562E-08
     -5.228  0.3870E-06  0.3738E-07
     -5.135  0.6010E-05  0.5935E-06
     -5.043  0.6149E-04  0.6284E-05
     -4.950  0.4150E-03  0.4469E-04
     -4.857  0.1849E-02  0.2158E-03
     -4.765  0.5445E-02  0.7197E-03
     -4.672  0.1060E-01  0.1701E-02
     -4.580  0.1365E-01  0.2964E-02
     -4.487  0.1163E-01  0.4040E-02
     -4.395  0.6553E-02  0.4647E-02
     -4.302  0.2442E-02  0.4873E-02
     -4.210  0.6013E-03  0.4928E-02
     -4.117  0.9779E-04  0.4937E-02
     -4.025  0.1052E-04  0.4938E-02
     -3.932  0.1472E-05  0.4938E-02
     -3.840  0.1262E-04  0.4940E-02
     -3.747  0.1429E-03  0.4953E-02
     -3.654  0.1070E-02  0.5052E-02
     -3.562  0.5291E-02  0.5541E-02
     -3.469  0.1728E-01  0.7141E-02
     -3.377  0.3731E-01  0.1059E-01
     -3.284  0.5328E-01  0.1552E-01
     -3.192  0.5033E-01  0.2018E-01
     -3.099  0.3146E-01  0.2309E-01
     -3.007  0.1300E-01  0.2430E-01
     -2.914  0.3551E-02  0.2462E-01
     -2.822  0.6408E-03  0.2468E-01
     -2.729  0.7633E-04  0.2469E-01
     -2.636  0.6938E-05  0.2469E-01
     -2.544  0.1609E-04  0.2469E-01
     -2.451  0.1729E-03  0.2471E-01
     -2.359  0.1249E-02  0.2482E-01
     -2.266  0.5957E-02  0.2538E-01
     -2.174  0.1877E-01  0.2711E-01
     -2.081  0.3912E-01  0.3073E-01
     -1.989  0.5401E-01  0.3573E-01
     -1.896  0.5017E-01  0.4037E-01
     -1.804  0.3566E-01  0.4367E-01
     -1.711  0.3491E-01  0.4690E-01
     -1.619  0.6152E-01  0.5260E-01
     -1.526  0.9820E-01  0.6169E-01
     -1.433  0.1081E+00  0.7169E-01
     -1.341  0.7904E-01  0.7900E-01
     -1.248  0.3825E-01  0.8254E-01
     -1.156  0.1224E-01  0.8367E-01
     -1.063  0.2587E-02  0.8391E-01
     -0.971  0.3611E-03  0.8395E-01
     -0.878  0.3324E-04  0.8395E-01
     -0.786  0.2016E-05  0.8395E-01
     -0.693  0.8045E-07  0.8395E-01
     -0.601  0.2112E-08  0.8395E-01
     -0.508  0.3642E-10  0.8395E-01
     -0.415  0.7051E-12  0.8395E-01
     -0.323  0.2508E-10  0.8395E-01
     -0.230  0.1409E-08  0.8395E-01
     -0.138  0.5201E-07  0.8395E-01
     -0.045  0.1262E-05  0.8395E-01
      0.047  0.2017E-04  0.8395E-01
      0.140  0.2124E-03  0.8397E-01
      0.232  0.1475E-02  0.8411E-01
      0.325  0.6764E-02  0.8473E-01
      0.417  0.2049E-01  0.8663E-01
      0.510  0.4109E-01  0.9043E-01
      0.602  0.5489E-01  0.9551E-01
      0.695  0.5164E-01  0.1003E+00
      0.788  0.4829E-01  0.1048E+00
      0.880  0.8191E-01  0.1123E+00
      0.973  0.1669E+00  0.1278E+00
      1.065  0.2529E+00  0.1512E+00
      1.158  0.2599E+00  0.1752E+00
      1.250  0.1792E+00  0.1918E+00
      1.343  0.8300E-01  0.1995E+00
      1.435  0.2582E-01  0.2019E+00
      1.528  0.5399E-02  0.2024E+00
      1.620  0.7585E-03  0.2025E+00
      1.713  0.7153E-04  0.2025E+00
      1.805  0.4522E-05  0.2025E+00
      1.898  0.1913E-06  0.2025E+00
      1.991  0.6495E-08  0.2025E+00
      2.083  0.3931E-07  0.2025E+00
      2.176  0.9322E-06  0.2025E+00
      2.268  0.1480E-04  0.2025E+00
      2.361  0.1583E-03  0.2025E+00
      2.453  0.1152E-02  0.2026E+00
      2.546  0.5777E-02  0.2031E+00
      2.638  0.2020E-01  0.2050E+00
      2.731  0.4960E-01  0.2096E+00
      2.823  0.8564E-01  0.2175E+00
      2.916  0.1034E+00  0.2271E+00
      3.009  0.8642E-01  0.2351E+00
      3.101  0.4943E-01  0.2397E+00
      3.194  0.1915E-01  0.2414E+00
      3.286  0.4988E-02  0.2419E+00
      3.379  0.8678E-03  0.2420E+00
      3.471  0.1004E-03  0.2420E+00
      3.564  0.7701E-05  0.2420E+00
      3.656  0.3906E-06  0.2420E+00
      3.749  0.1313E-07  0.2420E+00
      3.841  0.3338E-08  0.2420E+00
      3.934  0.1033E-06  0.2420E+00
      4.026  0.2302E-05  0.2420E+00
      4.119  0.3378E-04  0.2420E+00
      4.212  0.3266E-03  0.2420E+00
      4.304  0.2084E-02  0.2422E+00
      4.397  0.8776E-02  0.2430E+00
      4.489  0.2443E-01  0.2453E+00
      4.582  0.4496E-01  0.2494E+00
      4.674  0.5475E-01  0.2545E+00
      4.767  0.4420E-01  0.2586E+00
      4.859  0.2429E-01  0.2608E+00
      4.952  0.1230E-01  0.2620E+00
      5.044  0.1638E-01  0.2635E+00
      5.137  0.3862E-01  0.2671E+00
      5.230  0.7665E-01  0.2742E+00
      5.322  0.1143E+00  0.2847E+00
      5.415  0.1233E+00  0.2962E+00
      5.507  0.9307E-01  0.3048E+00
      5.600  0.4860E-01  0.3093E+00
      5.692  0.2091E-01  0.3112E+00
      5.785  0.1916E-01  0.3130E+00
      5.877  0.3643E-01  0.3163E+00
      5.970  0.5892E-01  0.3218E+00
      6.062  0.7760E-01  0.3290E+00
      6.155  0.1017E+00  0.3384E+00
      6.247  0.1362E+00  0.3510E+00
      6.340  0.1518E+00  0.3650E+00
      6.433  0.1224E+00  0.3764E+00
      6.525  0.7229E-01  0.3831E+00
      6.618  0.4808E-01  0.3875E+00
      6.710  0.6585E-01  0.3936E+00
      6.803  0.9975E-01  0.4028E+00
      6.895  0.1076E+00  0.4128E+00
      6.988  0.7748E-01  0.4200E+00
      7.080  0.3758E-01  0.4234E+00
      7.173  0.1644E-01  0.4250E+00
      7.265  0.2374E-01  0.4272E+00
      7.358  0.6294E-01  0.4330E+00
      7.451  0.1227E+00  0.4443E+00
      7.543  0.1608E+00  0.4592E+00
      7.636  0.1411E+00  0.4723E+00
      7.728  0.8304E-01  0.4800E+00
      7.821  0.3305E-01  0.4830E+00
      7.913  0.1103E-01  0.4840E+00
      8.006  0.1303E-01  0.4853E+00
      8.098  0.3681E-01  0.4887E+00
      8.191  0.7715E-01  0.4958E+00
      8.283  0.1075E+00  0.5057E+00
      8.376  0.9915E-01  0.5149E+00
      8.468  0.6157E-01  0.5206E+00
      8.561  0.3116E-01  0.5235E+00
      8.654  0.3176E-01  0.5264E+00
      8.746  0.6296E-01  0.5323E+00
      8.839  0.1001E+00  0.5415E+00
      8.931  0.1070E+00  0.5514E+00
      9.024  0.7630E-01  0.5585E+00
      9.116  0.3879E-01  0.5621E+00
      9.209  0.2344E-01  0.5643E+00
      9.301  0.3289E-01  0.5673E+00
      9.394  0.5012E-01  0.5719E+00
      9.486  0.5359E-01  0.5769E+00
      9.579  0.3811E-01  0.5804E+00
      9.671  0.1793E-01  0.5821E+00
      9.764  0.5604E-02  0.5826E+00
      9.857  0.1452E-02  0.5827E+00
      9.949  0.2419E-02  0.5830E+00
     10.042  0.1106E-01  0.5840E+00
     10.134  0.3562E-01  0.5873E+00
     10.227  0.7596E-01  0.5943E+00
     10.319  0.1074E+00  0.6042E+00
     10.412  0.1014E+00  0.6136E+00
     10.504  0.6652E-01  0.6198E+00
     10.597  0.3568E-01  0.6231E+00
     10.689  0.2405E-01  0.6253E+00
     10.782  0.2960E-01  0.6280E+00
     10.875  0.5429E-01  0.6331E+00
     10.967  0.9404E-01  0.6418E+00
     11.060  0.1236E+00  0.6532E+00
     11.152  0.1228E+00  0.6646E+00
     11.245  0.1003E+00  0.6739E+00
     11.337  0.7099E-01  0.6804E+00
     11.430  0.4100E-01  0.6842E+00
     11.522  0.1748E-01  0.6858E+00
     11.615  0.5156E-02  0.6863E+00
     11.707  0.1021E-02  0.6864E+00
     11.800  0.1344E-03  0.6864E+00
     11.892  0.1168E-04  0.6864E+00
     11.985  0.6740E-06  0.6864E+00
     12.078  0.1934E-06  0.6864E+00
     12.170  0.3847E-05  0.6864E+00
     12.263  0.5791E-04  0.6864E+00
     12.355  0.5746E-03  0.6865E+00
     12.448  0.3763E-02  0.6868E+00
     12.540  0.1629E-01  0.6883E+00
     12.633  0.4685E-01  0.6927E+00
     12.725  0.9082E-01  0.7011E+00
     12.818  0.1248E+00  0.7126E+00
     12.910  0.1399E+00  0.7256E+00
     13.003  0.1561E+00  0.7400E+00
     13.096  0.1724E+00  0.7560E+00
     13.188  0.1551E+00  0.7703E+00
     13.281  0.1000E+00  0.7796E+00
     13.373  0.4427E-01  0.7837E+00
     13.466  0.1329E-01  0.7849E+00
     13.558  0.2780E-02  0.7852E+00
     13.651  0.1172E-02  0.7853E+00
     13.743  0.4949E-02  0.7857E+00
     13.836  0.1985E-01  0.7876E+00
     13.928  0.5298E-01  0.7925E+00
     14.021  0.9349E-01  0.8011E+00
     14.113  0.1091E+00  0.8112E+00
     14.206  0.8428E-01  0.8190E+00
     14.299  0.4305E-01  0.8230E+00
     14.391  0.1454E-01  0.8243E+00
     14.484  0.3245E-02  0.8246E+00
     14.576  0.4794E-03  0.8247E+00
     14.669  0.6686E-04  0.8247E+00
     14.761  0.2100E-03  0.8247E+00
     14.854  0.1421E-02  0.8248E+00
     14.946  0.6654E-02  0.8255E+00
     15.039  0.2143E-01  0.8274E+00
     15.131  0.4799E-01  0.8319E+00
     15.224  0.7663E-01  0.8390E+00
     15.317  0.9398E-01  0.8477E+00
     15.409  0.1041E+00  0.8573E+00
     15.502  0.1171E+00  0.8681E+00
     15.594  0.1186E+00  0.8791E+00
     15.687  0.9085E-01  0.8875E+00
     15.779  0.5027E-01  0.8922E+00
     15.872  0.2765E-01  0.8947E+00
     15.964  0.3217E-01  0.8977E+00
     16.057  0.4881E-01  0.9022E+00
     16.149  0.5489E-01  0.9073E+00
     16.242  0.4453E-01  0.9114E+00
     16.334  0.3898E-01  0.9150E+00
     16.427  0.6516E-01  0.9211E+00
     16.520  0.1219E+00  0.9323E+00
     16.612  0.1678E+00  0.9479E+00
     16.705  0.1645E+00  0.9631E+00
     16.797  0.1273E+00  0.9749E+00
     16.890  0.9220E-01  0.9834E+00
     16.982  0.6673E-01  0.9896E+00
     17.075  0.4524E-01  0.9938E+00
     17.167  0.3033E-01  0.9966E+00
     17.260  0.2591E-01  0.9990E+00
     17.352  0.2845E-01  0.1002E+01
     17.445  0.2827E-01  0.1004E+01
     17.537  0.2037E-01  0.1006E+01
     17.630  0.1001E-01  0.1007E+01
     17.723  0.3841E-02  0.1007E+01
     17.815  0.4146E-02  0.1008E+01
     17.908  0.1284E-01  0.1009E+01
     18.000  0.3107E-01  0.1012E+01
     18.093  0.5009E-01  0.1016E+01
     18.185  0.5342E-01  0.1021E+01
     18.278  0.3770E-01  0.1025E+01
     18.370  0.1760E-01  0.1027E+01
     18.463  0.5511E-02  0.1027E+01
     18.555  0.1796E-02  0.1027E+01
     18.648  0.3940E-02  0.1028E+01
     18.741  0.1392E-01  0.1029E+01
     18.833  0.3463E-01  0.1032E+01
     18.926  0.6057E-01  0.1038E+01
     19.018  0.7919E-01  0.1045E+01
     19.111  0.8306E-01  0.1053E+01
     19.203  0.7128E-01  0.1059E+01
     19.296  0.4743E-01  0.1064E+01
     19.388  0.2278E-01  0.1066E+01
     19.481  0.7529E-02  0.1066E+01
     19.573  0.1672E-02  0.1067E+01
     19.666  0.2466E-03  0.1067E+01
     19.758  0.2406E-04  0.1067E+01
     19.851  0.1549E-05  0.1067E+01
     19.944  0.6565E-07  0.1067E+01
     20.036  0.1830E-08  0.1067E+01
     20.129  0.3353E-10  0.1067E+01
     20.221  0.4032E-12  0.1067E+01
     20.314  0.3199E-14  0.1067E+01
     20.406  0.0000E+00  0.1067E+01
     20.499  0.0000E+00  0.1067E+01
     20.591  0.0000E+00  0.1067E+01
     20.684  0.0000E+00  0.1067E+01
     20.776  0.0000E+00  0.1067E+01
     20.869  0.0000E+00  0.1067E+01
     20.962  0.0000E+00  0.1067E+01
     21.054  0.0000E+00  0.1067E+01
     21.147  0.0000E+00  0.1067E+01
