    2    2   15    1
  0.1529437E+02  0.3691622E-09  0.3691622E-09  0.3691622E-09  0.5000000E-15
  1.000000000000000E-004
  CAR 
 unknown system                          
      8      6      8
 
  0.0000000E+00  0.0000000E+00  0.0000000E+00  0.3703704E-01
    1       -4.615748   1.000000
    2        6.193498   1.000000
    3        6.308053   1.000000
    4        6.308080   1.000000
    5       10.665052   0.000000
    6       17.075882   0.000000
    7       17.378510   0.000000
    8       17.378544   0.000000
 
  0.3333333E+00 -0.7127914E-16  0.7127914E-16  0.2962963E+00
    1       -1.503405   1.000000
    2        5.364770   1.000000
    3        6.821634   1.000000
    4        7.495540   1.000000
    5       10.303678   0.000000
    6       12.775154   0.000000
    7       13.068403   0.000000
    8       14.055589   0.000000
 
  0.3333333E+00  0.3333333E+00  0.1273482E-15  0.2962963E+00
    1        1.050785   1.000000
    2        1.069695   1.000000
    3        6.299282   1.000000
    4        8.265055   0.999758
    5        8.853753   0.250241
    6       11.017207   0.000000
    7       15.546068   0.000000
    8       16.577747   0.000000
 
 -0.3333333E+00  0.3333333E+00  0.6449678E-17  0.1481481E+00
    1       -3.297011   1.000000
    2        0.572921   1.000000
    3        7.548410   1.000000
    4        9.410132   0.000002
    5       11.254805   0.000000
    6       13.134207   0.000000
    7       16.608997   0.000000
    8       18.935006   0.000000
 
 -0.3333333E+00  0.3333333E+00  0.3333333E+00  0.1481481E+00
    1       -2.009423   1.000000
    2        1.120219   1.000000
    3        2.904180   1.000000
    4        5.968862   1.000000
    5       15.267135   0.000000
    6       16.867368   0.000000
    7       18.107181   0.000000
    8       19.146599   0.000000
 
 -0.3333333E+00 -0.3333333E+00  0.3333333E+00  0.7407407E-01
    1        2.783783   1.000000
    2        2.880077   1.000000
    3        4.625799   1.000000
    4        4.625805   1.000000
    5        5.200605   1.000000
    6       15.173056   0.000000
    7       16.083476   0.000000
    8       16.083486   0.000000
