unknown system                          
   1.00000000000000     
     0.000000    2.715000    2.715000
     2.715000    0.000000    2.715000
     2.715000    2.715000    0.000000
   Si
     2
Direct
  0.500000  0.500000  0.500000
  0.750000  0.750000  0.750000
 
   32   32   32
 0.80603     0.82685     0.89113      1.0040      1.1729      1.4068      1.7152      2.1066      2.5863      3.1527    
  3.7927      4.4776      5.1626      5.7902      6.2979      6.6291      6.7443      6.6291      6.2979      5.7902    
  5.1627      4.4777      3.7928      3.1528      2.5863      2.1065      1.7152      1.4068      1.1729      1.0040    
 0.89114     0.82685     0.82685     0.86261     0.93714      1.0559      1.2258      1.4542      1.7474      2.1102    
  2.5428      3.0388      3.5812      4.1409      4.6768      5.1404      5.4832      5.6657      5.6657      5.4832    
  5.1404      4.6768      4.1409      3.5812      3.0388      2.5428      2.1101      1.7474      1.4541      1.2258    
  1.0559     0.93715     0.86261     0.82685     0.89113     0.93714      1.0179      1.1387      1.3053      1.5231    
  1.7957      2.1244      2.5057      2.9299      3.3786      3.8238      4.2297      4.5573      4.7708      4.8450    
  4.7708      4.5573      4.2297      3.8238      3.3786      2.9299      2.5057      2.1243      1.7957      1.5231    
  1.3053      1.1387      1.0179     0.93714     0.89113     0.87623      1.0040      1.0559      1.1387      1.2570    
  1.4152      1.6168      1.8633      2.1532      2.4808      2.8346      3.1960      3.5398      3.8361      4.0547    
  4.1710      4.1710      4.0547      3.8361      3.5398      3.1960      2.8346      2.4807      2.1531      1.8632    
  1.6168      1.4152      1.2570      1.1387      1.0559      1.0040     0.97904     0.97905      1.1729      1.2258    
  1.3053      1.4152      1.5586      1.7377      1.9524      2.1995      2.4720      2.7578      3.0395      3.2952    
  3.5009      3.6349      3.6814      3.6349      3.5009      3.2951      3.0395      2.7578      2.4720      2.1995    
  1.9523      1.7377      1.5587      1.4152      1.3053      1.2258      1.1728      1.1428      1.1331      1.1428    
  1.4068      1.4542      1.5231      1.6168      1.7377      1.8871      2.0640      2.2644      2.4808      2.7013    
  2.9105      3.0904      3.2230      3.2935      3.2935      3.2230      3.0904      2.9105      2.7013      2.4807    
  2.2644      2.0640      1.8872      1.7378      1.6168      1.5231      1.4542      1.4068      1.3777      1.3639    
  1.3639      1.3777      1.7152      1.7474      1.7957      1.8633      1.9524      2.0640      2.1968      2.3466    
  2.5057      2.6636      2.8073      2.9232      2.9986      3.0248      2.9986      2.9232      2.8074      2.6636    
  2.5057      2.3466      2.1968      2.0640      1.9524      1.8633      1.7957      1.7474      1.7152      1.6956    
  1.6854      1.6823      1.6854      1.6956      2.1066      2.1102      2.1244      2.1532      2.1995      2.2644    
  2.3466      2.4417      2.5428      2.6411      2.7269      2.7906      2.8246      2.8246      2.7906      2.7269    
  2.6412      2.5428      2.4417      2.3466      2.2644      2.1994      2.1531      2.1243      2.1101      2.1066    
  2.1092      2.1139      2.1173      2.1173      2.1139      2.1092      2.5863      2.5428      2.5057      2.4808    
  2.4720      2.4808      2.5057      2.5428      2.5863      2.6296      2.6663      2.6909      2.6995      2.6909    
  2.6663      2.6296      2.5863      2.5428      2.5057      2.4808      2.4720      2.4807      2.5057      2.5428    
  2.5863      2.6296      2.6663      2.6909      2.6995      2.6909      2.6663      2.6296      3.1527      3.0388    
  2.9299      2.8346      2.7578      2.7013      2.6636      2.6411      2.6296      2.6249      2.6237      2.6238    
  2.6238      2.6238      2.6249      2.6296      2.6411      2.6635      2.7012      2.7577      2.8345      2.9300    
  3.0388      3.1527      3.2616      3.3549      3.4232      3.4593      3.4592      3.4232      3.3549      3.2616    
  3.7927      3.5812      3.3786      3.1960      3.0395      2.9105      2.8073      2.7269      2.6663      2.6237    
  2.5984      2.5899      2.5984      2.6238      2.6663      2.7268      2.8073      2.9105      3.0395      3.1960    
  3.3786      3.5812      3.7928      3.9981      4.1805      4.3242      4.4160      4.4476      4.4160      4.3242    
  4.1805      3.9980      4.4776      4.1409      3.8238      3.5398      3.2952      3.0904      2.9232      2.7906    
  2.6909      2.6238      2.5899      2.5899      2.6238      2.6908      2.7905      2.9231      3.0904      3.2951    
  3.5398      3.8238      4.1409      4.4776      4.8136      5.1240      5.3837      5.5704      5.6681      5.6681    
  5.5705      5.3837      5.1240      4.8135      5.1626      4.6768      4.2297      3.8361      3.5009      3.2230    
  2.9986      2.8246      2.6995      2.6238      2.5984      2.6238      2.6995      2.8245      2.9985      3.2229    
  3.5009      3.8361      4.2297      4.6768      5.1627      5.6619      6.1412      6.5635      6.8939      7.1043    
  7.1765      7.1043      6.8940      6.5636      6.1413      5.6619      5.7902      5.1404      4.5573      4.0547    
  3.6349      3.2935      3.0248      2.8246      2.6909      2.6238      2.6238      2.6908      2.8245      3.0248    
  3.2934      3.6348      4.0547      4.5573      5.1404      5.7902      6.4784      7.1634      7.7954      8.3238    
  8.7038      8.9026      8.9026      8.7039      8.3238      7.7955      7.1634      6.4784      6.2979      5.4832    
  4.7708      4.1710      3.6814      3.2935      2.9986      2.7906      2.6663      2.6249      2.6663      2.7905    
  2.9985      3.2934      3.6813      4.1710      4.7708      5.4832      6.2979      7.1866      8.1026      8.9846    
  9.7649      10.378      10.770      10.905      10.770      10.378      9.7648      8.9846      8.1026      7.1867    
  6.6291      5.6657      4.8450      4.1710      3.6349      3.2230      2.9232      2.7269      2.6296      2.6296    
  2.7268      2.9231      3.2229      3.6348      4.1710      4.8450      5.6657      6.6291      7.7112      8.8643    
  10.020      11.096      12.005      12.666      13.014      13.014      12.666      12.005      11.096      10.020    
  8.8643      7.7112      6.7443      5.6657      4.7708      4.0547      3.5009      3.0904      2.8074      2.6412    
  2.5863      2.6411      2.8073      3.0904      3.5009      4.0547      4.7708      5.6657      6.7442      7.9906    
  9.3622      10.790      12.183      13.436      14.439      15.090      15.316      15.090      14.439      13.436    
  12.182      10.790      9.3622      7.9907      6.6291      5.4832      4.5573      3.8361      3.2951      2.9105    
  2.6636      2.5428      2.5428      2.6635      2.9105      3.2951      3.8361      4.5573      5.4832      6.6291    
  7.9906      9.5354      11.201      12.898      14.511      15.906      16.933      17.476      17.476      16.933    
  15.906      14.511      12.897      11.201      9.5355      7.9907      6.2979      5.1404      4.2297      3.5398    
  3.0395      2.7013      2.5057      2.4417      2.5057      2.7012      3.0395      3.5398      4.2297      5.1404    
  6.2979      7.7112      9.3622      11.201      13.147      15.090      16.877      18.317      19.250      19.574    
  19.250      18.317      16.877      15.090      13.147      11.201      9.3622      7.7112      5.7902      4.6768    
  3.8238      3.1960      2.7578      2.4807      2.3466      2.3466      2.4808      2.7577      3.1960      3.8238    
  4.6768      5.7902      7.1866      8.8643      10.790      12.898      15.090      17.217      19.060      20.421    
  21.145      21.145      20.421      19.060      17.217      15.090      12.897      10.790      8.8643      7.1867    
  5.1627      4.1409      3.3786      2.8346      2.4720      2.2644      2.1968      2.2644      2.4720      2.8345    
  3.3786      4.1409      5.1627      6.4784      8.1026      10.020      12.183      14.511      16.877      19.060    
  20.831      21.989      22.393      21.989      20.831      19.061      16.877      14.511      12.182      10.020    
  8.1026      6.4785      4.4777      3.5812      2.9299      2.4807      2.1995      2.0640      2.0640      2.1994    
  2.4807      2.9300      3.5812      4.4776      5.6619      7.1634      8.9846      11.096      13.436      15.906    
  18.317      20.421      21.989      22.830      22.830      21.989      20.421      18.317      15.906      13.436    
  11.096      8.9845      7.1634      5.6621      3.7928      3.0388      2.5057      2.1531      1.9523      1.8872    
  1.9524      2.1531      2.5057      3.0388      3.7928      4.8136      6.1412      7.7954      9.7649      12.005    
  14.439      16.933      19.250      21.145      22.393      22.830      22.393      21.145      19.250      16.933    
  14.439      12.005      9.7648      7.7954      6.1413      4.8136      3.1528      2.5428      2.1243      1.8632    
  1.7377      1.7378      1.8633      2.1243      2.5428      3.1527      3.9981      5.1240      6.5635      8.3238    
  10.378      12.666      15.090      17.476      19.574      21.145      21.989      21.989      21.145      19.574    
  17.476      15.090      12.666      10.378      8.3238      6.5636      5.1241      3.9981      2.5863      2.1101    
  1.7957      1.6168      1.5587      1.6168      1.7957      2.1101      2.5863      3.2616      4.1805      5.3837    
  6.8939      8.7038      10.770      13.014      15.316      17.476      19.250      20.421      20.831      20.421    
  19.250      17.476      15.316      13.014      10.770      8.7039      6.8940      5.3838      4.1806      3.2617    
  2.1065      1.7474      1.5231      1.4152      1.4152      1.5231      1.7474      2.1066      2.6296      3.3549    
  4.3242      5.5704      7.1043      8.9026      10.905      13.014      15.090      16.933      18.317      19.060    
  19.061      18.317      16.933      15.090      13.014      10.905      8.9026      7.1043      5.5705      4.3243    
  3.3550      2.6296      1.7152      1.4541      1.3053      1.2570      1.3053      1.4542      1.7152      2.1092    
  2.6663      3.4232      4.4160      5.6681      7.1765      8.9026      10.770      12.666      14.439      15.906    
  16.877      17.217      16.877      15.906      14.439      12.666      10.770      8.9026      7.1765      5.6682    
  4.4161      3.4233      2.6663      2.1092      1.4068      1.2258      1.1387      1.1387      1.2258      1.4068    
  1.6956      2.1139      2.6909      3.4593      4.4476      5.6681      7.1043      8.7039      10.378      12.005    
  13.436      14.511      15.090      15.090      14.511      13.436      12.005      10.378      8.7039      7.1043    
  5.6682      4.4477      3.4593      2.6909      2.1139      1.6955      1.1729      1.0559      1.0179      1.0559    
  1.1728      1.3777      1.6854      2.1173      2.6995      3.4592      4.4160      5.5705      6.8940      8.3238    
  9.7648      11.096      12.182      12.897      13.147      12.897      12.182      11.096      9.7648      8.3238    
  6.8940      5.5705      4.4161      3.4593      2.6995      2.1173      1.6854      1.3776      1.0040     0.93715    
 0.93714      1.0040      1.1428      1.3639      1.6823      2.1173      2.6909      3.4232      4.3242      5.3837    
  6.5636      7.7955      8.9846      10.020      10.790      11.201      11.201      10.790      10.020      8.9845    
  7.7954      6.5636      5.3838      4.3243      3.4233      2.6909      2.1173      1.6823      1.3639      1.1428    
 0.89114     0.86261     0.89113     0.97904      1.1331      1.3639      1.6854      2.1139      2.6663      3.3549    
  4.1805      5.1240      6.1413      7.1634      8.1026      8.8643      9.3622      9.5355      9.3622      8.8643    
  8.1026      7.1634      6.1413      5.1241      4.1806      3.3550      2.6663      2.1139      1.6854      1.3639    
  1.1331     0.97905     0.82685     0.82685     0.87623     0.97905      1.1428      1.3777      1.6956      2.1092    
  2.6296      3.2616      3.9980      4.8135      5.6619      6.4784      7.1867      7.7112      7.9907      7.9907    
  7.7112      7.1867      6.4785      5.6621      4.8136      3.9981      3.2617      2.6296      2.1092      1.6955    
  1.3776      1.1428     0.97905     0.87624     0.82685     0.86261     0.93714      1.0559      1.2258      1.4542    
  1.7474      2.1102      2.5428      3.0388      3.5812      4.1409      4.6768      5.1404      5.4832      5.6657    
  5.6657      5.4832      5.1404      4.6768      4.1409      3.5812      3.0388      2.5428      2.1101      1.7474    
  1.4541      1.2258      1.0559     0.93715     0.86261     0.82685     0.86261     0.90712     0.98546      1.1029    
  1.2654      1.4783      1.7454      2.0676      2.4417      2.8577      3.2973      3.7331      4.1301      4.4502    
  4.6587      4.7311      4.6587      4.4502      4.1301      3.7331      3.2973      2.8577      2.4416      2.0676    
  1.7453      1.4783      1.2655      1.1030     0.98547     0.90712     0.86261     0.84822     0.93714     0.98546    
  1.0630      1.1746      1.3249      1.5174      1.7537      2.0320      2.3466      2.6861      3.0326      3.3617    
  3.6450      3.8538      3.9648      3.9648      3.8538      3.6450      3.3617      3.0326      2.6861      2.3465    
  2.0319      1.7536      1.5174      1.3249      1.1746      1.0630     0.98546     0.93713     0.91409     0.91409    
  1.0559      1.1029      1.1746      1.2751      1.4078      1.5749      1.7762      2.0083      2.2644      2.5329    
  2.7974      3.0372      3.2301      3.3555      3.3991      3.3555      3.2300      3.0372      2.7974      2.5329    
  2.2644      2.0083      1.7761      1.5750      1.4079      1.2751      1.1746      1.1029      1.0559      1.0296    
  1.0211      1.0296      1.2258      1.2654      1.3249      1.4078      1.5169      1.6532      1.8155      2.0000    
  2.1995      2.4030      2.5962      2.7625      2.8852      2.9504      2.9504      2.8851      2.7625      2.5962    
  2.4030      2.1995      2.0000      1.8155      1.6532      1.5169      1.4078      1.3249      1.2654      1.2258    
  1.2022      1.1914      1.1914      1.2022      1.4542      1.4783      1.5174      1.5749      1.6532      1.7528    
  1.8726      2.0083      2.1532      2.2975      2.4294      2.5362      2.6058      2.6301      2.6059      2.5362    
  2.4295      2.2975      2.1531      2.0083      1.8726      1.7529      1.6532      1.5749      1.5174      1.4783    
  1.4541      1.4409      1.4349      1.4332      1.4349      1.4410      1.7474      1.7454      1.7537      1.7762    
  1.8155      1.8726      1.9460      2.0320      2.1244      2.2152      2.2951      2.3549      2.3870      2.3870    
  2.3549      2.2951      2.2152      2.1244      2.0320      1.9460      1.8726      1.8155      1.7762      1.7537    
  1.7454      1.7474      1.7551      1.7637      1.7692      1.7692      1.7637      1.7551      2.1102      2.0676    
  2.0320      2.0083      2.0000      2.0083      2.0320      2.0676      2.1102      2.1534      2.1906      2.2159    
  2.2248      2.2159      2.1906      2.1534      2.1102      2.0677      2.0320      2.0083      2.0000      2.0083    
  2.0320      2.0677      2.1102      2.1534      2.1906      2.2159      2.2248      2.2159      2.1906      2.1534    
  2.5428      2.4417      2.3466      2.2644      2.1995      2.1532      2.1244      2.1102      2.1066      2.1092    
  2.1139      2.1173      2.1173      2.1140      2.1092      2.1066      2.1102      2.1243      2.1531      2.1994    
  2.2644      2.3466      2.4417      2.5428      2.6411      2.7269      2.7906      2.8246      2.8246      2.7906    
  2.7269      2.6411      3.0388      2.8577      2.6861      2.5329      2.4030      2.2975      2.2152      2.1534    
  2.1092      2.0800      2.0635      2.0582      2.0635      2.0800      2.1092      2.1534      2.2151      2.2974    
  2.4029      2.5329      2.6862      2.8578      3.0388      3.2171      3.3781      3.5068      3.5901      3.6190    
  3.5901      3.5068      3.3781      3.2171      3.5812      3.2973      3.0326      2.7974      2.5962      2.4294    
  2.2951      2.1906      2.1139      2.0635      2.0385      2.0385      2.0635      2.1139      2.1906      2.2950    
  2.4293      2.5961      2.7974      3.0327      3.2975      3.5813      3.8682      4.1376      4.3668      4.5340    
  4.6224      4.6224      4.5340      4.3667      4.1376      3.8682      4.1409      3.7331      3.3617      3.0372    
  2.7625      2.5362      2.3549      2.2159      2.1173      2.0582      2.0385      2.0582      2.1173      2.2159    
  2.3548      2.5359      2.7623      3.0372      3.3619      3.7334      4.1410      4.5658      4.9805      5.3527    
  5.6490      5.8401      5.9062      5.8401      5.6489      5.3527      4.9805      4.5658      4.6768      4.1301    
  3.6450      3.2301      2.8852      2.6058      2.3870      2.2248      2.1173      2.0635      2.0635      2.1173    
  2.2248      2.3869      2.6055      2.8849      3.2301      3.6453      4.1305      4.6770      5.2644      5.8599    
  6.4204      6.8981      7.2472      7.4317      7.4317      7.2472      6.8981      6.4205      5.8600      5.2644    
  5.1404      4.4502      3.8538      3.3555      2.9504      2.6301      2.3870      2.2159      2.1140      2.0800    
  2.1139      2.2159      2.3869      2.6298      2.9501      3.3555      3.8541      4.4506      5.1406      5.9053    
  6.7087      7.4983      8.2111      8.7810      9.1500      9.2778      9.1500      8.7810      8.2111      7.4984    
  6.7088      5.9054      5.4832      4.6587      3.9648      3.3991      2.9504      2.6059      2.3549      2.1906    
  2.1092      2.1092      2.1906      2.3548      2.6055      2.9501      3.3991      3.9651      4.6592      5.4834    
  6.4244      7.4470      8.4934      9.4868      10.340      10.968      11.301      11.301      10.968      10.340    
  9.4867      8.4935      7.4472      6.4245      5.6657      4.7311      3.9648      3.3555      2.8851      2.5362    
  2.2951      2.1534      2.1066      2.1534      2.2950      2.5359      2.8849      3.3555      3.9651      4.7316    
  5.6659      6.7634      7.9950      9.3033      10.604      11.790      12.749      13.376      13.594      13.376    
  12.749      11.790      10.604      9.3034      7.9952      6.7634      5.6657      4.6587      3.8538      3.2300    
  2.7625      2.4295      2.2152      2.1102      2.1102      2.2151      2.4293      2.7623      3.2301      3.8541    
  4.6592      5.6659      6.8813      8.2874      9.8342      11.437      12.980      14.326      15.329      15.867    
  15.867      15.329      14.326      12.980      11.437      9.8343      8.2876      6.8813      5.4832      4.4502    
  3.6450      3.0372      2.5962      2.2975      2.1244      2.0677      2.1243      2.2974      2.5961      3.0372    
  3.6453      4.4506      5.4834      6.7634      8.2874      10.019      11.884      13.766      15.514      16.953    
  17.905      18.239      17.905      16.953      15.514      13.766      11.884      10.019      8.2876      6.7635    
  5.1404      4.1301      3.3617      2.7974      2.4030      2.1531      2.0320      2.0320      2.1531      2.4029    
  2.7974      3.3619      4.1305      5.1406      6.4244      7.9950      9.8342      11.884      14.041      16.156    
  18.036      19.460      20.229      20.229      19.460      18.036      16.156      14.041      11.884      9.8342    
  7.9952      6.4245      4.6768      3.7331      3.0326      2.5329      2.1995      2.0083      1.9460      2.0083    
  2.1994      2.5329      3.0327      3.7334      4.6770      5.9053      7.4470      9.3033      11.437      13.766    
  16.156      18.417      20.303      21.559      22.000      21.559      20.303      18.418      16.156      13.766    
  11.437      9.3034      7.4472      5.9054      4.1409      3.2973      2.6861      2.2644      2.0000      1.8726    
  1.8726      2.0000      2.2644      2.6862      3.2975      4.1410      5.2644      6.7087      8.4934      10.604    
  12.980      15.514      18.036      20.303      22.027      22.961      22.961      22.028      20.303      18.036    
  15.515      12.981      10.604      8.4935      6.7087      5.2644      3.5812      2.8577      2.3465      2.0083    
  1.8155      1.7529      1.8155      2.0083      2.3466      2.8578      3.5813      4.5658      5.8599      7.4983    
  9.4868      11.790      14.326      16.953      19.460      21.559      22.961      23.455      22.962      21.559    
  19.460      16.953      14.326      11.790      9.4869      7.4983      5.8599      4.5658      3.0388      2.4416    
  2.0319      1.7761      1.6532      1.6532      1.7762      2.0320      2.4417      3.0388      3.8682      4.9805    
  6.4204      8.2111      10.340      12.749      15.329      17.905      20.229      22.000      22.961      22.962    
  22.000      20.229      17.905      15.329      12.750      10.340      8.2110      6.4203      4.9805      3.8682    
  2.5428      2.0676      1.7536      1.5750      1.5169      1.5749      1.7537      2.0677      2.5428      3.2171    
  4.1376      5.3527      6.8981      8.7810      10.968      13.376      15.867      18.239      20.229      21.559    
  22.028      21.559      20.229      18.239      15.867      13.376      10.968      8.7809      6.8979      5.3526    
  4.1377      3.2172      2.1101      1.7453      1.5174      1.4079      1.4078      1.5174      1.7454      2.1102    
  2.6411      3.3781      4.3668      5.6490      7.2472      9.1500      11.301      13.594      15.867      17.905    
  19.460      20.303      20.303      19.460      17.905      15.867      13.594      11.301      9.1499      7.2470    
  5.6488      4.3668      3.3782      2.6412      1.7474      1.4783      1.3249      1.2751      1.3249      1.4783    
  1.7474      2.1534      2.7269      3.5068      4.5340      5.8401      7.4317      9.2778      11.301      13.376    
  15.329      16.953      18.036      18.418      18.036      16.953      15.329      13.376      11.301      9.2777    
  7.4314      5.8399      4.5341      3.5069      2.7270      2.1533      1.4541      1.2655      1.1746      1.1746    
  1.2654      1.4541      1.7551      2.1906      2.7906      3.5901      4.6224      5.9062      7.4317      9.1500    
  10.968      12.749      14.326      15.514      16.156      16.156      15.515      14.326      12.750      10.968    
  9.1499      7.4314      5.9059      4.6224      3.5903      2.7907      2.1906      1.7551      1.2258      1.1030    
  1.0630      1.1029      1.2258      1.4409      1.7637      2.2159      2.8246      3.6190      4.6224      5.8401    
  7.2472      8.7810      10.340      11.790      12.980      13.766      14.041      13.766      12.981      11.790    
  10.340      8.7809      7.2470      5.8399      4.6224      3.6191      2.8247      2.2159      1.7637      1.4409    
  1.0559     0.98547     0.98546      1.0559      1.2022      1.4349      1.7692      2.2248      2.8246      3.5901    
  4.5340      5.6489      6.8981      8.2111      9.4867      10.604      11.437      11.884      11.884      11.437    
  10.604      9.4869      8.2110      6.8979      5.6488      4.5341      3.5903      2.8247      2.2249      1.7692    
  1.4349      1.2022     0.93715     0.90712     0.93713      1.0296      1.1914      1.4332      1.7692      2.2159    
  2.7906      3.5068      4.3667      5.3527      6.4205      7.4984      8.4935      9.3034      9.8343      10.019    
  9.8342      9.3034      8.4935      7.4983      6.4203      5.3526      4.3668      3.5069      2.7907      2.2159    
  1.7692      1.4332      1.1914      1.0296     0.86261     0.86261     0.91409      1.0211      1.1914      1.4349    
  1.7637      2.1906      2.7269      3.3781      4.1376      4.9805      5.8600      6.7088      7.4472      7.9952    
  8.2876      8.2876      7.9952      7.4472      6.7087      5.8599      4.9805      4.1377      3.3782      2.7270    
  2.1906      1.7637      1.4349      1.1914      1.0212     0.91409     0.82685     0.84822     0.91409      1.0296    
  1.2022      1.4410      1.7551      2.1534      2.6411      3.2171      3.8682      4.5658      5.2644      5.9054    
  6.4245      6.7634      6.8813      6.7635      6.4245      5.9054      5.2644      4.5658      3.8682      3.2172    
  2.6412      2.1533      1.7551      1.4409      1.2022      1.0296     0.91409     0.84820     0.89114     0.93715    
  1.0179      1.1387      1.3053      1.5231      1.7957      2.1244      2.5057      2.9299      3.3786      3.8238    
  4.2297      4.5573      4.7708      4.8450      4.7708      4.5573      4.2297      3.8238      3.3786      2.9299    
  2.5057      2.1243      1.7957      1.5231      1.3053      1.1387      1.0179     0.93715     0.89113     0.87623    
 0.93715     0.98546      1.0630      1.1746      1.3249      1.5174      1.7537      2.0320      2.3466      2.6861    
  3.0326      3.3617      3.6450      3.8538      3.9648      3.9648      3.8538      3.6450      3.3617      3.0326    
  2.6861      2.3465      2.0319      1.7536      1.5174      1.3249      1.1746      1.0630     0.98547     0.93714    
 0.91409     0.91409      1.0179      1.0630      1.1321      1.2295      1.3587      1.5219      1.7187      1.9460    
  2.1968      2.4597      2.7186      2.9532      3.1418      3.2645      3.3071      3.2645      3.1418      2.9532    
  2.7186      2.4597      2.1968      1.9460      1.7187      1.5219      1.3587      1.2295      1.1321      1.0630    
  1.0179     0.99279     0.98477     0.99280      1.1387      1.1746      1.2295      1.3071      1.4104      1.5403    
  1.6957      1.8726      2.0640      2.2593      2.4449      2.6046      2.7223      2.7849      2.7849      2.7223    
  2.6046      2.4449      2.2593      2.0640      1.8726      1.6957      1.5403      1.4104      1.3072      1.2295    
  1.1746      1.1387      1.1177      1.1082      1.1083      1.1177      1.3053      1.3249      1.3587      1.4104    
  1.4824      1.5753      1.6876      1.8155      1.9524      2.0890      2.2142      2.3156      2.3818      2.4049    
  2.3818      2.3156      2.2142      2.0890      1.9523      1.8155      1.6876      1.5753      1.4824      1.4104    
  1.3587      1.3249      1.3053      1.2957      1.2920      1.2911      1.2920      1.2957      1.5231      1.5174    
  1.5219      1.5403      1.5753      1.6275      1.6957      1.7762      1.8633      1.9493      2.0255      2.0827    
  2.1135      2.1135      2.0827      2.0255      1.9493      1.8632      1.7762      1.6957      1.6275      1.5753    
  1.5403      1.5219      1.5174      1.5231      1.5339      1.5449      1.5516      1.5516      1.5449      1.5339    
  1.7957      1.7537      1.7187      1.6957      1.6876      1.6957      1.7187      1.7537      1.7957      1.8388    
  1.8763      1.9018      1.9109      1.9018      1.8763      1.8388      1.7957      1.7537      1.7187      1.6957    
  1.6877      1.6957      1.7187      1.7537      1.7957      1.8388      1.8763      1.9018      1.9109      1.9018    
  1.8763      1.8388      2.1244      2.0320      1.9460      1.8726      1.8155      1.7762      1.7537      1.7454    
  1.7474      1.7552      1.7638      1.7692      1.7692      1.7637      1.7551      1.7474      1.7454      1.7537    
  1.7762      1.8155      1.8726      1.9460      2.0320      2.1244      2.2152      2.2951      2.3549      2.3870    
  2.3870      2.3549      2.2951      2.2152      2.5057      2.3466      2.1968      2.0640      1.9524      1.8633    
  1.7957      1.7474      1.7152      1.6956      1.6854      1.6823      1.6854      1.6956      1.7152      1.7474    
  1.7957      1.8633      1.9524      2.0640      2.1968      2.3466      2.5057      2.6636      2.8074      2.9232    
  2.9986      3.0248      2.9986      2.9232      2.8073      2.6636      2.9299      2.6861      2.4597      2.2593    
  2.0890      1.9493      1.8388      1.7552      1.6956      1.6576      1.6393      1.6393      1.6576      1.6956    
  1.7551      1.8388      1.9493      2.0890      2.2594      2.4598      2.6861      2.9300      3.1779      3.4124    
  3.6134      3.7612      3.8396      3.8396      3.7612      3.6134      3.4124      3.1779      3.3786      3.0326    
  2.7186      2.4449      2.2142      2.0255      1.8763      1.7638      1.6854      1.6393      1.6240      1.6392    
  1.6854      1.7637      1.8763      2.0255      2.2142      2.4449      2.7186      3.0327      3.3786      3.7412    
  4.0977      4.4204      4.6793      4.8475      4.9058      4.8475      4.6793      4.4204      4.0977      3.7411    
  3.8238      3.3617      2.9532      2.6046      2.3156      2.0827      1.9018      1.7692      1.6823      1.6393    
  1.6392      1.6822      1.7692      1.9018      2.0827      2.3156      2.6046      2.9533      3.3618      3.8238    
  4.3234      4.8341      5.3193      5.7368      6.0444      6.2078      6.2078      6.0444      5.7368      5.3193    
  4.8341      4.3234      4.2297      3.6450      3.1418      2.7223      2.3818      2.1135      1.9109      1.7692    
  1.6854      1.6576      1.6854      1.7692      1.9109      2.1135      2.3818      2.7224      3.1419      3.6451    