   2   2   0   0
  0.2001288E+02  0.3839590E-09  0.3839590E-09  0.3839590E-09  0.5000000E-15
  1.000000000000000E-004
  CAR 
 unknown system                          
     17.23385101     -8.20316138  301      5.97490587      1.00000000
     -8.203  0.0000E+00  0.0000E+00
     -8.118  0.0000E+00  0.0000E+00
     -8.034  0.0000E+00  0.0000E+00
     -7.949  0.0000E+00  0.0000E+00
     -7.864  0.0000E+00  0.0000E+00
     -7.779  0.0000E+00  0.0000E+00
     -7.694  0.0000E+00  0.0000E+00
     -7.610  0.0000E+00  0.0000E+00
     -7.525  0.0000E+00  0.0000E+00
     -7.440  0.0000E+00  0.0000E+00
     -7.355  0.1968E-18  0.1668E-19
     -7.270  0.2663E-16  0.2274E-17
     -7.186  0.2240E-14  0.1922E-15
     -7.101  0.1332E-12  0.1149E-13
     -7.016  0.5616E-11  0.4876E-12
     -6.931  0.1688E-09  0.1480E-10
     -6.847  0.3646E-08  0.3239E-09
     -6.762  0.5713E-07  0.5168E-08
     -6.677  0.6566E-06  0.6084E-07
     -6.592  0.5594E-05  0.5352E-06
     -6.507  0.3561E-04  0.3555E-05
     -6.423  0.1701E-03  0.1797E-04
     -6.338  0.6107E-03  0.6976E-04
     -6.253  0.1659E-02  0.2105E-03
     -6.168  0.3481E-02  0.5056E-03
     -6.083  0.5900E-02  0.1006E-02
     -5.999  0.8626E-02  0.1737E-02
     -5.914  0.1142E-01  0.2705E-02
     -5.829  0.1369E-01  0.3866E-02
     -5.744  0.1496E-01  0.5134E-02
     -5.659  0.1607E-01  0.6496E-02
     -5.575  0.1829E-01  0.8047E-02
     -5.490  0.2106E-01  0.9833E-02
     -5.405  0.2266E-01  0.1176E-01
     -5.320  0.2261E-01  0.1367E-01
     -5.236  0.2204E-01  0.1554E-01
     -5.151  0.2290E-01  0.1748E-01
     -5.066  0.2631E-01  0.1971E-01
     -4.981  0.3052E-01  0.2230E-01
     -4.896  0.3248E-01  0.2506E-01
     -4.812  0.3164E-01  0.2774E-01
     -4.727  0.2969E-01  0.3026E-01
     -4.642  0.2855E-01  0.3268E-01
     -4.557  0.3042E-01  0.3526E-01
     -4.472  0.3623E-01  0.3833E-01
     -4.388  0.4302E-01  0.4198E-01
     -4.303  0.4625E-01  0.4590E-01
     -4.218  0.4467E-01  0.4969E-01
     -4.133  0.4114E-01  0.5317E-01
     -4.048  0.3996E-01  0.5656E-01
     -3.964  0.4451E-01  0.6034E-01
     -3.879  0.5435E-01  0.6494E-01
     -3.794  0.6323E-01  0.7031E-01
     -3.709  0.6426E-01  0.7575E-01
     -3.624  0.5779E-01  0.8065E-01
     -3.540  0.4967E-01  0.8487E-01
     -3.455  0.4452E-01  0.8864E-01
     -3.370  0.4469E-01  0.9243E-01
     -3.285  0.4929E-01  0.9661E-01
     -3.201  0.5226E-01  0.1010E+00
     -3.116  0.4824E-01  0.1051E+00
     -3.031  0.3965E-01  0.1085E+00
     -2.946  0.3353E-01  0.1113E+00
     -2.861  0.3343E-01  0.1142E+00
     -2.777  0.3698E-01  0.1173E+00
     -2.692  0.3847E-01  0.1206E+00
     -2.607  0.3420E-01  0.1235E+00
     -2.522  0.2628E-01  0.1257E+00
     -2.437  0.1978E-01  0.1274E+00
     -2.353  0.1722E-01  0.1288E+00
     -2.268  0.1716E-01  0.1303E+00
     -2.183  0.1680E-01  0.1317E+00
     -2.098  0.1491E-01  0.1330E+00
     -2.013  0.1245E-01  0.1340E+00
     -1.929  0.1090E-01  0.1350E+00
     -1.844  0.1057E-01  0.1359E+00
     -1.759  0.1120E-01  0.1368E+00
     -1.674  0.1358E-01  0.1380E+00
     -1.590  0.1937E-01  0.1396E+00
     -1.505  0.2886E-01  0.1420E+00
     -1.420  0.3909E-01  0.1454E+00
     -1.335  0.4633E-01  0.1493E+00
     -1.250  0.5165E-01  0.1537E+00
     -1.166  0.5993E-01  0.1587E+00
     -1.081  0.7101E-01  0.1648E+00
     -0.996  0.7803E-01  0.1714E+00
     -0.911  0.7679E-01  0.1779E+00
     -0.826  0.7003E-01  0.1838E+00
     -0.742  0.6117E-01  0.1890E+00
     -0.657  0.5107E-01  0.1933E+00
     -0.572  0.4253E-01  0.1970E+00
     -0.487  0.3986E-01  0.2003E+00
     -0.402  0.4160E-01  0.2039E+00
     -0.318  0.4114E-01  0.2074E+00
     -0.233  0.3634E-01  0.2104E+00
     -0.148  0.3161E-01  0.2131E+00
     -0.063  0.2997E-01  0.2157E+00
      0.021  0.2921E-01  0.2181E+00
      0.106  0.2711E-01  0.2204E+00
      0.191  0.2549E-01  0.2226E+00
      0.276  0.2627E-01  0.2248E+00
      0.361  0.2740E-01  0.2271E+00
      0.445  0.2590E-01  0.2293E+00
      0.530  0.2220E-01  0.2312E+00
      0.615  0.1939E-01  0.2329E+00
      0.700  0.1955E-01  0.2345E+00
      0.785  0.2134E-01  0.2363E+00
      0.869  0.2096E-01  0.2381E+00
      0.954  0.1658E-01  0.2395E+00
      1.039  0.1128E-01  0.2405E+00
      1.124  0.1050E-01  0.2414E+00
      1.209  0.1732E-01  0.2428E+00
      1.293  0.2996E-01  0.2454E+00
      1.378  0.4315E-01  0.2490E+00
      1.463  0.5287E-01  0.2535E+00
      1.548  0.5852E-01  0.2585E+00
      1.632  0.6126E-01  0.2637E+00
      1.717  0.6397E-01  0.2691E+00
      1.802  0.7020E-01  0.2750E+00
      1.887  0.7835E-01  0.2817E+00
      1.972  0.8109E-01  0.2886E+00
      2.056  0.7527E-01  0.2949E+00
      2.141  0.6679E-01  0.3006E+00
      2.226  0.6277E-01  0.3059E+00
      2.311  0.6464E-01  0.3114E+00
      2.396  0.7064E-01  0.3174E+00
      2.480  0.7883E-01  0.3241E+00
      2.565  0.8566E-01  0.3313E+00
      2.650  0.8696E-01  0.3387E+00
      2.735  0.8428E-01  0.3459E+00
      2.820  0.8572E-01  0.3531E+00
      2.904  0.9553E-01  0.3612E+00
      2.989  0.1064E+00  0.3703E+00
      3.074  0.1074E+00  0.3794E+00
      3.159  0.9794E-01  0.3877E+00
      3.243  0.8958E-01  0.3953E+00
      3.328  0.9024E-01  0.4029E+00
      3.413  0.9412E-01  0.4109E+00
      3.498  0.9169E-01  0.4187E+00
      3.583  0.8443E-01  0.4258E+00
      3.667  0.8239E-01  0.4328E+00
      3.752  0.8927E-01  0.4404E+00
      3.837  0.9687E-01  0.4486E+00
      3.922  0.9625E-01  0.4568E+00
      4.007  0.8858E-01  0.4643E+00
      4.091  0.8159E-01  0.4712E+00
      4.176  0.7810E-01  0.4778E+00
      4.261  0.7370E-01  0.4841E+00
      4.346  0.6666E-01  0.4897E+00
      4.431  0.6190E-01  0.4950E+00
      4.515  0.6156E-01  0.5002E+00
      4.600  0.6050E-01  0.5053E+00
      4.685  0.5514E-01  0.5100E+00
      4.770  0.4852E-01  0.5141E+00
      4.855  0.4338E-01  0.5178E+00
      4.939  0.3790E-01  0.5210E+00
      5.024  0.3082E-01  0.5236E+00
      5.109  0.2438E-01  0.5257E+00
      5.194  0.2017E-01  0.5274E+00
      5.278  0.1698E-01  0.5288E+00
      5.363  0.1388E-01  0.5300E+00
      5.448  0.1163E-01  0.5310E+00
      5.533  0.1016E-01  0.5318E+00
      5.618  0.8165E-02  0.5325E+00
      5.702  0.5319E-02  0.5330E+00
      5.787  0.2682E-02  0.5332E+00
      5.872  0.1052E-02  0.5333E+00
      5.957  0.3576E-03  0.5333E+00
      6.042  0.2674E-03  0.5334E+00
      6.126  0.7129E-03  0.5334E+00
      6.211  0.1909E-02  0.5336E+00
      6.296  0.4067E-02  0.5339E+00
      6.381  0.7188E-02  0.5345E+00
      6.466  0.1107E-01  0.5355E+00
      6.550  0.1514E-01  0.5368E+00
      6.635  0.1850E-01  0.5383E+00
      6.720  0.2057E-01  0.5401E+00
      6.805  0.2182E-01  0.5419E+00
      6.889  0.2411E-01  0.5440E+00
      6.974  0.2941E-01  0.5465E+00
      7.059  0.3710E-01  0.5496E+00
      7.144  0.4430E-01  0.5534E+00
      7.229  0.5036E-01  0.5576E+00
      7.313  0.5734E-01  0.5625E+00
      7.398  0.6485E-01  0.5680E+00
      7.483  0.6980E-01  0.5739E+00
      7.568  0.7191E-01  0.5800E+00
      7.653  0.7453E-01  0.5863E+00
      7.737  0.7985E-01  0.5931E+00
      7.822  0.8728E-01  0.6005E+00
      7.907  0.9460E-01  0.6085E+00
      7.992  0.9769E-01  0.6168E+00
      8.077  0.9421E-01  0.6248E+00
      8.161  0.8874E-01  0.6323E+00
      8.246  0.8745E-01  0.6397E+00
      8.331  0.8860E-01  0.6472E+00
      8.416  0.8616E-01  0.6545E+00
      8.500  0.7980E-01  0.6613E+00
      8.585  0.7392E-01  0.6676E+00
      8.670  0.7247E-01  0.6737E+00
      8.755  0.7933E-01  0.6804E+00
      8.840  0.9630E-01  0.6886E+00
      8.924  0.1179E+00  0.6986E+00
      9.009  0.1333E+00  0.7099E+00
      9.094  0.1362E+00  0.7215E+00
      9.179  0.1296E+00  0.7324E+00
      9.264  0.1214E+00  0.7427E+00
      9.348  0.1167E+00  0.7526E+00
      9.433  0.1138E+00  0.7623E+00
      9.518  0.1060E+00  0.7713E+00
      9.603  0.9085E-01  0.7790E+00
      9.688  0.7521E-01  0.7853E+00
      9.772  0.6748E-01  0.7911E+00
      9.857  0.6901E-01  0.7969E+00
      9.942  0.7395E-01  0.8032E+00
     10.027  0.7464E-01  0.8095E+00
     10.111  0.7061E-01  0.8155E+00
     10.196  0.7191E-01  0.8216E+00
     10.281  0.8763E-01  0.8290E+00
     10.366  0.1117E+00  0.8385E+00
     10.451  0.1267E+00  0.8492E+00
     10.535  0.1232E+00  0.8597E+00
     10.620  0.1084E+00  0.8689E+00
     10.705  0.9396E-01  0.8768E+00
     10.790  0.8283E-01  0.8839E+00
     10.875  0.7244E-01  0.8900E+00
     10.959  0.6270E-01  0.8953E+00
     11.044  0.5590E-01  0.9001E+00
     11.129  0.5352E-01  0.9046E+00
     11.214  0.5630E-01  0.9094E+00
     11.299  0.6368E-01  0.9148E+00
     11.383  0.7196E-01  0.9209E+00
     11.468  0.7527E-01  0.9273E+00
     11.553  0.7106E-01  0.9333E+00
     11.638  0.6438E-01  0.9387E+00
     11.722  0.6332E-01  0.9441E+00
     11.807  0.7080E-01  0.9501E+00
     11.892  0.8248E-01  0.9571E+00
     11.977  0.9021E-01  0.9648E+00
     12.062  0.8782E-01  0.9722E+00
     12.146  0.7590E-01  0.9786E+00
     12.231  0.6157E-01  0.9839E+00
     12.316  0.5234E-01  0.9883E+00
     12.401  0.4934E-01  0.9925E+00
     12.486  0.4815E-01  0.9966E+00
     12.570  0.4512E-01  0.1000E+01
     12.655  0.4061E-01  0.1004E+01
     12.740  0.3794E-01  0.1007E+01
     12.825  0.3997E-01  0.1010E+01
     12.910  0.4451E-01  0.1014E+01
     12.994  0.4548E-01  0.1018E+01
     13.079  0.4050E-01  0.1022E+01
     13.164  0.3452E-01  0.1024E+01
     13.249  0.3490E-01  0.1027E+01
     13.334  0.4319E-01  0.1031E+01
     13.418  0.5284E-01  0.1036E+01
     13.503  0.5646E-01  0.1040E+01
     13.588  0.5383E-01  0.1045E+01
     13.673  0.4974E-01  0.1049E+01
     13.757  0.4599E-01  0.1053E+01
     13.842  0.3932E-01  0.1056E+01
     13.927  0.2779E-01  0.1059E+01
     14.012  0.1504E-01  0.1060E+01
     14.097  0.5994E-02  0.1060E+01
     14.181  0.1726E-02  0.1061E+01
     14.266  0.3555E-03  0.1061E+01
     14.351  0.5310E-04  0.1061E+01
     14.436  0.1571E-04  0.1061E+01
     14.521  0.7403E-04  0.1061E+01
     14.605  0.3737E-03  0.1061E+01
     14.690  0.1354E-02  0.1061E+01
     14.775  0.3533E-02  0.1061E+01
     14.860  0.6765E-02  0.1062E+01
     14.945  0.9811E-02  0.1063E+01
     15.029  0.1138E-01  0.1063E+01
     15.114  0.1131E-01  0.1064E+01
     15.199  0.1005E-01  0.1065E+01
     15.284  0.7778E-02  0.1066E+01
     15.368  0.4913E-02  0.1066E+01
     15.453  0.2390E-02  0.1067E+01
     15.538  0.8640E-03  0.1067E+01
     15.623  0.2276E-03  0.1067E+01
     15.708  0.4318E-04  0.1067E+01
     15.792  0.5862E-05  0.1067E+01
     15.877  0.5667E-06  0.1067E+01
     15.962  0.3887E-07  0.1067E+01
     16.047  0.1887E-08  0.1067E+01
     16.132  0.6468E-10  0.1067E+01
     16.216  0.1563E-11  0.1067E+01
     16.301  0.2657E-13  0.1067E+01
     16.386  0.3164E-15  0.1067E+01
     16.471  0.3148E-17  0.1067E+01
     16.556  0.0000E+00  0.1067E+01
     16.640  0.0000E+00  0.1067E+01
     16.725  0.0000E+00  0.1067E+01
     16.810  0.0000E+00  0.1067E+01
     16.895  0.0000E+00  0.1067E+01
     16.979  0.0000E+00  0.1067E+01
     17.064  0.0000E+00  0.1067E+01
     17.149  0.0000E+00  0.1067E+01
     17.234  0.0000E+00  0.1067E+01
