    2    2   15    1
  0.2001288E+02  0.3839590E-09  0.3839590E-09  0.3839590E-09  0.5000000E-15
  1.000000000000000E-004
  CAR 
 unknown system                          
      8     56      8
 
  0.0000000E+00  0.0000000E+00  0.0000000E+00  0.7513148E-03
    1       -6.203161   1.000000
    2        5.663641   0.986131
    3        5.663641   0.986131
    4        5.663954   0.986052
    5        8.233313   0.000000
    6        8.233313   0.000000
    7        8.233541   0.000000
    8        8.742979   0.000000
 
  0.9090909E-01 -0.1591537E-17  0.3465480E-17  0.6010518E-02
    1       -6.096687   1.000000
    2        4.665483   1.000000
    3        5.496468   0.999642
    4        5.496732   0.999639
    5        8.212861   0.000000
    6        8.478539   0.000000
    7        8.478784   0.000000
    8        9.588352   0.000000
 
  0.1818182E+00 -0.3183074E-17  0.6930960E-17  0.6010518E-02
    1       -5.781497   1.000000
    2        2.991349   1.000000
    3        5.152465   1.000000
    4        5.152701   1.000000
    5        7.895900   0.000000
    6        8.954642   0.000000
    7        8.954983   0.000000
    8       11.202605   0.000000
 
  0.2727273E+00  0.1406449E-16  0.1931292E-16  0.6010518E-02
    1       -5.274084   1.000000
    2        1.347413   1.000000
    3        4.828395   1.000000
    4        4.828618   1.000000
    5        7.552791   0.000000
    6        9.225410   0.000000
    7        9.225836   0.000000
    8       12.775769   0.000000
 
  0.3636364E+00 -0.6366148E-17  0.1386192E-16  0.6010518E-02
    1       -4.626123   1.000000
    2       -0.092799   1.000000
    3        4.595636   1.000000
    4        4.595863   1.000000
    5        7.278348   0.000000
    6        9.194172   0.000000
    7        9.194575   0.000000
    8       13.505779   0.000000
 
  0.4545455E+00  0.9587941E-18  0.8410920E-17  0.6010518E-02
    1       -4.029192   1.000000
    2       -1.092575   1.000000
    3        4.475128   1.000000
    4        4.475350   1.000000
    5        7.141810   0.000000
    6        9.096414   0.000000
    7        9.096824   0.000000
    8       13.393707   0.000000
 
  0.9090909E-01  0.9090909E-01  0.7557855E-17  0.4507889E-02
    1       -6.060985   1.000000
    2        4.832264   1.000000
    3        5.173769   1.000000
    4        5.173955   1.000000
    5        7.917447   0.000000
    6        8.900691   0.000000
    7        8.900871   0.000000
    8        9.504184   0.000000
 
  0.1818182E+00  0.9090909E-01  0.7213366E-17  0.1803156E-01
    1       -5.814584   1.000000
    2        3.481743   1.000000
    3        4.775834   1.000000
    4        4.952327   1.000000
    5        7.956343   0.000000
    6        8.912454   0.000000
    7        9.497914   0.000000
    8       10.547048   0.000000
 
  0.2727273E+00  0.9090909E-01  0.5717536E-17  0.1803156E-01
    1       -5.368648   1.000000
    2        1.873853   1.000000
    3        4.456335   1.000000
    4        4.579268   1.000000
    5        8.066423   0.000000
    6        8.929652   0.000000
    7        9.862728   0.000000
    8       11.079539   0.000000
 
  0.3636364E+00  0.9090909E-01  0.2306080E-16  0.1803156E-01
    1       -4.757430   1.000000
    2        0.382753   1.000000
    3        4.199483   1.000000
    4        4.267001   1.000000
    5        7.900377   0.000000
    6        9.007189   0.000000
    7        9.817594   0.000000
    8       11.858225   0.000000
 
  0.4545455E+00  0.9090909E-01  0.7687187E-17  0.1803156E-01
    1       -4.101697   1.000000
    2       -0.793950   1.000000
    3        3.899221   1.000000
    4        4.223123   1.000000
    5        7.740239   0.000000
    6        8.984305   0.000000
    7        9.590888   0.000000
    8       13.056663   0.000000
 
 -0.4545455E+00  0.9090909E-01 -0.2682883E-16  0.1803156E-01
    1       -3.838502   1.000000
    2       -1.187525   1.000000
    3        3.722871   1.000000
    4        4.325736   1.000000
    5        7.709239   0.000000
    6        9.049121   0.000000
    7        9.415196   0.000000
    8       13.702851   0.000000
 
 -0.3636364E+00  0.9090909E-01 -0.4663035E-17  0.1803156E-01
    1       -4.310661   1.000000
    2       -0.451868   1.000000
    3        3.689608   1.000000
    4        4.550395   1.000000
    5        7.806727   0.000000
    6        9.237805   0.000000
    7        9.327247   0.000000
    8       13.398610   0.000000
 
 -0.2727273E+00  0.9090909E-01 -0.1011403E-16  0.1803156E-01
    1       -4.977040   1.000000
    2        0.859533   1.000000
    3        3.815574   1.000000
    4        4.875467   1.000000
    5        8.033321   0.000000
    6        9.239676   0.000000
    7        9.441088   0.000000
    8       12.351178   0.000000
 
 -0.1818182E+00  0.9090909E-01 -0.6648554E-17  0.1803156E-01
    1       -5.539248   1.000000
    2        2.394012   1.000000
    3        4.113809   1.000000
    4        5.239235   1.000000
    5        8.326627   0.000000
    6        8.934293   0.000000
    7        9.297137   0.000000
    8       11.432436   0.000000
 
 -0.9090909E-01  0.9090909E-01 -0.3183074E-17  0.9015778E-02
    1       -5.920332   1.000000
    2        3.855043   1.000000
    3        4.677205   1.000000
    4        5.517641   0.999388
    5        8.528510   0.000000
    6        8.549259   0.000000
    7        8.700333   0.000000
    8       10.497664   0.000000
 
  0.1818182E+00  0.1818182E+00  0.1511571E-16  0.4507889E-02
    1       -5.637155   1.000000
    2        3.323470   1.000000
    3        4.342212   1.000000
    4        4.342377   1.000000
    5        7.282123   0.000000
    6        9.770844   0.000000
    7       10.253253   0.000000
    8       10.253470   0.000000
 
  0.2727273E+00  0.1818182E+00  0.6503012E-17  0.1803156E-01
    1       -5.256158   1.000000
    2        2.175163   1.000000
    3        3.925875   1.000000
    4        4.000573   1.000000
    5        7.337553   0.000000
    6        9.390962   0.000000
    7       10.550175   0.000000
    8       10.845028   0.000000
 
  0.3636364E+00  0.1818182E+00  0.1442673E-16  0.1803156E-01
    1       -4.694365   1.000000
    2        0.821224   1.000000
    3        3.399001   1.000000
    4        3.804919   1.000000
    5        7.581114   0.000000
    6        9.736576   0.000000
    7       10.358090   0.000000
    8       10.943376   0.000000
 
  0.4545455E+00  0.1818182E+00  0.2680869E-16  0.1803156E-01
    1       -4.026650   1.000000
    2       -0.400036   1.000000
    3        2.925374   1.000000
    4        3.770980   1.000000
    5        7.619759   0.000000
    6       10.092786   0.000000
    7       10.705792   0.000000
    8       10.977130   0.000000
 
 -0.4545455E+00  0.1818182E+00  0.1012563E-16  0.1803156E-01
    1       -3.555202   1.000000
    2       -1.097577   1.000000
    3        2.590840   1.000000
    4        3.898710   1.000000
    5        7.712161   0.000000
    6        9.968058   0.000000
    7       10.415860   0.000000
    8       12.593883   0.000000
 
 -0.3636364E+00  0.1818182E+00 -0.1329711E-16  0.1803156E-01
    1       -3.833930   1.000000
    2       -0.692833   1.000000
    3        2.442219   1.000000
    4        4.176946   1.000000
    5        7.959047   0.000000
    6        9.970701   0.000000
    7       10.187677   0.000000
    8       13.376737   0.000000
 
 -0.2727273E+00  0.1818182E+00 -0.9151488E-18  0.1803156E-01
    1       -4.492476   1.000000
    2        0.407047   1.000000
    3        2.528096   1.000000
    4        4.562295   1.000000
    5        8.314557   0.000000
    6        9.920676   0.000000
    7       10.044553   0.000000
    8       11.970945   0.000000
 
 -0.1818182E+00  0.1818182E+00 -0.6366148E-17  0.9015778E-02
    1       -5.098793   1.000000
    2        1.582610   1.000000
    3        3.010717   1.000000
    4        4.972350   1.000000
    5        8.619814   0.000000
    6        9.417115   0.000000
    7        9.732000   0.000000
    8       11.297570   0.000000
 
  0.2727273E+00  0.2727273E+00  0.2267357E-16  0.4507889E-02
    1       -4.939778   1.000000
    2        1.709559   1.000000
    3        3.624950   1.000000
    4        3.625101   1.000000
    5        6.703646   0.000000
    6        8.531757   0.000000
    7       11.819177   0.000000
    8       11.819429   0.000000
 
  0.3636364E+00  0.2727273E+00  0.2858693E-16  0.1803156E-01
    1       -4.434300   1.000000
    2        0.765393   1.000000
    3        3.095815   1.000000
    4        3.394361   1.000000
    5        6.842862   0.000000
    6        8.227681   0.000000
    7       12.098577   0.000000
    8       12.302309   0.000000
 
  0.4545455E+00  0.2727273E+00  0.1817462E-16  0.1803156E-01
    1       -3.786187   1.000000
    2       -0.250771   1.000000
    3        2.379884   1.000000
    4        3.330935   1.000000
    5        7.046235   0.000000
    6        8.969694   0.000000
    7       11.911271   0.000000
    8       12.177072   0.000000
 
 -0.4545455E+00  0.2727273E+00  0.1141417E-16  0.1803156E-01
    1       -3.184689   1.000000
    2       -1.039866   1.000000
    3        1.814452   1.000000
    4        3.440824   1.000000
    5        7.178968   0.000000
    6       10.457928   0.000000
    7       11.724113   0.000000
    8       11.852121   0.000000
 
 -0.3636364E+00  0.2727273E+00  0.5824396E-17  0.1803156E-01
    1       -3.240517   1.000000
    2       -0.961776   1.000000
    3        1.535397   1.000000
    4        3.711688   1.000000
    5        7.463532   0.000000
    6       11.486741   0.000000
    7       11.514708   0.000000
    8       12.371510   0.000000
 
 -0.2727273E+00  0.2727273E+00 -0.2738218E-16  0.9015778E-02
    1       -3.862995   1.000000
    2       -0.213739   1.000000
    3        1.696472   1.000000
    4        4.113326   1.000000
    5        7.903217   0.000000
    6       10.870182   0.000000
    7       11.259537   0.000000
    8       11.986030   0.000000
 
  0.3636364E+00  0.3636364E+00  0.3023142E-16  0.4507889E-02
    1       -3.984886   1.000000
    2        0.107117   1.000000
    3        3.119584   1.000000
    4        3.119727   1.000000
    5        6.362493   0.003066
    6        7.381729   0.000000
    7       13.474931   0.000000
    8       13.475218   0.000000
 
  0.4545455E+00  0.3636364E+00  0.3729612E-16  0.1803156E-01
    1       -3.372551   1.000000
    2       -0.696969   1.000000
    3        2.597291   1.000000
    4        3.015050   1.000000
    5        6.570886   0.000013
    6        7.391727   0.000000
    7       13.783396   0.000000
    8       13.819411   0.000000
 
 -0.4545455E+00  0.3636364E+00 -0.2497548E-16  0.1803156E-01
    1       -2.710893   1.000000
    2       -1.404894   1.000000
    3        1.835789   1.000000
    4        3.085923   1.000000
    5        6.739741   0.000000
    6        8.562857   0.000000
    7       13.531045   0.000000
    8       13.632312   0.000000
 
 -0.3636364E+00  0.3636364E+00 -0.1273230E-16  0.9015778E-02
    1       -2.650805   1.000000
    2       -1.434009   1.000000
    3        1.360119   1.000000
    4        3.327546   1.000000
    5        7.013969   0.000000
    6       10.295005   0.000000
    7       12.833838   0.000000
    8       13.391925   0.000000
 
  0.4545455E+00  0.4545455E+00  0.3778928E-16  0.4507889E-02
    1       -2.796079   1.000000
    2       -1.414816   1.000000
    3        2.862634   1.000000
    4        2.862771   1.000000
    5        6.331573   0.005834
    6        6.651282   0.000001
    7       15.158376   0.000000
    8       15.158557   0.000000
 
 -0.4545455E+00  0.4545455E+00 -0.2569921E-16  0.9015778E-02
    1       -2.162876   1.000000
    2       -2.051027   1.000000
    3        2.432150   1.000000
    4        2.885945   1.000000
    5        6.504771   0.000090
    6        7.077166   0.000000
    7       15.031125   0.000000
    8       15.233851   0.000000
 
  0.2727273E+00  0.1818182E+00  0.9090909E-01  0.1803156E-01
    1       -5.501370   1.000000
    2        2.620604   1.000000
    3        3.845448   1.000000
    4        4.836928   1.000000
    5        8.018726   0.000000
    6        9.229814   0.000000
    7       10.051014   0.000000
    8       10.500507   0.000000
 
  0.3636364E+00  0.1818182E+00  0.9090909E-01  0.3606311E-01
    1       -4.996764   1.000000
    2        1.313286   1.000000
    3        3.284415   1.000000
    4        4.520354   1.000000
    5        8.328176   0.000000
    6        9.204509   0.000000
    7       10.389091   0.000000
    8       10.622017   0.000000
 
  0.4545455E+00  0.1818182E+00  0.9090909E-01  0.3606311E-01
    1       -4.349766   1.000000
    2       -0.011383   1.000000
    3        3.025521   1.000000
    4        4.181513   1.000000
    5        8.351245   0.000000
    6        9.048013   0.000000
    7       10.487514   0.000000
    8       11.461533   0.000000
 
 -0.4545455E+00  0.1818182E+00  0.9090909E-01  0.3606311E-01
    1       -3.748354   1.000000
    2       -0.977579   1.000000
    3        2.922239   1.000000
    4        3.971287   1.000000
    5        8.307478   0.000000
    6        8.862711   0.000000
    7       10.431127   0.000000
    8       12.905222   0.000000
 
  0.3636364E+00  0.2727273E+00  0.9090909E-01  0.1803156E-01
    1       -4.813870   1.000000
    2        1.333851   1.000000
    3        3.135239   1.000000
    4        3.840752   1.000000
    5        7.469405   0.000000
    6        9.016855   0.000000
    7       10.656556   0.000000
    8       11.707382   0.000000
 
  0.4545455E+00  0.2727273E+00  0.9090909E-01  0.3606311E-01
    1       -4.206524   1.000000
    2        0.266025   1.000000
    3        2.564808   1.000000
    4        3.529620   1.000000
    5        7.831975   0.000000
    6        9.417392   0.000000
    7       10.337742   0.000000
    8       12.101339   0.000000
 
 -0.4545455E+00  0.2727273E+00  0.9090909E-01  0.3606311E-01
    1       -3.546048   1.000000
    2       -0.727723   1.000000
    3        2.182443   1.000000
    4        3.377711   1.000000
    5        7.969470   0.000000
    6        9.959809   0.000000
    7       10.767314   0.000000
    8       12.062707   0.000000
 
 -0.3636364E+00  0.2727273E+00  0.9090909E-01  0.3606311E-01
    1       -3.285998   1.000000
    2       -1.070759   1.000000
    3        1.954209   1.000000
    4        3.465255   1.000000
    5        8.175007   0.000000
    6        9.691055   0.000000
    7       11.934628   0.000000
    8       12.478863   0.000000
 
 -0.2727273E+00  0.2727273E+00  0.9090909E-01  0.3606311E-01
    1       -3.781618   1.000000
    2       -0.393502   1.000000
    3        1.947665   1.000000
    4        3.756448   1.000000
    5        8.531312   0.000000
    6        9.505846   0.000000
    7       11.218681   0.000000
    8       11.897252   0.000000
 
 -0.1818182E+00  0.2727273E+00  0.9090909E-01  0.1803156E-01
    1       -4.445238   1.000000
    2        0.576276   1.000000
    3        2.323523   1.000000
    4        4.167902   1.000000
    5        8.952093   0.000000
    6        9.085977   0.000000
    7       10.364809   0.000000
    8       11.417398   0.000000
 
  0.4545455E+00  0.3636364E+00  0.9090909E-01  0.1803156E-01
    1       -3.878006   1.000000
    2       -0.028021   1.000000
    3        2.661486   1.000000
    4        3.047386   1.000000
    5        7.119594   0.000000
    6        7.975458   0.000000
    7       12.027578   0.000000
    8       13.441417   0.000000
 
 -0.4545455E+00  0.3636364E+00  0.9090909E-01  0.3606311E-01
    1       -3.208839   1.000000
    2       -0.840253   1.000000
    3        2.031636   1.000000
    4        2.872285   1.000000
    5        7.466483   0.000000
    6        8.785205   0.000000
    7       11.675666   0.000000
    8       13.796390   0.000000
 
 -0.3636364E+00  0.3636364E+00  0.9090909E-01  0.3606311E-01
    1       -2.749775   1.000000
    2       -1.330667   1.000000
    3        1.519879   1.000000
    4        2.987444   1.000000
    5        7.681814   0.000000
    6       10.362503   0.000000
    7       11.371232   0.000000
    8       12.961484   0.000000
 
 -0.2727273E+00  0.3636364E+00  0.9090909E-01  0.1803156E-01
    1       -3.129631   1.000000
    2       -0.936108   1.000000
    3        1.417607   1.000000
    4        3.306220   1.000000
    5        8.048713   0.000000
    6       10.776787   0.000000
    7       11.488421   0.000000
    8       12.396452   0.000000
 
 -0.4545455E+00  0.4545455E+00  0.9090909E-01  0.1803156E-01
    1       -2.725725   1.000000
    2       -1.414103   1.000000
    3        2.471625   1.000000
    4        2.591955   1.000000
    5        7.055703   0.000000
    6        7.325237   0.000000
    7       13.558075   0.000000
    8       14.910413   0.000000
 
 -0.3636364E+00  0.4545455E+00  0.9090909E-01  0.1803156E-01
    1       -2.230645   1.000000
    2       -1.853851   1.000000
    3        1.828109   1.000000
    4        2.663509   1.000000
    5        7.336862   0.000000
    6        8.577648   0.000000
    7       13.109271   0.000000
    8       13.331934   0.000000
 
 -0.4545455E+00  0.3636364E+00  0.1818182E+00  0.1803156E-01
    1       -3.573215   1.000000
    2       -0.415616   1.000000
    3        1.920121   1.000000
    4        3.074734   1.000000
    5        8.771197   0.000000
    6        9.438340   0.000000
    7        9.949913   0.000000
    8       13.348544   0.000000
 
 -0.3636364E+00  0.3636364E+00  0.1818182E+00  0.3606311E-01
    1       -2.950250   1.000000
    2       -1.108307   1.000000
    3        1.643551   1.000000
    4        2.760428   1.000000
    5        9.151645   0.000000
    6        9.491140   0.000000
    7       10.758152   0.000000
    8       12.621972   0.000000
 
 -0.3636364E+00  0.4545455E+00  0.1818182E+00  0.1803156E-01
    1       -2.544630   1.000000
    2       -1.458262   1.000000
    3        1.872108   1.000000
    4        2.249639   1.000000
    5        8.693863   0.000000
    6        8.905013   0.000000
    7       11.270165   0.000000
    8       12.857583   0.000000
 
 -0.2727273E+00  0.4545455E+00  0.1818182E+00  0.1803156E-01
    1       -2.349686   1.000000
    2       -1.621944   1.000000
    3        1.598510   1.000000
    4        2.285362   1.000000
    5        9.042949   0.000000
    6       10.340893   0.000000
    7       11.022744   0.000000
    8       11.042573   0.000000
