 running on    8 total cores
 distrk:  each k-point on    8 cores,    1 groups
 distr:  one band on    1 cores,    8 groups
 using from now: INCAR     
 vasp.5.4.4.18Apr17-6-g9f103f2a35 (build Dec 09 2018 21:25:21) complex          
  
 POSCAR found type information on POSCAR  Si
 POSCAR found :  1 types and       2 ions
 scaLAPACK will be used

 ----------------------------------------------------------------------------- 
|                                                                             |
|           W    W    AA    RRRRR   N    N  II  N    N   GGGG   !!!           |
|           W    W   A  A   R    R  NN   N  II  NN   N  G    G  !!!           |
|           W    W  A    A  R    R  N N  N  II  N N  N  G       !!!           |
|           W WW W  AAAAAA  RRRRR   N  N N  II  N  N N  G  GGG   !            |
|           WW  WW  A    A  R   R   N   NN  II  N   NN  G    G                |
|           W    W  A    A  R    R  N    N  II  N    N   GGGG   !!!           |
|                                                                             |
|      For optimal performance we recommend to set                            |
|        NCORE= 4 - approx SQRT( number of cores)                             |
|      NCORE specifies how many cores store one orbital (NPAR=cpu/NCORE).     |
|      This setting can  greatly improve the performance of VASP for DFT.     |
|      The default,   NCORE=1            might be grossly inefficient         |
|      on modern multi-core architectures or massively parallel machines.     |
|      Do your own testing !!!!                                               |
|      Unfortunately you need to use the default for GW and RPA calculations. |
|      (for HF NCORE is supported but not extensively tested yet)             |
|                                                                             |
 ----------------------------------------------------------------------------- 

 LDA part: xc-table for Pade appr. of Perdew
 POSCAR, INCAR and KPOINTS ok, starting setup
 FFT: planning ...
 WAVECAR not read
 entering main loop
       N       E                     dE             d eps       ncg     rms          rms(c)
DAV:   1    -0.482976787912E+01   -0.48298E+01   -0.17981E+03   968   0.298E+02
DAV:   2    -0.108800725450E+02   -0.60503E+01   -0.57036E+01  1376   0.443E+01
DAV:   3    -0.109253373877E+02   -0.45265E-01   -0.45265E-01  1144   0.446E+00
DAV:   4    -0.109253988529E+02   -0.61465E-04   -0.61465E-04  1344   0.154E-01
DAV:   5    -0.109253988671E+02   -0.14147E-07   -0.13569E-07  1080   0.223E-03    0.296E+00
DAV:   6    -0.108015536628E+02    0.12385E+00   -0.76834E-02  1024   0.141E+00    0.175E+00
DAV:   7    -0.107434061763E+02    0.58147E-01   -0.14378E-01  1128   0.202E+00    0.146E-01
DAV:   8    -0.107446294439E+02   -0.12233E-02   -0.33642E-03   936   0.400E-01    0.248E-02
DAV:   9    -0.107447202171E+02   -0.90773E-04   -0.87941E-05   640   0.726E-02
   1 F= -.10744720E+02 E0= -.10744673E+02  d E =-.107447E+02
 curvature:   0.00 expect dE= 0.000E+00 dE for cont linesearch  0.000E+00
 trial: gam= 0.00000 g(F)=  0.104E-43 g(S)=  0.173E-01 ort = 0.000E+00 (trialstep = 0.100E+01)
 search vector abs. value=  0.173E-01
 bond charge predicted
       N       E                     dE             d eps       ncg     rms          rms(c)
DAV:   1    -0.107540376770E+02   -0.94082E-02   -0.26106E-01  1096   0.279E+00    0.323E-01
DAV:   2    -0.107495865277E+02    0.44511E-02   -0.33997E-03  1120   0.357E-01    0.183E-01
DAV:   3    -0.107472420042E+02    0.23445E-02   -0.46902E-03  1056   0.342E-01    0.229E-02
DAV:   4    -0.107472282441E+02    0.13760E-04   -0.37363E-05   448   0.479E-02
   2 F= -.10747228E+02 E0= -.10747201E+02  d E =-.250803E-02
 trial-energy change:   -0.002508  1 .order   -0.002890   -0.017276    0.011496
 step:   0.6004(harm=  0.6004)  dis= 0.00000  next Energy=   -10.749907 (dE=-0.519E-02)
 bond charge predicted
       N       E                     dE             d eps       ncg     rms          rms(c)
DAV:   1    -0.107507277196E+02   -0.34857E-02   -0.42672E-02  1072   0.114E+00    0.131E-01
DAV:   2    -0.107500081300E+02    0.71959E-03   -0.54801E-04  1072   0.143E-01    0.745E-02
DAV:   3    -0.107496398047E+02    0.36833E-03   -0.74921E-04   728   0.138E-01
   3 F= -.10749640E+02 E0= -.10749606E+02  d E =-.491959E-02
 curvature:  -0.30 expect dE=-0.437E-05 dE for cont linesearch -0.437E-05
 trial: gam= 0.00000 g(F)=  0.943E-44 g(S)=  0.146E-04 ort =-0.502E-03 (trialstep = 0.920E+00)
 search vector abs. value=  0.146E-04
 reached required accuracy - stopping structural energy minimisation
 writing wavefunctions
