unknown system                          
   1.00000000000000     
    -2.450000    2.450000    1.274000
     2.450000   -2.450000    1.274000
     2.450000    2.450000   -1.274000
   Si
     2
Direct
  0.250000  0.750000  0.500000
  0.000000  0.000000  0.000000
 
   32   32   32
 -5.3470     -4.1656     -.99445      3.2052      7.2689      10.246      11.668      11.602      10.518      9.0380    
  7.5805      6.2901      5.2397      4.4507      3.9125      3.6026      3.5017      3.6026      3.9125      4.4507    
  5.2396      6.2901      7.5805      9.0380      10.518      11.602      11.668      10.246      7.2689      3.2053    
 -.99446     -4.1657     -4.1657     -4.7864     -3.1190     0.30721      4.4630      8.2240      10.757      11.737    
  11.344      10.101      8.6131      7.1965      5.9705      4.9929      4.2748      3.8011      3.5491      3.5019    
  3.6557      4.0212      4.6195      5.4718      6.5831      7.9220      9.4025      10.848      11.769      11.560    
  9.8288      6.6230      2.5249     -1.4501     -.99446     -3.1190     -3.1824     -1.1718      2.2690      6.1094    
  9.3291      11.254      11.710      10.980      9.6150      8.1447      6.7865      5.6381      4.7417      4.0991    
  3.6917      3.4973      3.5022      3.7061      4.1227      4.7739      5.6788      6.8366      8.2062      9.6914    
  11.084      11.865      11.469      9.5960      6.3949      2.5249      3.2053     0.30721     -1.1718     -.75589    
  1.4080      4.6169      7.9042      10.404      11.626      11.542      10.512      9.0820      7.6513      6.3670    
  5.3062      4.4962      3.9304      3.5882      3.4490      3.5025      3.7517      4.2126      4.9070      5.8513    
  7.0385      8.4198      9.8919      11.226      11.907      11.434      9.5960      6.6230      7.2689      4.4630    
  2.2690      1.4080      2.1665      4.2768      7.0364      9.5982      11.284      11.788      11.212      9.9616    
  8.5238      7.1520      5.9545      4.9878      4.2654      3.7748      3.4943      3.4059      3.5026      3.7905    
  4.2868      5.0127      5.9809      7.1791      8.5524      9.9945      11.273      11.907      11.469      9.8288    
  10.246      8.2240      6.1094      4.6169      4.2768      5.2093      7.0755      9.2285      10.979      11.848    
  11.699      10.734      9.3674      7.9621      6.6667      5.5649      4.6943      4.0574      3.6374      3.4131    
  3.3694      3.5024      3.8208      4.3422      5.0860      6.0613      7.2513      8.5975      9.9945      11.226    
  11.865      11.560      11.668      10.757      9.3291      7.9042      7.0364      7.0755      8.0136      9.4919    
  10.962      11.909      12.044      11.371      10.156      8.7683      7.4200      6.2142      5.2122      4.4358    
  3.8788      3.5224      3.3471      3.3406      3.5021      3.8416      4.3764      5.1235      6.0886      7.2513    
  8.5524      9.8919      11.084      11.769      11.602      11.737      11.254      10.404      9.5982      9.2285    
  9.4919      10.298      11.311      12.106      12.343      11.892      10.864      9.5467      8.1921      6.9204    
  5.8119      4.9088      4.2202      3.7348      3.4334      3.2984      3.3207      3.5017      3.8521      4.3879    
  5.1235      6.0613      7.1791      8.4198      9.6914      10.848      10.518      11.344      11.710      11.626    
  11.284      10.979      10.962      11.311      11.897      12.442      12.647      12.326      11.478      10.276    
  8.9609      7.6665      6.4842      5.4744      4.6640      4.0537      3.6294      3.3726      3.2685      3.3105    
  3.5016      3.8521      4.3764      5.0860      5.9809      7.0385      8.2062      9.4025      9.0380      10.101    
  10.980      11.542      11.788      11.848      11.909      12.106      12.442      12.781      12.917      12.671    
  11.980      10.929      9.7012      8.4319      7.2165      6.1286      5.2127      4.4848      3.9406      3.5652    
  3.3418      3.2584      3.3105      3.5017      3.8416      4.3422      5.0127      5.8513      6.8366      7.9220    
  7.5805      8.6130      9.6150      10.512      11.212      11.699      12.044      12.343      12.647      12.917    
  13.036      12.869      12.338      11.468      10.379      9.1890      7.9897      6.8624      5.8664      5.0344    
  4.3756      3.8834      3.5436      3.3418      3.2685      3.3207      3.5021      3.8208      4.2868      4.9070    
  5.6788      6.5831      6.2901      7.1965      8.1447      9.0820      9.9616      10.734      11.371      11.892    
  12.326      12.671      12.869      12.834      12.494      11.843      10.950      9.8993      8.7743      7.6577    
  6.6190      5.7061      4.9443      4.3390      3.8834      3.5652      3.3726      3.2984      3.3406      3.5024    
  3.7905      4.2126      4.7739      5.4718      5.2396      5.9705      6.7865      7.6513      8.5238      9.3674    
  10.156      10.864      11.478      11.980      12.338      12.494      12.390      12.004      11.362      10.514    
  9.5282      8.4833      7.4524      6.4951      5.6522      4.9443      4.3756      3.9406      3.6294      3.4334    
  3.3471      3.3694      3.5026      3.7517      4.1227      4.6195      4.4507      4.9929      5.6381      6.3670    
  7.1520      7.9621      8.7683      9.5467      10.276      10.929      11.468      11.843      12.004      11.915    
  11.566      10.978      10.199      9.2943      8.3336      7.3829      6.4951      5.7061      5.0344      4.4848    
  4.0537      3.7348      3.5224      3.4131      3.4059      3.5025      3.7061      4.0212      3.9125      4.2748    
  4.7417      5.3063      5.9546      6.6667      7.4200      8.1920      8.9609      9.7012      10.379      10.950    
  11.362      11.566      11.528      11.243      10.731      10.035      9.2145      8.3336      7.4524      6.6190    
  5.8664      5.2127      4.6640      4.2202      3.8788      3.6374      3.4943      3.4490      3.5022      3.6557    
  3.6026      3.8011      4.0991      4.4962      4.9879      5.5649      6.2142      6.9204      7.6665      8.4319    
  9.1890      9.8993      10.514      10.978      11.243      11.278      11.073      10.646      10.035      9.2943    
  8.4833      7.6577      6.8624      6.1286      5.4744      4.9088      4.4358      4.0574      3.7748      3.5882    
  3.4973      3.5019      3.5017      3.5491      3.6917      3.9305      4.2654      4.6943      5.2122      5.8119    
  6.4842      7.2165      7.9897      8.7743      9.5282      10.199      10.731      11.073      11.191      11.073    
  10.731      10.199      9.5282      8.7743      7.9897      7.2165      6.4842      5.8119      5.2122      4.6943    
  4.2654      3.9304      3.6917      3.5491      3.6026      3.5019      3.4973      3.5882      3.7748      4.0574    
  4.4358      4.9088      5.4744      6.1286      6.8624      7.6577      8.4833      9.2943      10.035      10.646    
  11.073      11.278      11.243      10.978      10.514      9.8993      9.1890      8.4319      7.6665      6.9204    
  6.2142      5.5649      4.9878      4.4962      4.0991      3.8011      3.9125      3.6557      3.5022      3.4491    
  3.4943      3.6374      3.8788      4.2202      4.6640      5.2127      5.8664      6.6190      7.4524      8.3337    
  9.2145      10.035      10.731      11.243      11.528      11.566      11.362      10.950      10.379      9.7012    
  8.9609      8.1921      7.4200      6.6667      5.9545      5.3062      4.7417      4.2748      4.4507      4.0212    
  3.7061      3.5025      3.4060      3.4131      3.5225      3.7348      4.0537      4.4848      5.0344      5.7061    
  6.4951      7.3829      8.3337      9.2943      10.199      10.978      11.566      11.915      12.004      11.843    
  11.468      10.929      10.276      9.5467      8.7683      7.9621      7.1520      6.3670      5.6381      4.9929    
  5.2397      4.6195      4.1228      3.7518      3.5026      3.3694      3.3471      3.4334      3.6294      3.9406    
  4.3756      4.9443      5.6522      6.4951      7.4524      8.4833      9.5282      10.514      11.362      12.004    
  12.390      12.494      12.338      11.980      11.478      10.864      10.156      9.3674      8.5238      7.6513    
  6.7865      5.9705      6.2901      5.4718      4.7740      4.2126      3.7905      3.5024      3.3406      3.2984    
  3.3726      3.5651      3.8834      4.3390      4.9443      5.7061      6.6190      7.6577      8.7743      9.8993    
  10.950      11.843      12.494      12.834      12.869      12.671      12.326      11.892      11.371      10.734    
  9.9616      9.0820      8.1447      7.1965      7.5805      6.5832      5.6788      4.9070      4.2868      3.8208    
  3.5020      3.3207      3.2685      3.3418      3.5436      3.8834      4.3756      5.0344      5.8664      6.8624    
  7.9897      9.1890      10.379      11.468      12.338      12.869      13.036      12.917      12.647      12.343    
  12.044      11.699      11.212      10.512      9.6150      8.6131      9.0380      7.9220      6.8366      5.8512    
  5.0127      4.3422      3.8416      3.5017      3.3105      3.2584      3.3418      3.5651      3.9406      4.4848    
  5.2127      6.1286      7.2165      8.4319      9.7012      10.929      11.980      12.671      12.917      12.781    
  12.442      12.106      11.909      11.848      11.788      11.542      10.980      10.101      10.518      9.4025    
  8.2062      7.0385      5.9809      5.0859      4.3763      3.8521      3.5015      3.3105      3.2685      3.3726    
  3.6294      4.0537      4.6640      5.4744      6.4842      7.6665      8.9609      10.276      11.478      12.326    
  12.647      12.442      11.897      11.311      10.962      10.979      11.284      11.626      11.710      11.344    
  11.602      10.848      9.6914      8.4198      7.1791      6.0613      5.1235      4.3879      3.8521      3.5017    
  3.3207      3.2984      3.4334      3.7348      4.2202      4.9088      5.8119      6.9204      8.1920      9.5467    
  10.864      11.892      12.343      12.106      11.311      10.298      9.4919      9.2285      9.5982      10.404    
  11.254      11.737      11.668      11.769      11.084      9.8919      8.5525      7.2513      6.0886      5.1235    
  4.3763      3.8416      3.5020      3.3406      3.3471      3.5225      3.8788      4.4358      5.2122      6.2142    
  7.4200      8.7683      10.156      11.371      12.044      11.909      10.962      9.4919      8.0136      7.0755    
  7.0364      7.9042      9.3291      10.757      10.246      11.560      11.864      11.226      9.9945      8.5975    
  7.2513      6.0613      5.0859      4.3422      3.8208      3.5024      3.3694      3.4131      3.6374      4.0574    
  4.6943      5.5649      6.6667      7.9621      9.3674      10.734      11.699      11.848      10.979      9.2285    
  7.0755      5.2093      4.2768      4.6169      6.1094      8.2240      7.2689      9.8288      11.469      11.907    
  11.273      9.9945      8.5525      7.1791      5.9809      5.0127      4.2868      3.7905      3.5026      3.4060    
  3.4943      3.7748      4.2654      4.9879      5.9546      7.1520      8.5238      9.9616      11.212      11.788    
  11.284      9.5982      7.0364      4.2768      2.1665      1.4080      2.2690      4.4630      3.2052      6.6230    
  9.5960      11.434      11.907      11.226      9.8919      8.4198      7.0385      5.8512      4.9070      4.2126    
  3.7518      3.5025      3.4491      3.5882      3.9305      4.4962      5.3063      6.3670      7.6513      9.0820    
  10.512      11.542      11.626      10.404      7.9042      4.6169      1.4080     -.75589     -1.1718     0.30721    
 -.99445      2.5249      6.3949      9.5960      11.469      11.864      11.084      9.6914      8.2062      6.8366    
  5.6788      4.7740      4.1228      3.7061      3.5022      3.4973      3.6917      4.0991      4.7417      5.6381    
  6.7865      8.1447      9.6150      10.980      11.710      11.254      9.3291      6.1094      2.2690     -1.1718    
 -3.1824     -3.1190     -4.1656     -1.4501      2.5249      6.6230      9.8288      11.560      11.769      10.848    
  9.4025      7.9220      6.5832      5.4718      4.6195      4.0212      3.6557      3.5019      3.5491      3.8011    
  4.2748      4.9929      5.9705      7.1965      8.6130      10.101      11.344      11.737      10.757      8.2240    
  4.4630     0.30721     -3.1190     -4.7864     -4.1655     -3.2937     -.49610      3.3702      7.2096      10.087    
  11.505      11.481      10.435      8.9678      7.5067      6.2038      5.1362      4.3280      3.7694      3.4372    
  3.3106      3.3803      3.6517      4.1432      4.8786      5.8726      7.1110      8.5307      10.006      11.192    
  11.493      10.426      7.8674      4.1958     0.26384     -2.8382     -3.2937     -4.1656     -2.8382     0.26385    
  4.1958      7.8673      10.426      11.493      11.192      10.006      8.5306      7.1109      5.8726      4.8786    
  4.1432      3.6516      3.3803      3.3107      3.4372      3.7694      4.3280      5.1362      6.2039      7.5066    
  8.9678      10.435      11.481      11.505      10.087      7.2096      3.3702     -.49604     -.40329     -2.7376    
 -3.1189     -1.4364      1.7637      5.5063      8.7680      10.825      11.436      10.826      9.5174      8.0588    
  6.6965      5.5356      4.6241      3.9665      3.5441      3.3340      3.3208      3.5028      3.8930      4.5138    
  5.3867      6.5159      7.8676      9.3535      10.793      11.707      11.523      9.8979      6.9163      3.1611    
  3.6051     0.53105     -1.2473     -1.1718     0.71395      3.7855      7.0982      9.7503      11.179      11.284    
  10.377      8.9909      7.5690      6.2787      5.2056      4.3821      3.8041      3.4505      3.3000      3.3406    
  3.5747      4.0178      4.6930      5.6195      6.7954      8.1782      9.6713      11.071      11.882      11.583    
  9.9152      7.0459      7.5840      4.6384      2.1742     0.96974      1.4080      3.3161      6.0436      8.7329    
  10.644      11.390      11.004      9.8554      8.4461      7.0785      5.8730      4.8944      4.1609      3.6613    
  3.3739      3.2792      3.3693      3.6499      4.1386      4.8581      5.8242      7.0293      8.4237      9.9062    
  11.262      12.012      11.702      10.150      10.565      8.4461      6.1083      4.2950      3.6122      4.2768    
  6.0263      8.2366      10.182      11.307      11.394      10.590      9.2889      7.9009      6.6045      5.4933    
  4.6124      3.9675      3.5427      3.3164      3.2722      3.4058      3.7258      4.2507      5.0017      5.9912    
  7.2060      8.5917      10.046      11.359      12.094      11.867      12.044      11.083      9.4935      7.8000    
  6.6037      6.3362      7.0754      8.5147      10.102      11.270      11.649      11.174      10.069      8.7150    
  7.3749      6.1640      5.1528      4.3686      3.8078      3.4515      3.2797      3.2792      3.4489      3.7994    
  4.3492      5.1174      6.1124      7.3164      8.6726      10.081      11.355      12.114      12.051      12.180    
  11.603      10.558      9.4746      8.8028      8.8165      9.4919      10.523      11.460      11.903      11.651    
  10.761      9.4976      8.1595      6.8884      5.7730      4.8626      4.1703      3.6861      3.3903      3.2648    
  3.2999      3.4972      3.8681      4.4301      5.1997      6.1813      7.3542      8.6615      10.009      11.243    
  11.019      11.880      12.217      12.017      11.474      10.912      10.639      10.800      11.311      11.900    
  12.238      12.079      11.364      10.231      8.9364      7.6474      6.4614      5.4455      4.6317      4.0231    
  3.6057      3.3605      3.2722      3.3339      3.5490      3.9290      4.4897      5.2445      6.1944      7.3171    
  8.5582      9.8323      9.5574      10.684      11.586      12.107      12.234      12.109      11.951      11.945    
  12.145      12.442      12.622      12.473      11.882      10.893      9.6831      8.4201      7.2032      6.1110    
  5.1925      4.4670      3.9307      3.5685      3.3632      3.3019      3.3802      3.6025      3.9796      4.5252    
  5.2494      6.1507      7.2065      8.3671      8.0975      9.1967      10.252      11.166      11.823      12.202    
  12.388      12.511      12.660      12.830      12.917      12.773      12.289      11.452      10.370      9.1802    
  7.9788      6.8482      5.8509      5.0223      4.3728      3.8956      3.5757      3.3982      3.3529      3.4372    
  3.6556      4.0178      4.5347      5.2139      6.0521      7.0280      6.7901      7.7620      8.7663      9.7427    
  10.634      11.369      11.915      12.308      12.603      12.828      12.944      12.869      12.519      11.862    
  10.953      9.8914      8.7592      7.6383      6.5989      5.6908      4.9399      4.3518      3.9186      3.6271    
  3.4647      3.4238      3.5029      3.7061      4.0415      4.5176      5.1397      5.9036      5.7123      6.5045    
  7.3762      8.2848      9.1825      10.026      10.782      11.418      11.929      12.320      12.578      12.655    
  12.494      12.062      11.380      10.505      9.5038      8.4503      7.4178      6.4662      5.6362      4.9479    
  4.4048      3.9997      3.7216      3.5611      3.5123      3.5748      3.7518      4.0495      4.4745      5.0301    
  4.8907      5.4875      6.1846      6.9575      7.7732      8.5949      9.3889      10.129      10.795      11.363    
  11.807      12.090      12.167      12.004      11.597      10.967      10.161      9.2402      8.2749      7.3296    
  6.4561      5.6894      5.0467      4.5310      4.1371      3.8572      3.6845      3.6156      3.6501      3.7906    
  4.0414      4.4074      4.3197      4.7280      5.2398      5.8447      6.5242      7.2536      8.0055      8.7543    
  9.4771      10.151      10.748      11.229      11.552      11.673      11.566      11.225      10.673      9.9528    
  9.1230      8.2458      7.3794      6.5704      5.8502      5.2347      4.7281      4.3280      4.0303      3.8315    
  3.7300      3.7259      3.8209      4.0178      3.9796      4.2153      4.5496      4.9802      5.4996      6.0946    
  6.7479      7.4404      8.1529      8.8653      9.5524      10.181      10.708      11.087      11.274      11.243    
  10.989      10.529      9.9031      9.1634      8.3670      7.5672      6.8067      6.1149      5.5076      4.9914    
  4.5676      4.2363      3.9975      3.8517      3.7995      3.8417      3.8522      3.9290      4.0992      4.3633    
  4.7197      5.1635      5.6861      6.2769      6.9238      7.6130      8.3262      9.0370      9.7083      10.294    
  10.743      11.013      11.073      10.915      10.552      10.019      9.3620      8.6348      7.8869      7.1583    
  6.4766      5.8586      5.3141      4.8491      4.4687      4.1769      3.9764      3.8681      3.9290      3.8522    
  3.8681      3.9764      4.1769      4.4687      4.8491      5.3141      5.8586      6.4766      7.1583      7.8869    
  8.6348      9.3620      10.019      10.552      10.915      11.073      11.013      10.743      10.294      9.7083    
  9.0370      8.3262      7.6130      6.9238      6.2769      5.6861      5.1635      4.7198      4.3633      4.0992    
  4.2153      3.9796      3.8416      3.7995      3.8517      3.9975      4.2363      4.5676      4.9914      5.5077    
  6.1149      6.8067      7.5672      8.3670      9.1635      9.9031      10.529      10.989      11.243      11.274    
  11.087      10.708      10.181      9.5524      8.8652      8.1529      7.4404      6.7479      6.0946      5.4996    
  4.9802      4.5496      4.7281      4.3196      4.0177      3.8209      3.7259      3.7300      3.8315      4.0303    
  4.3281      4.7281      5.2347      5.8502      6.5704      7.3794      8.2458      9.1230      9.9528      10.673    
  11.225      11.566      11.673      11.552      11.229      10.748      10.151      9.4771      8.7543      8.0055    
  7.2536      6.5242      5.8447      5.2398      5.4875      4.8907      4.4074      4.0414      3.7905      3.6500    
  3.6155      3.6845      3.8572      4.1371      4.5310      5.0467      5.6895      6.4561      7.3295      8.2749    
  9.2402      10.161      10.967      11.597      12.004      12.167      12.090      11.807      11.363      10.795    
  10.129      9.3889      8.5949      7.7732      6.9575      6.1845      6.5045      5.7123      5.0302      4.4745    
  4.0494      3.7517      3.5747      3.5123      3.5610      3.7216      3.9997      4.4048      4.9479      5.6361    
  6.4662      7.4178      8.4503      9.5038      10.505      11.380      12.062      12.494      12.655      12.578    
  12.320      11.929      11.418      10.782      10.026      9.1825      8.2848      7.3762      7.7620      6.7901    
  5.9036      5.1396      4.5176      4.0414      3.7061      3.5028      3.4238      3.4647      3.6271      3.9186    
  4.3518      4.9399      5.6908      6.5989      7.6383      8.7592      9.8914      10.953      11.862      12.518    
  12.869      12.944      12.828      12.603      12.308      11.915      11.369      10.634      9.7427      8.7663    
  9.1968      8.0975      7.0279      6.0521      5.2139      4.5347      4.0177      3.6556      3.4372      3.3529    
  3.3982      3.5757      3.8956      4.3728      5.0223      5.8509      6.8482      7.9788      9.1802      10.370    
  11.452      12.289      12.773      12.917      12.830      12.660      12.511      12.388      12.202      11.823    
  11.166      10.252      10.684      9.5574      8.3671      7.2066      6.1507      5.2494      4.5252      3.9796    
  3.6025      3.3802      3.3019      3.3632      3.5686      3.9307      4.4669      5.1925      6.1110      7.2032    
  8.4201      9.6831      10.893      11.882      12.473      12.622      12.442      12.145      11.945      11.951    
  12.109      12.234      12.107      11.586      11.880      11.019      9.8324      8.5582      7.3171      6.1944    
  5.2445      4.4897      3.9290      3.5490      3.3340      3.2723      3.3606      3.6057      4.0230      4.6317    
  5.4455      6.4614      7.6474      8.9364      10.231      11.364      12.079      12.238      11.900      11.311    
  10.800      10.639      10.912      11.474      12.017      12.217      12.180      12.051      11.243      10.009    
  8.6616      7.3542      6.1813      5.1997      4.4301      3.8681      3.4972      3.3000      3.2648      3.3903    
  3.6861      4.1703      4.8625      5.7730      6.8884      8.1595      9.4976      10.761      11.651      11.903    
  11.460      10.522      9.4918      8.8165      8.8028      9.4747      10.558      11.603      11.083      12.044    
  12.114      11.355      10.081      8.6726      7.3164      6.1123      5.1174      4.3493      3.7995      3.4490    
  3.2792      3.2797      3.4516      3.8078      4.3686      5.1528      6.1641      7.3749      8.7150      10.069    
  11.174      11.649      11.270      10.102      8.5147      7.0755      6.3363      6.6036      7.8000      9.4935    
  8.4461      10.565      11.867      12.094      11.359      10.046      8.5916      7.2060      5.9912      5.0017    
  4.2507      3.7259      3.4059      3.2723      3.3164      3.5427      3.9675      4.6124      5.4933      6.6045    
  7.9009      9.2889      10.590      11.394      11.307      10.182      8.2367      6.0263      4.2768      3.6122    
  4.2950      6.1083      4.6384      7.5839      10.150      11.702      12.012      11.262      9.9062      8.4237    
  7.0293      5.8242      4.8580      4.1387      3.6500      3.3694      3.2792      3.3739      3.6614      4.1609    
  4.8943      5.8730      7.0785      8.4461      9.8554      11.004      11.390      10.644      8.7329      6.0436    
  3.3162      1.4081     0.96988      2.1742     0.53106      3.6051      7.0459      9.9152      11.583      11.882    
  11.071      9.6713      8.1782      6.7954      5.6195      4.6930      4.0178      3.5747      3.3406      3.3000    
  3.4505      3.8041      4.3821      5.2056      6.2788      7.5690      8.9909      10.377      11.284      11.179    
  9.7502      7.0982      3.7855     0.71408     -1.1717     -1.2473     -2.7375     -.40322      3.1611      6.9162    
  9.8979      11.523      11.707      10.793      9.3534      7.8676      6.5160      5.3867      4.5137      3.8930    
  3.5029      3.3208      3.3340      3.5441      3.9665      4.6241      5.5356      6.6964      8.0588      9.5175    
  10.826      11.436      10.825      8.7681      5.5064      1.7638     -1.4363     -3.1189     -.99423     -.40314    
  1.8546      5.0649      8.2764      10.657      11.751      11.563      10.464      8.9986      7.5458      6.2462    
  5.1743      4.3546      3.7786      3.4237      3.2685      3.3018      3.5269      3.9600      4.6240      5.5365    
  6.6916      8.0398      9.4770      10.768      11.399      10.896      9.0764      6.1954      2.9450     0.26396    
 -.49596     -1.4500     -.49595      2.0528      5.3899      8.5437      10.730      11.582      11.193      9.9936    
  8.5325      7.1245      5.8906      4.8938      4.1492      3.6433      3.3529      3.2585      3.3528      3.6433    
  4.1492      4.8938      5.8906      7.1245      8.5325      9.9936      11.193      11.582      10.730      8.5437    
  5.3899      2.0528      1.8546     -.40316     -.99424     0.26398      2.9451      6.1955      9.0764      10.896    
  11.399      10.768      9.4769      8.0398      6.6916      5.5366      4.6240      3.9599      3.5269      3.3019    
  3.2685      3.4237      3.7786      4.3547      5.1743      6.2462      7.5458      8.9986      10.464      11.563    
  11.751      10.657      8.2764      5.0649      5.2832      2.3858     0.53116     0.30733      1.7638      4.3917    
  7.3409      9.7569      11.076      11.164      10.285      8.9338      7.5375      6.2627      5.1967      4.3742    
  3.7930      3.4328      3.2722      3.2984      3.5123      3.9282      4.5689      5.4549      6.5894      7.9389    
  9.4195      10.873      11.882      11.936      10.731      8.3427      8.7487      6.0200      3.5721      2.1742    
  2.2691      3.7855      6.1723      8.6335      10.442      11.182      10.843      9.7511      8.3823      7.0418    
  5.8524      4.8822      4.1522      3.6532      3.3639      3.2648      3.3471      3.6155      4.0868      4.7839    
  5.7244      6.9056      8.2863      9.7764      11.205      12.150      12.149      10.969      11.348      9.4375    
  7.1674      5.2434      4.2950      4.6169      6.0435      8.0257      9.8662      10.993      11.146      10.423    
  9.1853      7.8378      6.5682      5.4734      4.6026      3.9645      3.5446      3.3218      3.2797      3.4131    
  3.7299      4.2486      4.9909      5.9708      7.1799      8.5710      10.051      11.446      12.357      12.381    
  12.600      11.807      10.301      8.5553      7.1634      6.6036      7.0362      8.2366      9.6994      10.858    
  11.307      10.932      9.9158      8.6184      7.3168      6.1315      5.1375      4.3660      3.8160      3.4699    
  3.3077      3.3164      3.4943      3.8517      4.4074      5.1810      6.1828      7.3987      8.7776      10.226    
  11.582      12.487      12.516      12.762      12.260      11.198      9.9801      9.0709      8.8027      9.2283    
  10.102      10.995      11.489      11.337      10.551      9.3614      8.0723      6.8366      5.7461      4.8546    
  4.1789      3.7105      3.4308      3.3219      3.3739      3.5882      3.9764      4.5566      5.3457      6.3496    
  7.5500      8.8939      10.291      11.599      11.487      12.422      12.814      12.614      11.984      11.242    
  10.726      10.639      10.961      11.460      11.804      11.720      11.103      10.053      8.8138      7.5680    
  6.4147      5.4246      4.6333      4.0462      3.6507      3.4284      3.3639      3.4506      3.6916      4.0993    
  4.6899      5.4771      6.4626      7.6252      8.9122      10.239      10.071      11.245      12.186      12.713    
  12.788      12.534      12.180      11.949      11.945      12.106      12.238      12.116      11.594      10.679    
  9.5229      8.3057      7.1274      6.0675      5.1778      4.4797      3.9714      3.6380      3.4628      3.4329    
  3.5442      3.8011      4.2154      4.8011      5.5684      6.5156      7.6196      8.8303      8.6517      9.7942    
  10.881      11.806      12.434      12.727      12.768      12.701      12.653      12.660      12.647      12.473    
  12.011      11.219      10.177      9.0269      7.8650      6.7712      5.8085      5.0137      4.3985      3.9565    
  3.6732      3.5333      3.5270      3.6517      3.9125      4.3197      4.8848      5.6148      6.5053      7.5329    
  7.3692      8.3849      9.4215      10.413      11.293      11.975      12.420      12.666      12.788      12.845    
  12.828      12.671      12.289      11.634      10.738      9.7008      8.6016      7.5173      6.5163      5.6478    
  4.9380      4.3922      4.0026      3.7556      3.6384      3.6435      3.7695      4.0212      4.4075      4.9369    
  5.6138      6.4319      6.2991      7.1368      8.0432      8.9708      9.8662      10.680      11.370      11.898    
  12.269      12.506      12.617      12.578      12.338      11.862      11.158      10.284      9.3007      8.2776    