unknown system                          
   1.00000000000000     
    -2.450000    2.450000    1.274000
     2.450000   -2.450000    1.274000
     2.450000    2.450000   -1.274000
   Si
     2
Direct
  0.250000  0.750000  0.500000
  0.000000  0.000000  0.000000
 
   24   24   24
 -5.4870     -3.4765      1.5250      7.0862      10.862      11.855      10.660      8.6982      6.8818      5.4839    
  4.5595      4.0532      3.8942      4.0532      4.5595      5.4838      6.8818      8.6983      10.660      11.855    
  10.862      7.0863      1.5250     -3.4766     -3.4766     -4.5344     -1.7770      3.3746      8.4396      11.377    
  11.625      10.078      8.1194      6.4122      5.1538      4.3590      3.9605      3.8942      4.1444      4.7523    
  5.7906      7.2977      9.1784      11.083      11.936      10.429      6.2941     0.85161      1.5250     -1.7771    
 -1.8976      1.2222      5.9400      9.9669      11.744      11.183      9.3788      7.4864      5.9258      4.8254    
  4.1652      3.8728      3.8942      4.2274      4.9223      6.0484      7.6245      9.5217      11.334      11.949    
  10.262      6.2941      7.0863      3.3746      1.2221      1.8227      4.8364      8.6083      11.250      11.777    
  10.524      8.6205      6.8462      5.4581      4.5215      3.9910      3.7958      3.8942      4.2960      5.0554    
  6.2347      7.8334      9.7006      11.417      11.949      10.429      10.862      8.4397      5.9400      4.8364    
  5.8166      8.2922      10.797      11.973      11.407      9.7208      7.8579      6.2434      5.0393      4.2600    
  3.8463      3.7341      3.8942      4.3449      5.1402      6.3325      7.9052      9.7006      11.334      11.936    
  11.855      11.377      9.9670      8.6083      8.2922      9.2930      10.946      12.120      12.025      10.709    
  8.8917      7.1466      5.7171      4.6929      4.0544      3.7384      3.6911      3.8942      4.3704      5.1694    
  6.3325      7.8334      9.5217      11.083      10.660      11.625      11.744      11.250      10.797      10.946    
  11.695      12.453      12.493      11.521      9.8787      8.1178      6.5376      5.2977      4.4355      3.9132    
  3.6720      3.6691      3.8942      4.3704      5.1402      6.2347      7.6245      9.1784      8.6983      10.078    
  11.183      11.777      11.973      12.120      12.453      12.833      12.838      12.123      10.747      9.0961    
  7.4690      6.0729      5.0071      4.2775      3.8415      3.6496      3.6691      3.8942      4.3449      5.0554    
  6.0484      7.2977      6.8818      8.1194      9.3788      10.524      11.407      12.025      12.493      12.838    
  12.897      12.440      11.409      10.003      8.4604      7.0030      5.7824      4.8587      4.2243      3.8415    
  3.6720      3.6911      3.8942      4.2960      4.9223      5.7906      5.4838      6.4121      7.4864      8.6206    
  9.7208      10.709      11.521      12.123      12.440      12.343      11.756      10.736      9.4328      8.0472    
  6.7600      5.6837      4.8587      4.2775      3.9132      3.7384      3.7341      3.8942      4.2274      4.7523    
  4.5595      5.1537      5.9258      6.8462      7.8579      8.8917      9.8787      10.747      11.409      11.756    
  11.690      11.176      10.274      9.1246      7.9041      6.7600      5.7824      5.0071      4.4355      4.0544    
  3.8463      3.7958      3.8942      4.1444      4.0532      4.3590      4.8254      5.4581      6.2434      7.1466    
  8.1178      9.0961      10.003      10.736      11.176      11.226      10.852      10.109      9.1246      8.0472    
  7.0030      6.0729      5.2977      4.6929      4.2600      3.9910      3.8728      3.8942      3.8942      3.9605    
  4.1653      4.5215      5.0393      5.7170      6.5376      7.4690      8.4604      9.4328      10.274      10.852    
  11.059      10.852      10.274      9.4328      8.4604      7.4690      6.5376      5.7171      5.0393      4.5215    
  4.1652      3.9605      4.0532      3.8942      3.8728      3.9910      4.2600      4.6929      5.2977      6.0729    
  7.0030      8.0472      9.1246      10.109      10.852      11.226      11.176      10.736      10.003      9.0961    
  8.1178      7.1466      6.2434      5.4581      4.8254      4.3590      4.5595      4.1444      3.8942      3.7958    
  3.8463      4.0544      4.4355      5.0071      5.7824      6.7600      7.9041      9.1246      10.274      11.176    
  11.690      11.756      11.409      10.747      9.8787      8.8917      7.8579      6.8462      5.9258      5.1538    
  5.4839      4.7523      4.2274      3.8942      3.7341      3.7384      3.9133      4.2775      4.8587      5.6837    
  6.7600      8.0472      9.4328      10.736      11.756      12.343      12.440      12.123      11.521      10.709    
  9.7208      8.6205      7.4864      6.4122      6.8818      5.7906      4.9223      4.2960      3.8942      3.6911    
  3.6720      3.8416      4.2243      4.8587      5.7824      7.0030      8.4604      10.003      11.409      12.440    
  12.897      12.838      12.493      12.025      11.407      10.524      9.3788      8.1194      8.6982      7.2976    
  6.0484      5.0555      4.3450      3.8942      3.6691      3.6496      3.8416      4.2775      5.0071      6.0729    
  7.4690      9.0961      10.747      12.123      12.838      12.833      12.453      12.120      11.973      11.777    
  11.183      10.078      10.660      9.1783      7.6244      6.2347      5.1403      4.3704      3.8942      3.6691    
  3.6720      3.9133      4.4355      5.2977      6.5376      8.1178      9.8787      11.521      12.493      12.453    
  11.695      10.946      10.797      11.250      11.744      11.625      11.855      11.083      9.5217      7.8333    
  6.3324      5.1695      4.3704      3.8942      3.6911      3.7384      4.0544      4.6929      5.7170      7.1466    
  8.8917      10.709      12.025      12.120      10.946      9.2930      8.2922      8.6083      9.9669      11.377    
  10.862      11.936      11.334      9.7006      7.9051      6.3324      5.1403      4.3450      3.8942      3.7341    
  3.8463      4.2600      5.0393      6.2434      7.8579      9.7208      11.407      11.973      10.797      8.2922    
  5.8166      4.8364      5.9400      8.4396      7.0862      10.429      11.949      11.417      9.7006      7.8333    
  6.2347      5.0555      4.2960      3.8942      3.7958      3.9910      4.5215      5.4581      6.8462      8.6206    
  10.524      11.777      11.250      8.6083      4.8364      1.8227      1.2222      3.3746      1.5250      6.2940    
  10.262      11.949      11.334      9.5217      7.6244      6.0484      4.9223      4.2274      3.8942      3.8728    
  4.1653      4.8254      5.9258      7.4864      9.3788      11.183      11.744      9.9670      5.9400      1.2221    
 -1.8976     -1.7770     -3.4765     0.85166      6.2940      10.429      11.936      11.083      9.1783      7.2976    
  5.7906      4.7523      4.1444      3.8942      3.9605      4.3590      5.1537      6.4121      8.1194      10.078    
  11.625      11.377      8.4397      3.3746     -1.7771     -4.5344     -3.4765     -2.0409      2.2576      7.2687    
  10.774      11.724      10.572      8.6319      6.8080      5.3825      4.4208      3.8735      3.6691      3.7727    
  4.2059      5.0347      6.3212      8.0376      9.9712      11.421      11.053      8.1237      3.3259     -1.3059    
 -2.0411     -3.4766     -1.3058      3.3260      8.1237      11.053      11.421      9.9712      8.0376      6.3212    
  5.0346      4.2059      3.7727      3.6691      3.8734      4.4208      5.3825      6.8081      8.6319      10.572    
  11.724      10.774      7.2688      2.2576      2.3841     -1.1680     -1.7771     0.85253      5.2983      9.3410    
  11.321      10.975      9.2738      7.4027      5.8297      4.7025      4.0143      3.6960      3.6911      3.9921    
  4.6448      5.7212      7.2538      9.1417      11.042      11.942      10.670      7.0587      7.5843      3.6881    
  1.1094      1.2221      3.9146      7.6647      10.541      11.389      10.361      8.5322      6.7706      5.3672    
  4.4075      3.8576      3.6481      3.7341      4.1211      4.8620      6.0243      7.6221      9.5266      11.360    
  12.123      10.842      11.268      8.7128      5.8477      4.2569      4.8363      7.1780      9.8524      11.376    
  11.136      9.6143      7.7942      6.1817      4.9616      4.1663      3.7444      3.6317      3.7958      4.2521    
  5.0560      6.2666      7.8803      9.7531      11.514      12.271      12.341      11.805      10.129      8.3331    
  7.5649      8.2921      9.9613      11.399      11.644      10.567      8.8301      7.1064      5.6710      4.6345    
  3.9906      3.6803      3.6481      3.8728      4.3763      5.2113      6.4264      8.0043      9.7989      11.484    
  11.253      12.253      12.243      11.436      10.565      10.352      10.946      11.796      12.084      11.350    
  9.8169      8.0889      6.5135      5.2665      4.4011      3.8875      3.6675      3.6960      3.9605      4.4846    
  5.3151      6.4889      7.9812      9.6562      9.3341      10.815      11.931      12.382      12.287      12.089    
  12.158      12.453      12.542      11.978      10.695      9.0702      7.4521      6.0543      4.9887      4.2706    
  3.8602      3.7060      3.7727      4.0532      4.5690      5.3583      6.4481      7.8118      7.5114      8.8583    
  10.198      11.349      12.109      12.494      12.700      12.853      12.838      12.395      11.386      9.9769    
  8.4342      6.9761      5.7595      4.8515      4.2476      3.9088      3.7932      3.8734      4.1444      4.6226    
  5.3371      6.3076      6.0807      7.1071      8.2684      9.4564      10.553      11.448      12.086      12.489    
  12.643      12.440      11.779      10.709      9.3812      7.9872      6.7051      5.6497      4.8623      4.3332    
  4.0312      3.9246      3.9920      4.2274      4.6410      5.2537      5.1155      5.7882      6.6347      7.6136    
  8.6507      9.6586      10.559      11.288      11.780      11.960      11.756      11.144      10.182      9.0077    
  7.7879      6.6678      5.7355      5.0226      4.5247      4.2223      4.0936      4.1210      4.2960      4.6227    
  4.5691      4.9348      5.4557      6.1337      6.9465      7.8460      8.7694      9.6496      10.415      10.983    
  11.261      11.176      10.709      9.9167      8.9220      7.8680      6.8747      6.0169      5.3281      4.8158    
  4.4744      4.2915      4.2521      4.3450      4.3704      4.4847      4.7266      5.1098      5.6426      6.3167    
  7.1051      7.9657      8.8438      9.6674      10.343      10.766      10.852      10.571      9.9694      9.1484    
  8.2297      7.3171      6.4819      5.7666      5.1946      4.7757      4.5070      4.3762      4.4846      4.3704    
  4.3764      4.5071      4.7757      5.1945      5.7665      6.4820      7.3172      8.2297      9.1484      9.9694    
  10.571      10.852      10.766      10.343      9.6674      8.8438      7.9657      7.1050      6.3167      5.6427    
  5.1099      4.7265      4.9347      4.5689      4.3449      4.2522      4.2916      4.4744      4.8157      5.3280    
  6.0169      6.8747      7.8680      8.9219      9.9167      10.709      11.176      11.261      10.983      10.415    
  9.6497      8.7693      7.8459      6.9464      6.1338      5.4558      5.7884      5.1155      4.6225      4.2959    
  4.1211      4.0937      4.2224      4.5247      5.0226      5.7355      6.6678      7.7879      9.0077      10.182    
  11.144      11.756      11.960      11.779      11.288      10.559      9.6585      8.6506      7.6135      6.6348    
  7.1071      6.0809      5.2537      4.6409      4.2273      3.9920      3.9247      4.0312      4.3332      4.8622    
  5.6497      6.7052      7.9872      9.3812      10.709      11.779      12.440      12.643      12.489      12.086    
  11.448      10.553      9.4563      8.2683      8.8581      7.5114      6.3077      5.3372      4.6226      4.1443    
  3.8734      3.7932      3.9089      4.2476      4.8515      5.7595      6.9761      8.4342      9.9768      11.386    
  12.395      12.838      12.853      12.700      12.494      12.109      11.349      10.198      10.815      9.3340    
  7.8118      6.4481      5.3584      4.5690      4.0531      3.7727      3.7060      3.8602      4.2706      4.9887    
  6.0543      7.4522      9.0702      10.695      11.977      12.542      12.453      12.158      12.089      12.287    
  12.382      11.931      12.253      11.253      9.6561      7.9811      6.4889      5.3152      4.4847      3.9605    
  3.6960      3.6675      3.8875      4.4011      5.2664      6.5134      8.0889      9.8169      11.350      12.084    
  11.796      10.946      10.352      10.565      11.436      12.243      11.805      12.341      11.484      9.7988    
  8.0042      6.4263      5.2114      4.3764      3.8728      3.6480      3.6803      3.9906      4.6346      5.6710    
  7.1064      8.8301      10.567      11.644      11.399      9.9614      8.2922      7.5649      8.3329      10.129    
  8.7126      11.268      12.271      11.514      9.7531      7.8802      6.2665      5.0560      4.2522      3.7958    
  3.6317      3.7444      4.1663      4.9616      6.1817      7.7942      9.6144      11.136      11.376      9.8523    
  7.1780      4.8364      4.2570      5.8476      3.6880      7.5842      10.842      12.123      11.361      9.5267    
  7.6220      6.0243      4.8620      4.1212      3.7341      3.6480      3.8576      4.4076      5.3672      6.7705    
  8.5322      10.361      11.389      10.541      7.6646      3.9146      1.2222      1.1095     -1.1678      2.3841    
  7.0586      10.670      11.942      11.042      9.1418      7.2538      5.7211      4.6448      3.9921      3.6911    
  3.6960      4.0142      4.7026      5.8297      7.4026      9.2737      10.975      11.321      9.3409      5.2982    
 0.85246     -1.7770      1.5250      2.3841      5.4614      9.1121      11.554      11.922      10.596      8.6782    
  6.8885      5.4756      4.5027      3.9247      3.6720      3.7059      4.0400      4.7319      5.8459      7.3821    
  9.1951      10.870      11.379      9.9047      6.7335      3.3259      2.2575     0.85158      2.2576      5.6918    
  9.3237      11.447      11.444      9.9322      8.0441      6.3630      5.0884      4.2509      3.7933      3.6496    
  3.7932      4.2509      5.0885      6.3630      8.0440      9.9321      11.444      11.447      9.3237      5.6916    
  5.4613      2.3840      1.5249      3.3260      6.7337      9.9048      11.378      10.870      9.1952      7.3823    
  5.8459      4.7318      4.0400      3.7060      3.6720      3.9246      4.5027      5.4758      6.8886      8.6781    
  10.596      11.922      11.555      9.1122      9.4054      6.1417      3.6879      3.3745      5.2983      8.2638    
  10.597      11.217      10.187      8.4342      6.7363      5.3700      4.4269      3.8813      3.6675      3.7384    
  4.0937      4.7809      5.8683      7.3847      9.2376      11.141      12.320      11.797      12.182      10.164    
  7.5731      5.8475      5.9399      7.6647      9.8400      11.117      10.856      9.4220      7.6926      6.1442    
  4.9623      4.1896      3.7829      3.6803      3.8463      4.2916      5.0679      6.2374      7.8115      9.6758    
  11.531      12.636      12.831      12.621      11.184      9.3854      8.3329      8.6082      9.8524      11.045    
  11.255      10.270      8.6449      7.0111      5.6378      4.6428      4.0308      3.7496      3.7444      3.9910    
  4.5070      5.3438      6.5534      8.1312      9.9513      11.729      11.703      12.838      12.958      12.162    
  11.112      10.565      10.796      11.399      11.619      10.957      9.5416      7.9184      6.4270      5.2418    
  4.4253      3.9569      3.7829      3.8576      4.1653      4.7265      5.5876      6.7887      8.3128      10.034    
  9.9107      11.436      12.591      13.025      12.796      12.338      12.089      12.120      12.084      11.534    
  10.341      8.8143      7.2914      5.9736      4.9748      4.3182      3.9702      3.8813      4.0143      4.3590    
  4.9347      5.7793      6.9213      8.3368      8.1987      9.5881      10.942      12.060      12.713      12.894    
  12.823      12.700      12.493      11.977      10.988      9.6390      8.1815      6.8118      5.6781      4.8493    
  4.3254      4.0699      4.0400      4.2059      4.5595      5.1155      5.9020      6.9379      6.8366      7.9110    
  9.0938      10.262      11.281      12.024      12.435      12.575      12.489      12.123      11.386      10.308    
  9.0282      7.7124      6.5208      5.5608      4.8729      4.4473      4.2515      4.2509      4.4208      4.7524    
  5.2537      5.9442      5.9020      6.6271      7.5008      8.4728      9.4566      10.353      11.079      11.580    
  11.823      11.780      11.409      10.709      9.7340      8.6037      7.4654      6.4492      5.6346      5.0480    
  4.6803      4.5074      4.5027      4.6448      4.9224      5.3372      5.3584      5.7794      6.3295      7.0063    
  7.7804      8.5950      9.3799      10.068      10.601      10.924      10.983      10.736      10.183      9.3799    
  8.4370      7.4800      6.6143      5.9034      5.3714      5.0167      4.8260      4.7808      4.8620      5.0555    
  5.1404      5.3153      5.5877      5.9709      6.4709      7.0752      7.7505      8.4501      9.1212      9.7054    
  10.136      10.343      10.274      9.9167      9.3182      8.5687      7.7726      7.0177      6.3613      5.8326    
  5.4428      5.1912      5.0678      5.0560      5.2113      5.1695      5.2115      5.3438      5.5816      5.9372    
  6.4112      6.9887      7.6425      8.3328      9.0031      9.5772      9.9695      10.109      9.9694      9.5772    
  9.0031      8.3329      7.6425      6.9886      6.4112      5.9374      5.5816      5.3437      5.5876      5.3150    
  5.1403      5.0561      5.0680      5.1912      5.4426      5.8325      6.3613      7.0178      7.7726      8.5687    
  9.3182      9.9167      10.274      10.343      10.136      9.7054      9.1212      8.4501      7.7504      7.0752    
  6.4711      5.9710      6.3297      5.7794      5.3582      5.0554      4.8621      4.7810      4.8261      5.0166    
  5.3713      5.9035      6.6143      7.4800      8.4370      9.3799      10.183      10.736      10.983      10.924    
  10.601      10.068      9.3799      8.5948      7.7803      7.0065      7.5009      6.6274      5.9021      5.3371    
  4.9222      4.6448      4.5028      4.5074      4.6803      5.0479      5.6346      6.4492      7.4654      8.6036    
  9.7340      10.709      11.409      11.779      11.823      11.580      11.079      10.353      9.4564      8.4726    
  9.0936      7.9110      6.8368      5.9443      5.2536      4.7522      4.4208      4.2510      4.2515      4.4473    
  4.8729      5.5608      6.5208      7.7124      9.0281      10.308      11.386      12.123      12.489      12.575    
  12.435      12.024      11.281      10.262      10.942      9.5878      8.1987      6.9381      5.9021      5.1154    
  4.5594      4.2058      4.0400      4.0699      4.3255      4.8493      5.6781      6.8118      8.1815      9.6390    
  10.988      11.977      12.493      12.700      12.823      12.893      12.713      12.060      12.591      11.436    
  9.9104      8.3366      6.9214      5.7795      4.9347      4.3589      4.0142      3.8813      3.9703      4.3182    
  4.9748      5.9736      7.2915      8.8143      10.341      11.534      12.084      12.120      12.089      12.338    
  12.796      13.025      12.958      12.838      11.703      10.034      8.3127      6.7887      5.5877      4.7266    
  4.1652      3.8575      3.7829      3.9569      4.4254      5.2418      6.4270      7.9184      9.5416      10.957    
  11.618      11.399      10.797      10.565      11.112      12.161      11.184      12.621      12.831      11.729    
  9.9512      8.1311      6.5533      5.3438      4.5071      3.9910      3.7444      3.7495      4.0308      4.6429    
  5.6378      7.0110      8.6449      10.270      11.255      11.045      9.8524      8.6084      8.3330      9.3852    
  7.5730      10.164      12.182      12.637      11.531      9.6758      7.8114      6.2373      5.0679      4.2917    
  3.8463      3.6802      3.7829      4.1897      4.9624      6.1442      7.6926      9.4221      10.856      11.116    
  9.8398      7.6647      5.9401      5.8476      3.6881      6.1417      9.4053      11.797      12.321      11.142    
  9.2377      7.3846      5.8681      4.7809      4.0938      3.7384      3.6674      3.8813      4.4270      5.3701    
  6.7362      8.4341      10.187      11.217      10.597      8.2636      5.2982      3.3747      7.0863      7.5843    
  9.4052      11.472      12.585      12.201      10.682      8.8440      7.1447      5.7872      4.8261      4.2224    
  3.9132      3.8601      4.0699      4.5903      5.4819      6.7654      8.3572      10.029      11.225      11.208    
  9.9047      8.1238      7.2687      6.2941      7.0587      9.1122      11.209      12.157      11.563      9.9527    
  8.1533      6.5565      5.3321      4.5074      4.0313      3.8416      3.9088      4.2515      4.9260      5.9908    
  7.4447      9.1601      10.830      11.719      11.159      9.3237      9.1121      7.0586      6.2941      7.2689    
  9.3239      11.159      11.719      10.830      9.1602      7.4449      5.9908      4.9259      4.2515      3.9089    
  3.8415      4.0312      4.5074      5.3322      6.5565      8.1531      9.9526      11.563      12.157      11.209    
  11.472      9.4052      7.5841      7.0862      8.1239      9.9049      11.209      11.225      10.028      8.3573    
  6.7655      5.4818      4.5902      4.0699      3.8602      3.9132      4.2223      4.8261      5.7874      7.1448    
  8.8439      10.681      12.201      12.585      13.011      11.960      10.164      8.7125      8.4396      9.3411    
  10.598      11.191      10.625      9.1984      7.5900      6.1538      5.0561      4.3404      3.9703      3.8875    
  4.0543      4.4744      5.1913      6.2637      7.7142      9.4640      11.289      12.715      13.061      13.381    
  12.564      11.184      10.128      9.9669      10.541      11.117      10.965      9.9107      8.3959      6.8975    
  5.6396      4.7326      4.1867      3.9569      3.9906      4.2600      4.7757      5.5817      6.7276      8.2191    
  9.9588      11.717      11.919      13.181      13.592      13.096      12.162      11.436      11.250      11.376    
  11.255      10.479      9.1393      7.6627      6.3125      5.2453      4.5238      4.1349      4.0308      4.1663    
  4.5214      5.1098      5.9710      7.1424      8.6138      10.279      10.388      11.863      13.023      13.534    
  13.349      12.796      12.287      11.973      11.644      10.957      9.7986      8.4059      7.0369      5.8621    
  4.9866      4.4371      4.1867      4.1896      4.4076      4.8254      5.4557      6.3296      7.4714      8.8591    
  8.9285      10.269      11.544      12.566      13.130      13.178      12.894      12.494      12.025      11.350    
  10.341      9.0852      7.7704      6.5555      5.5686      4.8742      4.4756      4.3404      4.4270      4.7026    
  5.1537      5.7882      6.6272      7.6831      7.7562      8.8130      9.9306      10.986      11.842      12.387    
  12.564      12.435      12.086      11.521      10.695      9.6390      8.4595      7.2863      6.2519      5.4490    
  4.9144      4.6388      4.5902      4.7319      5.0348      5.4839      6.0807      6.8366      6.9378      7.6830    
  8.5235      9.4048      10.240      10.932      11.405      11.623      11.580      11.288      10.747      9.9768    
  9.0281      7.9968      7.0026      6.1531      5.5152      5.1092      4.9223      4.9259      5.0885      5.3826    
  5.7907      6.3076      6.4481      6.9212      7.4712      8.0892      8.7427      9.3763      9.9259      10.336    
  10.569      10.601      10.415      10.003      9.3811      8.6037      7.7612      6.9571      6.2776      5.7726    
  5.4559      5.3166      5.3321      5.4757      5.7213      6.0486      6.2349      6.4890      6.7886      7.1421    
  7.5523      8.0060      8.4735      8.9160      9.2937      9.5692      9.7055      9.6675      9.4328      9.0077    
  8.4370      7.7969      7.1722      6.6326      6.2189      5.9447      5.8058      5.7873      5.8682      6.0244    
  6.2665      6.3326      6.4265      6.5533      6.7274      6.9615      7.2581      7.6070      7.9881      8.3740    
  8.7280      9.0031      9.1485      9.1246      8.9220      8.5687      8.1227      7.6512      7.2112      6.8399    
  6.5560      6.3653      6.2635      6.2372      6.5532      6.4263      6.3326      6.2667      6.2374      6.2635    
  6.3652      6.5560      6.8400      7.2113      7.6512      8.1227      8.5687      8.9220      9.1246      9.1484    
  9.0031      8.7281      8.3741      7.9880      7.6069      7.2582      6.9617      6.7275      7.1424      6.7886    
  6.4888      6.2348      6.0245      5.8684      5.7873      5.8056      5.9446      6.2189      6.6327      7.1722    
  7.7968      8.4370      9.0077      9.4328      9.6674      9.7054      9.5693      9.2938      8.9159      8.4734    
  8.0059      7.5525      8.0893      7.4714      6.9212      6.4479      6.0484      5.7213      5.4759      5.3322    
  5.3165      5.4559      5.7727      6.2776      6.9571      7.7611      8.6037      9.3812      10.003      10.415    
  10.601      10.569      10.336      9.9259      9.3761      8.7425      9.4046      8.5236      7.6832      6.9380    
  6.3075      5.7905      5.3826      5.0886      4.9260      4.9223      5.1092      5.5152      6.1531      7.0026    
  7.9968      9.0281      9.9768      10.747      11.288      11.580      11.623      11.406      10.932      10.240    
  10.986      9.9303      8.8129      7.7564      6.8367      6.0806      5.4838      5.0347      4.7320      4.5903    
  4.6388      4.9143      5.4490      6.2519      7.2863      8.4595      9.6390      10.695      11.521      12.086    
  12.435      12.564      12.387      11.842      12.566      11.544      10.269      8.9284      7.6832      6.6273    
  5.7882      5.1536      4.7025      4.4270      4.3405      4.4756      4.8742      5.5686      6.5555      7.7704    
  9.0851      10.341      11.350      12.025      12.494      12.893      13.178      13.130      13.534      13.023    
  11.863      10.387      8.8590      7.4714      6.3297      5.4557      4.8253      4.4075      4.1896      4.1868    
  4.4371      4.9866      5.8621      7.0369      8.4059      9.7986      10.957      11.644      11.973      12.287    
  12.796      13.349      13.096      13.593      13.181      11.919      10.279      8.6136      7.1424      5.9711    
  5.1099      4.5214      4.1662      4.0307      4.1349      4.5238      5.2452      6.3124      7.6627      9.1394    
  10.479      11.255      11.376      11.250      11.436      12.161      11.184      12.564      13.381      13.061    
  11.718      9.9588      8.2190      6.7275      5.5817      4.7758      4.2600      3.9905      3.9568      4.1868    
  4.7327      5.6395      6.8975      8.3960      9.9108      10.965      11.116      10.541      9.9671      10.129    
  8.7127      10.164      11.959      13.011      12.715      11.289      9.4641      7.7141      6.2635      5.1913    
  4.4745      4.0544      3.8874      3.9702      4.3405      5.0562      6.1537      7.5900      9.1985      10.625    
  11.191      10.597      9.3411      8.4398      10.862      11.268      12.182      13.011      13.106      12.244    
  10.764      9.1296      7.6100      6.3652      5.4428      4.8158      4.4355      4.2705      4.3254      4.6389    
  5.2637      6.2305      7.5024      8.9430      10.323      11.225      11.379      11.053      10.774      10.430    
  10.842      11.796      12.585      12.545      11.535      9.9902      8.3720      6.9321      5.8057      5.0167    
  4.5248      4.2775      4.2476      4.4473      4.9224      5.7261      6.8756      8.3019      9.8251      11.133    
  11.719      11.447      11.554      10.670      10.262      10.670      11.555      12.157      11.879      10.709    
  9.1487      7.6032      6.2914      5.3166      4.6804      4.3332      4.2243      4.3331      4.6804      5.3167    
  6.2915      7.6031      9.1486      10.709      11.879      12.157      12.585      11.796      10.842      10.430    
  10.775      11.447      11.719      11.133      9.8250      8.3019      6.8757      5.7261      4.9223      4.4473    
  4.2477      4.2775      4.5247      5.0168      5.8058      6.9321      8.3719      9.9901      11.535      12.545    
  13.106      13.011      12.182      11.268      10.862      11.053      11.379      11.225      10.323      8.9429    
  7.5024      6.2306      5.2637      4.6388      4.3255      4.2706      4.4355      4.8158      5.4428      6.3654    
  7.6101      9.1296      10.764      12.244      12.773      13.515      13.381      12.621      11.805      11.377    
  11.321      11.217      10.625      9.4792      8.1094      6.7914      5.6982      4.9227      4.4756      4.3182    
  4.4011      4.6929      5.1945      5.9374      6.9617      8.2772      9.8155      11.402      11.840      13.061    