   2   2   0   0
  0.1529437E+02  0.3691622E-09  0.3691622E-09  0.3691622E-09  0.5000000E-15
  1.000000000000000E-004
  CAR 
 unknown system                          
     20.28947451     -5.16392602  301      8.57140329      1.00000000
     -5.164  0.0000E+00  0.0000E+00
     -5.079  0.0000E+00  0.0000E+00
     -4.994  0.0000E+00  0.0000E+00
     -4.909  0.0000E+00  0.0000E+00
     -4.825  0.0000E+00  0.0000E+00
     -4.740  0.0000E+00  0.0000E+00
     -4.655  0.0000E+00  0.0000E+00
     -4.570  0.0000E+00  0.0000E+00
     -4.485  0.0000E+00  0.0000E+00
     -4.400  0.0000E+00  0.0000E+00
     -4.315  0.1309E-15  0.1110E-16
     -4.231  0.1793E-13  0.1532E-14
     -4.146  0.1492E-11  0.1281E-12
     -4.061  0.8708E-10  0.7517E-11
     -3.976  0.3567E-08  0.3102E-09
     -3.891  0.1026E-06  0.9013E-08
     -3.806  0.2072E-05  0.1848E-06
     -3.722  0.2942E-04  0.2681E-05
     -3.637  0.2938E-03  0.2761E-04
     -3.552  0.2065E-02  0.2028E-03
     -3.467  0.1022E-01  0.1070E-02
     -3.382  0.3562E-01  0.4092E-02
     -3.297  0.8750E-01  0.1152E-01
     -3.212  0.1516E+00  0.2438E-01
     -3.128  0.1851E+00  0.4008E-01
     -3.043  0.1594E+00  0.5361E-01
     -2.958  0.9683E-01  0.6182E-01
     -2.873  0.4146E-01  0.6534E-01
     -2.788  0.1251E-01  0.6640E-01
     -2.703  0.2661E-02  0.6663E-01
     -2.619  0.3984E-03  0.6666E-01
     -2.534  0.4198E-04  0.6667E-01
     -2.449  0.3111E-05  0.6667E-01
     -2.364  0.1621E-06  0.6667E-01
     -2.279  0.5933E-08  0.6667E-01
     -2.194  0.1525E-09  0.6667E-01
     -2.110  0.2750E-11  0.6667E-01
     -2.025  0.3472E-13  0.6667E-01
     -1.940  0.3489E-15  0.6667E-01
     -1.855  0.0000E+00  0.6667E-01
     -1.770  0.0000E+00  0.6667E-01
     -1.685  0.0000E+00  0.6667E-01
     -1.600  0.0000E+00  0.6667E-01
     -1.516  0.0000E+00  0.6667E-01
     -1.431  0.0000E+00  0.6667E-01
     -1.346  0.0000E+00  0.6667E-01
     -1.261  0.0000E+00  0.6667E-01
     -1.176  0.0000E+00  0.6667E-01
     -1.091  0.0000E+00  0.6667E-01
     -1.007  0.0000E+00  0.6667E-01
     -0.922  0.0000E+00  0.6667E-01
     -0.837  0.0000E+00  0.6667E-01
     -0.752  0.0000E+00  0.6667E-01
     -0.667  0.0000E+00  0.6667E-01
     -0.582  0.0000E+00  0.6667E-01
     -0.497  0.0000E+00  0.6667E-01
     -0.413  0.0000E+00  0.6667E-01
     -0.328  0.4362E-16  0.6667E-01
     -0.243  0.4318E-14  0.6667E-01
     -0.158  0.3815E-12  0.6667E-01
     -0.073  0.2355E-10  0.6667E-01
      0.012  0.1020E-08  0.6667E-01
      0.096  0.3099E-07  0.6667E-01
      0.181  0.6617E-06  0.6667E-01
      0.266  0.9929E-05  0.6667E-01
      0.351  0.1048E-03  0.6668E-01
      0.436  0.7781E-03  0.6674E-01
      0.521  0.4068E-02  0.6709E-01
      0.606  0.1498E-01  0.6836E-01
      0.690  0.3889E-01  0.7166E-01
      0.775  0.7115E-01  0.7769E-01
      0.860  0.9179E-01  0.8548E-01
      0.945  0.8351E-01  0.9257E-01
      1.030  0.5358E-01  0.9711E-01
      1.115  0.2424E-01  0.9917E-01
      1.199  0.7728E-02  0.9983E-01
      1.284  0.1741E-02  0.9997E-01
      1.369  0.3350E-03  0.1000E+00
      1.454  0.5741E-03  0.1001E+00
      1.539  0.3444E-02  0.1003E+00
      1.624  0.1535E-01  0.1016E+00
      1.708  0.4823E-01  0.1057E+00
      1.793  0.1068E+00  0.1148E+00
      1.878  0.1668E+00  0.1290E+00
      1.963  0.1837E+00  0.1445E+00
      2.048  0.1426E+00  0.1566E+00
      2.133  0.7809E-01  0.1633E+00
      2.218  0.3014E-01  0.1658E+00
      2.302  0.8199E-02  0.1665E+00
      2.387  0.1571E-02  0.1666E+00
      2.472  0.2120E-03  0.1667E+00
      2.557  0.2012E-04  0.1667E+00
      2.642  0.1394E-05  0.1667E+00
      2.727  0.1169E-05  0.1667E+00
      2.811  0.1697E-04  0.1667E+00
      2.896  0.1830E-03  0.1667E+00
      2.981  0.1390E-02  0.1668E+00
      3.066  0.7442E-02  0.1674E+00
      3.151  0.2816E-01  0.1698E+00
      3.236  0.7579E-01  0.1763E+00
      3.321  0.1473E+00  0.1888E+00
      3.405  0.2146E+00  0.2070E+00
      3.490  0.2512E+00  0.2283E+00
      3.575  0.2575E+00  0.2501E+00
      3.660  0.2382E+00  0.2703E+00
      3.745  0.1926E+00  0.2867E+00
      3.830  0.1461E+00  0.2991E+00
      3.914  0.1393E+00  0.3109E+00
      3.999  0.1706E+00  0.3254E+00
      4.084  0.1884E+00  0.3413E+00
      4.169  0.1554E+00  0.3545E+00
      4.254  0.9137E-01  0.3623E+00
      4.339  0.3795E-01  0.3655E+00
      4.424  0.1112E-01  0.3664E+00
      4.508  0.2294E-02  0.3666E+00
      4.593  0.3333E-03  0.3667E+00
      4.678  0.3409E-04  0.3667E+00
      4.763  0.2452E-05  0.3667E+00
      4.848  0.1240E-06  0.3667E+00
      4.933  0.6004E-08  0.3667E+00
      5.017  0.4709E-07  0.3667E+00
      5.102  0.9717E-06  0.3667E+00
      5.187  0.1420E-04  0.3667E+00
      5.272  0.1469E-03  0.3667E+00
      5.357  0.1081E-02  0.3668E+00
      5.442  0.5675E-02  0.3673E+00
      5.527  0.2138E-01  0.3691E+00
      5.611  0.5808E-01  0.3740E+00
      5.696  0.1145E+00  0.3837E+00
      5.781  0.1644E+00  0.3977E+00
      5.866  0.1726E+00  0.4123E+00
      5.951  0.1325E+00  0.4235E+00
      6.036  0.7419E-01  0.4298E+00
      6.120  0.3019E-01  0.4324E+00
      6.205  0.8876E-02  0.4331E+00
      6.290  0.1875E-02  0.4333E+00
      6.375  0.2832E-03  0.4333E+00
      6.460  0.3044E-04  0.4333E+00
      6.545  0.2377E-05  0.4333E+00
      6.629  0.1353E-05  0.4333E+00
      6.714  0.1860E-04  0.4333E+00
      6.799  0.1981E-03  0.4334E+00
      6.884  0.1484E-02  0.4335E+00
      6.969  0.7830E-02  0.4341E+00
      7.054  0.2910E-01  0.4366E+00
      7.139  0.7621E-01  0.4431E+00
      7.223  0.1407E+00  0.4550E+00
      7.308  0.1832E+00  0.4706E+00
      7.393  0.1682E+00  0.4848E+00
      7.478  0.1089E+00  0.4941E+00
      7.563  0.4970E-01  0.4983E+00
      7.648  0.1599E-01  0.4996E+00
      7.732  0.3625E-02  0.4999E+00
      7.817  0.5787E-03  0.5000E+00
      7.902  0.6585E-04  0.5000E+00
      7.987  0.1837E-04  0.5000E+00
      8.072  0.1479E-03  0.5000E+00
      8.157  0.1159E-02  0.5001E+00
      8.242  0.6408E-02  0.5007E+00
      8.326  0.2495E-01  0.5028E+00
      8.411  0.6844E-01  0.5086E+00
      8.496  0.1323E+00  0.5198E+00
      8.581  0.1805E+00  0.5351E+00
      8.666  0.1735E+00  0.5498E+00
      8.751  0.1177E+00  0.5598E+00
      8.835  0.5627E-01  0.5646E+00
      8.920  0.1896E-01  0.5662E+00
      9.005  0.4503E-02  0.5666E+00
      9.090  0.7532E-03  0.5667E+00
      9.175  0.8867E-04  0.5667E+00
      9.260  0.7344E-05  0.5667E+00
      9.345  0.4277E-06  0.5667E+00
      9.429  0.1750E-07  0.5667E+00
      9.514  0.5028E-09  0.5667E+00
      9.599  0.1014E-10  0.5667E+00
      9.684  0.1435E-12  0.5667E+00
      9.769  0.1396E-14  0.5667E+00
      9.854  0.0000E+00  0.5667E+00
      9.938  0.0000E+00  0.5667E+00
     10.023  0.0000E+00  0.5667E+00
     10.108  0.0000E+00  0.5667E+00
     10.193  0.0000E+00  0.5667E+00
     10.278  0.0000E+00  0.5667E+00
     10.363  0.2181E-16  0.5667E+00
     10.447  0.3228E-14  0.5667E+00
     10.532  0.2900E-12  0.5667E+00
     10.617  0.1831E-10  0.5667E+00
     10.702  0.8108E-09  0.5667E+00
     10.787  0.2521E-07  0.5667E+00
     10.872  0.5504E-06  0.5667E+00
     10.957  0.8446E-05  0.5667E+00
     11.041  0.9115E-04  0.5667E+00
     11.126  0.6921E-03  0.5667E+00
     11.211  0.3700E-02  0.5670E+00
     11.296  0.1393E-01  0.5682E+00
     11.381  0.3698E-01  0.5714E+00
     11.466  0.6918E-01  0.5772E+00
     11.550  0.9126E-01  0.5850E+00
     11.635  0.8490E-01  0.5922E+00
     11.720  0.5569E-01  0.5969E+00
     11.805  0.2578E-01  0.5991E+00
     11.890  0.8621E-02  0.5998E+00
     11.975  0.3572E-02  0.6001E+00
     12.060  0.8813E-02  0.6009E+00
     12.144  0.3102E-01  0.6035E+00
     12.229  0.7958E-01  0.6103E+00
     12.314  0.1441E+00  0.6225E+00
     12.399  0.1841E+00  0.6381E+00
     12.484  0.1664E+00  0.6522E+00
     12.569  0.1097E+00  0.6615E+00
     12.653  0.6623E-01  0.6672E+00
     12.738  0.7158E-01  0.6732E+00
     12.823  0.1222E+00  0.6836E+00
     12.908  0.1787E+00  0.6988E+00
     12.993  0.1988E+00  0.7156E+00
     13.078  0.1870E+00  0.7315E+00
     13.163  0.1842E+00  0.7471E+00
     13.247  0.1974E+00  0.7639E+00
     13.332  0.1873E+00  0.7798E+00
     13.417  0.1349E+00  0.7912E+00
     13.502  0.6986E-01  0.7971E+00
     13.587  0.2562E-01  0.7993E+00
     13.672  0.6631E-02  0.7999E+00
     13.756  0.1209E-02  0.8000E+00
     13.841  0.1552E-03  0.8000E+00
     13.926  0.1402E-04  0.8000E+00
     14.011  0.8904E-06  0.8000E+00
     14.096  0.3975E-07  0.8000E+00
     14.181  0.1666E-08  0.8000E+00
     14.266  0.1489E-07  0.8000E+00
     14.350  0.3695E-06  0.8000E+00
     14.435  0.6454E-05  0.8000E+00
     14.520  0.7926E-04  0.8000E+00
     14.605  0.6848E-03  0.8001E+00
     14.690  0.4164E-02  0.8004E+00
     14.775  0.1784E-01  0.8019E+00
     14.859  0.5382E-01  0.8065E+00
     14.944  0.1145E+00  0.8162E+00
     15.029  0.1717E+00  0.8308E+00
     15.114  0.1816E+00  0.8462E+00
     15.199  0.1354E+00  0.8577E+00
     15.284  0.7122E-01  0.8637E+00
     15.368  0.2640E-01  0.8660E+00
     15.453  0.6897E-02  0.8665E+00
     15.538  0.1270E-02  0.8667E+00
     15.623  0.1769E-03  0.8667E+00
     15.708  0.1556E-03  0.8667E+00
     15.793  0.1114E-02  0.8668E+00
     15.878  0.6197E-02  0.8673E+00
     15.962  0.2431E-01  0.8694E+00
     16.047  0.6720E-01  0.8751E+00
     16.132  0.1309E+00  0.8862E+00
     16.217  0.1799E+00  0.9014E+00
     16.302  0.1743E+00  0.9162E+00
     16.387  0.1191E+00  0.9263E+00
     16.471  0.5739E-01  0.9312E+00
     16.556  0.1949E-01  0.9329E+00
     16.641  0.4664E-02  0.9333E+00
     16.726  0.7874E-03  0.9333E+00
     16.811  0.1135E-03  0.9333E+00
     16.896  0.2209E-03  0.9334E+00
     16.981  0.1579E-02  0.9335E+00
     17.065  0.8229E-02  0.9342E+00
     17.150  0.3023E-01  0.9367E+00
     17.235  0.7824E-01  0.9434E+00
     17.320  0.1428E+00  0.9555E+00
     17.405  0.1837E+00  0.9711E+00
     17.490  0.1667E+00  0.9852E+00
     17.574  0.1067E+00  0.9943E+00
     17.659  0.4812E-01  0.9984E+00
     17.744  0.1534E-01  0.9997E+00
     17.829  0.3826E-02  0.1000E+01
     17.914  0.3201E-02  0.1000E+01
     17.999  0.1257E-01  0.1001E+01
     18.084  0.4147E-01  0.1005E+01
     18.168  0.9683E-01  0.1013E+01
     18.253  0.1594E+00  0.1027E+01
     18.338  0.1851E+00  0.1042E+01
     18.423  0.1516E+00  0.1055E+01
     18.508  0.8750E-01  0.1063E+01
     18.593  0.3562E-01  0.1066E+01
     18.677  0.1022E-01  0.1066E+01
     18.762  0.2065E-02  0.1067E+01
     18.847  0.2938E-03  0.1067E+01
     18.932  0.2942E-04  0.1067E+01
     19.017  0.2072E-05  0.1067E+01
     19.102  0.1026E-06  0.1067E+01
     19.186  0.3567E-08  0.1067E+01
     19.271  0.8708E-10  0.1067E+01
     19.356  0.1492E-11  0.1067E+01
     19.441  0.1788E-13  0.1067E+01
     19.526  0.1745E-15  0.1067E+01
     19.611  0.0000E+00  0.1067E+01
     19.696  0.0000E+00  0.1067E+01
     19.780  0.0000E+00  0.1067E+01
     19.865  0.0000E+00  0.1067E+01
     19.950  0.0000E+00  0.1067E+01
     20.035  0.0000E+00  0.1067E+01
     20.120  0.0000E+00  0.1067E+01
     20.205  0.0000E+00  0.1067E+01
     20.289  0.0000E+00  0.1067E+01
