       N       E                     dE             d eps       ncg     rms          rms(c)
DAV:   1    -0.119025040803E+02   -0.11903E+02   -0.26754E-06    24   0.135E-02    0.371E-04
DAV:   2    -0.119025040926E+02   -0.12212E-07   -0.13779E-07    24   0.249E-03
   1 F= -.11902504E+02 E0= -.11874295E+02  d E =-.119025E+02
