       N       E                     dE             d eps       ncg     rms          rms(c)
DAV:   1     0.636565832679E+00    0.63657E+00   -0.23120E+03   320   0.455E+02
DAV:   2    -0.108701597429E+02   -0.11507E+02   -0.10811E+02   512   0.625E+01
DAV:   3    -0.109949479362E+02   -0.12479E+00   -0.12479E+00   360   0.833E+00
DAV:   4    -0.109953596020E+02   -0.41167E-03   -0.41167E-03   536   0.527E-01
DAV:   5    -0.109953598763E+02   -0.27428E-06   -0.27394E-06   376   0.116E-02    0.301E+00
DAV:   6    -0.108699785652E+02    0.12538E+00   -0.82151E-02   416   0.149E+00    0.178E+00
DAV:   7    -0.108129905343E+02    0.56988E-01   -0.15072E-01   384   0.215E+00    0.154E-01
DAV:   8    -0.108143310317E+02   -0.13405E-02   -0.40489E-03   336   0.470E-01    0.240E-02
DAV:   9    -0.108144203618E+02   -0.89330E-04   -0.91929E-05   296   0.754E-02
   1 F= -.10814420E+02 E0= -.10814246E+02  d E =-.108144E+02
       N       E                     dE             d eps       ncg     rms          rms(c)
DAV:   1    -0.108227135156E+02   -0.83825E-02   -0.23273E-01   368   0.268E+00    0.307E-01
DAV:   2    -0.108187464011E+02    0.39671E-02   -0.33034E-03   392   0.377E-01    0.176E-01
DAV:   3    -0.108166971980E+02    0.20492E-02   -0.41696E-03   400   0.326E-01    0.219E-02
DAV:   4    -0.108166870650E+02    0.10133E-04   -0.41022E-05   216   0.561E-02
   2 F= -.10816687E+02 E0= -.10816577E+02  d E =-.226670E-02
       N       E                     dE             d eps       ncg     rms          rms(c)
DAV:   1    -0.108197617061E+02   -0.30645E-02   -0.37751E-02   360   0.109E+00    0.124E-01
DAV:   2    -0.108191351077E+02    0.62660E-03   -0.52568E-04   368   0.150E-01    0.711E-02
DAV:   3    -0.108188040208E+02    0.33109E-03   -0.65872E-04   248   0.131E-01
   3 F= -.10818804E+02 E0= -.10818673E+02  d E =-.438366E-02
