unknown system                          
   1.00000000000000     
     0.000000    2.750197    2.750197
     2.750197   -0.000000    2.750197
     2.750197    2.750197    0.000000
   Si
     2
Direct
  0.500000  0.500000  0.500000
  0.750000  0.750000  0.750000
 
   24   24   24
 0.84191     0.87904     0.99576      1.2070      1.5345      2.0014      2.6230      3.3943      4.2759      5.1835    
  5.9906      6.5535      6.7562      6.5536      5.9907      5.1835      4.2758      3.3940      2.6227      2.0012    
  1.5344      1.2070     0.99587     0.87913     0.87904     0.93952      1.0687      1.2811      1.5938      2.0205    
  2.5634      3.2039      3.8939      4.5530      5.0787      5.3723      5.3723      5.0788      4.5531      3.8940    
  3.2038      2.5632      2.0202      1.5936      1.2811      1.0688     0.93968     0.87910     0.99576      1.0687    
  1.2007      1.4044      1.6910      2.0655      2.5204      3.0297      3.5446      3.9965      4.3089      4.4209    
  4.3089      3.9965      3.5446      3.0296      2.5203      2.0654      1.6909      1.4044      1.2009      1.0689    
 0.99587     0.97263      1.2070      1.2811      1.4044      1.5865      1.8335      2.1439      2.5048      2.8885    
  3.2514      3.5390      3.6991      3.6991      3.5390      3.2514      2.8884      2.5047      2.1439      1.8336    
  1.5867      1.4045      1.2812      1.2071      1.1728      1.1728      1.5345      1.5938      1.6910      1.8335    
  2.0239      2.2576      2.5204      2.7868      3.0208      3.1829      3.2410      3.1828      3.0207      2.7867    
  2.5204      2.2577      2.0240      1.8336      1.6911      1.5939      1.5345      1.5040      1.4948      1.5040    
  2.0014      2.0205      2.0655      2.1439      2.2576      2.4018      2.5634      2.7212      2.8487      2.9203    
  2.9202      2.8485      2.7211      2.5634      2.4019      2.2578      2.1440      2.0655      2.0204      2.0013    
  1.9976      1.9990      1.9991      1.9977      2.6230      2.5634      2.5204      2.5048      2.5204      2.5634    
  2.6230      2.6835      2.7283      2.7448      2.7282      2.6833      2.6228      2.5633      2.5204      2.5049    
  2.5204      2.5633      2.6228      2.6832      2.7282      2.7448      2.7283      2.6835      3.3943      3.2039    
  3.0297      2.8885      2.7868      2.7212      2.6835      2.6641      2.6562      2.6561      2.6639      2.6833    
  2.7211      2.7866      2.8885      3.0297      3.2039      3.3941      3.5746      3.7165      3.7947      3.7948    
  3.7167      3.5749      4.2759      3.8939      3.5446      3.2514      3.0208      2.8487      2.7283      2.6562    
  2.6319      2.6560      2.7281      2.8485      3.0207      3.2514      3.5447      3.8940      4.2759      4.6504    
  4.9679      5.1813      5.2565      5.1813      4.9681      4.6505      5.1835      4.5530      3.9965      3.5390    
  3.1829      2.9203      2.7448      2.6561      2.6560      2.7447      2.9201      3.1828      3.5391      3.9966    
  4.5532      5.1837      5.8340      6.4279      6.8828      7.1298      7.1298      6.8828      6.4279      5.8340    
  5.9906      5.0787      4.3089      3.6991      3.2410      2.9202      2.7282      2.6639      2.7281      2.9201    
  3.2410      3.6991      4.3090      5.0789      5.9908      6.9849      7.9592      8.7866      9.3432      9.5396    
  9.3431      8.7864      7.9591      6.9847      6.5535      5.3723      4.4209      3.6991      3.1828      2.8485    
  2.6833      2.6833      2.8485      3.1828      3.6991      4.4209      5.3724      6.5537      7.9149      9.3420    
  10.666      11.694      12.257      12.257      11.694      10.665      9.3418      7.9147      6.7562      5.3723    
  4.3089      3.5390      3.0207      2.7211      2.6228      2.7211      3.0207      3.5391      4.3090      5.3724    
  6.7563      8.4384      10.317      12.202      13.840      14.961      15.360      14.961      13.840      12.202    
  10.317      8.4383      6.5536      5.0788      3.9965      3.2514      2.7867      2.5634      2.5633      2.7866    
  3.2514      3.9966      5.0789      6.5537      8.4384      10.670      13.074      15.365      17.169      18.151    
  18.152      17.169      15.365      13.074      10.670      8.4383      5.9907      4.5531      3.5446      2.8884    
  2.5204      2.4019      2.5204      2.8885      3.5447      4.5532      5.9908      7.9149      10.317      13.074    
  15.919      18.405      20.068      20.649      20.068      18.405      15.919      13.074      10.317      7.9148    
  5.1835      3.8940      3.0296      2.5047      2.2577      2.2578      2.5049      3.0297      3.8940      5.1837    
  6.9849      9.3420      12.202      15.365      18.405      20.748      22.004      22.004      20.747      18.405    
  15.365      12.203      9.3419      6.9848      4.2758      3.2038      2.5203      2.1439      2.0240      2.1440    
  2.5204      3.2039      4.2759      5.8340      7.9592      10.666      13.840      17.169      20.068      22.004    
  22.679      22.004      20.068      17.169      13.840      10.666      7.9592      5.8339      3.3940      2.5632    
  2.0654      1.8336      1.8336      2.0655      2.5633      3.3941      4.6504      6.4279      8.7866      11.694    
  14.961      18.151      20.649      22.004      22.004      20.649      18.151      14.961      11.694      8.7865    
  6.4279      4.6503      2.6227      2.0202      1.6909      1.5867      1.6911      2.0204      2.6228      3.5746    
  4.9679      6.8828      9.3432      12.257      15.360      18.152      20.068      20.747      20.068      18.151    
  15.359      12.257      9.3431      6.8828      4.9679      3.5746      2.0012      1.5936      1.4044      1.4045    
  1.5939      2.0013      2.6832      3.7165      5.1813      7.1298      9.5396      12.257      14.961      17.169    
  18.405      18.405      17.169      14.961      12.257      9.5396      7.1298      5.1812      3.7164      2.6832    
  1.5344      1.2811      1.2009      1.2812      1.5345      1.9976      2.7282      3.7947      5.2565      7.1298    
  9.3431      11.694      13.840      15.365      15.919      15.365      13.840      11.694      9.3431      7.1298    
  5.2564      3.7946      2.7280      1.9975      1.2070      1.0688      1.0689      1.2071      1.5040      1.9990    
  2.7448      3.7948      5.1813      6.8828      8.7864      10.665      12.202      13.074      13.074      12.203    
  10.666      8.7865      6.8828      5.1812      3.7946      2.7446      1.9989      1.5039     0.99587     0.93968    
 0.99587      1.1728      1.4948      1.9991      2.7283      3.7167      4.9681      6.4279      7.9591      9.3418    
  10.317      10.670      10.317      9.3419      7.9592      6.4279      4.9679      3.7164      2.7280      1.9989    
  1.4947      1.1728     0.87913     0.87910     0.97263      1.1728      1.5040      1.9977      2.6835      3.5749    
  4.6505      5.8340      6.9847      7.9147      8.4383      8.4383      7.9148      6.9848      5.8339      4.6503    
  3.5746      2.6832      1.9975      1.5039      1.1728     0.97269     0.87903     0.93952      1.0687      1.2811    
  1.5938      2.0205      2.5634      3.2039      3.8939      4.5530      5.0787      5.3722      5.3722      5.0787    
  4.5531      3.8939      3.2038      2.5632      2.0203      1.5937      1.2811      1.0689     0.93968     0.87910    
 0.93952      1.0075      1.1318      1.3254      1.6003      1.9616      2.4018      2.8951      3.3936      3.8304    
  4.1321      4.2401      4.1321      3.8305      3.3937      2.8951      2.4017      1.9614      1.6001      1.3254    
  1.1319      1.0077     0.93961     0.91808      1.0687      1.1318      1.2400      1.4041      1.6311      1.9199    
  2.2576      2.6173      2.9572      3.2261      3.3755      3.3755      3.2261      2.9572      2.6173      2.2576    
  1.9198      1.6311      1.4042      1.2401      1.1319      1.0688      1.0404      1.0403      1.2811      1.3254    
  1.4041      1.5260      1.6943      1.9049      2.1439      2.3871      2.6010      2.7492      2.8023      2.7491    
  2.6009      2.3869      2.1438      1.9049      1.6944      1.5262      1.4043      1.3255      1.2811      1.2605    
  1.2547      1.2605      1.5938      1.6003      1.6311      1.6943      1.7921      1.9199      2.0655      2.2094    
  2.3265      2.3926      2.3926      2.3264      2.2093      2.0654      1.9199      1.7922      1.6945      1.6313    
  1.6003      1.5938      1.5999      1.6068      1.6068      1.6000      2.0205      1.9616      1.9199      1.9049    
  1.9199      1.9616      2.0205      2.0817      2.1280      2.1452      2.1279      2.0816      2.0204      1.9616    
  1.9200      1.9050      1.9200      1.9616      2.0204      2.0816      2.1279      2.1452      2.1280      2.0817    
  2.5634      2.4018      2.2576      2.1439      2.0655      2.0205      2.0014      1.9977      1.9991      1.9991    
  1.9976      2.0013      2.0204      2.0655      2.1440      2.2578      2.4019      2.5633      2.7210      2.8485    
  2.9202      2.9203      2.8487      2.7213      3.2039      2.8951      2.6173      2.3871      2.2094      2.0817    
  1.9977      1.9506      1.9355      1.9506      1.9977      2.0816      2.2093      2.3871      2.6175      2.8953    
  3.2040      3.5139      3.7839      3.9699      4.0364      3.9700      3.7842      3.5140      3.8939      3.3936    
  2.9572      2.6010      2.3265      2.1280      1.9991      1.9355      1.9355      1.9991      2.1279      2.3265    
  2.6011      2.9574      3.3939      3.8941      4.4207      4.9148      5.3037      5.5191      5.5191      5.3038    
  4.9149      4.4207      4.5530      3.8304      3.2261      2.7492      2.3926      2.1452      1.9991      1.9506    
  1.9991      2.1452      2.3926      2.7493      3.2264      3.8308      4.5533      5.3558      6.1636      6.8699    
  7.3571      7.5315      7.3570      6.8698      6.1635      5.3557      5.0787      4.1321      3.3755      2.8023    
  2.3926      2.1279      1.9976      1.9977      2.1279      2.3926      2.8024      3.3758      4.1325      5.0791    
  6.1888      7.3831      8.5252      9.4376      9.9476      9.9475      9.4374      8.5250      7.3830      6.1886    
  5.3722      4.2401      3.3755      2.7491      2.3264      2.0816      2.0013      2.0816      2.3265      2.7493    
  3.3758      4.2405      5.3726      6.7708      8.3726      10.031      11.514      12.554      12.929      12.554    
  11.514      10.030      8.3725      6.7706      5.3722      4.1321      3.2261      2.6009      2.2093      2.0204    
  2.0204      2.2093      2.6011      3.2264      4.1325      5.3726      6.9804      8.9310      11.098      13.227    
  14.964      15.948      15.948      14.963      13.226      11.097      8.9310      6.9803      5.0787      3.8305    
  2.9572      2.3869      2.0654      1.9616      2.0655      2.3871      2.9574      3.8308      5.0791      6.7708    
  8.9310      11.485      14.203      16.692      18.465      19.110      18.465      16.692      14.203      11.485    
  8.9310      6.7706      4.5531      3.3937      2.6173      2.1438      1.9199      1.9200      2.1440      2.6175    
  3.3939      4.5533      6.1888      8.3726      11.098      14.203      17.323      19.910      21.387      21.387    
  19.910      17.323      14.203      11.097      8.3725      6.1886      3.8939      2.8951      2.2576      1.9049    
  1.7922      1.9050      2.2578      2.8953      3.8941      5.3558      7.3831      10.031      13.227      16.692    
  19.910      22.217      23.056      22.217      19.910      16.691      13.226      10.030      7.3830      5.3556    
  3.2038      2.4017      1.9198      1.6944      1.6945      1.9200      2.4019      3.2040      4.4207      6.1636    
  8.5252      11.514      14.964      18.465      21.387      23.056      23.056      21.387      18.464      14.963    
  11.513      8.5251      6.1635      4.4206      2.5632      1.9614      1.6311      1.5262      1.6313      1.9616    
  2.5633      3.5139      4.9148      6.8699      9.4376      12.554      15.948      19.110      21.387      22.217    
  21.387      19.110      15.947      12.553      9.4372      6.8698      4.9148      3.5138      2.0203      1.6001    
  1.4042      1.4043      1.6003      2.0204      2.7210      3.7839      5.3037      7.3571      9.9476      12.929    
  15.948      18.465      19.910      19.910      18.464      15.947      12.929      9.9472      7.3569      5.3036    
  3.7839      2.7210      1.5937      1.3254      1.2401      1.3255      1.5938      2.0816      2.8485      3.9699    
  5.5191      7.5315      9.9475      12.554      14.963      16.692      17.323      16.691      14.963      12.553    
  9.9472      7.5313      5.5190      3.9697      2.8483      2.0814      1.2811      1.1319      1.1319      1.2811    
  1.5999      2.1279      2.9202      4.0364      5.5191      7.3570      9.4374      11.514      13.226      14.203    
  14.203      13.226      11.513      9.4372      7.3569      5.5190      4.0362      2.9199      2.1277      1.5998    
  1.0689      1.0077      1.0688      1.2605      1.6068      2.1452      2.9203      3.9700      5.3038      6.8698    
  8.5250      10.030      11.097      11.485      11.097      10.030      8.5251      6.8698      5.3036      3.9697    
  2.9199      2.1450      1.6067      1.2605     0.93968     0.93961      1.0404      1.2547      1.6068      2.1280    
  2.8487      3.7842      4.9149      6.1635      7.3830      8.3725      8.9310      8.9310      8.3725      7.3830    
  6.1635      4.9148      3.7839      2.8483      2.1277      1.6067      1.2548      1.0405     0.87910     0.91808    
  1.0403      1.2605      1.6000      2.0817      2.7213      3.5140      4.4207      5.3557      6.1886      6.7706    
  6.9803      6.7706      6.1886      5.3556      4.4206      3.5138      2.7210      2.0814      1.5998      1.2605    
  1.0405     0.91824     0.99575      1.0687      1.2007      1.4044      1.6910      2.0655      2.5204      3.0297    
  3.5446      3.9965      4.3089      4.4209      4.3089      3.9965      3.5446      3.0296      2.5203      2.0654    
  1.6910      1.4045      1.2009      1.0689     0.99587     0.97262      1.0687      1.1318      1.2400      1.4041    
  1.6311      1.9199      2.2576      2.6173      2.9572      3.2261      3.3755      3.3755      3.2261      2.9572    
  2.6173      2.2576      1.9198      1.6311      1.4042      1.2401      1.1319      1.0688      1.0404      1.0403    
  1.2007      1.2400      1.3125      1.4274      1.5887      1.7921      2.0239      2.2601      2.4678      2.6116    
  2.6631      2.6115      2.4677      2.2600      2.0239      1.7921      1.5888      1.4276      1.3126      1.2401    
  1.2008      1.1835      1.1789      1.1834      1.4044      1.4041      1.4274      1.4830      1.5735      1.6943    
  1.8335      1.9714      2.0838      2.1473      2.1472      2.0837      1.9713      1.8334      1.6943      1.5736    
  1.4832      1.4276      1.4042      1.4043      1.4156      1.4252      1.4252      1.4156      1.6910      1.6311    
  1.5887      1.5735      1.5887      1.6311      1.6910      1.7532      1.8001      1.8176      1.8000      1.7530    
  1.6909      1.6311      1.5888      1.5737      1.5889      1.6312      1.6909      1.7530      1.8000      1.8176    
  1.8001      1.7531      2.0655      1.9199      1.7921      1.6943      1.6311      1.6003      1.5938      1.6000    
  1.6068      1.6068      1.5999      1.5937      1.6003      1.6313      1.6945      1.7922      1.9199      2.0655    
  2.2093      2.3264      2.3926      2.3926      2.3265      2.2094      2.5204      2.2576      2.0239      1.8335    
  1.6910      1.5938      1.5345      1.5040      1.4948      1.5040      1.5345      1.5939      1.6911      1.8336    
  2.0240      2.2577      2.5204      2.7867      3.0207      3.1828      3.2410      3.1829      3.0208      2.7868    
  3.0297      2.6173      2.2601      1.9714      1.7532      1.6000      1.5040      1.4581      1.4581      1.5041    
  1.6001      1.7533      1.9716      2.2602      2.6174      3.0297      3.4669      3.8801      4.2079      4.3905    
  4.3905      4.2080      3.8802      3.4669      3.5446      2.9572      2.4678      2.0838      1.8001      1.6068    
  1.4948      1.4581      1.4949      1.6070      1.8003      2.0840      2.4679      2.9573      3.5447      4.2006    
  4.8656      5.4517      5.8587      6.0050      5.8587      5.4516      4.8655      4.2005      3.9965      3.2261    
  2.6116      2.1473      1.8176      1.6068      1.5040      1.5041      1.6070      1.8178      2.1475      2.6118    
  3.2263      3.9966      4.9035      5.8864      6.8343      7.5977      8.0269      8.0268      7.5975      6.8341    
  5.8861      4.9033      4.3089      3.3755      2.6631      2.1472      1.8000      1.5999      1.5345      1.6001    
  1.8003      2.1475      2.6633      3.3757      4.3090      5.4659      6.8005      8.1947      9.4534      10.342    
  10.664      10.342      9.4531      8.1944      6.8003      5.4657      4.4209      3.3755      2.6115      2.0837    
  1.7530      1.5937      1.5939      1.7533      2.0840      2.6118      3.3757      4.4210      5.7806      7.4420    
  9.3056      11.156      12.677      13.544      13.544      12.677      11.155      9.3053      7.4418      5.7805    
  4.3089      3.2261      2.4677      1.9713      1.6909      1.6003      1.6911      1.9716      2.4679      3.2263    
  4.3090      5.7806      7.6736      9.9353      12.370      14.620      16.233      16.822      16.233      14.619    
  12.370      9.9351      7.6735      5.7805      3.9965      2.9572      2.2600      1.8334      1.6311      1.6313    
  1.8336      2.2602      2.9573      3.9966      5.4659      7.4420      9.9353      12.812      15.733      18.175    
  19.579      19.579      18.175      15.733      12.812      9.9352      7.4419      5.4658      3.5446      2.6173    
  2.0239      1.6943      1.5888      1.6945      2.0240      2.6174      3.5447      4.9035      6.8005      9.3056    
  12.370      15.733      18.886      21.169      22.007      21.169      18.886      15.732      12.370      9.3055    
  6.8005      4.9034      3.0296      2.2576      1.7921      1.5736      1.5737      1.7922      2.2577      3.0297    
  4.2006      5.8864      8.1947      11.156      14.620      18.175      21.169      22.899      22.899      21.169    
  18.174      14.619      11.155      8.1946      5.8862      4.2004      2.5203      1.9198      1.5888      1.4832    
  1.5889      1.9199      2.5204      3.4669      4.8656      6.8343      9.4534      12.677      16.233      19.579    
  22.007      22.899      22.007      19.579      16.233      12.677      9.4531      6.8341      4.8654      3.4667    
  2.0654      1.6311      1.4276      1.4276      1.6312      2.0655      2.7867      3.8801      5.4517      7.5977    
  10.342      13.544      16.822      19.579      21.169      21.169      19.579      16.822      13.544      10.342    
  7.5974      5.4514      3.8800      2.7866      1.6910      1.4042      1.3126      1.4042      1.6909      2.2093    
  3.0207      4.2079      5.8587      8.0269      10.664      13.544      16.233      18.175      18.886      18.174    
  16.233      13.544      10.664      8.0265      5.8584      4.2077      3.0206      2.2093      1.4045      1.2401    
  1.2401      1.4043      1.7530      2.3264      3.1828      4.3905      6.0050      8.0268      10.342      12.677    
  14.619      15.733      15.732      14.619      12.677      10.342      8.0265      6.0047      4.3902      3.1826    
  2.3263      1.7531      1.2009      1.1319      1.2008      1.4156      1.8000      2.3926      3.2410      4.3905    
  5.8587      7.5975      9.4531      11.155      12.370      12.812      12.370      11.155      9.4531      7.5974    
  5.8584      4.3902      3.2408      2.3925      1.8001      1.4157      1.0689      1.0688      1.1835      1.4252    
  1.8176      2.3926      3.1829      4.2080      5.4516      6.8341      8.1944      9.3053      9.9351      9.9352    
  9.3055      8.1946      6.8341      5.4514      4.2077      3.1826      2.3925      1.8176      1.4253      1.1836    
 0.99587      1.0404      1.1789      1.4252      1.8001      2.3265      3.0208      3.8802      4.8655      5.8861    
  6.8003      7.4418      7.6735      7.4419      6.8005      5.8862      4.8654      3.8800      3.0206      2.3263    
  1.8001      1.4253      1.1791      1.0405     0.97262      1.0403      1.1834      1.4156      1.7531      2.2094    
  2.7868      3.4669      4.2005      4.9033      5.4657      5.7805      5.7805      5.4658      4.9034      4.2004    
  3.4667      2.7866      2.2093      1.7531      1.4157      1.1836      1.0405     0.97271      1.2070      1.2811    
  1.4044      1.5865      1.8335      2.1439      2.5048      2.8886      3.2514      3.5390      3.6991      3.6991    
  3.5390      3.2514      2.8884      2.5047      2.1439      1.8336      1.5867      1.4046      1.2812      1.2071    
  1.1728      1.1728      1.2811      1.3254      1.4041      1.5260      1.6943      1.9049      2.1439      2.3871    
  2.6010      2.7492      2.8023      2.7491      2.6009      2.3870      2.1438      1.9049      1.6945      1.5262    
  1.4043      1.3255      1.2811      1.2604      1.2547      1.2605      1.4044      1.4041      1.4274      1.4830    
  1.5735      1.6943      1.8335      1.9714      2.0838      2.1473      2.1472      2.0837      1.9713      1.8334    
  1.6944      1.5736      1.4832      1.4276      1.4042      1.4043      1.4155      1.4252      1.4252      1.4156    
  1.5865      1.5260      1.4830      1.4675      1.4830      1.5260      1.5865      1.6491      1.6964      1.7140    
  1.6963      1.6490      1.5864      1.5260      1.4832      1.4678      1.4832      1.5260      1.5864      1.6490    
  1.6963      1.7140      1.6964      1.6491      1.8335      1.6943      1.5735      1.4830      1.4274      1.4041    
  1.4044      1.4156      1.4252      1.4252      1.4155      1.4043      1.4042      1.4276      1.4832      1.5736    
  1.6944      1.8334      1.9713      2.0837      2.1472      2.1473      2.0838      1.9714      2.1439      1.9049    
  1.6943      1.5260      1.4041      1.3254      1.2811      1.2605      1.2547      1.2604      1.2811      1.3255    
  1.4043      1.5262      1.6945      1.9049      2.1438      2.3870      2.6009      2.7491      2.8023      2.7492    
  2.6010      2.3871      2.5048      2.1439      1.8335      1.5865      1.4044      1.2811      1.2070      1.1728    
  1.1728      1.2071      1.2812      1.4046      1.5867      1.8336      2.1439      2.5047      2.8884      3.2514    
  3.5390      3.6991      3.6991      3.5390      3.2514      2.8886      2.8886      2.3871      1.9714      1.6491    
  1.4156      1.2605      1.1728      1.1445      1.1729      1.2606      1.4158      1.6494      1.9716      2.3870    
  2.8884      3.4490      4.0170      4.5169      4.8636      4.9881      4.8636      4.5168      4.0170      3.4491    
  3.2514      2.6010      2.0838      1.6964      1.4252      1.2547      1.1728      1.1729      1.2549      1.4254    
  1.6967      2.0840      2.6010      3.2512      4.0168      4.8453      5.6427      6.2836      6.6434      6.6433    
  6.2833      5.6424      4.8452      4.0170      3.5390      2.7492      2.1473      1.7140      1.4252      1.2604    
  1.2071      1.2606      1.4254      1.7143      2.1475      2.7491      3.5388      4.5166      5.6425      6.8159    
  7.8731      8.6184      8.8882      8.6182      7.8727      6.8156      5.6424      4.5168      3.6991      2.8023    
  2.1472      1.6963      1.4155      1.2811      1.2812      1.4158      1.6967      2.1475      2.8023      3.6988    
  4.8633      6.2833      7.8730      9.4482      10.742      11.478      11.478      10.742      9.4479      7.8727    
  6.2833      4.8636      3.6991      2.7491      2.0837      1.6490      1.4043      1.3255      1.4046      1.6494    
  2.0840      2.7491      3.6988      4.9878      6.6432      8.6183      10.742      12.703      14.109      14.622    
  14.109      12.703      10.742      8.6182      6.6433      4.9881      3.5390      2.6009      1.9713      1.5864    
  1.4042      1.4043      1.5867      1.9716      2.6010      3.5388      4.8633      6.6432      8.8882      11.479    
  14.109      16.308      17.573      17.573      16.308      14.109      11.478      8.8882      6.6434      4.8636    
  3.2514      2.3870      1.8334      1.5260      1.4276      1.5262      1.8336      2.3870      3.2512      4.5166    
  6.2833      8.6183      11.479      14.622      17.573      19.710      20.495      19.710      17.573      14.622    
  11.478      8.6184      6.2836      4.5169      2.8884      2.1438      1.6944      1.4832      1.4832      1.6945    
  2.1439      2.8884      4.0168      5.6425      7.8730      10.742      14.109      17.573      20.495      22.184    
  22.184      20.495      17.573      14.109      10.742      7.8731      5.6427      4.0170      2.5047      1.9049    
  1.5736      1.4678      1.5736      1.9049      2.5047      3.4490      4.8453      6.8159      9.4482      12.703    
  16.308      19.710      22.184      23.093      22.184      19.710      16.308      12.703      9.4482      6.8159    
  4.8453      3.4490      2.1439      1.6945      1.4832      1.4832      1.6944      2.1438      2.8884      4.0170    
  5.6427      7.8731      10.742      14.109      17.573      20.495      22.184      22.184      20.495      17.573    
  14.109      10.742      7.8730      5.6425      4.0168      2.8884      1.8336      1.5262      1.4276      1.5260    
  1.8334      2.3870      3.2514      4.5169      6.2836      8.6184      11.478      14.622      17.573      19.710    
  20.495      19.710      17.573      14.622      11.479      8.6183      6.2833      4.5166      3.2512      2.3870    
  1.5867      1.4043      1.4042      1.5864      1.9713      2.6009      3.5390      4.8636      6.6434      8.8882    
  11.478      14.109      16.308      17.573      17.573      16.308      14.109      11.479      8.8882      6.6432    
  4.8633      3.5388      2.6010      1.9716      1.4046      1.3255      1.4043      1.6490      2.0837      2.7491    
  3.6991      4.9881      6.6433      8.6182      10.742      12.703      14.109      14.622      14.109      12.703    
  10.742      8.6183      6.6432      4.9878      3.6988      2.7491      2.0840      1.6494      1.2812      1.2811    
  1.4155      1.6963      2.1472      2.8023      3.6991      4.8636      6.2833      7.8727      9.4479      10.742    
  11.478      11.478      10.742      9.4482      7.8730      6.2833      4.8633      3.6988      2.8023      2.1475    
  1.6967      1.4158      1.2071      1.2604      1.4252      1.7140      2.1473      2.7492      3.5390      4.5168    
  5.6424      6.8156      7.8727      8.6182      8.8882      8.6184      7.8731      6.8159      5.6425      4.5166    
  3.5388      2.7491      2.1475      1.7143      1.4254      1.2606      1.1728      1.2547      1.4252      1.6964    
  2.0838      2.6010      3.2514      4.0170      4.8452      5.6424      6.2833      6.6433      6.6434      6.2836    
  5.6427      4.8453      4.0168      3.2512      2.6010      2.0840      1.6967      1.4254      1.2549      1.1729    
  1.1728      1.2605      1.4156      1.6491      1.9714      2.3871      2.8886      3.4491      4.0170      4.5168    
  4.8636      4.9881      4.8636      4.5169      4.0170      3.4490      2.8884      2.3870      1.9716      1.6494    
  1.4158      1.2606      1.1729      1.1445      1.5345      1.5938      1.6910      1.8335      2.0239      2.2576    
  2.5204      2.7868      3.0208      3.1829      3.2410      3.1828      3.0207      2.7867      2.5204      2.2577    
  2.0240      1.8336      1.6911      1.5939      1.5345      1.5040      1.4948      1.5040      1.5938      1.6003    
  1.6311      1.6943      1.7921      1.9199      2.0655      2.2094      2.3265      2.3926      2.3926      2.3264    
  2.2093      2.0655      1.9199      1.7922      1.6945      1.6313      1.6003      1.5937      1.5999      1.6068    
  1.6068      1.6000      1.6910      1.6311      1.5887      1.5735      1.5887      1.6311      1.6910      1.7531    
  1.8001      1.8176      1.8000      1.7530      1.6909      1.6312      1.5889      1.5737      1.5888      1.6311    
  1.6909      1.7530      1.8000      1.8176      1.8001      1.7532      1.8335      1.6943      1.5735      1.4830    
  1.4274      1.4041      1.4044      1.4156      1.4252      1.4252      1.4156      1.4043      1.4042      1.4276    
  1.4832      1.5736      1.6943      1.8334      1.9713      2.0837      2.1472      2.1473      2.0838      1.9714    
  2.0239      1.7921      1.5887      1.4274      1.3125      1.2400      1.2007      1.1834      1.1789      1.1835    
  1.2008      1.2401      1.3126      1.4276      1.5888      1.7921      2.0239      2.2600      2.4677      2.6115    
  2.6631      2.6116      2.4678      2.2601      2.2576      1.9199      1.6311      1.4041      1.2400      1.1318    
  1.0687      1.0403      1.0404      1.0688      1.1319      1.2401      1.4042      1.6311      1.9198      2.2576    
  2.6173      2.9572      3.2261      3.3755      3.3755      3.2261      2.9572      2.6173      2.5204      2.0655    