    2    2   15    1
  0.2001288E+02  0.3839590E-09  0.3839590E-09  0.3839590E-09  0.5000000E-15
  1.000000000000000E-004
  CAR 
 unknown system                          
      8    182      8
 
  0.4166667E-01  0.4166667E-01  0.4166667E-01  0.1157407E-02
    1       -6.174219   1.000000
    2        5.389987   0.999974
    3        5.611109   0.993475
    4        5.611109   0.993475
    5        8.253038   0.000000
    6        8.267873   0.000000
    7        8.267873   0.000000
    8        8.945969   0.000000
 
  0.1250000E+00  0.4166667E-01  0.4166667E-01  0.3472222E-02
    1       -6.055175   1.000000
    2        4.498135   1.000000
    3        5.193590   1.000000
    4        5.556369   0.997944
    5        8.307174   0.000000
    6        8.384587   0.000000
    7        8.570063   0.000000
    8        9.806762   0.000000
 
  0.2083333E+00  0.4166667E-01  0.4166667E-01  0.3472222E-02
    1       -5.761276   1.000000
    2        3.001871   1.000000
    3        4.827203   1.000000
    4        5.288957   0.999999
    5        8.029894   0.000000
    6        8.772205   0.000000
    7        9.067919   0.000000
    8       11.155357   0.000000
 
  0.2916667E+00  0.4166667E-01  0.4166667E-01  0.3472222E-02
    1       -5.305159   1.000000
    2        1.501662   1.000000
    3        4.533017   1.000000
    4        4.974143   1.000000
    5        7.717334   0.000000
    6        9.067519   0.000000
    7        9.320795   0.000000
    8       12.327092   0.000000
 
  0.3750000E+00  0.4166667E-01  0.4166667E-01  0.3472222E-02
    1       -4.722852   1.000000
    2        0.155030   1.000000
    3        4.338392   1.000000
    4        4.703038   1.000000
    5        7.471720   0.000000
    6        9.117207   0.000000
    7        9.251164   0.000000
    8       13.247972   0.000000
 
  0.4583333E+00  0.4166667E-01  0.4166667E-01  0.3472222E-02
    1       -4.130983   1.000000
    2       -0.883010   1.000000
    3        4.256785   1.000000
    4        4.509451   1.000000
    5        7.325822   0.000000
    6        9.082263   0.000000
    7        9.087397   0.000000
    8       13.467421   0.000000
 
 -0.4583333E+00  0.4166667E-01  0.4166667E-01  0.3472222E-02
    1       -3.905069   1.000000
    2       -1.221368   1.000000
    3        4.284545   1.000000
    4        4.409550   1.000000
    5        7.289895   0.000000
    6        8.985323   0.000000
    7        9.119653   0.000000
    8       13.438105   0.000000
 
 -0.3750000E+00  0.4166667E-01  0.4166667E-01  0.3472222E-02
    1       -4.314033   1.000000
    2       -0.588474   1.000000
    3        4.414150   1.000000
    4        4.415273   1.000000
    5        7.365722   0.000000
    6        8.991328   0.000000
    7        9.244043   0.000000
    8       13.370950   0.000000
 
 -0.2916667E+00  0.4166667E-01  0.4166667E-01  0.3472222E-02
    1       -4.926573   1.000000
    2        0.579227   1.000000
    3        4.528109   1.000000
    4        4.640202   1.000000
    5        7.549903   0.000000
    6        9.030876   0.000000
    7        9.399038   0.000000
    8       12.617025   0.000000
 
 -0.2083333E+00  0.4166667E-01  0.4166667E-01  0.3472222E-02
    1       -5.473699   1.000000
    2        1.990290   1.000000
    3        4.746683   1.000000
    4        4.937486   1.000000
    5        7.820512   0.000000
    6        8.913906   0.000000
    7        9.383421   0.000000
    8       11.785656   0.000000
 
 -0.1250000E+00  0.4166667E-01  0.4166667E-01  0.3472222E-02
    1       -5.878026   1.000000
    2        3.519370   1.000000
    3        5.053005   1.000000
    4        5.261301   1.000000
    5        8.115436   0.000000
    6        8.564882   0.000000
    7        9.043249   0.000000
    8       10.672848   0.000000
 
 -0.4166667E-01  0.4166667E-01  0.4166667E-01  0.3472222E-02
    1       -6.114579   1.000000
    2        4.965188   1.000000
    3        5.387570   0.999976
    4        5.487535   0.999605
    5        8.130639   0.000000
    6        8.447345   0.000000
    7        8.561367   0.000000
    8        9.353094   0.000000
 
  0.1250000E+00  0.1250000E+00  0.4166667E-01  0.3472222E-02
    1       -5.995444   1.000000
    2        4.411363   1.000000
    3        5.045947   1.000000
    4        5.144661   1.000000
    5        7.894734   0.000000
    6        8.869604   0.000000
    7        9.045209   0.000000
    8        9.867532   0.000000
 
  0.2083333E+00  0.1250000E+00  0.4166667E-01  0.6944444E-02
    1       -5.759343   1.000000
    2        3.375672   1.000000
    3        4.462794   1.000000
    4        5.000384   1.000000
    5        7.909035   0.000000
    6        9.034571   0.000000
    7        9.546989   0.000000
    8       10.531514   0.000000
 
  0.2916667E+00  0.1250000E+00  0.4166667E-01  0.6944444E-02
    1       -5.355752   1.000000
    2        1.968572   1.000000
    3        4.081271   1.000000
    4        4.711362   1.000000
    5        8.097221   0.000000
    6        8.996912   0.000000
    7        9.932403   0.000000
    8       10.792876   0.000000
 
  0.3750000E+00  0.1250000E+00  0.4166667E-01  0.6944444E-02
    1       -4.809400   1.000000
    2        0.605753   1.000000
    3        3.819537   1.000000
    4        4.410260   1.000000
    5        8.030679   0.000000
    6        9.023151   0.000000
    7        9.942625   0.000000
    8       11.389022   0.000000
 
  0.4583333E+00  0.1250000E+00  0.4166667E-01  0.6944444E-02
    1       -4.196277   1.000000
    2       -0.540523   1.000000
    3        3.639668   1.000000
    4        4.218819   1.000000
    5        7.913597   0.000000
    6        8.954665   0.000000
    7        9.777451   0.000000
    8       12.507407   0.000000
 
 -0.4583333E+00  0.1250000E+00  0.4166667E-01  0.6944444E-02
    1       -3.785745   1.000000
    2       -1.167156   1.000000
    3        3.516996   1.000000
    4        4.194426   1.000000
    5        7.873181   0.000000
    6        8.915435   0.000000
    7        9.642169   0.000000
    8       13.619158   0.000000
 
 -0.3750000E+00  0.1250000E+00  0.4166667E-01  0.6944444E-02
    1       -4.014232   1.000000
    2       -0.829033   1.000000
    3        3.469611   1.000000
    4        4.327900   1.000000
    5        7.931748   0.000000
    6        8.959576   0.000000
    7        9.618868   0.000000
    8       13.326126   0.000000
 
 -0.2916667E+00  0.1250000E+00  0.4166667E-01  0.6944444E-02
    1       -4.607271   1.000000
    2        0.194619   1.000000
    3        3.531454   1.000000
    4        4.581465   1.000000
    5        8.083342   0.000000
    6        9.037482   0.000000
    7        9.693390   0.000000
    8       12.179217   0.000000
 
 -0.2083333E+00  0.1250000E+00  0.4166667E-01  0.6944444E-02
    1       -5.188797   1.000000
    2        1.499459   1.000000
    3        3.729809   1.000000
    4        4.905634   1.000000
    5        8.297827   0.000000
    6        8.965588   0.000000
    7        9.707449   0.000000
    8       11.329750   0.000000
 
 -0.1250000E+00  0.1250000E+00  0.4166667E-01  0.6944444E-02
    1       -5.643575   1.000000
    2        2.878451   1.000000
    3        4.114198   1.000000
    4        5.220712   1.000000
    5        8.390907   0.000000
    6        8.744734   0.000000
    7        9.372994   0.000000
    8       10.952310   0.000000
 
 -0.4166667E-01  0.1250000E+00  0.4166667E-01  0.6944444E-02
    1       -5.936580   1.000000
    2        3.952778   1.000000
    3        4.849407   1.000000
    4        5.374777   0.999984
    5        8.174793   0.000000
    6        8.597688   0.000000
    7        8.965271   0.000000
    8       10.329119   0.000000
 
  0.2083333E+00  0.2083333E+00  0.4166667E-01  0.3472222E-02
    1       -5.581003   1.000000
    2        3.112743   1.000000
    3        4.296470   1.000000
    4        4.308649   1.000000
    5        7.307096   0.000000
    6        9.659619   0.000000
    7       10.266548   0.000000
    8       10.288443   0.000000
 
  0.2916667E+00  0.2083333E+00  0.4166667E-01  0.6944444E-02
    1       -5.232227   1.000000
    2        2.158590   1.000000
    3        3.717170   1.000000
    4        4.127667   1.000000
    5        7.343108   0.000000
    6        9.322995   0.000000
    7       10.464673   0.000000
    8       10.894612   0.000000
 
  0.3750000E+00  0.2083333E+00  0.4166667E-01  0.6944444E-02
    1       -4.730053   1.000000
    2        0.968625   1.000000
    3        3.264015   1.000000
    4        3.866099   1.000000
    5        7.602330   0.000000
    6        9.545386   0.000000
    7       10.264565   0.000000
    8       11.103872   0.000000
 
  0.4583333E+00  0.2083333E+00  0.4166667E-01  0.6944444E-02
    1       -4.123708   1.000000
    2       -0.167208   1.000000
    3        2.872777   1.000000
    4        3.729719   1.000000
    5        7.675428   0.000000
    6        9.991153   0.000000
    7       10.541611   0.000000
    8       10.983509   0.000000
 
 -0.4583333E+00  0.2083333E+00  0.4166667E-01  0.6944444E-02
    1       -3.590776   1.000000
    2       -0.977194   1.000000
    3        2.566219   1.000000
    4        3.764949   1.000000
    5        7.746660   0.000000
    6        9.775977   0.000000
    7       10.787835   0.000000
    8       11.965937   0.000000
 
 -0.3750000E+00  0.2083333E+00  0.4166667E-01  0.6944444E-02
    1       -3.601370   1.000000
    2       -0.958683   1.000000
    3        2.387918   1.000000
    4        3.952742   1.000000
    5        7.937481   0.000000
    6        9.638852   0.000000
    7       10.653872   0.000000
    8       13.313655   0.000000
 
 -0.2916667E+00  0.2083333E+00  0.4166667E-01  0.6944444E-02
    1       -4.140544   1.000000
    2       -0.135894   1.000000
    3        2.381071   1.000000
    4        4.259925   1.000000
    5        8.238246   0.000000
    6        9.558700   0.000000
    7       10.566020   0.000000
    8       11.953357   0.000000
 
 -0.2083333E+00  0.2083333E+00  0.4166667E-01  0.6944444E-02
    1       -4.744149   1.000000
    2        0.943760   1.000000
    3        2.630058   1.000000
    4        4.633624   1.000000
    5        8.582062   0.000000
    6        9.330187   0.000000
    7       10.386004   0.000000
    8       11.025020   0.000000
 
 -0.1250000E+00  0.2083333E+00  0.4166667E-01  0.6944444E-02
    1       -5.242154   1.000000
    2        1.862803   1.000000
    3        3.345669   1.000000
    4        4.971575   1.000000
    5        8.663922   0.000000
    6        8.893087   0.000000
    7        9.837729   0.000000
    8       10.950046   0.000000
 
 -0.4166667E-01  0.2083333E+00  0.4166667E-01  0.6944444E-02
    1       -5.586806   1.000000
    2        2.479928   1.000000
    3        4.468815   1.000000
    4        5.096732   1.000000
    5        8.133852   0.000000
    6        8.760601   0.000000
    7        9.432852   0.000000
    8       11.263818   0.000000
 
  0.2916667E+00  0.2916667E+00  0.4166667E-01  0.3472222E-02
    1       -4.937923   1.000000
    2        1.696405   1.000000
    3        3.594042   1.000000
    4        3.646342   1.000000
    5        6.778370   0.000000
    6        8.561033   0.000000
    7       11.611857   0.000000
    8       11.688194   0.000000
 
  0.3750000E+00  0.2916667E+00  0.4166667E-01  0.6944444E-02
    1       -4.484353   1.000000
    2        0.859126   1.000000
    3        3.106971   1.000000
    4        3.419697   1.000000
    5        6.894491   0.000000
    6        8.249411   0.000000
    7       11.756676   0.000000
    8       12.368499   0.000000
 
  0.4583333E+00  0.2916667E+00  0.4166667E-01  0.6944444E-02
    1       -3.903031   1.000000
    2       -0.065755   1.000000
    3        2.483436   1.000000
    4        3.292213   1.000000
    5        7.137082   0.000000
    6        8.777630   0.000000
    7       11.536266   0.000000
    8       12.453627   0.000000
 
 -0.4583333E+00  0.2916667E+00  0.4166667E-01  0.6944444E-02
    1       -3.305738   1.000000
    2       -0.873970   1.000000
    3        1.943067   1.000000
    4        3.331358   1.000000
    5        7.250375   0.000000
    6       10.026597   0.000000
    7       11.272671   0.000000
    8       12.284253   0.000000
 
 -0.3750000E+00  0.2916667E+00  0.4166667E-01  0.6944444E-02
    1       -3.106535   1.000000
    2       -1.109297   1.000000
    3        1.610011   1.000000
    4        3.523389   1.000000
    5        7.464142   0.000000
    6       10.952911   0.000000
    7       11.675442   0.000000
    8       12.103625   0.000000
 
 -0.2916667E+00  0.2916667E+00  0.4166667E-01  0.6944444E-02
    1       -3.563330   1.000000
    2       -0.547950   1.000000
    3        1.576277   1.000000
    4        3.842732   1.000000
    5        7.815231   0.000000
    6       10.706420   0.000000
    7       11.746276   0.000000
    8       12.003102   0.000000
 
 -0.2083333E+00  0.2916667E+00  0.4166667E-01  0.6944444E-02
    1       -4.170984   1.000000
    2        0.136899   1.000000
    3        2.022786   1.000000
    4        4.242553   1.000000
    5        8.242323   0.000000
    6        9.956915   0.000000
    7       11.031817   0.000000
    8       11.390039   0.000000
 
 -0.1250000E+00  0.2916667E+00  0.4166667E-01  0.6944444E-02
    1       -4.697785   1.000000
    2        0.618593   1.000000
    3        3.012003   1.000000
    4        4.617860   1.000000
    5        8.426268   0.000000
    6        9.155986   0.000000
    7       10.042762   0.000000
    8       11.518369   0.000000
 
 -0.4166667E-01  0.2916667E+00  0.4166667E-01  0.6944444E-02
    1       -5.082960   1.000000
    2        1.037721   1.000000
    3        4.200604   1.000000
    4        4.778497   1.000000
    5        7.878998   0.000000
    6        8.982648   0.000000
    7        9.558189   0.000000
    8       11.918281   0.000000
 
  0.3750000E+00  0.3750000E+00  0.4166667E-01  0.3472222E-02
    1       -4.078722   1.000000
    2        0.258130   1.000000
    3        3.084950   1.000000
    4        3.173754   1.000000
    5        6.439183   0.000372
    6        7.523222   0.000000
    7       13.129869   0.000000
    8       13.169215   0.000000
 
  0.4583333E+00  0.3750000E+00  0.4166667E-01  0.6944444E-02
    1       -3.532972   1.000000
    2       -0.481125   1.000000
    3        2.691807   1.000000
    4        2.976407   1.000000
    5        6.650147   0.000001
    6        7.425168   0.000000
    7       13.171946   0.000000
    8       13.909432   0.000000
 
 -0.4583333E+00  0.3750000E+00  0.4166667E-01  0.6944444E-02
    1       -2.913705   1.000000
    2       -1.177092   1.000000
    3        1.993126   1.000000
    4        2.992329   1.000000
    5        6.842997   0.000000
    6        8.332140   0.000000
    7       12.915834   0.000000
    8       13.916690   0.000000
 
 -0.3750000E+00  0.3750000E+00  0.4166667E-01  0.6944444E-02
    1       -2.576387   1.000000
    2       -1.498417   1.000000
    3        1.457943   1.000000
    4        3.165213   1.000000
    5        7.048252   0.000000
    6        9.811514   0.000000
    7       12.585071   0.000000
    8       13.400011   0.000000
 
 -0.2916667E+00  0.3750000E+00  0.4166667E-01  0.6944444E-02
    1       -2.994622   1.000000
    2       -1.099356   1.000000
    3        1.359928   1.000000
    4        3.474016   1.000000
    5        7.399325   0.000000
    6       11.362850   0.000000
    7       11.793068   0.000000
    8       12.538931   0.000000
 
 -0.2083333E+00  0.3750000E+00  0.4166667E-01  0.6944444E-02
    1       -3.572315   1.000000
    2       -0.731263   1.000000
    3        1.892155   1.000000
    4        3.879918   1.000000
    5        7.859869   0.000000
    6       10.195111   0.000000
    7       11.254998   0.000000
    8       12.579095   0.000000
 
 -0.1250000E+00  0.3750000E+00  0.4166667E-01  0.6944444E-02
    1       -4.084635   1.000000
    2       -0.495216   1.000000
    3        2.906001   1.000000
    4        4.290454   1.000000
    5        8.173483   0.000000
    6        9.158703   0.000000
    7       10.057094   0.000000
    8       12.658694   0.000000
 
 -0.4166667E-01  0.3750000E+00  0.4166667E-01  0.6944444E-02
    1       -4.476771   1.000000
    2       -0.221005   1.000000
    3        4.041980   1.000000
    4        4.517063   1.000000
    5        7.674469   0.000000
    6        8.987007   0.000000
    7        9.432320   0.000000
    8       12.882569   0.000000
 
  0.4583333E+00  0.4583333E+00  0.4166667E-01  0.3472222E-02
    1       -3.022646   1.000000
    2       -1.136187   1.000000
    3        2.799458   1.000000
    4        2.904973   1.000000
    5        6.349235   0.003101
    6        6.813161   0.000000
    7       14.671838   0.000000
    8       14.682960   0.000000
 
 -0.4583333E+00  0.4583333E+00  0.4166667E-01  0.6944444E-02
    1       -2.407129   1.000000
    2       -1.785995   1.000000
    3        2.508421   1.000000
    4        2.790759   1.000000
    5        6.607962   0.000002
    6        6.996002   0.000000
    7       14.629135   0.000000
    8       15.143342   0.000000
 
 -0.3750000E+00  0.4583333E+00  0.4166667E-01  0.6944444E-02
    1       -2.401415   1.000000
    2       -1.716876   1.000000
    3        1.893542   1.000000
    4        2.933675   1.000000
    5        6.783751   0.000000
    6        8.241797   0.000000
    7       13.612380   0.000000
    8       14.313687   0.000000
 
 -0.2916667E+00  0.4583333E+00  0.4166667E-01  0.6944444E-02
    1       -2.894620   1.000000
    2       -1.219156   1.000000
    3        1.625680   1.000000
    4        3.220340   1.000000
    5        7.116330   0.000000
    6        9.884866   0.000000
    7       11.935715   0.000000
    8       12.987358   0.000000
 
 -0.2083333E+00  0.4583333E+00  0.4166667E-01  0.6944444E-02
    1       -3.315829   1.000000
    2       -1.080191   1.000000
    3        2.038576   1.000000
    4        3.620246   1.000000
    5        7.586334   0.000000
    6       10.359554   0.000000
    7       11.408264   0.000000
    8       11.802574   0.000000
 
 -0.1250000E+00  0.4583333E+00  0.4166667E-01  0.6944444E-02
    1       -3.668467   1.000000
    2       -1.121584   1.000000
    3        2.956244   1.000000
    4        4.057789   1.000000
    5        7.988886   0.000000
    6        9.163728   0.000000
    7       10.101434   0.000000
    8       13.632193   0.000000
 
 -0.4166667E-01  0.4583333E+00  0.4166667E-01  0.6944444E-02
    1       -3.947046   1.000000
    2       -1.083208   1.000000
    3        3.977756   1.000000
    4        4.364991   1.000000
    5        7.566291   0.000000
    6        8.944409   0.000000
    7        9.299876   0.000000
    8       13.537768   0.000000
 
 -0.4583333E+00 -0.4583333E+00  0.4166667E-01  0.3472222E-02
    1       -2.429727   1.000000
    2       -1.798886   1.000000
    3        2.742036   1.000000
    4        2.850846   1.000000
    5        6.399158   0.001001
    6        6.597300   0.000004
    7       15.328911   0.000000
    8       15.372954   0.000000
 
 -0.3750000E+00 -0.4583333E+00  0.4166667E-01  0.6944444E-02
    1       -2.989281   1.000000
    2       -1.143149   1.000000
    3        2.569684   1.000000
    4        2.852504   1.000000
    5        6.610210   0.000002
    6        7.152221   0.000000
    7       13.906475   0.000000
    8       14.667575   0.000000
 
 -0.2916667E+00 -0.4583333E+00  0.4166667E-01  0.6944444E-02
    1       -3.424751   1.000000
    2       -0.614760   1.000000
    3        2.191443   1.000000
    4        3.110437   1.000000
    5        6.962233   0.000000
    6        8.508860   0.000000
    7       12.213218   0.000000
    8       13.183109   0.000000
 
 -0.2083333E+00 -0.4583333E+00  0.4166667E-01  0.6944444E-02
    1       -3.725029   1.000000
    2       -0.523504   1.000000
    3        2.375585   1.000000
    4        3.498826   1.000000
    5        7.440545   0.000000
    6       10.235695   0.000000
    7       10.630658   0.000000
    8       11.603665   0.000000
 
 -0.1250000E+00 -0.4583333E+00  0.4166667E-01  0.6944444E-02
    1       -3.894196   1.000000
    2       -0.795047   1.000000
    3        3.124727   1.000000
    4        3.961864   1.000000
    5        7.904457   0.000000
    6        9.260821   0.000000
    7       10.235366   0.000000
    8       12.203428   0.000000
 
 -0.3750000E+00 -0.3750000E+00  0.4166667E-01  0.3472222E-02
    1       -3.573711   1.000000
    2       -0.448304   1.000000
    3        2.913952   1.000000
    4        3.012572   1.000000
    5        6.360164   0.002445
    6        7.124460   0.000000
    7       13.906767   0.000000
    8       13.921991   0.000000
 
 -0.2916667E+00 -0.3750000E+00  0.4166667E-01  0.6944444E-02
    1       -4.032757   1.000000
    2        0.189509   1.000000
    3        2.872035   1.000000
    4        3.164450   1.000000
    5        6.742981   0.000000
    6        7.793313   0.000000
    7       12.452844   0.000000
    8       13.133047   0.000000
 
 -0.2083333E+00 -0.3750000E+00  0.4166667E-01  0.6944444E-02
    1       -4.340107   1.000000
    2        0.461041   1.000000
    3        2.851943   1.000000
    4        3.540505   1.000000
    5        7.353110   0.000000
    6        9.131993   0.000000
    7       10.877220   0.000000
    8       11.757920   0.000000
 
 -0.1250000E+00 -0.3750000E+00  0.4166667E-01  0.6944444E-02
    1       -4.487955   1.000000
    2        0.205872   1.000000
    3        3.373744   1.000000
    4        4.033758   1.000000
    5        7.911037   0.000000
    6        9.426032   0.000000
    7       10.408762   0.000000
    8       10.936889   0.000000
 
 -0.2916667E+00 -0.2916667E+00  0.4166667E-01  0.3472222E-02
    1       -4.534324   1.000000
    2        0.975570   1.000000
    3        3.311660   1.000000
    4        3.386038   1.000000
    5        6.580148   0.000006
    6        8.005791   0.000000
    7       12.362415   0.000000
    8       12.417618   0.000000
 
 -0.2083333E+00 -0.2916667E+00  0.4166667E-01  0.6944444E-02
    1       -4.885000   1.000000
    2        1.517560   1.000000
    3        3.390434   1.000000
    4        3.741788   1.000000
    5        7.095743   0.000000
    6        8.777108   0.000000
    7       11.082506   0.000000
    8       11.621472   0.000000
 
 -0.1250000E+00 -0.2916667E+00  0.4166667E-01  0.6944444E-02
    1       -5.069512   1.000000
    2        1.467279   1.000000
    3        3.679238   1.000000
    4        4.269221   1.000000
    5        7.866779   0.000000
    6        9.487803   0.000000
    7       10.223653   0.000000
    8       10.510322   0.000000
 
 -0.2083333E+00 -0.2083333E+00  0.4166667E-01  0.3472222E-02
    1       -5.287376   1.000000
    2        2.411545   1.000000
    3        3.927336   1.000000
    4        3.951635   1.000000
    5        7.024721   0.000000
    6        9.155597   0.000000
    7       10.894755   0.000000
    8       10.978587   0.000000
 
 -0.1250000E+00 -0.2083333E+00  0.4166667E-01  0.6944444E-02
    1       -5.524175   1.000000
    2        2.777740   1.000000
    3        4.078157   1.000000
    4        4.559805   1.000000
    5        7.620051   0.000000
    6        9.488060   0.000000
    7       10.198510   0.000000
    8       10.265939   0.000000
 
 -0.1250000E+00 -0.1250000E+00  0.4166667E-01  0.3472222E-02
    1       -5.817348   1.000000
    2        3.785097   1.000000
    3        4.668111   1.000000
    4        4.725092   1.000000
    5        7.606098   0.000000
    6        9.412286   0.000000
    7        9.633926   0.000000
    8       10.152634   0.000000
 
  0.1250000E+00  0.1250000E+00  0.1250000E+00  0.1157407E-02
    1       -5.996054   1.000000
    2        4.048210   1.000000
    3        5.361912   0.999989
    4        5.361912   0.999989
    5        8.094203   0.000000
    6        8.630644   0.000000
    7        8.630644   0.000000
    8       10.176302   0.000000
 
  0.2083333E+00  0.1250000E+00  0.1250000E+00  0.3472222E-02
    1       -5.819086   1.000000
    2        3.423225   1.000000
    3        4.502155   1.000000
    4        5.433322   0.999908
    5        8.441410   0.000000
    6        8.618546   0.000000
    7        8.892069   0.000000
    8       10.826844   0.000000
 
  0.2916667E+00  0.1250000E+00  0.1250000E+00  0.3472222E-02
    1       -5.470817   1.000000
    2        2.368628   1.000000
    3        3.725578   1.000000
    4        5.219951   1.000000
    5        8.571106   0.000000
    6        8.971072   0.000000
    7        9.264919   0.000000
    8       11.270656   0.000000
 
  0.3750000E+00  0.1250000E+00  0.1250000E+00  0.3472222E-02
    1       -4.968669   1.000000
    2        1.046378   1.000000
    3        3.365833   1.000000
    4        4.877157   1.000000
    5        8.312918   0.000000
    6        9.328439   0.000000
    7        9.512879   0.000000
    8       11.882641   0.000000
 
  0.4583333E+00  0.1250000E+00  0.1250000E+00  0.3472222E-02
    1       -4.362938   1.000000
    2       -0.175409   1.000000
    3        3.222173   1.000000
    4        4.538924   1.000000
    5        8.068720   0.000000
    6        9.375285   0.000000
    7        9.494881   0.000000
    8       12.960122   0.000000
 
 -0.4583333E+00  0.1250000E+00  0.1250000E+00  0.3472222E-02
    1       -3.830426   1.000000
    2       -1.029901   1.000000
    3        3.236518   1.000000
    4        4.268711   1.000000
    5        7.895859   0.000000
    6        9.213260   0.000000
    7        9.605042   0.000000
    8       13.836588   0.000000
 
 -0.3750000E+00  0.1250000E+00  0.1250000E+00  0.3472222E-02
    1       -3.827561   1.000000
    2       -1.035418   1.000000
    3        3.386601   1.000000
    4        4.100867   1.000000
    5        7.820770   0.000000
    6        9.160816   0.000000
    7        9.778036   0.000000
    8       12.997206   0.000000
 
 -0.2916667E+00  0.1250000E+00  0.1250000E+00  0.3472222E-02
    1       -4.358278   1.000000
    2       -0.186518   1.000000
    3        3.654641   1.000000
    4        4.054365   1.000000
    5        7.850719   0.000000
    6        9.216202   0.000000
    7       10.014862   0.000000
    8       11.684168   0.000000
 
 -0.2083333E+00  0.1250000E+00  0.1250000E+00  0.3472222E-02
    1       -4.964515   1.000000
    2        1.041906   1.000000
    3        4.014632   1.000000
    4        4.137930   1.000000
    5        7.914152   0.000000
    6        9.283011   0.000000
    7       10.192134   0.000000
    8       10.718676   0.000000
 
 -0.1250000E+00  0.1250000E+00  0.1250000E+00  0.3472222E-02
    1       -5.467906   1.000000
    2        2.425447   1.000000
    3        4.349400   1.000000
    4        4.413323   1.000000
    5        7.803819   0.000000
    6        9.280972   0.000000
    7       10.102653   0.000000
    8       10.427579   0.000000
 
  0.2083333E+00  0.2083333E+00  0.1250000E+00  0.3472222E-02
    1       -5.701713   1.000000
    2        2.974541   1.000000
    3        4.701118   1.000000
    4        4.898095   1.000000
    5        8.051952   0.000000
    6        8.781368   0.000000
    7        9.546811   0.000000
    8       10.818881   0.000000
 
  0.2916667E+00  0.2083333E+00  0.1250000E+00  0.6944444E-02
    1       -5.410936   1.000000
    2        2.331915   1.000000
    3        3.729880   1.000000
    4        4.827358   1.000000
    5        8.142504   0.000000
    6        9.120260   0.000000
    7       10.038473   0.000000
    8       10.513636   0.000000
 
  0.3750000E+00  0.2083333E+00  0.1250000E+00  0.6944444E-02
    1       -4.959123   1.000000
    2        1.365601   1.000000
    3        2.996847   1.000000
    4        4.556079   1.000000
    5        8.543644   0.000000
    6        9.090086   0.000000
    7       10.357112   0.000000
    8       10.611648   0.000000
 
  0.4583333E+00  0.2083333E+00  0.1250000E+00  0.6944444E-02
    1       -4.379665   1.000000
    2        0.217079   1.000000
    3        2.678654   1.000000
    4        4.206949   1.000000
    5        8.616151   0.000000
    6        8.973698   0.000000
    7       10.704183   0.000000
    8       11.125278   0.000000
 
 -0.4583333E+00  0.2083333E+00  0.1250000E+00  0.6944444E-02
    1       -3.784151   1.000000
    2       -0.756757   1.000000
    3        2.585035   1.000000
    4        3.924389   1.000000
    5        8.430848   0.000000
    6        8.925372   0.000000
    7       10.768050   0.000000
    8       12.344488   0.000000
 
 -0.3750000E+00  0.2083333E+00  0.1250000E+00  0.6944444E-02
    1       -3.549766   1.000000
    2       -1.091873   1.000000
    3        2.625800   1.000000
    4        3.786706   1.000000
    5        8.250660   0.000000
    6        9.021965   0.000000
    7       10.797637   0.000000
    8       12.890429   0.000000
 
 -0.2916667E+00  0.2083333E+00  0.1250000E+00  0.6944444E-02
    1       -3.964033   1.000000
    2       -0.484855   1.000000
    3        2.759113   1.000000
    4        3.834544   1.000000
    5        8.156857   0.000000
    6        9.240376   0.000000
    7       10.865782   0.000000
    8       11.423457   0.000000
 
 -0.2083333E+00  0.2083333E+00  0.1250000E+00  0.6944444E-02
    1       -4.577889   1.000000
    2        0.592744   1.000000
    3        2.985760   1.000000
    4        4.057580   1.000000
    5        8.104566   0.000000
    6        9.505636   0.000000
    7       10.246891   0.000000
    8       10.973974   0.000000
 
 -0.1250000E+00  0.2083333E+00  0.1250000E+00  0.6944444E-02
    1       -5.122438   1.000000
    2        1.782021   1.000000
    3        3.374716   1.000000
    4        4.365073   1.000000
    5        7.881388   0.000000
    6        9.487646   0.000000
    7       10.049818   0.000000
    8       10.767773   0.000000
 