<?xml version="1.0" encoding="ISO-8859-1"?>
<modeling>
 <generator>
  <i name="program" type="string">vasp </i>
  <i name="version" type="string">5.4.4.18Apr17-6-g9f103f2a35  </i>
  <i name="subversion" type="string">(build Dec 09 2018 21:25:21) complex            parallel </i>
  <i name="platform" type="string">IFC18.0.1.163_CrayMPICH7.7.0_MKL18.0.1.163 </i>
  <i name="date" type="string">2019 03 20 </i>
  <i name="time" type="string">09:45:56 </i>
 </generator>
 <incar>
  <i type="string" name="PREC">normal</i>
  <i type="int" name="IBRION">     2</i>
  <i name="EDIFF">      0.00040000</i>
  <i name="EDIFFG">     -0.01000000</i>
  <i type="int" name="NSW">    15</i>
  <i type="int" name="ISIF">     3</i>
  <i name="ENCUT">    200.00000000</i>
  <i type="int" name="NBANDS">     8</i>
  <i type="logical" name="LREAL"> F  </i>
  <i type="int" name="ISMEAR">     0</i>
  <i name="SIGMA">      0.20000000</i>
  <v type="int" name="KPOINT_BSE">    -1     0     0     0</v>
 </incar>
 <structure name="primitive_cell" >
  <crystal>
   <varray name="basis" >
    <v>       0.00000000       2.71500000       2.71500000 </v>
    <v>       2.71500000       0.00000000       2.71500000 </v>
    <v>       2.71500000       2.71500000       0.00000000 </v>
   </varray>
   <i name="volume">     40.02575175 </i>
   <varray name="rec_basis" >
    <v>      -0.18416206       0.18416206       0.18416206 </v>
    <v>       0.18416206      -0.18416206       0.18416206 </v>
    <v>       0.18416206       0.18416206      -0.18416206 </v>
   </varray>
  </crystal>
  <varray name="positions" >
   <v>      -0.50000000      -0.50000000      -0.50000000 </v>
   <v>      -0.25000000      -0.25000000      -0.25000000 </v>
  </varray>
 </structure>
 <varray name="primitive_index" >
  <v type="int" >        1 </v>
  <v type="int" >        2 </v>
 </varray>
 <kpoints>
  <generation param="Monkhorst-Pack">
   <v type="int" name="divisions">      12       12       12 </v>
   <v name="usershift">      0.00000000       0.00000000       0.00000000 </v>
   <v name="genvec1">      0.08333333      -0.00000000       0.00000000 </v>
   <v name="genvec2">     -0.00000000       0.08333333      -0.00000000 </v>
   <v name="genvec3">      0.00000000       0.00000000       0.08333333 </v>
   <v name="shift">      0.50000000       0.50000000       0.50000000 </v>
  </generation>
  <varray name="kpointlist" >
   <v>       0.04166667       0.04166667       0.04166667 </v>
   <v>       0.12500000       0.04166667       0.04166667 </v>
   <v>       0.20833333       0.04166667       0.04166667 </v>
   <v>       0.29166667       0.04166667       0.04166667 </v>
   <v>       0.37500000       0.04166667       0.04166667 </v>
   <v>       0.45833333       0.04166667       0.04166667 </v>
   <v>      -0.45833333       0.04166667       0.04166667 </v>
   <v>      -0.37500000       0.04166667       0.04166667 </v>
   <v>      -0.29166667       0.04166667       0.04166667 </v>
   <v>      -0.20833333       0.04166667       0.04166667 </v>
   <v>      -0.12500000       0.04166667       0.04166667 </v>
   <v>      -0.04166667       0.04166667       0.04166667 </v>
   <v>       0.12500000       0.12500000       0.04166667 </v>
   <v>       0.20833333       0.12500000       0.04166667 </v>
   <v>       0.29166667       0.12500000       0.04166667 </v>
   <v>       0.37500000       0.12500000       0.04166667 </v>
   <v>       0.45833333       0.12500000       0.04166667 </v>
   <v>      -0.45833333       0.12500000       0.04166667 </v>
   <v>      -0.37500000       0.12500000       0.04166667 </v>
   <v>      -0.29166667       0.12500000       0.04166667 </v>
   <v>      -0.20833333       0.12500000       0.04166667 </v>
   <v>      -0.12500000       0.12500000       0.04166667 </v>
   <v>      -0.04166667       0.12500000       0.04166667 </v>
   <v>       0.20833333       0.20833333       0.04166667 </v>
   <v>       0.29166667       0.20833333       0.04166667 </v>
   <v>       0.37500000       0.20833333       0.04166667 </v>
   <v>       0.45833333       0.20833333       0.04166667 </v>
   <v>      -0.45833333       0.20833333       0.04166667 </v>
   <v>      -0.37500000       0.20833333       0.04166667 </v>
   <v>      -0.29166667       0.20833333       0.04166667 </v>
   <v>      -0.20833333       0.20833333       0.04166667 </v>
   <v>      -0.12500000       0.20833333       0.04166667 </v>
   <v>      -0.04166667       0.20833333       0.04166667 </v>
   <v>       0.29166667       0.29166667       0.04166667 </v>
   <v>       0.37500000       0.29166667       0.04166667 </v>
   <v>       0.45833333       0.29166667       0.04166667 </v>
   <v>      -0.45833333       0.29166667       0.04166667 </v>
   <v>      -0.37500000       0.29166667       0.04166667 </v>
   <v>      -0.29166667       0.29166667       0.04166667 </v>
   <v>      -0.20833333       0.29166667       0.04166667 </v>
   <v>      -0.12500000       0.29166667       0.04166667 </v>
   <v>      -0.04166667       0.29166667       0.04166667 </v>
   <v>       0.37500000       0.37500000       0.04166667 </v>
   <v>       0.45833333       0.37500000       0.04166667 </v>
   <v>      -0.45833333       0.37500000       0.04166667 </v>
   <v>      -0.37500000       0.37500000       0.04166667 </v>
   <v>      -0.29166667       0.37500000       0.04166667 </v>
   <v>      -0.20833333       0.37500000       0.04166667 </v>
   <v>      -0.12500000       0.37500000       0.04166667 </v>
   <v>      -0.04166667       0.37500000       0.04166667 </v>
   <v>       0.45833333       0.45833333       0.04166667 </v>
   <v>      -0.45833333       0.45833333       0.04166667 </v>
   <v>      -0.37500000       0.45833333       0.04166667 </v>
   <v>      -0.29166667       0.45833333       0.04166667 </v>
   <v>      -0.20833333       0.45833333       0.04166667 </v>
   <v>      -0.12500000       0.45833333       0.04166667 </v>
   <v>      -0.04166667       0.45833333       0.04166667 </v>
   <v>      -0.45833333      -0.45833333       0.04166667 </v>
   <v>      -0.37500000      -0.45833333       0.04166667 </v>
   <v>      -0.29166667      -0.45833333       0.04166667 </v>
   <v>      -0.20833333      -0.45833333       0.04166667 </v>
   <v>      -0.12500000      -0.45833333       0.04166667 </v>
   <v>      -0.37500000      -0.37500000       0.04166667 </v>
   <v>      -0.29166667      -0.37500000       0.04166667 </v>
   <v>      -0.20833333      -0.37500000       0.04166667 </v>
   <v>      -0.12500000      -0.37500000       0.04166667 </v>
   <v>      -0.29166667      -0.29166667       0.04166667 </v>
   <v>      -0.20833333      -0.29166667       0.04166667 </v>
   <v>      -0.12500000      -0.29166667       0.04166667 </v>
   <v>      -0.20833333      -0.20833333       0.04166667 </v>
   <v>      -0.12500000      -0.20833333       0.04166667 </v>
   <v>      -0.12500000      -0.12500000       0.04166667 </v>
   <v>       0.12500000       0.12500000       0.12500000 </v>
   <v>       0.20833333       0.12500000       0.12500000 </v>
   <v>       0.29166667       0.12500000       0.12500000 </v>
   <v>       0.37500000       0.12500000       0.12500000 </v>
   <v>       0.45833333       0.12500000       0.12500000 </v>
   <v>      -0.45833333       0.12500000       0.12500000 </v>
   <v>      -0.37500000       0.12500000       0.12500000 </v>
   <v>      -0.29166667       0.12500000       0.12500000 </v>
   <v>      -0.20833333       0.12500000       0.12500000 </v>
   <v>      -0.12500000       0.12500000       0.12500000 </v>
   <v>       0.20833333       0.20833333       0.12500000 </v>
   <v>       0.29166667       0.20833333       0.12500000 </v>
   <v>       0.37500000       0.20833333       0.12500000 </v>
   <v>       0.45833333       0.20833333       0.12500000 </v>
   <v>      -0.45833333       0.20833333       0.12500000 </v>
   <v>      -0.37500000       0.20833333       0.12500000 </v>
   <v>      -0.29166667       0.20833333       0.12500000 </v>
   <v>      -0.20833333       0.20833333       0.12500000 </v>
   <v>      -0.12500000       0.20833333       0.12500000 </v>
   <v>       0.29166667       0.29166667       0.12500000 </v>
   <v>       0.37500000       0.29166667       0.12500000 </v>
   <v>       0.45833333       0.29166667       0.12500000 </v>
   <v>      -0.45833333       0.29166667       0.12500000 </v>
   <v>      -0.37500000       0.29166667       0.12500000 </v>
   <v>      -0.29166667       0.29166667       0.12500000 </v>
   <v>      -0.20833333       0.29166667       0.12500000 </v>
   <v>      -0.12500000       0.29166667       0.12500000 </v>
   <v>       0.37500000       0.37500000       0.12500000 </v>
   <v>       0.45833333       0.37500000       0.12500000 </v>
   <v>      -0.45833333       0.37500000       0.12500000 </v>
   <v>      -0.37500000       0.37500000       0.12500000 </v>
   <v>      -0.29166667       0.37500000       0.12500000 </v>
   <v>      -0.20833333       0.37500000       0.12500000 </v>
   <v>      -0.12500000       0.37500000       0.12500000 </v>
   <v>       0.45833333       0.45833333       0.12500000 </v>
   <v>      -0.45833333       0.45833333       0.12500000 </v>
   <v>      -0.37500000       0.45833333       0.12500000 </v>
   <v>      -0.29166667       0.45833333       0.12500000 </v>
   <v>      -0.20833333       0.45833333       0.12500000 </v>
   <v>      -0.12500000       0.45833333       0.12500000 </v>
   <v>      -0.45833333      -0.45833333       0.12500000 </v>
   <v>      -0.37500000      -0.45833333       0.12500000 </v>
   <v>      -0.29166667      -0.45833333       0.12500000 </v>
   <v>      -0.20833333      -0.45833333       0.12500000 </v>
   <v>      -0.37500000      -0.37500000       0.12500000 </v>
   <v>      -0.29166667      -0.37500000       0.12500000 </v>
   <v>      -0.20833333      -0.37500000       0.12500000 </v>
   <v>      -0.29166667      -0.29166667       0.12500000 </v>
   <v>      -0.20833333      -0.29166667       0.12500000 </v>
   <v>      -0.20833333      -0.20833333       0.12500000 </v>
   <v>       0.20833333       0.20833333       0.20833333 </v>
   <v>       0.29166667       0.20833333       0.20833333 </v>
   <v>       0.37500000       0.20833333       0.20833333 </v>
   <v>       0.45833333       0.20833333       0.20833333 </v>
   <v>      -0.45833333       0.20833333       0.20833333 </v>
   <v>      -0.37500000       0.20833333       0.20833333 </v>
   <v>      -0.29166667       0.20833333       0.20833333 </v>
   <v>      -0.20833333       0.20833333       0.20833333 </v>
   <v>       0.29166667       0.29166667       0.20833333 </v>
   <v>       0.37500000       0.29166667       0.20833333 </v>
   <v>       0.45833333       0.29166667       0.20833333 </v>
   <v>      -0.45833333       0.29166667       0.20833333 </v>
   <v>      -0.37500000       0.29166667       0.20833333 </v>
   <v>      -0.29166667       0.29166667       0.20833333 </v>
   <v>      -0.20833333       0.29166667       0.20833333 </v>
   <v>       0.37500000       0.37500000       0.20833333 </v>
   <v>       0.45833333       0.37500000       0.20833333 </v>
   <v>      -0.45833333       0.37500000       0.20833333 </v>
   <v>      -0.37500000       0.37500000       0.20833333 </v>
   <v>      -0.29166667       0.37500000       0.20833333 </v>
   <v>      -0.20833333       0.37500000       0.20833333 </v>
   <v>       0.45833333       0.45833333       0.20833333 </v>
   <v>      -0.45833333       0.45833333       0.20833333 </v>
   <v>      -0.37500000       0.45833333       0.20833333 </v>
   <v>      -0.29166667       0.45833333       0.20833333 </v>
   <v>      -0.20833333       0.45833333       0.20833333 </v>
   <v>      -0.45833333      -0.45833333       0.20833333 </v>
   <v>      -0.37500000      -0.45833333       0.20833333 </v>
   <v>      -0.29166667      -0.45833333       0.20833333 </v>
   <v>      -0.37500000      -0.37500000       0.20833333 </v>
   <v>      -0.29166667      -0.37500000       0.20833333 </v>
   <v>      -0.29166667      -0.29166667       0.20833333 </v>
   <v>       0.29166667       0.29166667       0.29166667 </v>
   <v>       0.37500000       0.29166667       0.29166667 </v>
   <v>       0.45833333       0.29166667       0.29166667 </v>
   <v>      -0.45833333       0.29166667       0.29166667 </v>
   <v>      -0.37500000       0.29166667       0.29166667 </v>
   <v>      -0.29166667       0.29166667       0.29166667 </v>
   <v>       0.37500000       0.37500000       0.29166667 </v>
   <v>       0.45833333       0.37500000       0.29166667 </v>
   <v>      -0.45833333       0.37500000       0.29166667 </v>
   <v>      -0.37500000       0.37500000       0.29166667 </v>
   <v>      -0.29166667       0.37500000       0.29166667 </v>
   <v>       0.45833333       0.45833333       0.29166667 </v>
   <v>      -0.45833333       0.45833333       0.29166667 </v>
   <v>      -0.37500000       0.45833333       0.29166667 </v>
   <v>      -0.29166667       0.45833333       0.29166667 </v>
   <v>      -0.45833333      -0.45833333       0.29166667 </v>
   <v>      -0.37500000      -0.45833333       0.29166667 </v>
   <v>      -0.37500000      -0.37500000       0.29166667 </v>
   <v>       0.37500000       0.37500000       0.37500000 </v>
   <v>       0.45833333       0.37500000       0.37500000 </v>
   <v>      -0.45833333       0.37500000       0.37500000 </v>
   <v>      -0.37500000       0.37500000       0.37500000 </v>
   <v>       0.45833333       0.45833333       0.37500000 </v>
   <v>      -0.45833333       0.45833333       0.37500000 </v>
   <v>      -0.37500000       0.45833333       0.37500000 </v>
   <v>      -0.45833333      -0.45833333       0.37500000 </v>
   <v>       0.45833333       0.45833333       0.45833333 </v>
   <v>      -0.45833333       0.45833333       0.45833333 </v>
  </varray>
  <varray name="weights" >
   <v>       0.00115741 </v>
   <v>       0.00347222 </v>
   <v>       0.00347222 </v>
   <v>       0.00347222 </v>
   <v>       0.00347222 </v>
   <v>       0.00347222 </v>
   <v>       0.00347222 </v>
   <v>       0.00347222 </v>
   <v>       0.00347222 </v>
   <v>       0.00347222 </v>
   <v>       0.00347222 </v>
   <v>       0.00347222 </v>
   <v>       0.00347222 </v>
   <v>       0.00694444 </v>
   <v>       0.00694444 </v>
   <v>       0.00694444 </v>
   <v>       0.00694444 </v>
   <v>       0.00694444 </v>
   <v>       0.00694444 </v>
   <v>       0.00694444 </v>
   <v>       0.00694444 </v>
   <v>       0.00694444 </v>
   <v>       0.00694444 </v>
   <v>       0.00347222 </v>
   <v>       0.00694444 </v>
   <v>       0.00694444 </v>
   <v>       0.00694444 </v>
   <v>       0.00694444 </v>
   <v>       0.00694444 </v>
   <v>       0.00694444 </v>
   <v>       0.00694444 </v>
   <v>       0.00694444 </v>
   <v>       0.00694444 </v>
   <v>       0.00347222 </v>
   <v>       0.00694444 </v>
   <v>       0.00694444 </v>
   <v>       0.00694444 </v>
   <v>       0.00694444 </v>
   <v>       0.00694444 </v>
   <v>       0.00694444 </v>
   <v>       0.00694444 </v>
   <v>       0.00694444 </v>
   <v>       0.00347222 </v>
   <v>       0.00694444 </v>
   <v>       0.00694444 </v>
   <v>       0.00694444 </v>
   <v>       0.00694444 </v>
   <v>       0.00694444 </v>
   <v>       0.00694444 </v>
   <v>       0.00694444 </v>
   <v>       0.00347222 </v>
   <v>       0.00694444 </v>
   <v>       0.00694444 </v>
   <v>       0.00694444 </v>
   <v>       0.00694444 </v>
   <v>       0.00694444 </v>
   <v>       0.00694444 </v>
   <v>       0.00347222 </v>
   <v>       0.00694444 </v>
   <v>       0.00694444 </v>
   <v>       0.00694444 </v>
   <v>       0.00694444 </v>
   <v>       0.00347222 </v>
   <v>       0.00694444 </v>
   <v>       0.00694444 </v>
   <v>       0.00694444 </v>
   <v>       0.00347222 </v>
   <v>       0.00694444 </v>
   <v>       0.00694444 </v>
   <v>       0.00347222 </v>
   <v>       0.00694444 </v>
   <v>       0.00347222 </v>
   <v>       0.00115741 </v>
   <v>       0.00347222 </v>
   <v>       0.00347222 </v>
   <v>       0.00347222 </v>
   <v>       0.00347222 </v>
   <v>       0.00347222 </v>
   <v>       0.00347222 </v>
   <v>       0.00347222 </v>
   <v>       0.00347222 </v>
   <v>       0.00347222 </v>
   <v>       0.00347222 </v>
   <v>       0.00694444 </v>
   <v>       0.00694444 </v>
   <v>       0.00694444 </v>
   <v>       0.00694444 </v>
   <v>       0.00694444 </v>
   <v>       0.00694444 </v>
   <v>       0.00694444 </v>
   <v>       0.00694444 </v>
   <v>       0.00347222 </v>
   <v>       0.00694444 </v>
   <v>       0.00694444 </v>
   <v>       0.00694444 </v>
   <v>       0.00694444 </v>
   <v>       0.00694444 </v>
   <v>       0.00694444 </v>
   <v>       0.00694444 </v>
   <v>       0.00347222 </v>
   <v>       0.00694444 </v>
   <v>       0.00694444 </v>
   <v>       0.00694444 </v>
   <v>       0.00694444 </v>
   <v>       0.00694444 </v>
   <v>       0.00694444 </v>
   <v>       0.00347222 </v>
   <v>       0.00694444 </v>
   <v>       0.00694444 </v>
   <v>       0.00694444 </v>
   <v>       0.00694444 </v>
   <v>       0.00694444 </v>
   <v>       0.00347222 </v>
   <v>       0.00694444 </v>
   <v>       0.00694444 </v>
   <v>       0.00694444 </v>
   <v>       0.00347222 </v>
   <v>       0.00694444 </v>
   <v>       0.00694444 </v>
   <v>       0.00347222 </v>
   <v>       0.00694444 </v>
   <v>       0.00347222 </v>
   <v>       0.00115741 </v>
   <v>       0.00347222 </v>
   <v>       0.00347222 </v>
   <v>       0.00347222 </v>
   <v>       0.00347222 </v>
   <v>       0.00347222 </v>
   <v>       0.00347222 </v>
   <v>       0.00347222 </v>
   <v>       0.00347222 </v>
   <v>       0.00694444 </v>
   <v>       0.00694444 </v>
   <v>       0.00694444 </v>
   <v>       0.00694444 </v>
   <v>       0.00694444 </v>
   <v>       0.00694444 </v>
   <v>       0.00347222 </v>
   <v>       0.00694444 </v>
   <v>       0.00694444 </v>
   <v>       0.00694444 </v>
   <v>       0.00694444 </v>
   <v>       0.00694444 </v>
   <v>       0.00347222 </v>
   <v>       0.00694444 </v>
   <v>       0.00694444 </v>
   <v>       0.00694444 </v>
   <v>       0.00694444 </v>
   <v>       0.00347222 </v>
   <v>       0.00694444 </v>
   <v>       0.00694444 </v>
   <v>       0.00347222 </v>
   <v>       0.00694444 </v>
   <v>       0.00347222 </v>
   <v>       0.00115741 </v>
   <v>       0.00347222 </v>
   <v>       0.00347222 </v>
   <v>       0.00347222 </v>
   <v>       0.00347222 </v>
   <v>       0.00347222 </v>
   <v>       0.00347222 </v>
   <v>       0.00694444 </v>
   <v>       0.00694444 </v>
   <v>       0.00694444 </v>
   <v>       0.00694444 </v>
   <v>       0.00347222 </v>
   <v>       0.00694444 </v>
   <v>       0.00694444 </v>
   <v>       0.00694444 </v>
   <v>       0.00347222 </v>
   <v>       0.00694444 </v>
   <v>       0.00347222 </v>
   <v>       0.00115741 </v>
   <v>       0.00347222 </v>
   <v>       0.00347222 </v>
   <v>       0.00347222 </v>
   <v>       0.00347222 </v>
   <v>       0.00694444 </v>
   <v>       0.00694444 </v>
   <v>       0.00347222 </v>
   <v>       0.00115741 </v>
   <v>       0.00347222 </v>
  </varray>
 </kpoints>
 <parameters>
  <separator name="general" >
   <i type="string" name="SYSTEM">unknown system</i>
   <i type="logical" name="LCOMPAT"> F  </i>
  </separator>
  <separator name="electronic" >
   <i type="string" name="PREC">normal</i>
   <i name="ENMAX">    200.00000000</i>
   <i name="ENAUG">    322.06900000</i>
   <i name="EDIFF">      0.00040000</i>
   <i type="int" name="IALGO">    38</i>
   <i type="int" name="IWAVPR">    11</i>
   <i type="int" name="NBANDS">     8</i>
   <i name="NELECT">      8.00000000</i>
   <i type="int" name="TURBO">     0</i>
   <i type="int" name="IRESTART">     0</i>
   <i type="int" name="NREBOOT">     0</i>
   <i type="int" name="NMIN">     0</i>
   <i name="EREF">      0.00000000</i>
   <separator name="electronic smearing" >
    <i type="int" name="ISMEAR">     0</i>
    <i name="SIGMA">      0.20000000</i>
    <i name="KSPACING">      0.50000000</i>
    <i type="logical" name="KGAMMA"> T  </i>
   </separator>
   <separator name="electronic projectors" >
    <i type="logical" name="LREAL"> F  </i>
    <v name="ROPT">      0.00000000</v>
    <i type="int" name="LMAXPAW">  -100</i>
    <i type="int" name="LMAXMIX">     2</i>
    <i type="logical" name="NLSPLINE"> F  </i>
   </separator>
   <separator name="electronic startup" >
    <i type="int" name="ISTART">     0</i>
    <i type="int" name="ICHARG">     2</i>
    <i type="int" name="INIWAV">     1</i>
   </separator>
   <separator name="electronic spin" >
    <i type="int" name="ISPIN">     1</i>
    <i type="logical" name="LNONCOLLINEAR"> F  </i>
    <v name="MAGMOM">      1.00000000      1.00000000</v>
    <i name="NUPDOWN">     -1.00000000</i>
    <i type="logical" name="LSORBIT"> F  </i>
    <v name="SAXIS">      0.00000000      0.00000000      1.00000000</v>
    <i type="logical" name="LSPIRAL"> F  </i>
    <v name="QSPIRAL">      0.00000000      0.00000000      0.00000000</v>
    <i type="logical" name="LZEROZ"> F  </i>
   </separator>
   <separator name="electronic exchange-correlation" >
    <i type="logical" name="LASPH"> F  </i>
    <i type="logical" name="LMETAGGA"> F  </i>
   </separator>
   <separator name="electronic convergence" >
    <i type="int" name="NELM">    60</i>
    <i type="int" name="NELMDL">    -5</i>
    <i type="int" name="NELMIN">     2</i>
    <i name="ENINI">    200.00000000</i>
    <separator name="electronic convergence detail" >
     <i type="logical" name="LDIAG"> T  </i>
     <i type="logical" name="LSUBROT"> F  </i>
     <i name="WEIMIN">      0.00100000</i>
     <i name="EBREAK">      0.00001250</i>
     <i name="DEPER">      0.30000000</i>
     <i type="int" name="NRMM">     4</i>
     <i name="TIME">      0.40000000</i>
    </separator>
   </separator>
   <separator name="electronic mixer" >
    <i name="AMIX">      0.40000000</i>
    <i name="BMIX">      1.00000000</i>
    <i name="AMIN">      0.10000000</i>
    <i name="AMIX_MAG">      1.60000000</i>
    <i name="BMIX_MAG">      1.00000000</i>
    <separator name="electronic mixer details" >
     <i type="int" name="IMIX">     4</i>
     <i type="logical" name="MIXFIRST"> F  </i>
     <i type="int" name="MAXMIX">   -45</i>
     <i name="WC">    100.00000000</i>
     <i type="int" name="INIMIX">     1</i>
     <i type="int" name="MIXPRE">     1</i>
     <i type="int" name="MREMOVE">     5</i>
    </separator>
   </separator>
   <separator name="electronic dipolcorrection" >
    <i type="logical" name="LDIPOL"> F  </i>
    <i type="logical" name="LMONO"> F  </i>
    <i type="int" name="IDIPOL">     0</i>
    <i name="EPSILON">      1.00000000</i>
    <v name="DIPOL">   -100.00000000   -100.00000000   -100.00000000</v>
    <i name="EFIELD">      0.00000000</i>
   </separator>
  </separator>
  <separator name="grids" >
   <i type="int" name="NGX">    14</i>
   <i type="int" name="NGY">    14</i>
   <i type="int" name="NGZ">    14</i>
   <i type="int" name="NGXF">    28</i>
   <i type="int" name="NGYF">    28</i>
   <i type="int" name="NGZF">    28</i>
   <i type="logical" name="ADDGRID"> F  </i>
  </separator>
  <separator name="ionic" >
   <i type="int" name="NSW">    15</i>
   <i type="int" name="IBRION">     2</i>
   <i type="int" name="MDALGO">     0</i>
   <i type="int" name="ISIF">     3</i>
   <i name="PSTRESS">      0.00000000</i>
   <i name="EDIFFG">     -0.01000000</i>
   <i type="int" name="NFREE">     1</i>
   <i name="POTIM">      0.50000000</i>
   <i name="SMASS">     -3.00000000</i>
   <i name="SCALEE">      1.00000000</i>
  </separator>
  <separator name="ionic md" >
   <i name="TEBEG">      0.00010000</i>
   <i name="TEEND">      0.00010000</i>
   <i type="int" name="NBLOCK">     1</i>
   <i type="int" name="KBLOCK">    15</i>
   <i type="int" name="NPACO">   256</i>
   <i name="APACO">     16.00000000</i>
  </separator>
  <separator name="symmetry" >
   <i type="int" name="ISYM">     2</i>
   <i name="SYMPREC">      0.00001000</i>
  </separator>
  <separator name="dos" >
   <i type="int" name="LORBIT">     0</i>
   <v name="RWIGS">     -1.00000000</v>
   <i type="int" name="NEDOS">   301</i>
   <i name="EMIN">     10.00000000</i>
   <i name="EMAX">    -10.00000000</i>
   <i name="EFERMI">      0.00000000</i>
  </separator>
  <separator name="writing" >
   <i type="int" name="NWRITE">     2</i>
   <i type="logical" name="LWAVE"> T  </i>
   <i type="logical" name="LDOWNSAMPLE"> F  </i>
   <i type="logical" name="LCHARG"> T  </i>
   <i type="logical" name="LPARD"> F  </i>
   <i type="logical" name="LVTOT"> F  </i>
   <i type="logical" name="LVHAR"> F  </i>
   <i type="logical" name="LELF"> F  </i>
   <i type="logical" name="LOPTICS"> F  </i>
   <v name="STM">      0.00000000      0.00000000      0.00000000      0.00000000      0.00000000      0.00000000      0.00000000</v>
  </separator>
  <separator name="performance" >
   <i type="int" name="NPAR">     8</i>
   <i type="int" name="NSIM">     4</i>
   <i type="int" name="NBLK">    -1</i>
   <i type="logical" name="LPLANE"> T  </i>
   <i type="logical" name="LSCALAPACK"> T  </i>
   <i type="logical" name="LSCAAWARE"> F  </i>
   <i type="logical" name="LSCALU"> F  </i>
   <i type="logical" name="LASYNC"> F  </i>
   <i type="logical" name="LORBITALREAL"> F  </i>
  </separator>
  <separator name="miscellaneous" >
   <i type="int" name="IDIOT">     3</i>
   <i type="int" name="ISPECIAL">     0</i>
   <i type="logical" name="LMUSIC"> F  </i>
   <v name="POMASS">     28.08500000</v>
   <v name="DARWINR">      0.00000000</v>
   <v name="DARWINV">      1.00000000</v>
   <i type="logical" name="LCORR"> T  </i>
  </separator>
  <i type="logical" name="GGA_COMPAT"> T  </i>
  <i type="logical" name="LBERRY"> F  </i>
  <i type="int" name="ICORELEVEL">     0</i>
  <i type="logical" name="LDAU"> F  </i>
  <i type="int" name="I_CONSTRAINED_M">     0</i>
  <separator name="electronic exchange-correlation" >
   <i type="string" name="GGA">--</i>
   <i type="int" name="VOSKOWN">     0</i>
   <i type="logical" name="LHFCALC"> F  </i>
   <i type="string" name="PRECFOCK"></i>
   <i type="logical" name="LSYMGRAD"> F  </i>
   <i type="logical" name="LHFONE"> F  </i>
   <i type="logical" name="LRHFCALC"> F  </i>
   <i type="logical" name="LTHOMAS"> F  </i>
   <i type="logical" name="LMODELHF"> F  </i>
   <i name="ENCUT4O">     -1.00000000</i>
   <i type="int" name="EXXOEP">     0</i>
   <i type="int" name="FOURORBIT">     0</i>
   <i name="AEXX">      0.00000000</i>
   <i name="HFALPHA">      0.00000000</i>
   <i name="MCALPHA">      0.00000000</i>
   <i name="ALDAX">      1.00000000</i>
   <i name="AGGAX">      1.00000000</i>
   <i name="ALDAC">      1.00000000</i>
   <i name="AGGAC">      1.00000000</i>
   <i type="int" name="NKREDX">     1</i>
   <i type="int" name="NKREDY">     1</i>
   <i type="int" name="NKREDZ">     1</i>
   <i type="logical" name="SHIFTRED"> F  </i>
   <i type="logical" name="ODDONLY"> F  </i>
   <i type="logical" name="EVENONLY"> F  </i>
   <i type="int" name="LMAXFOCK">     0</i>
   <i type="int" name="NMAXFOCKAE">     0</i>
   <i type="logical" name="LFOCKAEDFT"> F  </i>
   <i name="HFSCREEN">      0.00000000</i>
   <i name="HFSCREENC">      0.00000000</i>
   <i type="int" name="NBANDSGWLOW">     0</i>
  </separator>
  <separator name="vdW DFT" >
   <i type="logical" name="LUSE_VDW"> F  </i>
   <i name="Zab_VDW">     -0.84910000</i>
   <i name="PARAM1">      0.12340000</i>
   <i name="PARAM2">      1.00000000</i>
   <i name="PARAM3">      0.00000000</i>
  </separator>
  <separator name="model GW" >
   <i type="int" name="MODEL_GW">     0</i>
   <i name="MODEL_EPS0">     12.00772552</i>
   <i name="MODEL_ALPHA">      1.00000000</i>
  </separator>
  <separator name="linear response parameters" >
   <i type="logical" name="LEPSILON"> F  </i>
   <i type="logical" name="LRPA"> F  </i>
   <i type="logical" name="LNABLA"> F  </i>
   <i type="logical" name="LVEL"> F  </i>
   <i type="int" name="KINTER">     0</i>
   <i name="CSHIFT">      0.10000000</i>
   <i name="OMEGAMAX">     -1.00000000</i>
   <i name="DEG_THRESHOLD">      0.00200000</i>
   <i name="RTIME">     -0.10000000</i>
   <i name="WPLASMAI">      0.00000000</i>
   <v name="DFIELD">      0.00000000      0.00000000      0.00000000</v>
   <v name="WPLASMA">      0.00000000      0.00000000      0.00000000      0.00000000      0.00000000      0.00000000      0.00000000      0.00000000      0.00000000</v>
  </separator>
  <separator name="orbital magnetization" >
   <i type="logical" name="NUCIND"> F  </i>
   <v name="MAGPOS">      0.00000000      0.00000000      0.00000000</v>
   <i type="logical" name="LNICSALL"> T  </i>
   <i type="logical" name="ORBITALMAG"> F  </i>
   <i type="logical" name="LMAGBLOCH"> F  </i>
   <i type="logical" name="LCHIMAG"> F  </i>
   <i type="logical" name="LGAUGE"> T  </i>
   <i type="int" name="MAGATOM">     0</i>
   <v name="MAGDIPOL">      0.00000000      0.00000000      0.00000000</v>
   <v name="AVECCONST">      0.00000000      0.00000000      0.00000000</v>
  </separator>
  <separator name="response functions" >
   <i type="logical" name="LADDER"> F  </i>
   <i type="logical" name="LRPAFORCE"> F  </i>
   <i type="logical" name="LFXC"> F  </i>
   <i type="logical" name="LHARTREE"> T  </i>
   <i type="int" name="IBSE">     0</i>
   <v type="int" name="KPOINT">    -1     0     0     0</v>
   <i type="logical" name="LTCTE"> F  </i>
   <i type="logical" name="LTETE"> F  </i>
   <i type="logical" name="LTRIPLET"> F  </i>
   <i type="logical" name="LFXCEPS"> F  </i>
   <i type="logical" name="LFXHEG"> F  </i>
   <i type="int" name="NATURALO">     2</i>
   <i type="logical" name="L2ORDER"> F  </i>
   <i type="logical" name="LMP2LT"> F  </i>
   <i type="logical" name="LUSEW"> F  </i>
   <i name="ENCUTGW">     -2.00000000</i>
   <i name="ENCUTGWSOFT">     -2.00000000</i>
   <i name="ENCUTLF">     -1.00000000</i>
   <i type="int" name="LMAXMP2">    -1</i>
   <i name="SCISSOR">      0.00000000</i>
   <i type="int" name="NOMEGA">     0</i>
   <i type="int" name="NOMEGAR">     0</i>
   <i type="int" name="NBANDSGW">    -1</i>
   <i type="int" name="NBANDSO">    -1</i>
   <i type="int" name="NBANDSV">    -1</i>
   <i type="int" name="NELM">     1</i>
   <i type="int" name="NELMHF">     1</i>
   <i type="int" name="DIM">     3</i>
   <i type="int" name="ANTIRES">     0</i>
   <i name="OMEGAMAX">    -30.00000000</i>
   <i name="OMEGAMIN">    -30.00000000</i>
   <i name="OMEGATL">   -200.00000000</i>
   <i type="int" name="OMEGAGRID">   140</i>
   <i name="CSHIFT">     -0.10000000</i>
   <i type="logical" name="SELFENERGY"> F  </i>
   <i type="logical" name="LSPECTRAL"> F  </i>
   <i type="logical" name="LSPECTRALGW"> F  </i>
   <i type="logical" name="LSINGLES"> F  </i>
   <i type="logical" name="LFERMIGW"> F  </i>
   <i type="logical" name="ODDONLYGW"> F  </i>
   <i type="logical" name="EVENONLYGW"> F  </i>
   <i type="int" name="NKREDLFX">     1</i>
   <i type="int" name="NKREDLFY">     1</i>
   <i type="int" name="NKREDLFZ">     1</i>
   <i type="int" name="MAXMEM">  2800</i>
   <i type="int" name="TELESCOPE">     0</i>
   <i type="int" name="TAUPAR">     1</i>
   <i type="int" name="OMEGAPAR">    -1</i>
   <i name="LAMBDA">      1.00000000</i>
  </separator>
  <separator name="External order field" >
   <i name="OFIELD_KAPPA">      0.00000000</i>
   <v name="OFIELD_K">      0.00000000      0.00000000      0.00000000</v>
   <i name="OFIELD_Q6_NEAR">      0.00000000</i>
   <i name="OFIELD_Q6_FAR">      0.00000000</i>
   <i name="OFIELD_A">      0.00000000</i>
  </separator>
 </parameters>
 <atominfo>
  <atoms>       2 </atoms>
  <types>       1 </types>
  <array name="atoms" >
   <dimension dim="1">ion</dimension>
   <field type="string">element</field>
   <field type="int">atomtype</field>
   <set>
    <rc><c>Si</c><c>   1</c></rc>
    <rc><c>Si</c><c>   1</c></rc>
   </set>
  </array>
  <array name="atomtypes" >
   <dimension dim="1">type</dimension>
   <field type="int">atomspertype</field>
   <field type="string">element</field>
   <field>mass</field>
   <field>valence</field>
   <field type="string">pseudopotential</field>
   <set>
    <rc><c>   2</c><c>Si</c><c>     28.08500000</c><c>      4.00000000</c><c> PAW_PBE Si 05Jan2001                   </c></rc>
   </set>
  </array>
 </atominfo>
 <structure name="initialpos" >
  <crystal>
   <varray name="basis" >
    <v>       0.00000000       2.71500000       2.71500000 </v>
    <v>       2.71500000       0.00000000       2.71500000 </v>
    <v>       2.71500000       2.71500000       0.00000000 </v>
   </varray>
   <i name="volume">     40.02575175 </i>
   <varray name="rec_basis" >
    <v>      -0.18416206       0.18416206       0.18416206 </v>
    <v>       0.18416206      -0.18416206       0.18416206 </v>
    <v>       0.18416206       0.18416206      -0.18416206 </v>
   </varray>
  </crystal>
  <varray name="positions" >
   <v>       0.50000000       0.50000000       0.50000000 </v>
   <v>       0.75000000       0.75000000       0.75000000 </v>
  </varray>
 </structure>
 <calculation>
  <scstep>
   <time name="dav">    1.50    1.51</time>
   <time name="total">    1.55    1.56</time>
   <energy>
    <i name="alphaZ">      3.36414203 </i>
    <i name="ewald">   -228.56352493 </i>
    <i name="hartreedc">    -11.00108243 </i>
    <i name="XCdc">    -18.60172597 </i>
    <i name="pawpsdc">     65.95520812 </i>
    <i name="pawaedc">    -30.76852678 </i>
    <i name="eentropy">     -0.01300111 </i>
    <i name="bandstr">     12.06610170 </i>
    <i name="atom">    206.11247263 </i>
    <i name="e_fr_energy">     -1.44993675 </i>
    <i name="e_wo_entrp">     -1.43693564 </i>
    <i name="e_0_energy">     -1.44343620 </i>
   </energy>
  </scstep>
  <scstep>
   <time name="dav">    2.37    2.38</time>
   <time name="total">    2.38    2.38</time>
   <energy>
    <i name="e_fr_energy">    -10.88774364 </i>
    <i name="e_wo_entrp">    -10.88774153 </i>
    <i name="e_0_energy">    -10.88774259 </i>
   </energy>
  </scstep>
  <scstep>
   <time name="dav">    1.79    1.80</time>
   <time name="total">    1.80    1.81</time>
   <energy>
    <i name="e_fr_energy">    -10.97663545 </i>
    <i name="e_wo_entrp">    -10.97663337 </i>
    <i name="e_0_energy">    -10.97663441 </i>
   </energy>
  </scstep>
  <scstep>
   <time name="dav">    2.41    2.42</time>
   <time name="total">    2.42    2.43</time>
   <energy>
    <i name="e_fr_energy">    -10.97684001 </i>
    <i name="e_wo_entrp">    -10.97683793 </i>
    <i name="e_0_energy">    -10.97683897 </i>
   </energy>
  </scstep>
  <scstep>
   <time name="dav">    1.72    1.74</time>
   <time name="total">    1.77    1.78</time>
   <energy>
    <i name="e_fr_energy">    -10.97684009 </i>
    <i name="e_wo_entrp">    -10.97683801 </i>
    <i name="e_0_energy">    -10.97683905 </i>
   </energy>
  </scstep>
  <scstep>
   <time name="dav">    1.68    1.68</time>
   <time name="total">    1.75    1.76</time>
   <energy>
    <i name="e_fr_energy">    -10.85288426 </i>
    <i name="e_wo_entrp">    -10.85287262 </i>
    <i name="e_0_energy">    -10.85287844 </i>
   </energy>
  </scstep>
  <scstep>
   <time name="dav">    1.86    1.86</time>
   <time name="total">    1.93    1.95</time>
   <energy>
    <i name="e_fr_energy">    -10.79629997 </i>
    <i name="e_wo_entrp">    -10.79622532 </i>
    <i name="e_0_energy">    -10.79626264 </i>
   </energy>
  </scstep>
  <scstep>
   <time name="dav">    1.60    1.60</time>
   <time name="total">    1.68    1.69</time>
   <energy>
    <i name="e_fr_energy">    -10.79758206 </i>
    <i name="e_wo_entrp">    -10.79752198 </i>
    <i name="e_0_energy">    -10.79755202 </i>
   </energy>
  </scstep>
  <scstep>
   <time name="dav">    1.22    1.23</time>
   <time name="total">    1.26    1.27</time>
   <energy>
    <i name="alphaZ">      3.36414203 </i>
    <i name="ewald">   -228.56352493 </i>
    <i name="hartreedc">    -14.89241122 </i>
    <i name="XCdc">    -17.94068306 </i>
    <i name="pawpsdc">     75.91536497 </i>
    <i name="pawaedc">    -40.96555582 </i>
    <i name="eentropy">     -0.00005962 </i>
    <i name="bandstr">      6.17258002 </i>
    <i name="atom">    206.11247263 </i>
    <i name="e_fr_energy">    -10.79767501 </i>
    <i name="e_wo_entrp">    -10.79761539 </i>
    <i name="e_0_energy">    -10.79764520 </i>
   </energy>
  </scstep>
  <structure>
   <crystal>
    <varray name="basis" >
     <v>       0.00000000       2.71500000       2.71500000 </v>
     <v>       2.71500000       0.00000000       2.71500000 </v>
     <v>       2.71500000       2.71500000       0.00000000 </v>
    </varray>
    <i name="volume">     40.02575175 </i>
    <varray name="rec_basis" >
     <v>      -0.18416206       0.18416206       0.18416206 </v>
     <v>       0.18416206      -0.18416206       0.18416206 </v>
     <v>       0.18416206       0.18416206      -0.18416206 </v>
    </varray>
   </crystal>
   <varray name="positions" >
    <v>       0.50000000       0.50000000       0.50000000 </v>
    <v>       0.75000000       0.75000000       0.75000000 </v>
   </varray>
  </structure>
  <varray name="forces" >
   <v>       0.00000000       0.00000000       0.00000000 </v>
   <v>      -0.00000000      -0.00000000      -0.00000000 </v>
  </varray>
  <varray name="stress" >
   <v>      18.69974118       0.00000000      -0.00000000 </v>
   <v>       0.00000000      18.69974118       0.00000000 </v>
   <v>      -0.00000000      -0.00000000      18.69974118 </v>
  </varray>
  <energy>
   <i name="e_fr_energy">    -10.79767501 </i>
   <i name="e_wo_entrp">    -10.79764520 </i>
   <i name="e_0_energy">     -0.00005962 </i>
  </energy>
  <time name="totalsc">   17.84   18.95</time>
 </calculation>
 <calculation>
  <scstep>
   <time name="dav">    1.87    1.87</time>
   <time name="total">    1.94    1.95</time>
   <energy>
    <i name="alphaZ">      3.25293134 </i>
    <i name="ewald">   -226.01665856 </i>
    <i name="hartreedc">    -14.73832574 </i>
    <i name="XCdc">    -18.10488988 </i>
    <i name="pawpsdc">     75.90687715 </i>
    <i name="pawaedc">    -40.95803376 </i>
    <i name="eentropy">     -0.00002019 </i>
    <i name="bandstr">      3.73932802 </i>
    <i name="atom">    206.11247263 </i>
    <i name="e_fr_energy">    -10.80631899 </i>
    <i name="e_wo_entrp">    -10.80629880 </i>
    <i name="e_0_energy">    -10.80630890 </i>
   </energy>
  </scstep>
  <scstep>
   <time name="dav">    1.84    1.84</time>
   <time name="total">    1.91    1.93</time>
   <energy>
    <i name="e_fr_energy">    -10.80222835 </i>
    <i name="e_wo_entrp">    -10.80220251 </i>
    <i name="e_0_energy">    -10.80221543 </i>
   </energy>
  </scstep>
  <scstep>
   <time name="dav">    1.70    1.70</time>
   <time name="total">    1.77    1.78</time>
   <energy>
    <i name="e_fr_energy">    -10.80010691 </i>
    <i name="e_wo_entrp">    -10.80007195 </i>
    <i name="e_0_energy">    -10.80008943 </i>
   </energy>
  </scstep>
  <scstep>
   <time name="dav">    0.87    0.87</time>
   <time name="total">    0.90    1.01</time>
   <energy>
    <i name="alphaZ">      3.25293134 </i>
    <i name="ewald">   -226.01665856 </i>
    <i name="hartreedc">    -15.30005770 </i>
    <i name="XCdc">    -18.09324011 </i>
    <i name="pawpsdc">     74.87874897 </i>
    <i name="pawaedc">    -39.90124899 </i>
    <i name="eentropy">     -0.00003438 </i>
    <i name="bandstr">      4.26699217 </i>
    <i name="atom">    206.11247263 </i>
    <i name="e_fr_energy">    -10.80009464 </i>
    <i name="e_wo_entrp">    -10.80006026 </i>
    <i name="e_0_energy">    -10.80007745 </i>
   </energy>
  </scstep>
  <structure>
   <crystal>
    <varray name="basis" >
     <v>      -0.00000000       2.74559395       2.74559395 </v>
     <v>       2.74559395       0.00000000       2.74559395 </v>
     <v>       2.74559395       2.74559395      -0.00000000 </v>
    </varray>
    <i name="volume">     41.39414559 </i>
    <varray name="rec_basis" >
     <v>      -0.18210996       0.18210996       0.18210996 </v>
     <v>       0.18210996      -0.18210996       0.18210996 </v>
     <v>       0.18210996       0.18210996      -0.18210996 </v>
    </varray>
   </crystal>
   <varray name="positions" >
    <v>       0.50000000       0.50000000       0.50000000 </v>
    <v>       0.75000000       0.75000000       0.75000000 </v>
   </varray>
  </structure>
  <varray name="forces" >
   <v>      -0.00000000       0.00000000       0.00000000 </v>
   <v>       0.00000000      -0.00000000      -0.00000000 </v>
  </varray>
  <varray name="stress" >
   <v>     -11.76683932       0.00000000      -0.00000000 </v>
   <v>       0.00000000     -11.76683932       0.00000000 </v>
   <v>      -0.00000000       0.00000000     -11.76683932 </v>
  </varray>
  <energy>
   <i name="e_fr_energy">    -10.80009464 </i>
   <i name="e_wo_entrp">    -10.80007745 </i>
   <i name="e_0_energy">     -0.00003438 </i>
  </energy>
  <time name="totalsc">    6.98    8.09</time>
 </calculation>
 <calculation>
  <scstep>
   <time name="dav">    0.77    0.77</time>
   <time name="total">    0.80    0.80</time>
   <energy>
    <i name="alphaZ">      3.29617881 </i>
    <i name="ewald">   -227.01387689 </i>
    <i name="hartreedc">    -15.36986476 </i>
    <i name="XCdc">    -18.02990083 </i>
    <i name="pawpsdc">     74.84262240 </i>
    <i name="pawaedc">    -39.86366082 </i>
    <i name="eentropy">     -0.00005165 </i>
    <i name="bandstr">      5.22289756 </i>
    <i name="atom">    206.11247263 </i>
    <i name="e_fr_energy">    -10.80318356 </i>
    <i name="e_wo_entrp">    -10.80313191 </i>
    <i name="e_0_energy">    -10.80315773 </i>
   </energy>
  </scstep>
  <scstep>
   <time name="dav">    0.77    0.77</time>
   <time name="total">    0.80    0.81</time>
   <energy>
    <i name="e_fr_energy">    -10.80254025 </i>
    <i name="e_wo_entrp">    -10.80249306 </i>
    <i name="e_0_energy">    -10.80251666 </i>
   </energy>
  </scstep>
  <scstep>
   <time name="dav">    0.45    0.45</time>
   <time name="total">    0.46    0.48</time>
   <energy>
    <i name="alphaZ">      3.29617881 </i>
    <i name="ewald">   -227.01387689 </i>
    <i name="hartreedc">    -15.14340993 </i>
    <i name="XCdc">    -18.03544653 </i>
    <i name="pawpsdc">     75.18093830 </i>
    <i name="pawaedc">    -40.21065800 </i>
    <i name="eentropy">     -0.00004204 </i>
    <i name="bandstr">      5.01162977 </i>
    <i name="atom">    206.11247263 </i>
    <i name="e_fr_energy">    -10.80221387 </i>
    <i name="e_wo_entrp">    -10.80217183 </i>
    <i name="e_0_energy">    -10.80219285 </i>
   </energy>
  </scstep>
  <structure>
   <crystal>
    <varray name="basis" >
     <v>      -0.00000000       2.73353320       2.73353320 </v>
     <v>       2.73353320       0.00000000       2.73353320 </v>
     <v>       2.73353320       2.73353320      -0.00000000 </v>
    </varray>
    <i name="volume">     40.85103425 </i>
    <varray name="rec_basis" >
     <v>      -0.18291345       0.18291345       0.18291345 </v>
     <v>       0.18291345      -0.18291345       0.18291345 </v>
     <v>       0.18291345       0.18291345      -0.18291345 </v>
    </varray>
   </crystal>
   <varray name="positions" >
    <v>       0.50000000       0.50000000       0.50000000 </v>
    <v>       0.75000000       0.75000000       0.75000000 </v>
   </varray>
  </structure>
  <varray name="forces" >
   <v>      -0.00000000      -0.00000000      -0.00000000 </v>
   <v>       0.00000000       0.00000000       0.00000000 </v>
  </varray>
  <varray name="stress" >
   <v>      -0.52489979       0.00000000      -0.00000000 </v>
   <v>       0.00000000      -0.52489979       0.00000000 </v>
   <v>      -0.00000000      -0.00000000      -0.52489979 </v>
  </varray>
  <energy>
   <i name="e_fr_energy">    -10.80221387 </i>
   <i name="e_wo_entrp">    -10.80219285 </i>
   <i name="e_0_energy">     -0.00004204 </i>
  </energy>
  <time name="totalsc">    2.62    3.41</time>
  <eigenvalues>
   <array>
    <dimension dim="1">band</dimension>
    <dimension dim="2">kpoint</dimension>
    <dimension dim="3">spin</dimension>
    <field>eigene</field>
    <field>occ</field>
    <set>
     <set comment="spin 1">
      <set comment="kpoint 1">
       <r>   -6.1742    1.0000 </r>
       <r>    5.3900    1.0000 </r>
       <r>    5.6111    0.9935 </r>
       <r>    5.6111    0.9935 </r>
       <r>    8.2530    0.0000 </r>
       <r>    8.2679    0.0000 </r>
       <r>    8.2679    0.0000 </r>
       <r>    8.9460    0.0000 </r>
      </set>
      <set comment="kpoint 2">
       <r>   -6.0552    1.0000 </r>
       <r>    4.4981    1.0000 </r>
       <r>    5.1936    1.0000 </r>
       <r>    5.5564    0.9979 </r>
       <r>    8.3072    0.0000 </r>
       <r>    8.3846    0.0000 </r>
       <r>    8.5701    0.0000 </r>
       <r>    9.8068    0.0000 </r>
      </set>
      <set comment="kpoint 3">
       <r>   -5.7613    1.0000 </r>
       <r>    3.0019    1.0000 </r>
       <r>    4.8272    1.0000 </r>
       <r>    5.2890    1.0000 </r>
       <r>    8.0299    0.0000 </r>
       <r>    8.7722    0.0000 </r>
       <r>    9.0679    0.0000 </r>
       <r>   11.1554    0.0000 </r>
      </set>
      <set comment="kpoint 4">
       <r>   -5.3052    1.0000 </r>
       <r>    1.5017    1.0000 </r>
       <r>    4.5330    1.0000 </r>
       <r>    4.9741    1.0000 </r>
       <r>    7.7173    0.0000 </r>
       <r>    9.0675    0.0000 </r>
       <r>    9.3208    0.0000 </r>
       <r>   12.3271    0.0000 </r>
      </set>
      <set comment="kpoint 5">
       <r>   -4.7229    1.0000 </r>
       <r>    0.1550    1.0000 </r>
       <r>    4.3384    1.0000 </r>
       <r>    4.7030    1.0000 </r>
       <r>    7.4717    0.0000 </r>
       <r>    9.1172    0.0000 </r>
       <r>    9.2512    0.0000 </r>
       <r>   13.2480    0.0000 </r>
      </set>
      <set comment="kpoint 6">
       <r>   -4.1310    1.0000 </r>
       <r>   -0.8830    1.0000 </r>
       <r>    4.2568    1.0000 </r>
       <r>    4.5095    1.0000 </r>
       <r>    7.3258    0.0000 </r>
       <r>    9.0823    0.0000 </r>
       <r>    9.0874    0.0000 </r>
       <r>   13.4674    0.0000 </r>
      </set>
      <set comment="kpoint 7">
       <r>   -3.9051    1.0000 </r>
       <r>   -1.2214    1.0000 </r>
       <r>    4.2845    1.0000 </r>
       <r>    4.4095    1.0000 </r>
       <r>    7.2899    0.0000 </r>
       <r>    8.9853    0.0000 </r>
       <r>    9.1197    0.0000 </r>
       <r>   13.4381    0.0000 </r>
      </set>
      <set comment="kpoint 8">
       <r>   -4.3140    1.0000 </r>
       <r>   -0.5885    1.0000 </r>
       <r>    4.4142    1.0000 </r>
       <r>    4.4153    1.0000 </r>
       <r>    7.3657    0.0000 </r>
       <r>    8.9913    0.0000 </r>
       <r>    9.2440    0.0000 </r>
       <r>   13.3709    0.0000 </r>
      </set>
      <set comment="kpoint 9">
       <r>   -4.9266    1.0000 </r>
       <r>    0.5792    1.0000 </r>
       <r>    4.5281    1.0000 </r>
       <r>    4.6402    1.0000 </r>
       <r>    7.5499    0.0000 </r>
       <r>    9.0309    0.0000 </r>
       <r>    9.3990    0.0000 </r>
       <r>   12.6170    0.0000 </r>
      </set>
      <set comment="kpoint 10">
       <r>   -5.4737    1.0000 </r>
       <r>    1.9903    1.0000 </r>
       <r>    4.7467    1.0000 </r>
       <r>    4.9375    1.0000 </r>
       <r>    7.8205    0.0000 </r>
       <r>    8.9139    0.0000 </r>
       <r>    9.3834    0.0000 </r>
       <r>   11.7857    0.0000 </r>
      </set>
      <set comment="kpoint 11">
       <r>   -5.8780    1.0000 </r>
       <r>    3.5194    1.0000 </r>
       <r>    5.0530    1.0000 </r>
       <r>    5.2613    1.0000 </r>
       <r>    8.1154    0.0000 </r>
       <r>    8.5649    0.0000 </r>
       <r>    9.0432    0.0000 </r>
       <r>   10.6728    0.0000 </r>
      </set>
      <set comment="kpoint 12">
       <r>   -6.1146    1.0000 </r>
       <r>    4.9652    1.0000 </r>
       <r>    5.3876    1.0000 </r>
       <r>    5.4875    0.9996 </r>
       <r>    8.1306    0.0000 </r>
       <r>    8.4473    0.0000 </r>
       <r>    8.5614    0.0000 </r>
       <r>    9.3531    0.0000 </r>
      </set>
      <set comment="kpoint 13">
       <r>   -5.9954    1.0000 </r>
       <r>    4.4114    1.0000 </r>
       <r>    5.0459    1.0000 </r>
       <r>    5.1447    1.0000 </r>
       <r>    7.8947    0.0000 </r>
       <r>    8.8696    0.0000 </r>
       <r>    9.0452    0.0000 </r>
       <r>    9.8675    0.0000 </r>
      </set>
      <set comment="kpoint 14">
       <r>   -5.7593    1.0000 </r>
       <r>    3.3757    1.0000 </r>
       <r>    4.4628    1.0000 </r>
       <r>    5.0004    1.0000 </r>
       <r>    7.9090    0.0000 </r>
       <r>    9.0346    0.0000 </r>
       <r>    9.5470    0.0000 </r>
       <r>   10.5315    0.0000 </r>
      </set>
      <set comment="kpoint 15">
       <r>   -5.3558    1.0000 </r>
       <r>    1.9686    1.0000 </r>
       <r>    4.0813    1.0000 </r>
       <r>    4.7114    1.0000 </r>
       <r>    8.0972    0.0000 </r>
       <r>    8.9969    0.0000 </r>
       <r>    9.9324    0.0000 </r>
       <r>   10.7929    0.0000 </r>
      </set>
      <set comment="kpoint 16">
       <r>   -4.8094    1.0000 </r>
       <r>    0.6058    1.0000 </r>
       <r>    3.8195    1.0000 </r>
       <r>    4.4103    1.0000 </r>
       <r>    8.0307    0.0000 </r>
       <r>    9.0232    0.0000 </r>
       <r>    9.9426    0.0000 </r>
       <r>   11.3890    0.0000 </r>
      </set>
      <set comment="kpoint 17">
       <r>   -4.1963    1.0000 </r>
       <r>   -0.5405    1.0000 </r>
       <r>    3.6397    1.0000 </r>
       <r>    4.2188    1.0000 </r>
       <r>    7.9136    0.0000 </r>
       <r>    8.9547    0.0000 </r>
       <r>    9.7775    0.0000 </r>
       <r>   12.5074    0.0000 </r>
      </set>
      <set comment="kpoint 18">
       <r>   -3.7857    1.0000 </r>
       <r>   -1.1672    1.0000 </r>
       <r>    3.5170    1.0000 </r>
       <r>    4.1944    1.0000 </r>
       <r>    7.8732    0.0000 </r>
       <r>    8.9154    0.0000 </r>
       <r>    9.6422    0.0000 </r>
       <r>   13.6192    0.0000 </r>
      </set>
      <set comment="kpoint 19">
       <r>   -4.0142    1.0000 </r>
       <r>   -0.8290    1.0000 </r>
       <r>    3.4696    1.0000 </r>
       <r>    4.3279    1.0000 </r>
       <r>    7.9317    0.0000 </r>
       <r>    8.9596    0.0000 </r>
       <r>    9.6189    0.0000 </r>
       <r>   13.3261    0.0000 </r>
      </set>
      <set comment="kpoint 20">
       <r>   -4.6073    1.0000 </r>
       <r>    0.1946    1.0000 </r>
       <r>    3.5315    1.0000 </r>
       <r>    4.5815    1.0000 </r>
       <r>    8.0833    0.0000 </r>
       <r>    9.0375    0.0000 </r>
       <r>    9.6934    0.0000 </r>
       <r>   12.1792    0.0000 </r>
      </set>
      <set comment="kpoint 21">
       <r>   -5.1888    1.0000 </r>
       <r>    1.4995    1.0000 </r>
       <r>    3.7298    1.0000 </r>
       <r>    4.9056    1.0000 </r>
       <r>    8.2978    0.0000 </r>
       <r>    8.9656    0.0000 </r>
       <r>    9.7074    0.0000 </r>
       <r>   11.3297    0.0000 </r>
      </set>
      <set comment="kpoint 22">
       <r>   -5.6436    1.0000 </r>
       <r>    2.8785    1.0000 </r>
       <r>    4.1142    1.0000 </r>
       <r>    5.2207    1.0000 </r>
       <r>    8.3909    0.0000 </r>
       <r>    8.7447    0.0000 </r>
       <r>    9.3730    0.0000 </r>
       <r>   10.9523    0.0000 </r>
      </set>
      <set comment="kpoint 23">
       <r>   -5.9366    1.0000 </r>
       <r>    3.9528    1.0000 </r>
       <r>    4.8494    1.0000 </r>
       <r>    5.3748    1.0000 </r>
       <r>    8.1748    0.0000 </r>
       <r>    8.5977    0.0000 </r>
       <r>    8.9653    0.0000 </r>
       <r>   10.3291    0.0000 </r>
      </set>
      <set comment="kpoint 24">
       <r>   -5.5810    1.0000 </r>
       <r>    3.1127    1.0000 </r>
       <r>    4.2965    1.0000 </r>
       <r>    4.3086    1.0000 </r>
       <r>    7.3071    0.0000 </r>
       <r>    9.6596    0.0000 </r>
       <r>   10.2665    0.0000 </r>
       <r>   10.2884    0.0000 </r>
      </set>
      <set comment="kpoint 25">
       <r>   -5.2322    1.0000 </r>
       <r>    2.1586    1.0000 </r>
       <r>    3.7172    1.0000 </r>
       <r>    4.1277    1.0000 </r>
       <r>    7.3431    0.0000 </r>
       <r>    9.3230    0.0000 </r>
       <r>   10.4647    0.0000 </r>
       <r>   10.8946    0.0000 </r>
      </set>
      <set comment="kpoint 26">
       <r>   -4.7301    1.0000 </r>
       <r>    0.9686    1.0000 </r>
       <r>    3.2640    1.0000 </r>
       <r>    3.8661    1.0000 </r>
       <r>    7.6023    0.0000 </r>
       <r>    9.5454    0.0000 </r>
       <r>   10.2646    0.0000 </r>
       <r>   11.1039    0.0000 </r>
      </set>
      <set comment="kpoint 27">
       <r>   -4.1237    1.0000 </r>
       <r>   -0.1672    1.0000 </r>
       <r>    2.8728    1.0000 </r>
       <r>    3.7297    1.0000 </r>
       <r>    7.6754    0.0000 </r>
       <r>    9.9912    0.0000 </r>
       <r>   10.5416    0.0000 </r>
       <r>   10.9835    0.0000 </r>
      </set>
      <set comment="kpoint 28">
       <r>   -3.5908    1.0000 </r>
       <r>   -0.9772    1.0000 </r>
       <r>    2.5662    1.0000 </r>
       <r>    3.7649    1.0000 </r>
       <r>    7.7467    0.0000 </r>
       <r>    9.7760    0.0000 </r>
       <r>   10.7878    0.0000 </r>
       <r>   11.9659    0.0000 </r>
      </set>
      <set comment="kpoint 29">
       <r>   -3.6014    1.0000 </r>
       <r>   -0.9587    1.0000 </r>
       <r>    2.3879    1.0000 </r>
       <r>    3.9527    1.0000 </r>
       <r>    7.9375    0.0000 </r>
       <r>    9.6389    0.0000 </r>
       <r>   10.6539    0.0000 </r>
       <r>   13.3137    0.0000 </r>
      </set>
      <set comment="kpoint 30">
       <r>   -4.1405    1.0000 </r>
       <r>   -0.1359    1.0000 </r>
       <r>    2.3811    1.0000 </r>
       <r>    4.2599    1.0000 </r>
       <r>    8.2382    0.0000 </r>
       <r>    9.5587    0.0000 </r>
       <r>   10.5660    0.0000 </r>
       <r>   11.9534    0.0000 </r>
      </set>
      <set comment="kpoint 31">
       <r>   -4.7441    1.0000 </r>
       <r>    0.9438    1.0000 </r>
       <r>    2.6301    1.0000 </r>
       <r>    4.6336    1.0000 </r>
       <r>    8.5821    0.0000 </r>
       <r>    9.3302    0.0000 </r>
       <r>   10.3860    0.0000 </r>
       <r>   11.0250    0.0000 </r>
      </set>
      <set comment="kpoint 32">
       <r>   -5.2422    1.0000 </r>
       <r>    1.8628    1.0000 </r>
       <r>    3.3457    1.0000 </r>
       <r>    4.9716    1.0000 </r>
       <r>    8.6639    0.0000 </r>
       <r>    8.8931    0.0000 </r>
       <r>    9.8377    0.0000 </r>
       <r>   10.9500    0.0000 </r>
      </set>
      <set comment="kpoint 33">
       <r>   -5.5868    1.0000 </r>
       <r>    2.4799    1.0000 </r>
       <r>    4.4688    1.0000 </r>
       <r>    5.0967    1.0000 </r>
       <r>    8.1339    0.0000 </r>
       <r>    8.7606    0.0000 </r>
       <r>    9.4329    0.0000 </r>
       <r>   11.2638    0.0000 </r>
      </set>
      <set comment="kpoint 34">
       <r>   -4.9379    1.0000 </r>
       <r>    1.6964    1.0000 </r>
       <r>    3.5940    1.0000 </r>
       <r>    3.6463    1.0000 </r>
       <r>    6.7784    0.0000 </r>
       <r>    8.5610    0.0000 </r>
       <r>   11.6119    0.0000 </r>
       <r>   11.6882    0.0000 </r>
      </set>
      <set comment="kpoint 35">
       <r>   -4.4844    1.0000 </r>
       <r>    0.8591    1.0000 </r>
       <r>    3.1070    1.0000 </r>
       <r>    3.4197    1.0000 </r>
       <r>    6.8945    0.0000 </r>
       <r>    8.2494    0.0000 </r>
       <r>   11.7567    0.0000 </r>
       <r>   12.3685    0.0000 </r>
      </set>
      <set comment="kpoint 36">
       <r>   -3.9030    1.0000 </r>
       <r>   -0.0658    1.0000 </r>
       <r>    2.4834    1.0000 </r>
       <r>    3.2922    1.0000 </r>
       <r>    7.1371    0.0000 </r>
       <r>    8.7776    0.0000 </r>
       <r>   11.5363    0.0000 </r>
       <r>   12.4536    0.0000 </r>
      </set>
      <set comment="kpoint 37">
       <r>   -3.3057    1.0000 </r>
       <r>   -0.8740    1.0000 </r>
       <r>    1.9431    1.0000 </r>
       <r>    3.3314    1.0000 </r>
       <r>    7.2504    0.0000 </r>
       <r>   10.0266    0.0000 </r>
       <r>   11.2727    0.0000 </r>
       <r>   12.2843    0.0000 </r>
      </set>
      <set comment="kpoint 38">
       <r>   -3.1065    1.0000 </r>
       <r>   -1.1093    1.0000 </r>
       <r>    1.6100    1.0000 </r>
       <r>    3.5234    1.0000 </r>
       <r>    7.4641    0.0000 </r>
       <r>   10.9529    0.0000 </r>
       <r>   11.6754    0.0000 </r>
       <r>   12.1036    0.0000 </r>
      </set>
      <set comment="kpoint 39">
       <r>   -3.5633    1.0000 </r>
       <r>   -0.5479    1.0000 </r>
       <r>    1.5763    1.0000 </r>
       <r>    3.8427    1.0000 </r>
       <r>    7.8152    0.0000 </r>
       <r>   10.7064    0.0000 </r>
       <r>   11.7463    0.0000 </r>
       <r>   12.0031    0.0000 </r>
      </set>
      <set comment="kpoint 40">
       <r>   -4.1710    1.0000 </r>
       <r>    0.1369    1.0000 </r>
       <r>    2.0228    1.0000 </r>
       <r>    4.2426    1.0000 </r>
       <r>    8.2423    0.0000 </r>
       <r>    9.9569    0.0000 </r>
       <r>   11.0318    0.0000 </r>
       <r>   11.3900    0.0000 </r>
      </set>
      <set comment="kpoint 41">
       <r>   -4.6978    1.0000 </r>
       <r>    0.6186    1.0000 </r>
       <r>    3.0120    1.0000 </r>
       <r>    4.6179    1.0000 </r>
       <r>    8.4263    0.0000 </r>
       <r>    9.1560    0.0000 </r>
       <r>   10.0428    0.0000 </r>
       <r>   11.5184    0.0000 </r>
      </set>
      <set comment="kpoint 42">
       <r>   -5.0830    1.0000 </r>
       <r>    1.0377    1.0000 </r>
       <r>    4.2006    1.0000 </r>
       <r>    4.7785    1.0000 </r>
       <r>    7.8790    0.0000 </r>
       <r>    8.9826    0.0000 </r>
       <r>    9.5582    0.0000 </r>
       <r>   11.9183    0.0000 </r>
      </set>
      <set comment="kpoint 43">
       <r>   -4.0787    1.0000 </r>
       <r>    0.2581    1.0000 </r>
       <r>    3.0849    1.0000 </r>
       <r>    3.1738    1.0000 </r>
       <r>    6.4392    0.0004 </r>
       <r>    7.5232    0.0000 </r>
       <r>   13.1299    0.0000 </r>
       <r>   13.1692    0.0000 </r>
      </set>
      <set comment="kpoint 44">
       <r>   -3.5330    1.0000 </r>
       <r>   -0.4811    1.0000 </r>
       <r>    2.6918    1.0000 </r>
       <r>    2.9764    1.0000 </r>
       <r>    6.6501    0.0000 </r>
       <r>    7.4252    0.0000 </r>
       <r>   13.1719    0.0000 </r>
       <r>   13.9094    0.0000 </r>
      </set>
      <set comment="kpoint 45">
       <r>   -2.9137    1.0000 </r>
       <r>   -1.1771    1.0000 </r>
       <r>    1.9931    1.0000 </r>
       <r>    2.9923    1.0000 </r>
       <r>    6.8430    0.0000 </r>
       <r>    8.3321    0.0000 </r>
       <r>   12.9158    0.0000 </r>
       <r>   13.9167    0.0000 </r>
      </set>
      <set comment="kpoint 46">
       <r>   -2.5764    1.0000 </r>
       <r>   -1.4984    1.0000 </r>
       <r>    1.4579    1.0000 </r>
       <r>    3.1652    1.0000 </r>
       <r>    7.0483    0.0000 </r>
       <r>    9.8115    0.0000 </r>
       <r>   12.5851    0.0000 </r>
       <r>   13.4000    0.0000 </r>
      </set>
      <set comment="kpoint 47">
       <r>   -2.9946    1.0000 </r>
       <r>   -1.0994    1.0000 </r>
       <r>    1.3599    1.0000 </r>
       <r>    3.4740    1.0000 </r>
       <r>    7.3993    0.0000 </r>
       <r>   11.3629    0.0000 </r>
       <r>   11.7931    0.0000 </r>
       <r>   12.5389    0.0000 </r>
      </set>
      <set comment="kpoint 48">
       <r>   -3.5723    1.0000 </r>
       <r>   -0.7313    1.0000 </r>
       <r>    1.8922    1.0000 </r>
       <r>    3.8799    1.0000 </r>
       <r>    7.8599    0.0000 </r>
       <r>   10.1951    0.0000 </r>
       <r>   11.2550    0.0000 </r>
       <r>   12.5791    0.0000 </r>
      </set>
      <set comment="kpoint 49">
       <r>   -4.0846    1.0000 </r>
       <r>   -0.4952    1.0000 </r>
       <r>    2.9060    1.0000 </r>
       <r>    4.2905    1.0000 </r>
       <r>    8.1735    0.0000 </r>
       <r>    9.1587    0.0000 </r>
       <r>   10.0571    0.0000 </r>
       <r>   12.6587    0.0000 </r>
      </set>
      <set comment="kpoint 50">
       <r>   -4.4768    1.0000 </r>
       <r>   -0.2210    1.0000 </r>
       <r>    4.0420    1.0000 </r>
       <r>    4.5171    1.0000 </r>
       <r>    7.6745    0.0000 </r>
       <r>    8.9870    0.0000 </r>
       <r>    9.4323    0.0000 </r>
       <r>   12.8826    0.0000 </r>
      </set>
      <set comment="kpoint 51">
       <r>   -3.0226    1.0000 </r>
       <r>   -1.1362    1.0000 </r>
       <r>    2.7995    1.0000 </r>
       <r>    2.9050    1.0000 </r>
       <r>    6.3492    0.0031 </r>
       <r>    6.8132    0.0000 </r>
       <r>   14.6718    0.0000 </r>
       <r>   14.6830    0.0000 </r>
      </set>
      <set comment="kpoint 52">
       <r>   -2.4071    1.0000 </r>
       <r>   -1.7860    1.0000 </r>
       <r>    2.5084    1.0000 </r>
       <r>    2.7908    1.0000 </r>
       <r>    6.6080    0.0000 </r>
       <r>    6.9960    0.0000 </r>
       <r>   14.6291    0.0000 </r>
       <r>   15.1433    0.0000 </r>
      </set>
      <set comment="kpoint 53">
       <r>   -2.4014    1.0000 </r>
       <r>   -1.7169    1.0000 </r>
       <r>    1.8935    1.0000 </r>
       <r>    2.9337    1.0000 </r>
       <r>    6.7838    0.0000 </r>
       <r>    8.2418    0.0000 </r>
       <r>   13.6124    0.0000 </r>
       <r>   14.3137    0.0000 </r>
      </set>
      <set comment="kpoint 54">
       <r>   -2.8946    1.0000 </r>
       <r>   -1.2192    1.0000 </r>
       <r>    1.6257    1.0000 </r>
       <r>    3.2203    1.0000 </r>
       <r>    7.1163    0.0000 </r>
       <r>    9.8849    0.0000 </r>
       <r>   11.9357    0.0000 </r>
       <r>   12.9874    0.0000 </r>
      </set>
      <set comment="kpoint 55">
       <r>   -3.3158    1.0000 </r>
       <r>   -1.0802    1.0000 </r>
       <r>    2.0386    1.0000 </r>
       <r>    3.6202    1.0000 </r>
       <r>    7.5863    0.0000 </r>
       <r>   10.3596    0.0000 </r>
       <r>   11.4083    0.0000 </r>
       <r>   11.8026    0.0000 </r>
      </set>
      <set comment="kpoint 56">
       <r>   -3.6685    1.0000 </r>
       <r>   -1.1216    1.0000 </r>
       <r>    2.9562    1.0000 </r>
       <r>    4.0578    1.0000 </r>
       <r>    7.9889    0.0000 </r>
       <r>    9.1637    0.0000 </r>
       <r>   10.1014    0.0000 </r>
       <r>   13.6322    0.0000 </r>
      </set>
      <set comment="kpoint 57">
       <r>   -3.9470    1.0000 </r>
       <r>   -1.0832    1.0000 </r>
       <r>    3.9778    1.0000 </r>
       <r>    4.3650    1.0000 </r>
       <r>    7.5663    0.0000 </r>
       <r>    8.9444    0.0000 </r>
       <r>    9.2999    0.0000 </r>
       <r>   13.5378    0.0000 </r>
      </set>
      <set comment="kpoint 58">
       <r>   -2.4297    1.0000 </r>
       <r>   -1.7989    1.0000 </r>
       <r>    2.7420    1.0000 </r>
       <r>    2.8508    1.0000 </r>
       <r>    6.3992    0.0010 </r>
       <r>    6.5973    0.0000 </r>
       <r>   15.3289    0.0000 </r>
       <r>   15.3730    0.0000 </r>
      </set>
      <set comment="kpoint 59">
       <r>   -2.9893    1.0000 </r>
       <r>   -1.1431    1.0000 </r>
       <r>    2.5697    1.0000 </r>
       <r>    2.8525    1.0000 </r>
       <r>    6.6102    0.0000 </r>
       <r>    7.1522    0.0000 </r>
       <r>   13.9065    0.0000 </r>
       <r>   14.6676    0.0000 </r>
      </set>
      <set comment="kpoint 60">
       <r>   -3.4248    1.0000 </r>
       <r>   -0.6148    1.0000 </r>
       <r>    2.1914    1.0000 </r>
       <r>    3.1104    1.0000 </r>
       <r>    6.9622    0.0000 </r>
       <r>    8.5089    0.0000 </r>
       <r>   12.2132    0.0000 </r>
       <r>   13.1831    0.0000 </r>
      </set>
      <set comment="kpoint 61">
       <r>   -3.7250    1.0000 </r>
       <r>   -0.5235    1.0000 </r>
       <r>    2.3756    1.0000 </r>
       <r>    3.4988    1.0000 </r>
       <r>    7.4405    0.0000 </r>
       <r>   10.2357    0.0000 </r>
       <r>   10.6307    0.0000 </r>
       <r>   11.6037    0.0000 </r>
      </set>
      <set comment="kpoint 62">
       <r>   -3.8942    1.0000 </r>
       <r>   -0.7950    1.0000 </r>
       <r>    3.1247    1.0000 </r>
       <r>    3.9619    1.0000 </r>
       <r>    7.9045    0.0000 </r>
       <r>    9.2608    0.0000 </r>
       <r>   10.2354    0.0000 </r>
       <r>   12.2034    0.0000 </r>
      </set>
      <set comment="kpoint 63">
       <r>   -3.5737    1.0000 </r>
       <r>   -0.4483    1.0000 </r>
       <r>    2.9140    1.0000 </r>
       <r>    3.0126    1.0000 </r>
       <r>    6.3602    0.0024 </r>
       <r>    7.1245    0.0000 </r>
       <r>   13.9068    0.0000 </r>
       <r>   13.9220    0.0000 </r>
      </set>
      <set comment="kpoint 64">
       <r>   -4.0328    1.0000 </r>
       <r>    0.1895    1.0000 </r>
       <r>    2.8720    1.0000 </r>
       <r>    3.1645    1.0000 </r>
       <r>    6.7430    0.0000 </r>
       <r>    7.7933    0.0000 </r>
       <r>   12.4528    0.0000 </r>
       <r>   13.1330    0.0000 </r>
      </set>
      <set comment="kpoint 65">
       <r>   -4.3401    1.0000 </r>
       <r>    0.4610    1.0000 </r>
       <r>    2.8519    1.0000 </r>
       <r>    3.5405    1.0000 </r>
       <r>    7.3531    0.0000 </r>
       <r>    9.1320    0.0000 </r>
       <r>   10.8772    0.0000 </r>
       <r>   11.7579    0.0000 </r>
      </set>
      <set comment="kpoint 66">
       <r>   -4.4880    1.0000 </r>
       <r>    0.2059    1.0000 </r>
       <r>    3.3737    1.0000 </r>
       <r>    4.0338    1.0000 </r>
       <r>    7.9110    0.0000 </r>
       <r>    9.4260    0.0000 </r>
       <r>   10.4088    0.0000 </r>
       <r>   10.9369    0.0000 </r>
      </set>
      <set comment="kpoint 67">
       <r>   -4.5343    1.0000 </r>
       <r>    0.9756    1.0000 </r>
       <r>    3.3117    1.0000 </r>
       <r>    3.3860    1.0000 </r>
       <r>    6.5801    0.0000 </r>
       <r>    8.0058    0.0000 </r>
       <r>   12.3624    0.0000 </r>
       <r>   12.4176    0.0000 </r>
      </set>
      <set comment="kpoint 68">
       <r>   -4.8850    1.0000 </r>
       <r>    1.5176    1.0000 </r>
       <r>    3.3904    1.0000 </r>
       <r>    3.7418    1.0000 </r>
       <r>    7.0957    0.0000 </r>
       <r>    8.7771    0.0000 </r>
       <r>   11.0825    0.0000 </r>
       <r>   11.6215    0.0000 </r>
      </set>
      <set comment="kpoint 69">
       <r>   -5.0695    1.0000 </r>
       <r>    1.4673    1.0000 </r>
       <r>    3.6792    1.0000 </r>
       <r>    4.2692    1.0000 </r>
       <r>    7.8668    0.0000 </r>
       <r>    9.4878    0.0000 </r>
       <r>   10.2237    0.0000 </r>
       <r>   10.5103    0.0000 </r>
      </set>
      <set comment="kpoint 70">
       <r>   -5.2874    1.0000 </r>
       <r>    2.4115    1.0000 </r>
       <r>    3.9273    1.0000 </r>
       <r>    3.9516    1.0000 </r>
       <r>    7.0247    0.0000 </r>
       <r>    9.1556    0.0000 </r>
       <r>   10.8948    0.0000 </r>
       <r>   10.9786    0.0000 </r>
      </set>
      <set comment="kpoint 71">
       <r>   -5.5242    1.0000 </r>
       <r>    2.7777    1.0000 </r>
       <r>    4.0782    1.0000 </r>
       <r>    4.5598    1.0000 </r>
       <r>    7.6201    0.0000 </r>
       <r>    9.4881    0.0000 </r>
       <r>   10.1985    0.0000 </r>
       <r>   10.2659    0.0000 </r>
      </set>
      <set comment="kpoint 72">
       <r>   -5.8173    1.0000 </r>
       <r>    3.7851    1.0000 </r>
       <r>    4.6681    1.0000 </r>
       <r>    4.7251    1.0000 </r>
       <r>    7.6061    0.0000 </r>
       <r>    9.4123    0.0000 </r>
       <r>    9.6339    0.0000 </r>
       <r>   10.1526    0.0000 </r>
      </set>
      <set comment="kpoint 73">
       <r>   -5.9961    1.0000 </r>
       <r>    4.0482    1.0000 </r>
       <r>    5.3619    1.0000 </r>
       <r>    5.3619    1.0000 </r>
       <r>    8.0942    0.0000 </r>
       <r>    8.6306    0.0000 </r>
       <r>    8.6306    0.0000 </r>
       <r>   10.1763    0.0000 </r>
      </set>
      <set comment="kpoint 74">
       <r>   -5.8191    1.0000 </r>
       <r>    3.4232    1.0000 </r>
       <r>    4.5022    1.0000 </r>
       <r>    5.4333    0.9999 </r>
       <r>    8.4414    0.0000 </r>
       <r>    8.6185    0.0000 </r>
       <r>    8.8921    0.0000 </r>
       <r>   10.8268    0.0000 </r>
      </set>
      <set comment="kpoint 75">
       <r>   -5.4708    1.0000 </r>
       <r>    2.3686    1.0000 </r>
       <r>    3.7256    1.0000 </r>
       <r>    5.2200    1.0000 </r>
       <r>    8.5711    0.0000 </r>
       <r>    8.9711    0.0000 </r>
       <r>    9.2649    0.0000 </r>
       <r>   11.2707    0.0000 </r>
      </set>
      <set comment="kpoint 76">
       <r>   -4.9687    1.0000 </r>
       <r>    1.0464    1.0000 </r>
       <r>    3.3658    1.0000 </r>
       <r>    4.8772    1.0000 </r>
       <r>    8.3129    0.0000 </r>
       <r>    9.3284    0.0000 </r>
       <r>    9.5129    0.0000 </r>
       <r>   11.8826    0.0000 </r>
      </set>
      <set comment="kpoint 77">
       <r>   -4.3629    1.0000 </r>
       <r>   -0.1754    1.0000 </r>
       <r>    3.2222    1.0000 </r>
       <r>    4.5389    1.0000 </r>
       <r>    8.0687    0.0000 </r>
       <r>    9.3753    0.0000 </r>
       <r>    9.4949    0.0000 </r>
       <r>   12.9601    0.0000 </r>
      </set>
      <set comment="kpoint 78">
       <r>   -3.8304    1.0000 </r>
       <r>   -1.0299    1.0000 </r>
       <r>    3.2365    1.0000 </r>
       <r>    4.2687    1.0000 </r>
       <r>    7.8959    0.0000 </r>
       <r>    9.2133    0.0000 </r>
       <r>    9.6050    0.0000 </r>
       <r>   13.8366    0.0000 </r>
      </set>
      <set comment="kpoint 79">
       <r>   -3.8276    1.0000 </r>
       <r>   -1.0354    1.0000 </r>
       <r>    3.3866    1.0000 </r>
       <r>    4.1009    1.0000 </r>
       <r>    7.8208    0.0000 </r>
       <r>    9.1608    0.0000 </r>
       <r>    9.7780    0.0000 </r>
       <r>   12.9972    0.0000 </r>
      </set>
      <set comment="kpoint 80">
       <r>   -4.3583    1.0000 </r>
       <r>   -0.1865    1.0000 </r>
       <r>    3.6546    1.0000 </r>
       <r>    4.0544    1.0000 </r>
       <r>    7.8507    0.0000 </r>
       <r>    9.2162    0.0000 </r>
       <r>   10.0149    0.0000 </r>
       <r>   11.6842    0.0000 </r>
      </set>
      <set comment="kpoint 81">
       <r>   -4.9645    1.0000 </r>
       <r>    1.0419    1.0000 </r>
       <r>    4.0146    1.0000 </r>
       <r>    4.1379    1.0000 </r>
       <r>    7.9142    0.0000 </r>
       <r>    9.2830    0.0000 </r>
       <r>   10.1921    0.0000 </r>
       <r>   10.7187    0.0000 </r>
      </set>
      <set comment="kpoint 82">
       <r>   -5.4679    1.0000 </r>
       <r>    2.4254    1.0000 </r>
       <r>    4.3494    1.0000 </r>
       <r>    4.4133    1.0000 </r>
       <r>    7.8038    0.0000 </r>
       <r>    9.2810    0.0000 </r>
       <r>   10.1027    0.0000 </r>
       <r>   10.4276    0.0000 </r>
      </set>
      <set comment="kpoint 83">
       <r>   -5.7017    1.0000 </r>
       <r>    2.9745    1.0000 </r>
       <r>    4.7011    1.0000 </r>
       <r>    4.8981    1.0000 </r>
       <r>    8.0520    0.0000 </r>
       <r>    8.7814    0.0000 </r>
       <r>    9.5468    0.0000 </r>
       <r>   10.8189    0.0000 </r>
      </set>
      <set comment="kpoint 84">
       <r>   -5.4109    1.0000 </r>
       <r>    2.3319    1.0000 </r>
       <r>    3.7299    1.0000 </r>
       <r>    4.8274    1.0000 </r>
       <r>    8.1425    0.0000 </r>
       <r>    9.1203    0.0000 </r>
       <r>   10.0385    0.0000 </r>
       <r>   10.5136    0.0000 </r>
      </set>
      <set comment="kpoint 85">
       <r>   -4.9591    1.0000 </r>
       <r>    1.3656    1.0000 </r>
       <r>    2.9968    1.0000 </r>
       <r>    4.5561    1.0000 </r>
       <r>    8.5436    0.0000 </r>
       <r>    9.0901    0.0000 </r>
       <r>   10.3571    0.0000 </r>
       <r>   10.6116    0.0000 </r>
      </set>
      <set comment="kpoint 86">
       <r>   -4.3797    1.0000 </r>
       <r>    0.2171    1.0000 </r>
       <r>    2.6787    1.0000 </r>
       <r>    4.2069    1.0000 </r>
       <r>    8.6162    0.0000 </r>
       <r>    8.9737    0.0000 </r>
       <r>   10.7042    0.0000 </r>
       <r>   11.1253    0.0000 </r>
      </set>
      <set comment="kpoint 87">
       <r>   -3.7842    1.0000 </r>
       <r>   -0.7568    1.0000 </r>
       <r>    2.5850    1.0000 </r>
       <r>    3.9244    1.0000 </r>
       <r>    8.4308    0.0000 </r>
       <r>    8.9254    0.0000 </r>
       <r>   10.7680    0.0000 </r>
       <r>   12.3445    0.0000 </r>
      </set>
      <set comment="kpoint 88">
       <r>   -3.5498    1.0000 </r>
       <r>   -1.0919    1.0000 </r>
       <r>    2.6258    1.0000 </r>
       <r>    3.7867    1.0000 </r>
       <r>    8.2507    0.0000 </r>
       <r>    9.0220    0.0000 </r>
       <r>   10.7976    0.0000 </r>
       <r>   12.8904    0.0000 </r>
      </set>
      <set comment="kpoint 89">
       <r>   -3.9640    1.0000 </r>
       <r>   -0.4849    1.0000 </r>
       <r>    2.7591    1.0000 </r>
       <r>    3.8345    1.0000 </r>
       <r>    8.1569    0.0000 </r>
       <r>    9.2404    0.0000 </r>
       <r>   10.8658    0.0000 </r>
       <r>   11.4235    0.0000 </r>
      </set>
      <set comment="kpoint 90">
       <r>   -4.5779    1.0000 </r>
       <r>    0.5927    1.0000 </r>
       <r>    2.9858    1.0000 </r>
       <r>    4.0576    1.0000 </r>
       <r>    8.1046    0.0000 </r>
       <r>    9.5056    0.0000 </r>
       <r>   10.2469    0.0000 </r>
       <r>   10.9740    0.0000 </r>
      </set>
      <set comment="kpoint 91">
       <r>   -5.1224    1.0000 </r>
       <r>    1.7820    1.0000 </r>
       <r>    3.3747    1.0000 </r>
       <r>    4.3651    1.0000 </r>
       <r>    7.8814    0.0000 </r>
       <r>    9.4876    0.0000 </r>
       <r>   10.0498    0.0000 </r>
       <r>   10.7678    0.0000 </r>
      </set>
      <set comment="kpoint 92">
       <r>   -5.1778    1.0000 </r>
       <r>    1.8718    1.0000 </r>
       <r>    3.9054    1.0000 </r>
       <r>    4.0182    1.0000 </r>
       <r>    7.5269    0.0000 </r>
       <r>    9.5004    0.0000 </r>
       <r>   10.2741    0.0000 </r>
       <r>   10.6856    0.0000 </r>
      </set>
      <set comment="kpoint 93">
       <r>   -4.7798    1.0000 </r>
       <r>    1.2229    1.0000 </r>
       <r>    3.0591    1.0000 </r>
       <r>    3.9030    1.0000 </r>
       <r>    7.6405    0.0000 </r>
       <r>    9.1890    0.0000 </r>
       <r>   10.3340    0.0000 </r>
       <r>   11.5254    0.0000 </r>
      </set>
      <set comment="kpoint 94">
       <r>   -4.2393    1.0000 </r>
       <r>    0.3745    1.0000 </r>
       <r>    2.4370    1.0000 </r>
       <r>    3.5837    1.0000 </r>
       <r>    8.1296    0.0000 </r>
       <r>    9.3403    0.0000 </r>
       <r>   10.0272    0.0000 </r>
       <r>   12.2170    0.0000 </r>
      </set>
      <set comment="kpoint 95">
       <r>   -3.6252    1.0000 </r>
       <r>   -0.5284    1.0000 </r>
       <r>    2.0935    1.0000 </r>
       <r>    3.3137    1.0000 </r>
       <r>    8.3390    0.0000 </r>
       <r>    9.6428    0.0000 </r>
       <r>   10.3978    0.0000 </r>
       <r>   12.3720    0.0000 </r>
      </set>
      <set comment="kpoint 96">
       <r>   -3.2032    1.0000 </r>
       <r>   -1.0834    1.0000 </r>
       <r>    1.9215    1.0000 </r>
       <r>    3.2397    1.0000 </r>
       <r>    8.5117    0.0000 </r>
       <r>    9.3496    0.0000 </r>
       <r>   11.8842    0.0000 </r>
       <r>   12.3371    0.0000 </r>
      </set>
      <set comment="kpoint 97">
       <r>   -3.4504    1.0000 </r>
       <r>   -0.7625    1.0000 </r>
       <r>    1.8978    1.0000 </r>
       <r>    3.3855    1.0000 </r>
       <r>    8.7941    0.0000 </r>
       <r>    9.1443    0.0000 </r>
       <r>   11.2978    0.0000 </r>
       <r>   12.3101    0.0000 </r>
      </set>
      <set comment="kpoint 98">
       <r>   -4.0499    1.0000 </r>
       <r>    0.0694    1.0000 </r>
       <r>    2.1006    1.0000 </r>
       <r>    3.7002    1.0000 </r>
       <r>    8.9221    0.0000 </r>
       <r>    9.1753    0.0000 </r>
       <r>   10.1045    0.0000 </r>
       <r>   12.1062    0.0000 </r>
      </set>
      <set comment="kpoint 99">
       <r>   -4.6240    1.0000 </r>
       <r>    0.8719    1.0000 </r>
       <r>    2.6909    1.0000 </r>
       <r>    4.0700    1.0000 </r>
       <r>    8.3249    0.0000 </r>
       <r>    9.4972    0.0000 </r>
       <r>    9.8387    0.0000 </r>
       <r>   11.3946    0.0000 </r>
      </set>
      <set comment="kpoint 100">
       <r>   -4.4359    1.0000 </r>
       <r>    0.7127    1.0000 </r>
       <r>    3.0155    1.0000 </r>
       <r>    3.4688    1.0000 </r>
       <r>    7.0280    0.0000 </r>
       <r>    8.5729    0.0000 </r>
       <r>   11.5955    0.0000 </r>
       <r>   11.9045    0.0000 </r>
      </set>
      <set comment="kpoint 101">
       <r>   -3.9419    1.0000 </r>
       <r>    0.0557    1.0000 </r>
       <r>    2.5688    1.0000 </r>
       <r>    3.1383    1.0000 </r>
       <r>    7.2789    0.0000 </r>
       <r>    8.2912    0.0000 </r>
       <r>   11.5390    0.0000 </r>
       <r>   13.1009    0.0000 </r>
      </set>
      <set comment="kpoint 102">
       <r>   -3.3394    1.0000 </r>
       <r>   -0.6604    1.0000 </r>
       <r>    2.0991    1.0000 </r>
       <r>    2.7872    1.0000 </r>
       <r>    7.8550    0.0000 </r>
       <r>    8.6599    0.0000 </r>
       <r>   11.1941    0.0000 </r>
       <r>   13.8792    0.0000 </r>
      </set>
      <set comment="kpoint 103">
       <r>   -2.7945    1.0000 </r>
       <r>   -1.2518    1.0000 </r>
       <r>    1.6573    1.0000 </r>
       <r>    2.7361    1.0000 </r>
       <r>    8.0619    0.0000 </r>
       <r>    9.9526    0.0000 </r>
       <r>   10.8899    0.0000 </r>
       <r>   13.0438    0.0000 </r>
      </set>
      <set comment="kpoint 104">
       <r>   -2.8707    1.0000 </r>
       <r>   -1.1637    1.0000 </r>
       <r>    1.4515    1.0000 </r>
       <r>    2.9361    1.0000 </r>
       <r>    8.3422    0.0000 </r>
       <r>   10.4666    0.0000 </r>
       <r>   11.3606    0.0000 </r>
       <r>   11.8143    0.0000 </r>
      </set>
      <set comment="kpoint 105">
       <r>   -3.4409    1.0000 </r>
       <r>   -0.6134    1.0000 </r>
       <r>    1.6632    1.0000 </r>
       <r>    3.3062    1.0000 </r>
       <r>    8.7480    0.0000 </r>
       <r>    9.6505    0.0000 </r>
       <r>   10.6600    0.0000 </r>
       <r>   12.9035    0.0000 </r>
      </set>
      <set comment="kpoint 106">
       <r>   -4.0197    1.0000 </r>
       <r>   -0.1623    1.0000 </r>
       <r>    2.3723    1.0000 </r>
       <r>    3.7446    1.0000 </r>
       <r>    8.5311    0.0000 </r>
       <r>    9.1989    0.0000 </r>
       <r>   10.6580    0.0000 </r>
       <r>   11.5741    0.0000 </r>
      </set>
      <set comment="kpoint 107">
       <r>   -3.4958    1.0000 </r>
       <r>   -0.5256    1.0000 </r>
       <r>    2.4327    1.0000 </r>
       <r>    3.1053    1.0000 </r>
       <r>    6.6911    0.0000 </r>
       <r>    7.8626    0.0000 </r>
       <r>   13.1414    0.0000 </r>
       <r>   13.2147    0.0000 </r>
[...]
       <r>   -1.2075    1.0000 </r>
       <r>    1.5875    1.0000 </r>
       <r>    3.1429    1.0000 </r>
       <r>    7.6665    0.0000 </r>
       <r>   10.6331    0.0000 </r>
       <r>   11.0705    0.0000 </r>
       <r>   12.9403    0.0000 </r>
      </set>
      <set comment="kpoint 172">
       <r>   -2.7746    1.0000 </r>
       <r>   -1.3133    1.0000 </r>
       <r>    1.3534    1.0000 </r>
       <r>    3.4048    1.0000 </r>
       <r>    7.0690    0.0000 </r>
       <r>   10.6472    0.0000 </r>
       <r>   12.4796    0.0000 </r>
       <r>   12.8172    0.0000 </r>
      </set>
      <set comment="kpoint 173">
       <r>   -4.5352    1.0000 </r>
       <r>   -0.2460    1.0000 </r>
       <r>    4.5687    1.0000 </r>
       <r>    4.5687    1.0000 </r>
       <r>    7.2477    0.0000 </r>
       <r>    9.1313    0.0000 </r>
       <r>    9.1313    0.0000 </r>
       <r>   13.4894    0.0000 </r>
      </set>
      <set comment="kpoint 174">
       <r>   -4.2561    1.0000 </r>
       <r>   -0.5606    1.0000 </r>
       <r>    3.7842    1.0000 </r>
       <r>    4.5314    1.0000 </r>
       <r>    7.7180    0.0000 </r>
       <r>    9.1630    0.0000 </r>
       <r>    9.2435    0.0000 </r>
       <r>   13.4629    0.0000 </r>
      </set>
      <set comment="kpoint 175">
       <r>   -3.8448    1.0000 </r>
       <r>   -0.7640    1.0000 </r>
       <r>    2.6433    1.0000 </r>
       <r>    4.2054    1.0000 </r>
       <r>    7.9506    0.0000 </r>
       <r>    9.7167    0.0000 </r>
       <r>    9.9796    0.0000 </r>
       <r>   13.5220    0.0000 </r>
      </set>
      <set comment="kpoint 176">
       <r>   -3.3318    1.0000 </r>
       <r>   -0.9493    1.0000 </r>
       <r>    1.7167    1.0000 </r>
       <r>    3.7843    1.0000 </r>
       <r>    7.5195    0.0000 </r>
       <r>   11.0916    0.0000 </r>
       <r>   11.1330    0.0000 </r>
       <r>   12.5781    0.0000 </r>
      </set>
      <set comment="kpoint 177">
       <r>   -4.0715    1.0000 </r>
       <r>   -0.8567    1.0000 </r>
       <r>    3.9659    1.0000 </r>
       <r>    4.2539    1.0000 </r>
       <r>    7.6705    0.0000 </r>
       <r>    8.9310    0.0000 </r>
       <r>    9.4676    0.0000 </r>
       <r>   13.1917    0.0000 </r>
      </set>
      <set comment="kpoint 178">
       <r>   -3.7703    1.0000 </r>
       <r>   -1.0113    1.0000 </r>
       <r>    3.0826    1.0000 </r>
       <r>    4.0426    1.0000 </r>
       <r>    8.1961    0.0000 </r>
       <r>    8.8280    0.0000 </r>
       <r>   10.1608    0.0000 </r>
       <r>   13.0944    0.0000 </r>
      </set>
      <set comment="kpoint 179">
       <r>   -3.3789    1.0000 </r>
       <r>   -1.0661    1.0000 </r>
       <r>    2.1472    1.0000 </r>
       <r>    3.5976    1.0000 </r>
       <r>    8.1424    0.0000 </r>
       <r>    9.4805    0.0000 </r>
       <r>   11.4801    0.0000 </r>
       <r>   12.7086    0.0000 </r>
      </set>
      <set comment="kpoint 180">
       <r>   -3.6077    1.0000 </r>
       <r>   -1.1083    1.0000 </r>
       <r>    2.7775    1.0000 </r>
       <r>    3.9666    1.0000 </r>
       <r>    7.7537    0.0000 </r>
       <r>    9.7008    0.0000 </r>
       <r>   10.1733    0.0000 </r>
       <r>   12.8196    0.0000 </r>
      </set>
      <set comment="kpoint 181">
       <r>   -4.0065    1.0000 </r>
       <r>   -1.1124    1.0000 </r>
       <r>    4.4671    1.0000 </r>
       <r>    4.4671    1.0000 </r>
       <r>    7.1324    0.0000 </r>
       <r>    9.0332    0.0000 </r>
       <r>    9.0332    0.0000 </r>
       <r>   13.3742    0.0000 </r>
      </set>
      <set comment="kpoint 182">
       <r>   -3.8456    1.0000 </r>
       <r>   -1.1926    1.0000 </r>
       <r>    3.8171    1.0000 </r>
       <r>    4.3402    1.0000 </r>
       <r>    7.6399    0.0000 </r>
       <r>    8.9910    0.0000 </r>
       <r>    9.3116    0.0000 </r>
       <r>   13.6479    0.0000 </r>
      </set>
     </set>
    </set>
   </array>
  </eigenvalues>
  <separator name="orbital magnetization" >
   <v name="MAGDIPOLOUT">      0.00000000      0.00000000      0.00000000</v>
  </separator>
  <dos>
   <i name="efermi">      5.96217309 </i>
   <total>
    <array>
     <dimension dim="1">gridpoints</dimension>
     <dimension dim="2">spin</dimension>
     <field>energy</field>
     <field>total</field>
     <field>integrated</field>
     <set>
      <set comment="spin 1">
       <r>    -8.1742     0.0000     0.0000 </r>
       <r>    -8.0891     0.0000     0.0000 </r>
       <r>    -8.0039     0.0000     0.0000 </r>
       <r>    -7.9187     0.0000     0.0000 </r>
       <r>    -7.8336     0.0000     0.0000 </r>
       <r>    -7.7484     0.0000     0.0000 </r>
       <r>    -7.6633     0.0000     0.0000 </r>
       <r>    -7.5781     0.0000     0.0000 </r>
       <r>    -7.4930     0.0000     0.0000 </r>
       <r>    -7.4078     0.0000     0.0000 </r>
       <r>    -7.3226     0.0000     0.0000 </r>
       <r>    -7.2375     0.0000     0.0000 </r>
       <r>    -7.1523     0.0000     0.0000 </r>
       <r>    -7.0672     0.0000     0.0000 </r>
       <r>    -6.9820     0.0000     0.0000 </r>
       <r>    -6.8969     0.0000     0.0000 </r>
       <r>    -6.8117     0.0000     0.0000 </r>
       <r>    -6.7265     0.0000     0.0000 </r>
       <r>    -6.6414     0.0000     0.0000 </r>
       <r>    -6.5562     0.0002     0.0000 </r>
       <r>    -6.4711     0.0010     0.0001 </r>
       <r>    -6.3859     0.0042     0.0005 </r>
       <r>    -6.3008     0.0134     0.0016 </r>
       <r>    -6.2156     0.0333     0.0044 </r>
       <r>    -6.1304     0.0651     0.0100 </r>
       <r>    -6.0453     0.1048     0.0189 </r>
       <r>    -5.9601     0.1450     0.0313 </r>
       <r>    -5.8750     0.1811     0.0467 </r>
       <r>    -5.7898     0.2120     0.0647 </r>
       <r>    -5.7047     0.2388     0.0851 </r>
       <r>    -5.6195     0.2633     0.1075 </r>
       <r>    -5.5343     0.2864     0.1319 </r>
       <r>    -5.4492     0.3072     0.1580 </r>
       <r>    -5.3640     0.3270     0.1859 </r>
       <r>    -5.2789     0.3485     0.2156 </r>
       <r>    -5.1937     0.3696     0.2470 </r>
       <r>    -5.1086     0.3865     0.2799 </r>
       <r>    -5.0234     0.4031     0.3143 </r>
       <r>    -4.9382     0.4252     0.3505 </r>
       <r>    -4.8531     0.4490     0.3887 </r>
       <r>    -4.7679     0.4677     0.4285 </r>
       <r>    -4.6828     0.4818     0.4696 </r>
       <r>    -4.5976     0.4999     0.5121 </r>
       <r>    -4.5125     0.5286     0.5572 </r>
       <r>    -4.4273     0.5615     0.6050 </r>
       <r>    -4.3421     0.5855     0.6548 </r>
       <r>    -4.2570     0.6030     0.7062 </r>
       <r>    -4.1718     0.6331     0.7601 </r>
       <r>    -4.0867     0.6854     0.8185 </r>
       <r>    -4.0015     0.7494     0.8823 </r>
       <r>    -3.9164     0.8057     0.9509 </r>
       <r>    -3.8312     0.8364     1.0221 </r>
       <r>    -3.7460     0.8355     1.0933 </r>
       <r>    -3.6609     0.8201     1.1631 </r>
       <r>    -3.5757     0.8095     1.2320 </r>
       <r>    -3.4906     0.8002     1.3002 </r>
       <r>    -3.4054     0.7807     1.3667 </r>
       <r>    -3.3203     0.7462     1.4302 </r>
       <r>    -3.2351     0.6931     1.4892 </r>
       <r>    -3.1499     0.6335     1.5432 </r>
       <r>    -3.0648     0.6026     1.5945 </r>
       <r>    -2.9796     0.6134     1.6467 </r>
       <r>    -2.8945     0.6247     1.6999 </r>
       <r>    -2.8093     0.5863     1.7499 </r>
       <r>    -2.7242     0.4997     1.7924 </r>
       <r>    -2.6390     0.4143     1.8277 </r>
       <r>    -2.5538     0.3765     1.8598 </r>
       <r>    -2.4687     0.3861     1.8926 </r>
       <r>    -2.3835     0.3949     1.9263 </r>
       <r>    -2.2984     0.3539     1.9564 </r>
       <r>    -2.2132     0.2603     1.9786 </r>
       <r>    -2.1281     0.1557     1.9918 </r>
       <r>    -2.0429     0.0876     1.9993 </r>
       <r>    -1.9577     0.0853     2.0065 </r>
       <r>    -1.8726     0.1531     2.0196 </r>
       <r>    -1.7874     0.2594     2.0417 </r>
       <r>    -1.7023     0.3415     2.0708 </r>
       <r>    -1.6171     0.3579     2.1012 </r>
       <r>    -1.5320     0.3368     2.1299 </r>
       <r>    -1.4468     0.3539     2.1601 </r>
       <r>    -1.3616     0.4754     2.2005 </r>
       <r>    -1.2765     0.7125     2.2612 </r>
       <r>    -1.1913     0.9920     2.3457 </r>
       <r>    -1.1062     1.1865     2.4467 </r>
       <r>    -1.0210     1.2165     2.5503 </r>
       <r>    -0.9359     1.1164     2.6454 </r>
       <r>    -0.8507     0.9797     2.7288 </r>
       <r>    -0.7655     0.8674     2.8027 </r>
       <r>    -0.6804     0.7931     2.8702 </r>
       <r>    -0.5952     0.7511     2.9342 </r>
       <r>    -0.5101     0.7120     2.9948 </r>
       <r>    -0.4249     0.6414     3.0494 </r>
       <r>    -0.3398     0.5578     3.0969 </r>
       <r>    -0.2546     0.5101     3.1404 </r>
       <r>    -0.1694     0.4939     3.1824 </r>
       <r>    -0.0843     0.4677     3.2223 </r>
       <r>     0.0009     0.4362     3.2594 </r>
       <r>     0.0860     0.4358     3.2965 </r>
       <r>     0.1712     0.4519     3.3350 </r>
       <r>     0.2563     0.4295     3.3716 </r>
       <r>     0.3415     0.3646     3.4026 </r>
       <r>     0.4267     0.3151     3.4295 </r>
       <r>     0.5118     0.3160     3.4564 </r>
       <r>     0.5970     0.3342     3.4848 </r>
       <r>     0.6821     0.3224     3.5123 </r>
       <r>     0.7673     0.2858     3.5366 </r>
       <r>     0.8524     0.2680     3.5594 </r>
       <r>     0.9376     0.2812     3.5834 </r>
       <r>     1.0228     0.2908     3.6081 </r>
       <r>     1.1079     0.2731     3.6314 </r>
       <r>     1.1931     0.2607     3.6536 </r>
       <r>     1.2782     0.3143     3.6804 </r>
       <r>     1.3634     0.4612     3.7196 </r>
       <r>     1.4485     0.6702     3.7767 </r>
       <r>     1.5337     0.8755     3.8513 </r>
       <r>     1.6189     1.0184     3.9380 </r>
       <r>     1.7040     1.0829     4.0302 </r>
       <r>     1.7892     1.0990     4.1238 </r>
       <r>     1.8743     1.1036     4.2178 </r>
       <r>     1.9595     1.1005     4.3115 </r>
       <r>     2.0447     1.0749     4.4030 </r>
       <r>     2.1298     1.0366     4.4913 </r>
       <r>     2.2150     1.0240     4.5785 </r>
       <r>     2.3001     1.0605     4.6688 </r>
       <r>     2.3853     1.1202     4.7642 </r>
       <r>     2.4704     1.1583     4.8629 </r>
       <r>     2.5556     1.1719     4.9627 </r>
       <r>     2.6408     1.1987     5.0647 </r>
       <r>     2.7259     1.2639     5.1724 </r>
       <r>     2.8111     1.3586     5.2881 </r>
       <r>     2.8962     1.4534     5.4118 </r>
       <r>     2.9814     1.5116     5.5406 </r>
       <r>     3.0665     1.5112     5.6693 </r>
       <r>     3.1517     1.4684     5.7943 </r>
       <r>     3.2369     1.4289     5.9160 </r>
       <r>     3.3220     1.4242     6.0373 </r>
       <r>     3.4072     1.4348     6.1594 </r>
       <r>     3.4923     1.4165     6.2801 </r>
       <r>     3.5775     1.3639     6.3962 </r>
       <r>     3.6626     1.3187     6.5085 </r>
       <r>     3.7478     1.3070     6.6198 </r>
       <r>     3.8330     1.3054     6.7310 </r>
       <r>     3.9181     1.2856     6.8404 </r>
       <r>     4.0033     1.2536     6.9472 </r>
       <r>     4.0884     1.2276     7.0517 </r>
       <r>     4.1736     1.2072     7.1545 </r>
       <r>     4.2587     1.1758     7.2547 </r>
       <r>     4.3439     1.1242     7.3504 </r>
       <r>     4.4291     1.0605     7.4407 </r>
       <r>     4.5142     0.9858     7.5247 </r>
       <r>     4.5994     0.8826     7.5998 </r>
       <r>     4.6845     0.7538     7.6640 </r>
       <r>     4.7697     0.6377     7.7183 </r>
       <r>     4.8548     0.5608     7.7661 </r>
       <r>     4.9400     0.5087     7.8094 </r>
       <r>     5.0252     0.4550     7.8481 </r>
       <r>     5.1103     0.3931     7.8816 </r>
       <r>     5.1955     0.3340     7.9101 </r>
       <r>     5.2806     0.2852     7.9343 </r>
       <r>     5.3658     0.2424     7.9550 </r>
       <r>     5.4509     0.1971     7.9718 </r>
       <r>     5.5361     0.1464     7.9842 </r>
       <r>     5.6213     0.0957     7.9924 </r>
       <r>     5.7064     0.0532     7.9969 </r>
       <r>     5.7916     0.0243     7.9990 </r>
       <r>     5.8767     0.0088     7.9998 </r>
       <r>     5.9619     0.0029     8.0000 </r>
       <r>     6.0470     0.0031     8.0003 </r>
       <r>     6.1322     0.0104     8.0012 </r>
       <r>     6.2174     0.0296     8.0037 </r>
       <r>     6.3025     0.0647     8.0092 </r>
       <r>     6.3877     0.1151     8.0190 </r>
       <r>     6.4728     0.1792     8.0342 </r>
       <r>     6.5580     0.2540     8.0559 </r>
       <r>     6.6431     0.3267     8.0837 </r>
       <r>     6.7283     0.3809     8.1161 </r>
       <r>     6.8135     0.4159     8.1516 </r>
       <r>     6.8986     0.4522     8.1901 </r>
       <r>     6.9838     0.5136     8.2338 </r>
       <r>     7.0689     0.5982     8.2847 </r>
       <r>     7.1541     0.6758     8.3423 </r>
       <r>     7.2392     0.7305     8.4045 </r>
       <r>     7.3244     0.7815     8.4710 </r>
       <r>     7.4096     0.8498     8.5434 </r>
       <r>     7.4947     0.9401     8.6235 </r>
       <r>     7.5799     1.0512     8.7130 </r>
       <r>     7.6650     1.1780     8.8133 </r>
       <r>     7.7502     1.3143     8.9252 </r>
       <r>     7.8353     1.4460     9.0484 </r>
       <r>     7.9205     1.5327     9.1789 </r>
       <r>     8.0057     1.5387     9.3099 </r>
       <r>     8.0908     1.4890     9.4367 </r>
       <r>     8.1760     1.4354     9.5590 </r>
       <r>     8.2611     1.3874     9.6771 </r>
       <r>     8.3463     1.3237     9.7898 </r>
       <r>     8.4314     1.2464     9.8960 </r>
       <r>     8.5166     1.1810     9.9965 </r>
       <r>     8.6018     1.1427    10.0938 </r>
       <r>     8.6869     1.1436    10.1912 </r>
       <r>     8.7721     1.2230    10.2954 </r>
       <r>     8.8572     1.4150    10.4159 </r>
       <r>     8.9424     1.6753    10.5585 </r>
       <r>     9.0275     1.8847    10.7190 </r>
       <r>     9.1127     1.9551    10.8855 </r>
       <r>     9.1979     1.9021    11.0475 </r>
       <r>     9.2830     1.7988    11.2007 </r>
       <r>     9.3682     1.6987    11.3453 </r>
       <r>     9.4533     1.6097    11.4824 </r>
       <r>     9.5385     1.5137    11.6113 </r>
       <r>     9.6236     1.4107    11.7315 </r>
       <r>     9.7088     1.3314    11.8448 </r>
       <r>     9.7940     1.2951    11.9551 </r>
       <r>     9.8791     1.2835    12.0644 </r>
       <r>     9.9643     1.2705    12.1726 </r>
       <r>    10.0494     1.2523    12.2793 </r>
       <r>    10.1346     1.2497    12.3857 </r>
       <r>    10.2197     1.2783    12.4945 </r>
       <r>    10.3049     1.3103    12.6061 </r>
       <r>    10.3901     1.3022    12.7170 </r>
       <r>    10.4752     1.2641    12.8246 </r>
       <r>    10.5604     1.2428    12.9305 </r>
       <r>    10.6455     1.2479    13.0367 </r>
       <r>    10.7307     1.2532    13.1435 </r>
       <r>    10.8158     1.2515    13.2500 </r>
       <r>    10.9010     1.2475    13.3563 </r>
       <r>    10.9862     1.2197    13.4601 </r>
       <r>    11.0713     1.1530    13.5583 </r>
       <r>    11.1565     1.0841    13.6506 </r>
       <r>    11.2416     1.0609    13.7410 </r>
       <r>    11.3268     1.0798    13.8329 </r>
       <r>    11.4119     1.1035    13.9269 </r>
       <r>    11.4971     1.1171    14.0220 </r>
       <r>    11.5823     1.1234    14.1177 </r>
       <r>    11.6674     1.1085    14.2121 </r>
       <r>    11.7526     1.0574    14.3022 </r>
       <r>    11.8377     0.9819    14.3858 </r>
       <r>    11.9229     0.9112    14.4634 </r>
       <r>    12.0080     0.8686    14.5373 </r>
       <r>    12.0932     0.8672    14.6112 </r>
       <r>    12.1784     0.9083    14.6885 </r>
       <r>    12.2635     0.9673    14.7709 </r>
       <r>    12.3487     0.9973    14.8558 </r>
       <r>    12.4338     0.9666    14.9381 </r>
       <r>    12.5190     0.8796    15.0130 </r>
       <r>    12.6041     0.7603    15.0778 </r>
       <r>    12.6893     0.6466    15.1328 </r>
       <r>    12.7745     0.5918    15.1832 </r>
       <r>    12.8596     0.6199    15.2360 </r>
       <r>    12.9448     0.6908    15.2949 </r>
       <r>    13.0299     0.7409    15.3579 </r>
       <r>    13.1151     0.7393    15.4209 </r>
       <r>    13.2002     0.6900    15.4797 </r>
       <r>    13.2854     0.6117    15.5317 </r>
       <r>    13.3706     0.5299    15.5769 </r>
       <r>    13.4557     0.4659    15.6165 </r>
       <r>    13.5409     0.4260    15.6528 </r>
       <r>    13.6260     0.4044    15.6873 </r>
       <r>    13.7112     0.3995    15.7213 </r>
       <r>    13.7963     0.4157    15.7567 </r>
       <r>    13.8815     0.4315    15.7934 </r>
       <r>    13.9667     0.3972    15.8273 </r>
       <r>    14.0518     0.2986    15.8527 </r>
       <r>    14.1370     0.1866    15.8686 </r>
       <r>    14.2221     0.1187    15.8787 </r>
       <r>    14.3073     0.1032    15.8875 </r>
       <r>    14.3925     0.1143    15.8972 </r>
       <r>    14.4776     0.1358    15.9088 </r>
       <r>    14.5628     0.1659    15.9229 </r>
       <r>    14.6479     0.1885    15.9390 </r>
       <r>    14.7331     0.1751    15.9539 </r>
       <r>    14.8182     0.1240    15.9644 </r>
       <r>    14.9034     0.0684    15.9703 </r>
       <r>    14.9886     0.0389    15.9736 </r>
       <r>    15.0737     0.0379    15.9768 </r>
       <r>    15.1589     0.0494    15.9810 </r>
       <r>    15.2440     0.0582    15.9860 </r>
       <r>    15.3292     0.0581    15.9909 </r>
       <r>    15.4143     0.0486    15.9950 </r>
       <r>    15.4995     0.0328    15.9978 </r>
       <r>    15.5847     0.0169    15.9993 </r>
       <r>    15.6698     0.0064    15.9998 </r>
       <r>    15.7550     0.0017    16.0000 </r>
       <r>    15.8401     0.0003    16.0000 </r>
       <r>    15.9253     0.0000    16.0000 </r>
       <r>    16.0104     0.0000    16.0000 </r>
       <r>    16.0956     0.0000    16.0000 </r>
       <r>    16.1808     0.0000    16.0000 </r>
       <r>    16.2659     0.0000    16.0000 </r>
       <r>    16.3511     0.0000    16.0000 </r>
       <r>    16.4362     0.0000    16.0000 </r>
       <r>    16.5214     0.0000    16.0000 </r>
       <r>    16.6065     0.0000    16.0000 </r>
       <r>    16.6917     0.0000    16.0000 </r>
       <r>    16.7769     0.0000    16.0000 </r>
       <r>    16.8620     0.0000    16.0000 </r>
       <r>    16.9472     0.0000    16.0000 </r>
       <r>    17.0323     0.0000    16.0000 </r>
       <r>    17.1175     0.0000    16.0000 </r>
       <r>    17.2026     0.0000    16.0000 </r>
       <r>    17.2878     0.0000    16.0000 </r>
       <r>    17.3730     0.0000    16.0000 </r>
      </set>
     </set>
    </array>
   </total>
  </dos>
 </calculation>
 <structure name="finalpos" >
  <crystal>
   <varray name="basis" >
    <v>      -0.00000000       2.73353320       2.73353320 </v>
    <v>       2.73353320       0.00000000       2.73353320 </v>
    <v>       2.73353320       2.73353320      -0.00000000 </v>
   </varray>
   <i name="volume">     40.85103425 </i>
   <varray name="rec_basis" >
    <v>      -0.18291345       0.18291345       0.18291345 </v>
    <v>       0.18291345      -0.18291345       0.18291345 </v>
    <v>       0.18291345       0.18291345      -0.18291345 </v>
   </varray>
  </crystal>
  <varray name="positions" >
   <v>       0.50000000       0.50000000       0.50000000 </v>
   <v>       0.75000000       0.75000000       0.75000000 </v>
  </varray>
 </structure>
</modeling>
