   2   2   0   0
  0.2001288E+02  0.3839590E-09  0.3839590E-09  0.3839590E-09  0.5000000E-15
  1.000000000000000E-004
  CAR 
 unknown system                          
     17.01480024     -8.19821681  301      5.91101375      1.00000000
     -8.198  0.0000E+00  0.0000E+00
     -8.114  0.0000E+00  0.0000E+00
     -8.030  0.0000E+00  0.0000E+00
     -7.946  0.0000E+00  0.0000E+00
     -7.862  0.0000E+00  0.0000E+00
     -7.778  0.0000E+00  0.0000E+00
     -7.694  0.0000E+00  0.0000E+00
     -7.610  0.0000E+00  0.0000E+00
     -7.526  0.0000E+00  0.0000E+00
     -7.442  0.0000E+00  0.0000E+00
     -7.358  0.2416E-18  0.2031E-19
     -7.274  0.3068E-16  0.2599E-17
     -7.190  0.2551E-14  0.2170E-15
     -7.106  0.1495E-12  0.1278E-13
     -7.022  0.6200E-11  0.5338E-12
     -6.938  0.1821E-09  0.1584E-10
     -6.854  0.3801E-08  0.3353E-09
     -6.769  0.5665E-07  0.5096E-08
     -6.685  0.6085E-06  0.5624E-07
     -6.601  0.4783E-05  0.4583E-06
     -6.517  0.2818E-04  0.2827E-05
     -6.433  0.1284E-03  0.1362E-04
     -6.349  0.4650E-03  0.5269E-04
     -6.265  0.1353E-02  0.1664E-03
     -6.181  0.3128E-02  0.4292E-03
     -6.097  0.5670E-02  0.9058E-03
     -6.013  0.8155E-02  0.1591E-02
     -5.929  0.9980E-02  0.2430E-02
     -5.845  0.1189E-01  0.3429E-02
     -5.761  0.1503E-01  0.4693E-02
     -5.677  0.1875E-01  0.6268E-02
     -5.593  0.2050E-01  0.7991E-02
     -5.509  0.1900E-01  0.9588E-02
     -5.425  0.1681E-01  0.1100E-01
     -5.341  0.1811E-01  0.1252E-01
     -5.257  0.2353E-01  0.1450E-01
     -5.173  0.2910E-01  0.1695E-01
     -5.089  0.3109E-01  0.1956E-01
     -5.005  0.3019E-01  0.2210E-01
     -4.921  0.2896E-01  0.2453E-01
     -4.836  0.2783E-01  0.2687E-01
     -4.752  0.2604E-01  0.2906E-01
     -4.668  0.2542E-01  0.3119E-01
     -4.584  0.2973E-01  0.3369E-01
     -4.500  0.3882E-01  0.3696E-01
     -4.416  0.4641E-01  0.4086E-01
     -4.332  0.4748E-01  0.4485E-01
     -4.248  0.4491E-01  0.4862E-01
     -4.164  0.4360E-01  0.5228E-01
     -4.080  0.4286E-01  0.5589E-01
     -3.996  0.4079E-01  0.5932E-01
     -3.912  0.4095E-01  0.6276E-01
     -3.828  0.4842E-01  0.6683E-01
     -3.744  0.6100E-01  0.7195E-01
     -3.660  0.6904E-01  0.7775E-01
     -3.576  0.6618E-01  0.8332E-01
     -3.492  0.5713E-01  0.8812E-01
     -3.408  0.5005E-01  0.9233E-01
     -3.324  0.4501E-01  0.9611E-01
     -3.240  0.3819E-01  0.9932E-01
     -3.156  0.3279E-01  0.1021E+00
     -3.072  0.3527E-01  0.1050E+00
     -2.988  0.4401E-01  0.1087E+00
     -2.903  0.5009E-01  0.1129E+00
     -2.819  0.4750E-01  0.1169E+00
     -2.735  0.3811E-01  0.1201E+00
     -2.651  0.2810E-01  0.1225E+00
     -2.567  0.2186E-01  0.1243E+00
     -2.483  0.1942E-01  0.1260E+00
     -2.399  0.1915E-01  0.1276E+00
     -2.315  0.1970E-01  0.1292E+00
     -2.231  0.1949E-01  0.1309E+00
     -2.147  0.1758E-01  0.1324E+00
     -2.063  0.1468E-01  0.1336E+00
     -1.979  0.1216E-01  0.1346E+00
     -1.895  0.1113E-01  0.1355E+00
     -1.811  0.1206E-01  0.1366E+00
     -1.727  0.1386E-01  0.1377E+00
     -1.643  0.1490E-01  0.1390E+00
     -1.559  0.1642E-01  0.1404E+00
     -1.475  0.2241E-01  0.1422E+00
     -1.391  0.3532E-01  0.1452E+00
     -1.307  0.5334E-01  0.1497E+00
     -1.223  0.7079E-01  0.1556E+00
     -1.139  0.8022E-01  0.1624E+00
     -1.055  0.7775E-01  0.1689E+00
     -0.970  0.6799E-01  0.1746E+00
     -0.886  0.5971E-01  0.1796E+00
     -0.802  0.5634E-01  0.1844E+00
     -0.718  0.5496E-01  0.1890E+00
     -0.634  0.5277E-01  0.1934E+00
     -0.550  0.5017E-01  0.1977E+00
     -0.466  0.4799E-01  0.2017E+00
     -0.382  0.4538E-01  0.2055E+00
     -0.298  0.4171E-01  0.2090E+00
     -0.214  0.3778E-01  0.2122E+00
     -0.130  0.3315E-01  0.2150E+00
     -0.046  0.2590E-01  0.2171E+00
      0.038  0.1737E-01  0.2186E+00
      0.122  0.1324E-01  0.2197E+00
      0.206  0.1814E-01  0.2212E+00
      0.290  0.3003E-01  0.2238E+00
      0.374  0.3988E-01  0.2271E+00
      0.458  0.3939E-01  0.2304E+00
      0.542  0.3003E-01  0.2329E+00
      0.626  0.2016E-01  0.2346E+00
      0.710  0.1481E-01  0.2359E+00
      0.794  0.1340E-01  0.2370E+00
      0.878  0.1400E-01  0.2382E+00
      0.963  0.1492E-01  0.2394E+00
      1.047  0.1498E-01  0.2407E+00
      1.131  0.1529E-01  0.2420E+00
      1.215  0.1809E-01  0.2435E+00
      1.299  0.2359E-01  0.2455E+00
      1.383  0.3204E-01  0.2482E+00
      1.467  0.4674E-01  0.2521E+00
      1.551  0.6759E-01  0.2578E+00
      1.635  0.8460E-01  0.2649E+00
      1.719  0.8759E-01  0.2723E+00
      1.803  0.7947E-01  0.2789E+00
      1.887  0.7054E-01  0.2849E+00
      1.971  0.6420E-01  0.2903E+00
      2.055  0.5810E-01  0.2952E+00
      2.139  0.5368E-01  0.2997E+00
      2.223  0.5504E-01  0.3043E+00
      2.307  0.6246E-01  0.3095E+00
      2.391  0.7429E-01  0.3158E+00
      2.475  0.9015E-01  0.3234E+00
      2.559  0.1055E+00  0.3322E+00
      2.643  0.1104E+00  0.3415E+00
      2.727  0.1010E+00  0.3500E+00
      2.811  0.8604E-01  0.3572E+00
      2.896  0.7767E-01  0.3638E+00
      2.980  0.7924E-01  0.3704E+00
      3.064  0.8563E-01  0.3776E+00
      3.148  0.9139E-01  0.3853E+00
      3.232  0.9544E-01  0.3933E+00
      3.316  0.9850E-01  0.4016E+00
      3.400  0.1005E+00  0.4100E+00
      3.484  0.1021E+00  0.4186E+00
      3.568  0.1047E+00  0.4274E+00
      3.652  0.1050E+00  0.4362E+00
      3.736  0.9593E-01  0.4443E+00
      3.820  0.7801E-01  0.4509E+00
      3.904  0.6449E-01  0.4563E+00
      3.988  0.6710E-01  0.4619E+00
      4.072  0.8043E-01  0.4687E+00
      4.156  0.8835E-01  0.4761E+00
      4.240  0.8331E-01  0.4831E+00
      4.324  0.7290E-01  0.4892E+00
      4.408  0.6854E-01  0.4950E+00
      4.492  0.7161E-01  0.5010E+00
      4.576  0.7229E-01  0.5071E+00
      4.660  0.6202E-01  0.5123E+00
      4.744  0.4436E-01  0.5160E+00
      4.829  0.3070E-01  0.5186E+00
      4.913  0.2690E-01  0.5209E+00
      4.997  0.2784E-01  0.5232E+00
      5.081  0.2550E-01  0.5253E+00
      5.165  0.1919E-01  0.5270E+00
      5.249  0.1445E-01  0.5282E+00
      5.333  0.1416E-01  0.5294E+00
      5.417  0.1522E-01  0.5306E+00
      5.501  0.1363E-01  0.5318E+00
      5.585  0.9409E-02  0.5326E+00
      5.669  0.5163E-02  0.5330E+00
      5.753  0.2405E-02  0.5332E+00
      5.837  0.1001E-02  0.5333E+00
      5.921  0.4647E-03  0.5333E+00
      6.005  0.6054E-03  0.5334E+00
      6.089  0.1524E-02  0.5335E+00
      6.173  0.3381E-02  0.5338E+00
      6.257  0.6150E-02  0.5343E+00
      6.341  0.9681E-02  0.5351E+00
      6.425  0.1389E-01  0.5363E+00
      6.509  0.1850E-01  0.5379E+00
      6.593  0.2258E-01  0.5398E+00
      6.677  0.2484E-01  0.5418E+00
      6.762  0.2487E-01  0.5439E+00
      6.846  0.2364E-01  0.5459E+00
      6.930  0.2321E-01  0.5479E+00
      7.014  0.2628E-01  0.5501E+00
      7.098  0.3454E-01  0.5530E+00
      7.182  0.4654E-01  0.5569E+00
      7.266  0.5782E-01  0.5617E+00
      7.350  0.6392E-01  0.5671E+00
      7.434  0.6495E-01  0.5726E+00
      7.518  0.6695E-01  0.5782E+00
      7.602  0.7686E-01  0.5847E+00
      7.686  0.9527E-01  0.5927E+00
      7.770  0.1142E+00  0.6023E+00
      7.854  0.1222E+00  0.6125E+00
      7.938  0.1144E+00  0.6222E+00
      8.022  0.9668E-01  0.6303E+00
      8.106  0.8051E-01  0.6370E+00
      8.190  0.7333E-01  0.6432E+00
      8.274  0.7626E-01  0.6496E+00
      8.358  0.8543E-01  0.6568E+00
      8.442  0.9269E-01  0.6646E+00
      8.526  0.9086E-01  0.6722E+00
      8.610  0.8147E-01  0.6791E+00
      8.695  0.7329E-01  0.6852E+00
      8.779  0.7269E-01  0.6913E+00
      8.863  0.8015E-01  0.6981E+00
      8.947  0.9528E-01  0.7061E+00
      9.031  0.1166E+00  0.7159E+00
      9.115  0.1365E+00  0.7273E+00
      9.199  0.1456E+00  0.7396E+00
      9.283  0.1428E+00  0.7516E+00
      9.367  0.1334E+00  0.7628E+00
      9.451  0.1225E+00  0.7731E+00
      9.535  0.1112E+00  0.7824E+00
      9.619  0.9881E-01  0.7907E+00
      9.703  0.8623E-01  0.7980E+00
      9.787  0.7626E-01  0.8044E+00
      9.871  0.7056E-01  0.8103E+00
      9.955  0.6908E-01  0.8161E+00
     10.039  0.7006E-01  0.8220E+00
     10.123  0.7013E-01  0.8279E+00
     10.207  0.6825E-01  0.8337E+00
     10.291  0.6957E-01  0.8395E+00
     10.375  0.8084E-01  0.8463E+00
     10.459  0.9977E-01  0.8547E+00
     10.543  0.1126E+00  0.8641E+00
     10.628  0.1078E+00  0.8732E+00
     10.712  0.9230E-01  0.8810E+00
     10.796  0.8464E-01  0.8881E+00
     10.880  0.9293E-01  0.8959E+00
     10.964  0.1058E+00  0.9048E+00
     11.048  0.1060E+00  0.9137E+00
     11.132  0.8867E-01  0.9211E+00
     11.216  0.6483E-01  0.9266E+00
     11.300  0.4828E-01  0.9306E+00
     11.384  0.4281E-01  0.9342E+00
     11.468  0.4445E-01  0.9380E+00
     11.552  0.4940E-01  0.9421E+00
     11.636  0.5425E-01  0.9467E+00
     11.720  0.5448E-01  0.9513E+00
     11.804  0.4971E-01  0.9554E+00
     11.888  0.4641E-01  0.9593E+00
     11.972  0.5086E-01  0.9636E+00
     12.056  0.6203E-01  0.9688E+00
     12.140  0.7186E-01  0.9749E+00
     12.224  0.7256E-01  0.9810E+00
     12.308  0.6487E-01  0.9864E+00
     12.392  0.5647E-01  0.9912E+00
     12.476  0.5264E-01  0.9956E+00
     12.561  0.5410E-01  0.1000E+01
     12.645  0.6105E-01  0.1005E+01
     12.729  0.7130E-01  0.1011E+01
     12.813  0.7785E-01  0.1018E+01
     12.897  0.7660E-01  0.1024E+01
     12.981  0.7186E-01  0.1030E+01
     13.065  0.6809E-01  0.1036E+01
     13.149  0.6184E-01  0.1041E+01
     13.233  0.4878E-01  0.1045E+01
     13.317  0.3245E-01  0.1048E+01
     13.401  0.1957E-01  0.1050E+01
     13.485  0.1240E-01  0.1051E+01
     13.569  0.9955E-02  0.1052E+01
     13.653  0.1088E-01  0.1052E+01
     13.737  0.1256E-01  0.1054E+01
     13.821  0.1180E-01  0.1055E+01
     13.905  0.8161E-02  0.1055E+01
     13.989  0.4043E-02  0.1056E+01
     14.073  0.1429E-02  0.1056E+01
     14.157  0.4022E-03  0.1056E+01
     14.241  0.3442E-03  0.1056E+01
     14.325  0.1229E-02  0.1056E+01
     14.409  0.3821E-02  0.1056E+01
     14.493  0.8700E-02  0.1057E+01
     14.578  0.1469E-01  0.1058E+01
     14.662  0.1898E-01  0.1060E+01
     14.746  0.1975E-01  0.1061E+01
     14.830  0.1777E-01  0.1063E+01
     14.914  0.1489E-01  0.1064E+01
     14.998  0.1198E-01  0.1065E+01
     15.082  0.8867E-02  0.1066E+01
     15.166  0.5541E-02  0.1066E+01
     15.250  0.2711E-02  0.1067E+01
     15.334  0.9894E-03  0.1067E+01
     15.418  0.2626E-03  0.1067E+01
     15.502  0.5000E-04  0.1067E+01
     15.586  0.6787E-05  0.1067E+01
     15.670  0.6543E-06  0.1067E+01
     15.754  0.4471E-07  0.1067E+01
     15.838  0.2163E-08  0.1067E+01
     15.922  0.7401E-10  0.1067E+01
     16.006  0.1790E-11  0.1067E+01
     16.090  0.3056E-13  0.1067E+01
     16.174  0.3682E-15  0.1067E+01
     16.258  0.2899E-17  0.1067E+01
     16.342  0.0000E+00  0.1067E+01
     16.426  0.0000E+00  0.1067E+01
     16.511  0.0000E+00  0.1067E+01
     16.595  0.0000E+00  0.1067E+01
     16.679  0.0000E+00  0.1067E+01
     16.763  0.0000E+00  0.1067E+01
     16.847  0.0000E+00  0.1067E+01
     16.931  0.0000E+00  0.1067E+01
     17.015  0.0000E+00  0.1067E+01
