       N       E                     dE             d eps       ncg     rms          rms(c)
DAV:   1    -0.503422518746E+01   -0.50342E+01   -0.17765E+03   184   0.299E+02
DAV:   2    -0.985810101869E+01   -0.48239E+01   -0.43968E+01   272   0.378E+01
DAV:   3    -0.988332844249E+01   -0.25227E-01   -0.25220E-01   208   0.347E+00
DAV:   4    -0.988334567537E+01   -0.17233E-04   -0.17233E-04   272   0.847E-02
DAV:   5    -0.988334567753E+01   -0.21641E-08   -0.29062E-08   184   0.617E-04    0.150E+00
DAV:   6    -0.987527023459E+01    0.80754E-02   -0.16793E-03   224   0.255E-01    0.934E-01
DAV:   7    -0.986895886457E+01    0.63114E-02   -0.48792E-03   184   0.452E-01    0.357E-02
DAV:   8    -0.986893423642E+01    0.24628E-04   -0.95227E-05    88   0.659E-02
   1 F= -.98689342E+01 E0= -.98619616E+01  d E =-.986893E+01
       N       E                     dE             d eps       ncg     rms          rms(c)
DAV:   1    -0.102091097241E+02   -0.34015E+00   -0.64009E+00   248   0.144E+01    0.148E+00
DAV:   2    -0.101445073952E+02    0.64602E-01   -0.12709E-01   176   0.258E+00    0.827E-01
DAV:   3    -0.101138570965E+02    0.30650E-01   -0.82337E-02   208   0.153E+00    0.815E-02
DAV:   4    -0.101140347217E+02   -0.17763E-03   -0.22850E-03   200   0.366E-01
   2 F= -.10114035E+02 E0= -.10106758E+02  d E =-.245100E+00
       N       E                     dE             d eps       ncg     rms          rms(c)
DAV:   1    -0.102591998723E+02   -0.14534E+00   -0.34774E+00   256   0.103E+01    0.105E+00
DAV:   2    -0.102257672893E+02    0.33433E-01   -0.65298E-02   200   0.185E+00    0.596E-01
DAV:   3    -0.102091956782E+02    0.16572E-01   -0.43419E-02   208   0.111E+00    0.526E-02
DAV:   4    -0.102092843494E+02   -0.88671E-04   -0.11187E-03   192   0.257E-01
   3 F= -.10209284E+02 E0= -.10202181E+02  d E =-.340350E+00
       N       E                     dE             d eps       ncg     rms          rms(c)
DAV:   1    -0.102642244034E+02   -0.55029E-01   -0.11192E+01   240   0.184E+01    0.176E+00
DAV:   2    -0.101653767025E+02    0.98848E-01   -0.20576E-01   192   0.325E+00    0.100E+00
DAV:   3    -0.101169685661E+02    0.48408E-01   -0.13800E-01   224   0.194E+00    0.114E-01
DAV:   4    -0.101170932663E+02   -0.12470E-03   -0.20038E-03   200   0.360E-01
   4 F= -.10117093E+02 E0= -.10110033E+02  d E =-.248159E+00
       N       E                     dE             d eps       ncg     rms          rms(c)
DAV:   1    -0.102872140757E+02   -0.17025E+00   -0.59118E+00   248   0.134E+01    0.128E+00
DAV:   2    -0.102447081517E+02    0.42506E-01   -0.95725E-02   200   0.223E+00    0.737E-01
DAV:   3    -0.102209889648E+02    0.23719E-01   -0.64687E-02   200   0.136E+00    0.748E-02
DAV:   4    -0.102210836420E+02   -0.94677E-04   -0.16296E-03   200   0.311E-01
   5 F= -.10221084E+02 E0= -.10211113E+02  d E =-.352149E+00
       N       E                     dE             d eps       ncg     rms          rms(c)
DAV:   1    -0.102218637119E+02   -0.87475E-03   -0.23456E-02   240   0.855E-01    0.795E-02
DAV:   2    -0.102216744804E+02    0.18923E-03   -0.39640E-04   128   0.147E-01
   6 F= -.10221674E+02 E0= -.10212539E+02  d E =-.352740E+00
       N       E                     dE             d eps       ncg     rms          rms(c)
DAV:   1    -0.102206812955E+02    0.11824E-02   -0.13344E-01   232   0.204E+00    0.200E-01
DAV:   2    -0.102195723873E+02    0.11089E-02   -0.24429E-03   192   0.360E-01    0.114E-01
DAV:   3    -0.102189858697E+02    0.58652E-03   -0.15839E-03   224   0.213E-01    0.116E-02
DAV:   4    -0.102189889112E+02   -0.30415E-05   -0.38705E-05    88   0.487E-02
   7 F= -.10218989E+02 E0= -.10211500E+02  d E =-.350055E+00
       N       E                     dE             d eps       ncg     rms          rms(c)
DAV:   1    -0.102223490192E+02   -0.33631E-02   -0.72833E-02   232   0.150E+00    0.145E-01
DAV:   2    -0.102217537763E+02    0.59524E-03   -0.13586E-03   184   0.269E-01    0.831E-02
DAV:   3    -0.102214408418E+02    0.31293E-03   -0.83773E-04   152   0.156E-01
   8 F= -.10221441E+02 E0= -.10212906E+02  d E =-.352507E+00
       N       E                     dE             d eps       ncg     rms          rms(c)
DAV:   1    -0.102245585606E+02   -0.28048E-02   -0.38628E-01   264   0.367E+00    0.383E-01
DAV:   2    -0.102208980427E+02    0.36605E-02   -0.33619E-03   208   0.422E-01    0.228E-01
DAV:   3    -0.102186254663E+02    0.22726E-02   -0.24169E-03   192   0.288E-01    0.105E-02
DAV:   4    -0.102186264627E+02   -0.99647E-06   -0.92994E-06    88   0.248E-02
   9 F= -.10218626E+02 E0= -.10207896E+02  d E =0.281438E-02
       N       E                     dE             d eps       ncg     rms          rms(c)
DAV:   1    -0.102282254742E+02   -0.96000E-02   -0.11868E-01   264   0.201E+00    0.213E-01
DAV:   2    -0.102270376016E+02    0.11879E-02   -0.10477E-03   192   0.235E-01    0.126E-01
DAV:   3    -0.102262999166E+02    0.73768E-03   -0.77019E-04   128   0.163E-01    0.571E-03
DAV:   4    -0.102262988323E+02    0.10843E-05   -0.12330E-05    88   0.284E-02
  10 F= -.10226299E+02 E0= -.10216771E+02  d E =-.485799E-02
       N       E                     dE             d eps       ncg     rms          rms(c)
DAV:   1    -0.102262980206E+02    0.18960E-05   -0.17926E-05    88   0.249E-02    0.298E-03
DAV:   2    -0.102262979925E+02    0.28149E-07   -0.66248E-07    88   0.660E-03
  11 F= -.10226298E+02 E0= -.10216755E+02  d E =-.485715E-02
       N       E                     dE             d eps       ncg     rms          rms(c)
DAV:   1    -0.102267956037E+02   -0.49758E-03   -0.12502E-02   240   0.621E-01    0.608E-02
DAV:   2    -0.102266845613E+02    0.11104E-03   -0.22048E-04   128   0.110E-01
  12 F= -.10226685E+02 E0= -.10217718E+02  d E =-.386569E-03
       N       E                     dE             d eps       ncg     rms          rms(c)
DAV:   1    -0.102265976192E+02    0.19798E-03   -0.47718E-02   240   0.122E+00    0.124E-01
DAV:   2    -0.102261426281E+02    0.45499E-03   -0.86135E-04   184   0.214E-01    0.704E-02
DAV:   3    -0.102259056591E+02    0.23697E-03   -0.60051E-04   112   0.134E-01
  13 F= -.10225906E+02 E0= -.10217977E+02  d E =0.392333E-03
       N       E                     dE             d eps       ncg     rms          rms(c)
DAV:   1    -0.102270038880E+02   -0.86126E-03   -0.26622E-02   240   0.904E-01    0.901E-02
DAV:   2    -0.102267541733E+02    0.24971E-03   -0.50259E-04   144   0.165E-01
  14 F= -.10226754E+02 E0= -.10218138E+02  d E =-.456181E-03
       N       E                     dE             d eps       ncg     rms          rms(c)
DAV:   1    -0.102266614790E+02    0.34241E-03   -0.62107E-04   200   0.138E-01    0.192E-02
DAV:   2    -0.102266506942E+02    0.10785E-04   -0.17130E-05    88   0.275E-02
  15 F= -.10226651E+02 E0= -.10217838E+02  d E =-.352702E-03
