   2   2   0   0
  0.1529437E+02  0.3691622E-09  0.3691622E-09  0.3691622E-09  0.5000000E-15
  1.000000000000000E-004
  CAR 
 unknown system                          
     22.35003178     -6.32630516  301      8.49350996      1.00000000
     -6.326  0.0000E+00  0.0000E+00
     -6.231  0.0000E+00  0.0000E+00
     -6.135  0.0000E+00  0.0000E+00
     -6.040  0.0000E+00  0.0000E+00
     -5.944  0.0000E+00  0.0000E+00
     -5.848  0.0000E+00  0.0000E+00
     -5.753  0.0000E+00  0.0000E+00
     -5.657  0.0000E+00  0.0000E+00
     -5.562  0.0000E+00  0.0000E+00
     -5.466  0.3388E-16  0.3238E-17
     -5.370  0.6707E-14  0.6444E-15
     -5.275  0.8584E-12  0.8269E-13
     -5.179  0.7006E-10  0.6779E-11
     -5.084  0.3652E-08  0.3558E-09
     -4.988  0.1217E-06  0.1199E-07
     -4.892  0.2595E-05  0.2600E-06
     -4.797  0.3546E-04  0.3650E-05
     -4.701  0.3109E-03  0.3337E-04
     -4.606  0.1751E-02  0.2007E-03
     -4.510  0.6341E-02  0.8068E-03
     -4.415  0.1478E-01  0.2219E-02
     -4.319  0.2218E-01  0.4339E-02
     -4.223  0.2145E-01  0.6390E-02
     -4.128  0.1347E-01  0.7678E-02
     -4.032  0.6067E-02  0.8258E-02
     -3.937  0.4119E-02  0.8651E-02
     -3.841  0.6997E-02  0.9320E-02
     -3.745  0.1080E-01  0.1035E-01
     -3.650  0.1105E-01  0.1141E-01
     -3.554  0.7298E-02  0.1211E-01
     -3.459  0.3113E-02  0.1240E-01
     -3.363  0.9542E-03  0.1249E-01
     -3.267  0.1001E-02  0.1259E-01
     -3.172  0.4493E-02  0.1302E-01
     -3.076  0.1524E-01  0.1448E-01
     -2.981  0.3411E-01  0.1774E-01
     -2.885  0.5251E-01  0.2276E-01
     -2.790  0.6137E-01  0.2862E-01
     -2.694  0.6197E-01  0.3455E-01
     -2.598  0.5494E-01  0.3980E-01
     -2.503  0.3810E-01  0.4344E-01
     -2.407  0.1988E-01  0.4534E-01
     -2.312  0.1330E-01  0.4661E-01
     -2.216  0.2255E-01  0.4877E-01
     -2.120  0.3920E-01  0.5252E-01
     -2.025  0.4598E-01  0.5691E-01
     -1.929  0.3486E-01  0.6024E-01
     -1.834  0.1703E-01  0.6187E-01
     -1.738  0.5353E-02  0.6238E-01
     -1.643  0.1083E-02  0.6249E-01
     -1.547  0.1472E-03  0.6250E-01
     -1.451  0.8858E-04  0.6251E-01
     -1.356  0.5819E-03  0.6256E-01
     -1.260  0.2825E-02  0.6283E-01
     -1.165  0.8830E-02  0.6368E-01
     -1.069  0.1777E-01  0.6538E-01
     -0.973  0.2307E-01  0.6758E-01
     -0.878  0.1972E-01  0.6947E-01
     -0.782  0.1370E-01  0.7078E-01
     -0.687  0.1836E-01  0.7253E-01
     -0.591  0.4280E-01  0.7662E-01
     -0.495  0.7726E-01  0.8401E-01
     -0.400  0.9165E-01  0.9277E-01
     -0.304  0.7040E-01  0.9950E-01
     -0.209  0.3503E-01  0.1028E+00
     -0.113  0.1182E-01  0.1040E+00
     -0.018  0.5854E-02  0.1045E+00
      0.078  0.1399E-01  0.1059E+00
      0.174  0.3586E-01  0.1093E+00
      0.269  0.6624E-01  0.1156E+00
      0.365  0.9322E-01  0.1245E+00
      0.460  0.1112E+00  0.1352E+00
      0.556  0.1206E+00  0.1467E+00
      0.652  0.1129E+00  0.1575E+00
      0.747  0.8116E-01  0.1652E+00
      0.843  0.4098E-01  0.1692E+00
      0.938  0.1390E-01  0.1705E+00
      1.034  0.3105E-02  0.1708E+00
      1.130  0.4524E-03  0.1708E+00
      1.225  0.4635E-04  0.1708E+00
      1.321  0.5265E-04  0.1708E+00
      1.416  0.4504E-03  0.1709E+00
      1.512  0.2648E-02  0.1711E+00
      1.607  0.1033E-01  0.1721E+00
      1.703  0.2736E-01  0.1747E+00
      1.799  0.5083E-01  0.1796E+00
      1.894  0.6819E-01  0.1861E+00
      1.990  0.6668E-01  0.1925E+00
      2.085  0.4680E-01  0.1970E+00
      2.181  0.2341E-01  0.1992E+00
      2.277  0.1023E-01  0.2002E+00
      2.372  0.8625E-02  0.2010E+00
      2.468  0.1210E-01  0.2022E+00
      2.563  0.1541E-01  0.2036E+00
      2.659  0.1908E-01  0.2055E+00
      2.755  0.2419E-01  0.2078E+00
      2.850  0.2768E-01  0.2104E+00
      2.946  0.3089E-01  0.2134E+00
      3.041  0.4076E-01  0.2173E+00
      3.137  0.5419E-01  0.2224E+00
      3.232  0.6052E-01  0.2282E+00
      3.328  0.6095E-01  0.2341E+00
      3.424  0.6460E-01  0.2402E+00
      3.519  0.7142E-01  0.2471E+00
      3.615  0.7457E-01  0.2542E+00
      3.710  0.6978E-01  0.2609E+00
      3.806  0.5491E-01  0.2661E+00
      3.902  0.3414E-01  0.2694E+00
      3.997  0.2129E-01  0.2714E+00
      4.093  0.2593E-01  0.2739E+00
      4.188  0.4048E-01  0.2777E+00
      4.284  0.4590E-01  0.2821E+00
      4.380  0.3424E-01  0.2854E+00
      4.475  0.1831E-01  0.2872E+00
      4.571  0.1397E-01  0.2885E+00
      4.666  0.2580E-01  0.2910E+00
      4.762  0.4680E-01  0.2954E+00
      4.857  0.6544E-01  0.3017E+00
      4.953  0.7780E-01  0.3091E+00
      5.049  0.8229E-01  0.3170E+00
      5.144  0.7270E-01  0.3239E+00
      5.240  0.5750E-01  0.3294E+00
      5.335  0.5843E-01  0.3350E+00
      5.431  0.7631E-01  0.3423E+00
      5.527  0.8667E-01  0.3506E+00
      5.622  0.7478E-01  0.3577E+00
      5.718  0.5109E-01  0.3626E+00
      5.813  0.3250E-01  0.3657E+00
      5.909  0.3215E-01  0.3688E+00
      6.005  0.5572E-01  0.3741E+00
      6.100  0.8600E-01  0.3824E+00
      6.196  0.9116E-01  0.3911E+00
      6.291  0.6835E-01  0.3976E+00
      6.387  0.4898E-01  0.4023E+00
      6.482  0.5054E-01  0.4071E+00
      6.578  0.6101E-01  0.4130E+00
      6.674  0.7097E-01  0.4197E+00
      6.769  0.8276E-01  0.4276E+00
      6.865  0.8852E-01  0.4361E+00
      6.960  0.7463E-01  0.4432E+00
      7.056  0.4647E-01  0.4477E+00
      7.152  0.2666E-01  0.4502E+00
      7.247  0.3646E-01  0.4537E+00
      7.343  0.8314E-01  0.4617E+00
      7.438  0.1413E+00  0.4752E+00
      7.534  0.1579E+00  0.4903E+00
      7.630  0.1147E+00  0.5012E+00
      7.725  0.5408E-01  0.5064E+00
      7.821  0.1656E-01  0.5080E+00
      7.916  0.3543E-02  0.5083E+00
      8.012  0.2326E-02  0.5085E+00
      8.107  0.8914E-02  0.5094E+00
      8.203  0.2750E-01  0.5120E+00
      8.299  0.5745E-01  0.5175E+00
      8.394  0.8205E-01  0.5254E+00
      8.490  0.8075E-01  0.5331E+00
      8.585  0.5475E-01  0.5383E+00
      8.681  0.2535E-01  0.5407E+00
      8.777  0.7908E-02  0.5415E+00
      8.872  0.1639E-02  0.5416E+00
      8.968  0.2232E-03  0.5417E+00
      9.063  0.2029E-04  0.5417E+00
      9.159  0.1128E-04  0.5417E+00
      9.255  0.1290E-03  0.5417E+00
      9.350  0.1052E-02  0.5418E+00
      9.446  0.5519E-02  0.5423E+00
      9.541  0.1863E-01  0.5441E+00
      9.637  0.4056E-01  0.5480E+00
      9.732  0.5739E-01  0.5535E+00
      9.828  0.5555E-01  0.5588E+00
      9.924  0.4837E-01  0.5634E+00
     10.019  0.6320E-01  0.5694E+00
     10.115  0.9954E-01  0.5789E+00
     10.210  0.1247E+00  0.5909E+00
     10.306  0.1179E+00  0.6021E+00
     10.402  0.9187E-01  0.6109E+00
     10.497  0.6841E-01  0.6175E+00
     10.593  0.6154E-01  0.6233E+00
     10.688  0.7178E-01  0.6302E+00
     10.784  0.8309E-01  0.6381E+00
     10.879  0.7752E-01  0.6455E+00
     10.975  0.5447E-01  0.6508E+00
     11.071  0.3083E-01  0.6537E+00
     11.166  0.2230E-01  0.6558E+00
     11.262  0.2948E-01  0.6587E+00
     11.357  0.4324E-01  0.6628E+00
     11.453  0.5468E-01  0.6680E+00
     11.549  0.5670E-01  0.6734E+00
     11.644  0.5184E-01  0.6784E+00
     11.740  0.5820E-01  0.6839E+00
     11.835  0.8688E-01  0.6923E+00
     11.931  0.1203E+00  0.7038E+00
     12.027  0.1307E+00  0.7162E+00
     12.122  0.1136E+00  0.7271E+00
     12.218  0.8838E-01  0.7356E+00
     12.313  0.6891E-01  0.7421E+00
     12.409  0.5341E-01  0.7472E+00
     12.504  0.4600E-01  0.7516E+00
     12.600  0.5680E-01  0.7571E+00
     12.696  0.8011E-01  0.7647E+00
     12.791  0.9830E-01  0.7741E+00
     12.887  0.1008E+00  0.7838E+00
     12.982  0.9030E-01  0.7924E+00
     13.078  0.7958E-01  0.8000E+00
     13.174  0.7620E-01  0.8073E+00
     13.269  0.7270E-01  0.8142E+00
     13.365  0.6485E-01  0.8204E+00
     13.460  0.6037E-01  0.8262E+00
     13.556  0.6057E-01  0.8320E+00
     13.652  0.6142E-01  0.8379E+00
     13.747  0.6714E-01  0.8443E+00
     13.843  0.7727E-01  0.8517E+00
     13.938  0.7892E-01  0.8592E+00
     14.034  0.6348E-01  0.8653E+00
     14.129  0.3809E-01  0.8689E+00
     14.225  0.1956E-01  0.8708E+00
     14.321  0.2265E-01  0.8730E+00
     14.416  0.5561E-01  0.8783E+00
     14.512  0.1102E+00  0.8888E+00
     14.607  0.1529E+00  0.9034E+00
     14.703  0.1548E+00  0.9182E+00
     14.799  0.1249E+00  0.9302E+00
     14.894  0.8597E-01  0.9384E+00
     14.990  0.4911E-01  0.9431E+00
     15.085  0.2116E-01  0.9451E+00
     15.181  0.6389E-02  0.9457E+00
     15.277  0.1622E-02  0.9459E+00
     15.372  0.2393E-02  0.9461E+00
     15.468  0.9168E-02  0.9470E+00
     15.563  0.2423E-01  0.9493E+00
     15.659  0.4139E-01  0.9532E+00
     15.754  0.4627E-01  0.9577E+00
     15.850  0.3716E-01  0.9612E+00
     15.946  0.3270E-01  0.9643E+00
     16.041  0.4752E-01  0.9689E+00
     16.137  0.7185E-01  0.9757E+00
     16.232  0.8410E-01  0.9838E+00
     16.328  0.7969E-01  0.9914E+00
     16.424  0.7153E-01  0.9982E+00
     16.519  0.6427E-01  0.1004E+01
     16.615  0.5327E-01  0.1009E+01
     16.710  0.3837E-01  0.1013E+01
     16.806  0.2278E-01  0.1015E+01
     16.902  0.1025E-01  0.1016E+01
     16.997  0.3699E-02  0.1017E+01
     17.093  0.3733E-02  0.1017E+01
     17.188  0.1181E-01  0.1018E+01
     17.284  0.2937E-01  0.1021E+01
     17.379  0.5023E-01  0.1026E+01
     17.475  0.6354E-01  0.1032E+01
     17.571  0.6596E-01  0.1038E+01
     17.666  0.5795E-01  0.1044E+01
     17.762  0.3961E-01  0.1047E+01
     17.857  0.1909E-01  0.1049E+01
     17.953  0.6134E-02  0.1050E+01
     18.049  0.1284E-02  0.1050E+01
     18.144  0.1735E-03  0.1050E+01
     18.240  0.1506E-04  0.1050E+01
     18.335  0.8391E-06  0.1050E+01
     18.431  0.2994E-07  0.1050E+01
     18.527  0.6830E-09  0.1050E+01
     18.622  0.9957E-11  0.1050E+01
     18.718  0.9265E-13  0.1050E+01
     18.813  0.5420E-15  0.1050E+01
     18.909  0.0000E+00  0.1050E+01
     19.004  0.0000E+00  0.1050E+01
     19.100  0.2904E-16  0.1050E+01
     19.196  0.6219E-14  0.1050E+01
     19.291  0.8021E-12  0.1050E+01
     19.387  0.6609E-10  0.1050E+01
     19.482  0.3483E-08  0.1050E+01
     19.578  0.1177E-06  0.1050E+01
     19.674  0.2557E-05  0.1050E+01
     19.769  0.3584E-04  0.1050E+01
     19.865  0.3261E-03  0.1050E+01
     19.960  0.1940E-02  0.1050E+01
     20.056  0.7618E-02  0.1051E+01
     20.152  0.1999E-01  0.1053E+01
     20.247  0.3546E-01  0.1056E+01
     20.343  0.4296E-01  0.1060E+01
     20.438  0.3567E-01  0.1064E+01
     20.534  0.2023E-01  0.1066E+01
     20.629  0.7756E-02  0.1066E+01
     20.725  0.1987E-02  0.1067E+01
     20.821  0.3363E-03  0.1067E+01
     20.916  0.3721E-04  0.1067E+01
     21.012  0.2672E-05  0.1067E+01
     21.107  0.1238E-06  0.1067E+01
     21.203  0.3691E-08  0.1067E+01
     21.299  0.7051E-10  0.1067E+01
     21.394  0.8617E-12  0.1067E+01
     21.490  0.6717E-14  0.1067E+01
     21.585  0.3872E-16  0.1067E+01
     21.681  0.0000E+00  0.1067E+01
     21.777  0.0000E+00  0.1067E+01
     21.872  0.0000E+00  0.1067E+01
     21.968  0.0000E+00  0.1067E+01
     22.063  0.0000E+00  0.1067E+01
     22.159  0.0000E+00  0.1067E+01
     22.254  0.0000E+00  0.1067E+01
     22.350  0.0000E+00  0.1067E+01
