<?xml version="1.0" encoding="ISO-8859-1"?>
<modeling>
 <generator>
  <i name="program" type="string">vasp </i>
  <i name="version" type="string">5.4.4.18Apr17-6-g9f103f2a35  </i>
  <i name="subversion" type="string">(build Dec 09 2018 21:25:21) complex            parallel </i>
  <i name="platform" type="string">IFC18.0.1.163_CrayMPICH7.7.0_MKL18.0.1.163 </i>
  <i name="date" type="string">2019 03 20 </i>
  <i name="time" type="string">09:20:54 </i>
 </generator>
 <incar>
  <i type="string" name="PREC">normal</i>
  <i type="int" name="IBRION">     2</i>
  <i name="EDIFF">      0.00040000</i>
  <i name="EDIFFG">     -0.01000000</i>
  <i type="int" name="NSW">    15</i>
  <i type="int" name="ISIF">     3</i>
  <i name="ENCUT">    250.00000000</i>
  <i type="int" name="NBANDS">     8</i>
  <i type="logical" name="LREAL"> F  </i>
  <i type="int" name="ISMEAR">     0</i>
  <i name="SIGMA">      0.20000000</i>
  <v type="int" name="KPOINT_BSE">    -1     0     0     0</v>
 </incar>
 <structure name="primitive_cell" >
  <crystal>
   <varray name="basis" >
    <v>      -2.45000000       2.45000000       1.27400000 </v>
    <v>       2.45000000      -2.45000000       1.27400000 </v>
    <v>       2.45000000       2.45000000      -1.27400000 </v>
   </varray>
   <i name="volume">     30.58874000 </i>
   <varray name="rec_basis" >
    <v>       0.00000000       0.20408163       0.39246468 </v>
    <v>       0.20408163       0.00000000       0.39246468 </v>
    <v>       0.20408163       0.20408163      -0.00000000 </v>
   </varray>
  </crystal>
  <varray name="positions" >
   <v>       0.25000000      -0.25000000      -0.50000000 </v>
   <v>       0.00000000       0.00000000       0.00000000 </v>
  </varray>
 </structure>
 <varray name="primitive_index" >
  <v type="int" >        1 </v>
  <v type="int" >        2 </v>
 </varray>
 <kpoints>
  <generation param="Monkhorst-Pack">
   <v type="int" name="divisions">       4        4        4 </v>
   <v name="usershift">      0.00000000       0.00000000       0.00000000 </v>
   <v name="genvec1">      0.25000000       0.00000000      -0.00000000 </v>
   <v name="genvec2">      0.00000000       0.25000000      -0.00000000 </v>
   <v name="genvec3">      0.00000000      -0.00000000       0.25000000 </v>
   <v name="shift">      0.50000000       0.50000000       0.50000000 </v>
  </generation>
  <varray name="kpointlist" >
   <v>       0.12500000       0.12500000       0.12500000 </v>
   <v>       0.37500000       0.12500000       0.12500000 </v>
   <v>      -0.12500000       0.12500000       0.12500000 </v>
   <v>       0.37500000       0.37500000       0.12500000 </v>
   <v>      -0.37500000       0.37500000       0.12500000 </v>
   <v>      -0.12500000       0.37500000       0.12500000 </v>
   <v>      -0.37500000      -0.37500000       0.12500000 </v>
   <v>      -0.12500000      -0.37500000       0.12500000 </v>
   <v>      -0.12500000      -0.12500000       0.12500000 </v>
   <v>      -0.37500000       0.37500000       0.37500000 </v>
   <v>      -0.37500000      -0.37500000       0.37500000 </v>
  </varray>
  <varray name="weights" >
   <v>       0.12500000 </v>
   <v>       0.12500000 </v>
   <v>       0.06250000 </v>
   <v>       0.06250000 </v>
   <v>       0.12500000 </v>
   <v>       0.12500000 </v>
   <v>       0.12500000 </v>
   <v>       0.12500000 </v>
   <v>       0.03125000 </v>
   <v>       0.06250000 </v>
   <v>       0.03125000 </v>
  </varray>
 </kpoints>
 <parameters>
  <separator name="general" >
   <i type="string" name="SYSTEM">unknown system</i>
   <i type="logical" name="LCOMPAT"> F  </i>
  </separator>
  <separator name="electronic" >
   <i type="string" name="PREC">normal</i>
   <i name="ENMAX">    250.00000000</i>
   <i name="ENAUG">    322.06900000</i>
   <i name="EDIFF">      0.00040000</i>
   <i type="int" name="IALGO">    38</i>
   <i type="int" name="IWAVPR">    11</i>
   <i type="int" name="NBANDS">     8</i>
   <i name="NELECT">      8.00000000</i>
   <i type="int" name="TURBO">     0</i>
   <i type="int" name="IRESTART">     0</i>
   <i type="int" name="NREBOOT">     0</i>
   <i type="int" name="NMIN">     0</i>
   <i name="EREF">      0.00000000</i>
   <separator name="electronic smearing" >
    <i type="int" name="ISMEAR">     0</i>
    <i name="SIGMA">      0.20000000</i>
    <i name="KSPACING">      0.50000000</i>
    <i type="logical" name="KGAMMA"> T  </i>
   </separator>
   <separator name="electronic projectors" >
    <i type="logical" name="LREAL"> F  </i>
    <v name="ROPT">      0.00000000</v>
    <i type="int" name="LMAXPAW">  -100</i>
    <i type="int" name="LMAXMIX">     2</i>
    <i type="logical" name="NLSPLINE"> F  </i>
   </separator>
   <separator name="electronic startup" >
    <i type="int" name="ISTART">     0</i>
    <i type="int" name="ICHARG">     2</i>
    <i type="int" name="INIWAV">     1</i>
   </separator>
   <separator name="electronic spin" >
    <i type="int" name="ISPIN">     1</i>
    <i type="logical" name="LNONCOLLINEAR"> F  </i>
    <v name="MAGMOM">      1.00000000      1.00000000</v>
    <i name="NUPDOWN">     -1.00000000</i>
    <i type="logical" name="LSORBIT"> F  </i>
    <v name="SAXIS">      0.00000000      0.00000000      1.00000000</v>
    <i type="logical" name="LSPIRAL"> F  </i>
    <v name="QSPIRAL">      0.00000000      0.00000000      0.00000000</v>
    <i type="logical" name="LZEROZ"> F  </i>
   </separator>
   <separator name="electronic exchange-correlation" >
    <i type="logical" name="LASPH"> F  </i>
    <i type="logical" name="LMETAGGA"> F  </i>
   </separator>
   <separator name="electronic convergence" >
    <i type="int" name="NELM">    60</i>
    <i type="int" name="NELMDL">    -5</i>
    <i type="int" name="NELMIN">     2</i>
    <i name="ENINI">    250.00000000</i>
    <separator name="electronic convergence detail" >
     <i type="logical" name="LDIAG"> T  </i>
     <i type="logical" name="LSUBROT"> F  </i>
     <i name="WEIMIN">      0.00100000</i>
     <i name="EBREAK">      0.00001250</i>
     <i name="DEPER">      0.30000000</i>
     <i type="int" name="NRMM">     4</i>
     <i name="TIME">      0.40000000</i>
    </separator>
   </separator>
   <separator name="electronic mixer" >
    <i name="AMIX">      0.40000000</i>
    <i name="BMIX">      1.00000000</i>
    <i name="AMIN">      0.10000000</i>
    <i name="AMIX_MAG">      1.60000000</i>
    <i name="BMIX_MAG">      1.00000000</i>
    <separator name="electronic mixer details" >
     <i type="int" name="IMIX">     4</i>
     <i type="logical" name="MIXFIRST"> F  </i>
     <i type="int" name="MAXMIX">   -45</i>
     <i name="WC">    100.00000000</i>
     <i type="int" name="INIMIX">     1</i>
     <i type="int" name="MIXPRE">     1</i>
     <i type="int" name="MREMOVE">     5</i>
    </separator>
   </separator>
   <separator name="electronic dipolcorrection" >
    <i type="logical" name="LDIPOL"> F  </i>
    <i type="logical" name="LMONO"> F  </i>
    <i type="int" name="IDIPOL">     0</i>
    <i name="EPSILON">      1.00000000</i>
    <v name="DIPOL">   -100.00000000   -100.00000000   -100.00000000</v>
    <i name="EFIELD">      0.00000000</i>
   </separator>
  </separator>
  <separator name="grids" >
   <i type="int" name="NGX">    14</i>
   <i type="int" name="NGY">    14</i>
   <i type="int" name="NGZ">    14</i>
   <i type="int" name="NGXF">    28</i>
   <i type="int" name="NGYF">    28</i>
   <i type="int" name="NGZF">    28</i>
   <i type="logical" name="ADDGRID"> F  </i>
  </separator>
  <separator name="ionic" >
   <i type="int" name="NSW">    15</i>
   <i type="int" name="IBRION">     2</i>
   <i type="int" name="MDALGO">     0</i>
   <i type="int" name="ISIF">     3</i>
   <i name="PSTRESS">      0.00000000</i>
   <i name="EDIFFG">     -0.01000000</i>
   <i type="int" name="NFREE">     1</i>
   <i name="POTIM">      0.50000000</i>
   <i name="SMASS">     -3.00000000</i>
   <i name="SCALEE">      1.00000000</i>
  </separator>
  <separator name="ionic md" >
   <i name="TEBEG">      0.00010000</i>
   <i name="TEEND">      0.00010000</i>
   <i type="int" name="NBLOCK">     1</i>
   <i type="int" name="KBLOCK">    15</i>
   <i type="int" name="NPACO">   256</i>
   <i name="APACO">     16.00000000</i>
  </separator>
  <separator name="symmetry" >
   <i type="int" name="ISYM">     2</i>
   <i name="SYMPREC">      0.00001000</i>
  </separator>
  <separator name="dos" >
   <i type="int" name="LORBIT">     0</i>
   <v name="RWIGS">     -1.00000000</v>
   <i type="int" name="NEDOS">   301</i>
   <i name="EMIN">     10.00000000</i>
   <i name="EMAX">    -10.00000000</i>
   <i name="EFERMI">      0.00000000</i>
  </separator>
  <separator name="writing" >
   <i type="int" name="NWRITE">     2</i>
   <i type="logical" name="LWAVE"> T  </i>
   <i type="logical" name="LDOWNSAMPLE"> F  </i>
   <i type="logical" name="LCHARG"> T  </i>
   <i type="logical" name="LPARD"> F  </i>
   <i type="logical" name="LVTOT"> F  </i>
   <i type="logical" name="LVHAR"> F  </i>
   <i type="logical" name="LELF"> F  </i>
   <i type="logical" name="LOPTICS"> F  </i>
   <v name="STM">      0.00000000      0.00000000      0.00000000      0.00000000      0.00000000      0.00000000      0.00000000</v>
  </separator>
  <separator name="performance" >
   <i type="int" name="NPAR">     8</i>
   <i type="int" name="NSIM">     4</i>
   <i type="int" name="NBLK">    -1</i>
   <i type="logical" name="LPLANE"> T  </i>
   <i type="logical" name="LSCALAPACK"> T  </i>
   <i type="logical" name="LSCAAWARE"> F  </i>
   <i type="logical" name="LSCALU"> F  </i>
   <i type="logical" name="LASYNC"> F  </i>
   <i type="logical" name="LORBITALREAL"> F  </i>
  </separator>
  <separator name="miscellaneous" >
   <i type="int" name="IDIOT">     3</i>
   <i type="int" name="ISPECIAL">     0</i>
   <i type="logical" name="LMUSIC"> F  </i>
   <v name="POMASS">     28.08500000</v>
   <v name="DARWINR">      0.00000000</v>
   <v name="DARWINV">      1.00000000</v>
   <i type="logical" name="LCORR"> T  </i>
  </separator>
  <i type="logical" name="GGA_COMPAT"> T  </i>
  <i type="logical" name="LBERRY"> F  </i>
  <i type="int" name="ICORELEVEL">     0</i>
  <i type="logical" name="LDAU"> F  </i>
  <i type="int" name="I_CONSTRAINED_M">     0</i>
  <separator name="electronic exchange-correlation" >
   <i type="string" name="GGA">--</i>
   <i type="int" name="VOSKOWN">     0</i>
   <i type="logical" name="LHFCALC"> F  </i>
   <i type="string" name="PRECFOCK"></i>
   <i type="logical" name="LSYMGRAD"> F  </i>
   <i type="logical" name="LHFONE"> F  </i>
   <i type="logical" name="LRHFCALC"> F  </i>
   <i type="logical" name="LTHOMAS"> F  </i>
   <i type="logical" name="LMODELHF"> F  </i>
   <i name="ENCUT4O">     -1.00000000</i>
   <i type="int" name="EXXOEP">     0</i>
   <i type="int" name="FOURORBIT">     0</i>
   <i name="AEXX">      0.00000000</i>
   <i name="HFALPHA">      0.00000000</i>
   <i name="MCALPHA">      0.00000000</i>
   <i name="ALDAX">      1.00000000</i>
   <i name="AGGAX">      1.00000000</i>
   <i name="ALDAC">      1.00000000</i>
   <i name="AGGAC">      1.00000000</i>
   <i type="int" name="NKREDX">     1</i>
   <i type="int" name="NKREDY">     1</i>
   <i type="int" name="NKREDZ">     1</i>
   <i type="logical" name="SHIFTRED"> F  </i>
   <i type="logical" name="ODDONLY"> F  </i>
   <i type="logical" name="EVENONLY"> F  </i>
   <i type="int" name="LMAXFOCK">     0</i>
   <i type="int" name="NMAXFOCKAE">     0</i>
   <i type="logical" name="LFOCKAEDFT"> F  </i>
   <i name="HFSCREEN">      0.00000000</i>
   <i name="HFSCREENC">      0.00000000</i>
   <i type="int" name="NBANDSGWLOW">     0</i>
  </separator>
  <separator name="vdW DFT" >
   <i type="logical" name="LUSE_VDW"> F  </i>
   <i name="Zab_VDW">     -0.84910000</i>
   <i name="PARAM1">      0.12340000</i>
   <i name="PARAM2">      1.00000000</i>
   <i name="PARAM3">      0.00000000</i>
  </separator>
  <separator name="model GW" >
   <i type="int" name="MODEL_GW">     0</i>
   <i name="MODEL_EPS0">      9.17662200</i>
   <i name="MODEL_ALPHA">      1.00000000</i>
  </separator>
  <separator name="linear response parameters" >
   <i type="logical" name="LEPSILON"> F  </i>
   <i type="logical" name="LRPA"> F  </i>
   <i type="logical" name="LNABLA"> F  </i>
   <i type="logical" name="LVEL"> F  </i>
   <i type="int" name="KINTER">     0</i>
   <i name="CSHIFT">      0.10000000</i>
   <i name="OMEGAMAX">     -1.00000000</i>
   <i name="DEG_THRESHOLD">      0.00200000</i>
   <i name="RTIME">     -0.10000000</i>
   <i name="WPLASMAI">      0.00000000</i>
   <v name="DFIELD">      0.00000000      0.00000000      0.00000000</v>
   <v name="WPLASMA">      0.00000000      0.00000000      0.00000000      0.00000000      0.00000000      0.00000000      0.00000000      0.00000000      0.00000000</v>
  </separator>
  <separator name="orbital magnetization" >
   <i type="logical" name="NUCIND"> F  </i>
   <v name="MAGPOS">      0.00000000      0.00000000      0.00000000</v>
   <i type="logical" name="LNICSALL"> T  </i>
   <i type="logical" name="ORBITALMAG"> F  </i>
   <i type="logical" name="LMAGBLOCH"> F  </i>
   <i type="logical" name="LCHIMAG"> F  </i>
   <i type="logical" name="LGAUGE"> T  </i>
   <i type="int" name="MAGATOM">     0</i>
   <v name="MAGDIPOL">      0.00000000      0.00000000      0.00000000</v>
   <v name="AVECCONST">      0.00000000      0.00000000      0.00000000</v>
  </separator>
  <separator name="response functions" >
   <i type="logical" name="LADDER"> F  </i>
   <i type="logical" name="LRPAFORCE"> F  </i>
   <i type="logical" name="LFXC"> F  </i>
   <i type="logical" name="LHARTREE"> T  </i>
   <i type="int" name="IBSE">     0</i>
   <v type="int" name="KPOINT">    -1     0     0     0</v>
   <i type="logical" name="LTCTE"> F  </i>
   <i type="logical" name="LTETE"> F  </i>
   <i type="logical" name="LTRIPLET"> F  </i>
   <i type="logical" name="LFXCEPS"> F  </i>
   <i type="logical" name="LFXHEG"> F  </i>
   <i type="int" name="NATURALO">     2</i>
   <i type="logical" name="L2ORDER"> F  </i>
   <i type="logical" name="LMP2LT"> F  </i>
   <i type="logical" name="LUSEW"> F  </i>
   <i name="ENCUTGW">     -2.00000000</i>
   <i name="ENCUTGWSOFT">     -2.00000000</i>
   <i name="ENCUTLF">     -1.00000000</i>
   <i type="int" name="LMAXMP2">    -1</i>
   <i name="SCISSOR">      0.00000000</i>
   <i type="int" name="NOMEGA">     0</i>
   <i type="int" name="NOMEGAR">     0</i>
   <i type="int" name="NBANDSGW">    -1</i>
   <i type="int" name="NBANDSO">    -1</i>
   <i type="int" name="NBANDSV">    -1</i>
   <i type="int" name="NELM">     1</i>
   <i type="int" name="NELMHF">     1</i>
   <i type="int" name="DIM">     3</i>
   <i type="int" name="ANTIRES">     0</i>
   <i name="OMEGAMAX">    -30.00000000</i>
   <i name="OMEGAMIN">    -30.00000000</i>
   <i name="OMEGATL">   -200.00000000</i>
   <i type="int" name="OMEGAGRID">   140</i>
   <i name="CSHIFT">     -0.10000000</i>
   <i type="logical" name="SELFENERGY"> F  </i>
   <i type="logical" name="LSPECTRAL"> F  </i>
   <i type="logical" name="LSPECTRALGW"> F  </i>
   <i type="logical" name="LSINGLES"> F  </i>
   <i type="logical" name="LFERMIGW"> F  </i>
   <i type="logical" name="ODDONLYGW"> F  </i>
   <i type="logical" name="EVENONLYGW"> F  </i>
   <i type="int" name="NKREDLFX">     1</i>
   <i type="int" name="NKREDLFY">     1</i>
   <i type="int" name="NKREDLFZ">     1</i>
   <i type="int" name="MAXMEM">  2800</i>
   <i type="int" name="TELESCOPE">     0</i>
   <i type="int" name="TAUPAR">     1</i>
   <i type="int" name="OMEGAPAR">    -1</i>
   <i name="LAMBDA">      1.00000000</i>
  </separator>
  <separator name="External order field" >
   <i name="OFIELD_KAPPA">      0.00000000</i>
   <v name="OFIELD_K">      0.00000000      0.00000000      0.00000000</v>
   <i name="OFIELD_Q6_NEAR">      0.00000000</i>
   <i name="OFIELD_Q6_FAR">      0.00000000</i>
   <i name="OFIELD_A">      0.00000000</i>
  </separator>
 </parameters>
 <atominfo>
  <atoms>       2 </atoms>
  <types>       1 </types>
  <array name="atoms" >
   <dimension dim="1">ion</dimension>
   <field type="string">element</field>
   <field type="int">atomtype</field>
   <set>
    <rc><c>Si</c><c>   1</c></rc>
    <rc><c>Si</c><c>   1</c></rc>
   </set>
  </array>
  <array name="atomtypes" >
   <dimension dim="1">type</dimension>
   <field type="int">atomspertype</field>
   <field type="string">element</field>
   <field>mass</field>
   <field>valence</field>
   <field type="string">pseudopotential</field>
   <set>
    <rc><c>   2</c><c>Si</c><c>     28.08500000</c><c>      4.00000000</c><c> PAW_PBE Si 05Jan2001                   </c></rc>
   </set>
  </array>
 </atominfo>
 <structure name="initialpos" >
  <crystal>
   <varray name="basis" >
    <v>      -2.45000000       2.45000000       1.27400000 </v>
    <v>       2.45000000      -2.45000000       1.27400000 </v>
    <v>       2.45000000       2.45000000      -1.27400000 </v>
   </varray>
   <i name="volume">     30.58874000 </i>
   <varray name="rec_basis" >
    <v>       0.00000000       0.20408163       0.39246468 </v>
    <v>       0.20408163       0.00000000       0.39246468 </v>
    <v>       0.20408163       0.20408163      -0.00000000 </v>
   </varray>
  </crystal>
  <varray name="positions" >
   <v>       0.25000000       0.75000000       0.50000000 </v>
   <v>       0.00000000       0.00000000       0.00000000 </v>
  </varray>
 </structure>
 <calculation>
  <scstep>
   <time name="dav">    0.09    0.10</time>
   <time name="total">    0.13    0.15</time>
   <energy>
    <i name="alphaZ">      4.40202223 </i>
    <i name="ewald">   -265.18101312 </i>
    <i name="hartreedc">     -2.30415367 </i>
    <i name="XCdc">    -17.81545108 </i>
    <i name="pawpsdc">     65.95520812 </i>
    <i name="pawaedc">    -30.76852678 </i>
    <i name="eentropy">     -0.01137911 </i>
    <i name="bandstr">     37.47375949 </i>
    <i name="atom">    206.12349923 </i>
    <i name="e_fr_energy">     -2.12603469 </i>
    <i name="e_wo_entrp">     -2.11465558 </i>
    <i name="e_0_energy">     -2.12034513 </i>
   </energy>
  </scstep>
  <scstep>
   <time name="dav">    0.15    0.19</time>
   <time name="total">    0.16    0.19</time>
   <energy>
    <i name="e_fr_energy">     -9.93031693 </i>
    <i name="e_wo_entrp">     -9.91608728 </i>
    <i name="e_0_energy">     -9.92320211 </i>
   </energy>
  </scstep>
  <scstep>
   <time name="dav">    0.11    0.12</time>
   <time name="total">    0.11    0.12</time>
   <energy>
    <i name="e_fr_energy">     -9.98612069 </i>
    <i name="e_wo_entrp">     -9.97194195 </i>
    <i name="e_0_energy">     -9.97903132 </i>
   </energy>
  </scstep>
  <scstep>
   <time name="dav">    0.12    0.13</time>
   <time name="total">    0.13    0.14</time>
   <energy>
    <i name="e_fr_energy">     -9.98622306 </i>
    <i name="e_wo_entrp">     -9.97204401 </i>
    <i name="e_0_energy">     -9.97913353 </i>
   </energy>
  </scstep>
  <scstep>
   <time name="dav">    0.10    0.11</time>
   <time name="total">    0.11    0.12</time>
   <energy>
    <i name="e_fr_energy">     -9.98622309 </i>
    <i name="e_wo_entrp">     -9.97204403 </i>
    <i name="e_0_energy">     -9.97913356 </i>
   </energy>
  </scstep>
  <scstep>
   <time name="dav">    0.09    0.09</time>
   <time name="total">    0.13    0.15</time>
   <energy>
    <i name="e_fr_energy">     -9.98153433 </i>
    <i name="e_wo_entrp">     -9.96737044 </i>
    <i name="e_0_energy">     -9.97445238 </i>
   </energy>
  </scstep>
  <scstep>
   <time name="dav">    0.09    0.09</time>
   <time name="total">    0.12    0.15</time>
   <energy>
    <i name="e_fr_energy">     -9.97766162 </i>
    <i name="e_wo_entrp">     -9.96353617 </i>
    <i name="e_0_energy">     -9.97059889 </i>
   </energy>
  </scstep>
  <scstep>
   <time name="dav">    0.03    0.03</time>
   <time name="total">    0.04    0.05</time>
   <energy>
    <i name="alphaZ">      4.40202223 </i>
    <i name="ewald">   -265.18101312 </i>
    <i name="hartreedc">     -2.51406096 </i>
    <i name="XCdc">    -17.57470332 </i>
    <i name="pawpsdc">     70.73957071 </i>
    <i name="pawaedc">    -35.65814400 </i>
    <i name="eentropy">     -0.01412731 </i>
    <i name="bandstr">     29.69931360 </i>
    <i name="atom">    206.12349923 </i>
    <i name="e_fr_energy">     -9.97764294 </i>
    <i name="e_wo_entrp">     -9.96351563 </i>
    <i name="e_0_energy">     -9.97057928 </i>
   </energy>
  </scstep>
  <structure>
   <crystal>
    <varray name="basis" >
     <v>      -2.45000000       2.45000000       1.27400000 </v>
     <v>       2.45000000      -2.45000000       1.27400000 </v>
     <v>       2.45000000       2.45000000      -1.27400000 </v>
    </varray>
    <i name="volume">     30.58874000 </i>
    <varray name="rec_basis" >
     <v>       0.00000000       0.20408163       0.39246468 </v>
     <v>       0.20408163       0.00000000       0.39246468 </v>
     <v>       0.20408163       0.20408163      -0.00000000 </v>
    </varray>
   </crystal>
   <varray name="positions" >
    <v>       0.25000000       0.75000000       0.50000000 </v>
    <v>       0.00000000       0.00000000       0.00000000 </v>
   </varray>
  </structure>
  <varray name="forces" >
   <v>      -0.00000000       0.00000000       0.00000000 </v>
   <v>       0.00000000      -0.00000000      -0.00000000 </v>
  </varray>
  <varray name="stress" >
   <v>     -57.83381707       0.00000000       0.00000000 </v>
   <v>       0.00000000     -57.83381707       0.00000000 </v>
   <v>       0.00000000      -0.00000000     157.57036766 </v>
  </varray>
  <energy>
   <i name="e_fr_energy">     -9.97764294 </i>
   <i name="e_wo_entrp">     -9.97057928 </i>
   <i name="e_0_energy">     -0.01412731 </i>
  </energy>
  <time name="totalsc">    1.30    2.71</time>
 </calculation>
 <calculation>
  <scstep>
   <time name="dav">    0.05    0.05</time>
   <time name="total">    0.07    0.08</time>
   <energy>
    <i name="alphaZ">      4.33187752 </i>
    <i name="ewald">   -263.74871038 </i>
    <i name="hartreedc">     -2.45143990 </i>
    <i name="XCdc">    -17.66178046 </i>
    <i name="pawpsdc">     70.74989621 </i>
    <i name="pawaedc">    -35.66881046 </i>
    <i name="eentropy">     -0.01316579 </i>
    <i name="bandstr">     28.02807749 </i>
    <i name="atom">    206.12349923 </i>
    <i name="e_fr_energy">    -10.31055654 </i>
    <i name="e_wo_entrp">    -10.29739075 </i>
    <i name="e_0_energy">    -10.30397364 </i>
   </energy>
  </scstep>
  <scstep>
   <time name="dav">    0.04    0.04</time>
   <time name="total">    0.06    0.08</time>
   <energy>
    <i name="e_fr_energy">    -10.24833886 </i>
    <i name="e_wo_entrp">    -10.23434551 </i>
    <i name="e_0_energy">    -10.24134219 </i>
   </energy>
  </scstep>
  <scstep>
   <time name="dav">    0.05    0.05</time>
   <time name="total">    0.07    0.10</time>
   <energy>
    <i name="e_fr_energy">    -10.21781151 </i>
    <i name="e_wo_entrp">    -10.20326421 </i>
    <i name="e_0_energy">    -10.21053786 </i>
   </energy>
  </scstep>
  <scstep>
   <time name="dav">    0.04    0.04</time>
   <time name="total">    0.06    0.08</time>
   <energy>
    <i name="alphaZ">      4.33187752 </i>
    <i name="ewald">   -263.74871038 </i>
    <i name="hartreedc">     -2.65213145 </i>
    <i name="XCdc">    -17.64353749 </i>
    <i name="pawpsdc">     70.93893761 </i>
    <i name="pawaedc">    -35.86458137 </i>
    <i name="eentropy">     -0.01454404 </i>
    <i name="bandstr">     28.31117520 </i>
    <i name="atom">    206.12349923 </i>
    <i name="e_fr_energy">    -10.21801516 </i>
    <i name="e_wo_entrp">    -10.20347113 </i>
    <i name="e_0_energy">    -10.21074315 </i>
   </energy>
  </scstep>
  <structure>
   <crystal>
    <varray name="basis" >
     <v>      -2.38474705       2.38474705       1.36644771 </v>
     <v>       2.38474705      -2.38474705       1.36644771 </v>
     <v>       2.38474705       2.38474705      -1.36644771 </v>
    </varray>
    <i name="volume">     31.08405371 </i>
    <varray name="rec_basis" >
     <v>       0.00000000       0.20966584       0.36591228 </v>
     <v>       0.20966584       0.00000000       0.36591228 </v>
     <v>       0.20966584       0.20966584      -0.00000000 </v>
    </varray>
   </crystal>
   <varray name="positions" >
    <v>       0.25000000       0.75000000       0.50000000 </v>
    <v>      -0.00000000       0.00000000      -0.00000000 </v>
   </varray>
  </structure>
  <varray name="forces" >
   <v>      -0.00000000      -0.00000000       0.00000000 </v>
   <v>       0.00000000       0.00000000      -0.00000000 </v>
  </varray>
  <varray name="stress" >
   <v>     -55.13909851       0.00000000      -0.00000000 </v>
   <v>       0.00000000     -55.13909851       0.00000000 </v>
   <v>      -0.00000000       0.00000000      90.41200814 </v>
  </varray>
  <energy>
   <i name="e_fr_energy">    -10.21801516 </i>
   <i name="e_wo_entrp">    -10.21074315 </i>
   <i name="e_0_energy">     -0.01454404 </i>
  </energy>
  <time name="totalsc">    0.34    0.63</time>
 </calculation>
 <calculation>
  <scstep>
   <time name="dav">    0.06    0.06</time>
   <time name="total">    0.08    0.08</time>
   <energy>
    <i name="alphaZ">      4.29186150 </i>
    <i name="ewald">   -262.18662905 </i>
    <i name="hartreedc">     -2.65302727 </i>
    <i name="XCdc">    -17.69598773 </i>
    <i name="pawpsdc">     70.84378020 </i>
    <i name="pawaedc">    -35.76490954 </i>
    <i name="eentropy">     -0.01469341 </i>
    <i name="bandstr">     26.65626497 </i>
    <i name="atom">    206.12349923 </i>
    <i name="e_fr_energy">    -10.39984109 </i>
    <i name="e_wo_entrp">    -10.38514769 </i>
    <i name="e_0_energy">    -10.39249439 </i>
   </energy>
  </scstep>
  <scstep>
   <time name="dav">    0.04    0.04</time>
   <time name="total">    0.06    0.07</time>
   <energy>
    <i name="e_fr_energy">    -10.35663773 </i>
    <i name="e_wo_entrp">    -10.34187112 </i>
    <i name="e_0_energy">    -10.34925443 </i>
   </energy>
  </scstep>
  <scstep>
   <time name="dav">    0.05    0.05</time>
   <time name="total">    0.07    0.08</time>
   <energy>
    <i name="e_fr_energy">    -10.33450319 </i>
    <i name="e_wo_entrp">    -10.31961702 </i>
    <i name="e_0_energy">    -10.32706011 </i>
   </energy>
  </scstep>
  <scstep>
   <time name="dav">    0.04    0.04</time>
   <time name="total">    0.05    0.06</time>
   <energy>
    <i name="alphaZ">      4.29186150 </i>
    <i name="ewald">   -262.18662905 </i>
    <i name="hartreedc">     -3.06840486 </i>
    <i name="XCdc">    -17.65107585 </i>
    <i name="pawpsdc">     71.31293935 </i>
    <i name="pawaedc">    -36.24769747 </i>
    <i name="eentropy">     -0.01488201 </i>
    <i name="bandstr">     27.10576703 </i>
    <i name="atom">    206.12349923 </i>
    <i name="e_fr_energy">    -10.33462212 </i>
    <i name="e_wo_entrp">    -10.31974011 </i>
    <i name="e_0_energy">    -10.32718111 </i>
   </energy>
  </scstep>
  <structure>
   <crystal>
    <varray name="basis" >
     <v>      -2.32566374       2.32566374       1.45015454 </v>
     <v>       2.32566374      -2.32566374       1.45015454 </v>
     <v>       2.32566374       2.32566374      -1.45015454 </v>
    </varray>
    <i name="volume">     31.37387202 </i>
    <varray name="rec_basis" >
     <v>      -0.00000000       0.21499239       0.34479084 </v>
     <v>       0.21499239      -0.00000000       0.34479084 </v>
     <v>       0.21499239       0.21499239       0.00000000 </v>
    </varray>
   </crystal>
   <varray name="positions" >
    <v>       0.25000000       0.75000000       0.50000000 </v>
    <v>      -0.00000000       0.00000000      -0.00000000 </v>
   </varray>
  </structure>
  <varray name="forces" >
   <v>      -0.00000000       0.00000000       0.00000000 </v>
   <v>       0.00000000      -0.00000000      -0.00000000 </v>
  </varray>
  <varray name="stress" >
   <v>     -28.03420943       0.00000000      -0.00000000 </v>
   <v>       0.00000000     -28.03420943       0.00000000 </v>
   <v>      -0.00000000       0.00000000      16.64290598 </v>
  </varray>
  <energy>
   <i name="e_fr_energy">    -10.33462212 </i>
   <i name="e_wo_entrp">    -10.32718111 </i>
   <i name="e_0_energy">     -0.01488201 </i>
  </energy>
  <time name="totalsc">    0.33    0.51</time>
 </calculation>
 <calculation>
  <scstep>
   <time name="dav">    0.05    0.05</time>
   <time name="total">    0.07    0.08</time>
   <energy>
    <i name="alphaZ">      4.28152288 </i>
    <i name="ewald">   -261.52567169 </i>
    <i name="hartreedc">     -3.07688283 </i>
    <i name="XCdc">    -17.66638036 </i>
    <i name="pawpsdc">     71.20615243 </i>
    <i name="pawaedc">    -36.13638091 </i>
    <i name="eentropy">     -0.02209684 </i>
    <i name="bandstr">     26.46759800 </i>
    <i name="atom">    206.12349923 </i>
    <i name="e_fr_energy">    -10.34864010 </i>
    <i name="e_wo_entrp">    -10.32654327 </i>
    <i name="e_0_energy">    -10.33759169 </i>
   </energy>
  </scstep>
  <scstep>
   <time name="dav">    0.04    0.04</time>
   <time name="total">    0.06    0.08</time>
   <energy>
    <i name="e_fr_energy">    -10.34366680 </i>
    <i name="e_wo_entrp">    -10.32152708 </i>
    <i name="e_0_energy">    -10.33259694 </i>
   </energy>
  </scstep>
  <scstep>
   <time name="dav">    0.05    0.05</time>
   <time name="total">    0.07    0.09</time>
   <energy>
    <i name="e_fr_energy">    -10.34098315 </i>
    <i name="e_wo_entrp">    -10.31878967 </i>
    <i name="e_0_energy">    -10.32988641 </i>
   </energy>
  </scstep>
  <scstep>
   <time name="dav">    0.02    0.02</time>
   <time name="total">    0.04    0.06</time>
   <energy>
    <i name="alphaZ">      4.28152288 </i>
    <i name="ewald">   -261.52567169 </i>
    <i name="hartreedc">     -3.28944081 </i>
    <i name="XCdc">    -17.64450359 </i>
    <i name="pawpsdc">     71.55988996 </i>
    <i name="pawaedc">    -36.49972793 </i>
    <i name="eentropy">     -0.02219160 </i>
    <i name="bandstr">     26.67563013 </i>
    <i name="atom">    206.12349923 </i>
    <i name="e_fr_energy">    -10.34099344 </i>
    <i name="e_wo_entrp">    -10.31880183 </i>
    <i name="e_0_energy">    -10.32989763 </i>
   </energy>
  </scstep>
  <structure>
   <crystal>
    <varray name="basis" >
     <v>      -2.30187755       2.30187755       1.48385384 </v>
     <v>       2.30187755      -2.30187755       1.48385384 </v>
     <v>       2.30187755       2.30187755      -1.48385384 </v>
    </varray>
    <i name="volume">     31.44963077 </i>
    <varray name="rec_basis" >
     <v>       0.00000000       0.21721399       0.33696041 </v>
     <v>       0.21721399       0.00000000       0.33696041 </v>
     <v>       0.21721399       0.21721399      -0.00000000 </v>
    </varray>
   </crystal>
   <varray name="positions" >
    <v>       0.25000000       0.75000000       0.50000000 </v>
    <v>      -0.00000000       0.00000000      -0.00000000 </v>
   </varray>
  </structure>
  <varray name="forces" >
   <v>      -0.00000000      -0.00000000      -0.00000000 </v>
   <v>       0.00000000       0.00000000       0.00000000 </v>
  </varray>
  <varray name="stress" >
   <v>      -0.35965384      -0.00000000       0.00000000 </v>
   <v>      -0.00000000      -0.35965384       0.00000000 </v>
   <v>       0.00000000       0.00000000      -9.03770681 </v>
  </varray>
  <energy>
   <i name="e_fr_energy">    -10.34099344 </i>
   <i name="e_wo_entrp">    -10.32989763 </i>
   <i name="e_0_energy">     -0.02219160 </i>
  </energy>
  <time name="totalsc">    0.32    0.51</time>
 </calculation>
 <calculation>
  <scstep>
   <time name="dav">    0.06    0.05</time>
   <time name="total">    0.07    0.09</time>
   <energy>
    <i name="alphaZ">      4.28325286 </i>
    <i name="ewald">   -261.65261603 </i>
    <i name="hartreedc">     -3.27330714 </i>
    <i name="XCdc">    -17.64406766 </i>
    <i name="pawpsdc">     71.51480471 </i>
    <i name="pawaedc">    -36.45271754 </i>
    <i name="eentropy">     -0.02117359 </i>
    <i name="bandstr">     26.78065640 </i>
    <i name="atom">    206.12349923 </i>
    <i name="e_fr_energy">    -10.34166874 </i>
    <i name="e_wo_entrp">    -10.32049516 </i>
    <i name="e_0_energy">    -10.33108195 </i>
   </energy>
  </scstep>
  <scstep>
   <time name="dav">    0.03    0.03</time>
   <time name="total">    0.04    0.07</time>
   <energy>
    <i name="alphaZ">      4.28325286 </i>
    <i name="ewald">   -261.65261603 </i>
    <i name="hartreedc">     -3.25439054 </i>
    <i name="XCdc">    -17.64624517 </i>
    <i name="pawpsdc">     71.48051727 </i>
    <i name="pawaedc">    -36.41758906 </i>
    <i name="eentropy">     -0.02115894 </i>
    <i name="bandstr">     26.76324231 </i>
    <i name="atom">    206.12349923 </i>
    <i name="e_fr_energy">    -10.34148806 </i>
    <i name="e_wo_entrp">    -10.32032912 </i>
    <i name="e_0_energy">    -10.33090859 </i>
   </energy>
  </scstep>
  <structure>
   <crystal>
    <varray name="basis" >
     <v>      -2.30642364       2.30642364       1.47741313 </v>
     <v>       2.30642364      -2.30642364       1.47741313 </v>
     <v>       2.30642364       2.30642364      -1.47741313 </v>
    </varray>
    <i name="volume">     31.43692841 </i>
    <varray name="rec_basis" >
     <v>      -0.00000000       0.21678585       0.33842937 </v>
     <v>       0.21678585      -0.00000000       0.33842937 </v>
     <v>       0.21678585       0.21678585      -0.00000000 </v>
    </varray>
   </crystal>
   <varray name="positions" >
    <v>       0.25000000       0.75000000       0.50000000 </v>
    <v>      -0.00000000       0.00000000      -0.00000000 </v>
   </varray>
  </structure>
  <varray name="forces" >
   <v>       0.00000000      -0.00000000       0.00000000 </v>
   <v>      -0.00000000       0.00000000      -0.00000000 </v>
  </varray>
  <varray name="stress" >
   <v>      -3.75948714       0.00000000      -0.00000000 </v>
   <v>       0.00000000      -3.75948714       0.00000000 </v>
   <v>      -0.00000000      -0.00000000      -8.98955941 </v>
  </varray>
  <energy>
   <i name="e_fr_energy">    -10.34148806 </i>
   <i name="e_wo_entrp">    -10.33090859 </i>
   <i name="e_0_energy">     -0.02115894 </i>
  </energy>
  <time name="totalsc">    0.20    0.37</time>
 </calculation>
 <calculation>
  <scstep>
   <time name="dav">    0.06    0.06</time>
   <time name="total">    0.07    0.09</time>
   <energy>
    <i name="alphaZ">      4.28725092 </i>
    <i name="ewald">   -261.91767366 </i>
    <i name="hartreedc">     -3.21634108 </i>
    <i name="XCdc">    -17.64439324 </i>
    <i name="pawpsdc">     71.44674969 </i>
    <i name="pawaedc">    -36.38308857 </i>
    <i name="eentropy">     -0.01764806 </i>
    <i name="bandstr">     26.98032997 </i>
    <i name="atom">    206.12349923 </i>
    <i name="e_fr_energy">    -10.34131482 </i>
    <i name="e_wo_entrp">    -10.32366676 </i>
    <i name="e_0_energy">    -10.33249079 </i>
   </energy>
  </scstep>
  <scstep>
   <time name="dav">    0.04    0.04</time>
   <time name="total">    0.06    0.07</time>
   <energy>
    <i name="e_fr_energy">    -10.34055136 </i>
    <i name="e_wo_entrp">    -10.32294089 </i>
    <i name="e_0_energy">    -10.33174612 </i>
   </energy>
  </scstep>
  <scstep>
   <time name="dav">    0.04    0.04</time>
   <time name="total">    0.06    0.08</time>
   <energy>
    <i name="e_fr_energy">    -10.34013877 </i>
    <i name="e_wo_entrp">    -10.32257642 </i>
    <i name="e_0_energy">    -10.33135760 </i>
   </energy>
  </scstep>
  <scstep>
   <time name="dav">    0.02    0.02</time>
   <time name="total">    0.03    0.05</time>
   <energy>
    <i name="alphaZ">      4.28725092 </i>
    <i name="ewald">   -261.91767366 </i>
    <i name="hartreedc">     -3.13571187 </i>
    <i name="XCdc">    -17.65266139 </i>
    <i name="pawpsdc">     71.31921681 </i>
    <i name="pawaedc">    -36.25247866 </i>
    <i name="eentropy">     -0.01756414 </i>
    <i name="bandstr">     26.90598034 </i>
    <i name="atom">    206.12349923 </i>
    <i name="e_fr_energy">    -10.34014244 </i>
    <i name="e_wo_entrp">    -10.32257830 </i>
    <i name="e_0_energy">    -10.33136037 </i>
   </energy>
  </scstep>
  <structure>
   <crystal>
    <varray name="basis" >
     <v>      -2.31594464       2.31594464       1.46392417 </v>
     <v>       2.31594464      -2.31594464       1.46392417 </v>
     <v>       2.31594464       2.31594464      -1.46392417 </v>
    </varray>
    <i name="volume">     31.40761206 </i>
    <varray name="rec_basis" >
     <v>       0.00000000       0.21589463       0.34154775 </v>
     <v>       0.21589463       0.00000000       0.34154775 </v>
     <v>       0.21589463       0.21589463      -0.00000000 </v>
    </varray>
   </crystal>
   <varray name="positions" >
    <v>       0.25000000       0.75000000       0.50000000 </v>
    <v>      -0.00000000       0.00000000      -0.00000000 </v>
   </varray>
  </structure>
  <varray name="forces" >
   <v>       0.00000000      -0.00000000      -0.00000000 </v>
   <v>      -0.00000000       0.00000000       0.00000000 </v>
  </varray>
  <varray name="stress" >
   <v>     -14.35143134       0.00000000      -0.00000000 </v>
   <v>       0.00000000     -14.35143134      -0.00000000 </v>
   <v>       0.00000000       0.00000000       4.13047883 </v>
  </varray>
  <energy>
   <i name="e_fr_energy">    -10.34014244 </i>
   <i name="e_wo_entrp">    -10.33136037 </i>
   <i name="e_0_energy">     -0.01756414 </i>
  </energy>
  <time name="totalsc">    0.30    0.47</time>
 </calculation>
 <calculation>
  <scstep>
   <time name="dav">    0.05    0.06</time>
   <time name="total">    0.07    0.09</time>
   <energy>
    <i name="alphaZ">      4.28439235 </i>
    <i name="ewald">   -261.73182303 </i>
    <i name="hartreedc">     -3.14722575 </i>
    <i name="XCdc">    -17.65546385 </i>
    <i name="pawpsdc">     71.33050618 </i>
    <i name="pawaedc">    -36.26429722 </i>
    <i name="eentropy">     -0.02012185 </i>
    <i name="bandstr">     26.73856690 </i>
    <i name="atom">    206.12349923 </i>
    <i name="e_fr_energy">    -10.34196703 </i>
    <i name="e_wo_entrp">    -10.32184518 </i>
    <i name="e_0_energy">    -10.33190611 </i>
   </energy>
  </scstep>
  <scstep>
   <time name="dav">    0.04    0.04</time>
   <time name="total">    0.05    0.07</time>
   <energy>
    <i name="e_fr_energy">    -10.34156468 </i>
    <i name="e_wo_entrp">    -10.32141633 </i>
    <i name="e_0_energy">    -10.33149050 </i>
   </energy>
  </scstep>
  <scstep>
   <time name="dav">    0.02    0.02</time>
   <time name="total">    0.04    0.05</time>
   <energy>
    <i name="alphaZ">      4.28439235 </i>
    <i name="ewald">   -261.73182303 </i>
    <i name="hartreedc">     -3.20937974 </i>
    <i name="XCdc">    -17.64878387 </i>
    <i name="pawpsdc">     71.43662051 </i>
    <i name="pawaedc">    -36.37313585 </i>
    <i name="eentropy">     -0.02018302 </i>
    <i name="bandstr">     26.79744674 </i>
    <i name="atom">    206.12349923 </i>
    <i name="e_fr_energy">    -10.34134669 </i>
    <i name="e_wo_entrp">    -10.32116367 </i>
    <i name="e_0_energy">    -10.33125518 </i>
   </energy>
  </scstep>
  <structure>
   <crystal>
    <varray name="basis" >
     <v>      -2.30926414       2.30926414       1.47338882 </v>
     <v>       2.30926414      -2.30926414       1.47338882 </v>
     <v>       2.30926414       2.30926414      -1.47338882 </v>
    </varray>
    <i name="volume">     31.42856738 </i>
    <varray name="rec_basis" >
     <v>       0.00000000       0.21651919       0.33935374 </v>
     <v>       0.21651919       0.00000000       0.33935374 </v>
     <v>       0.21651919       0.21651919      -0.00000000 </v>
    </varray>
   </crystal>
   <varray name="positions" >
    <v>       0.25000000       0.75000000       0.50000000 </v>
    <v>      -0.00000000       0.00000000      -0.00000000 </v>
   </varray>
  </structure>
  <varray name="forces" >
   <v>       0.00000000      -0.00000000      -0.00000000 </v>
   <v>      -0.00000000       0.00000000       0.00000000 </v>
  </varray>
  <varray name="stress" >
   <v>      -7.05672412       0.00000000       0.00000000 </v>
   <v>       0.00000000      -7.05672412      -0.00000000 </v>
   <v>       0.00000000      -0.00000000      -3.74977221 </v>
  </varray>
  <energy>
   <i name="e_fr_energy">    -10.34134669 </i>
   <i name="e_wo_entrp">    -10.33125518 </i>
   <i name="e_0_energy">     -0.02018302 </i>
  </energy>
  <time name="totalsc">    0.24    0.40</time>
 </calculation>
 <calculation>
  <scstep>
   <time name="dav">    0.04    0.04</time>
   <time name="total">    0.05    0.06</time>
   <energy>
    <i name="alphaZ">      4.28417619 </i>
    <i name="ewald">   -261.71704362 </i>
    <i name="hartreedc">     -3.20822896 </i>
    <i name="XCdc">    -17.64930900 </i>
    <i name="pawpsdc">     71.42968937 </i>
    <i name="pawaedc">    -36.36596582 </i>
    <i name="eentropy">     -0.02036965 </i>
    <i name="bandstr">     26.78217508 </i>
    <i name="atom">    206.12349923 </i>
    <i name="e_fr_energy">    -10.34137719 </i>
    <i name="e_wo_entrp">    -10.32100754 </i>
    <i name="e_0_energy">    -10.33119237 </i>
   </energy>
  </scstep>
  <scstep>
   <time name="dav">    0.02    0.02</time>
   <time name="total">    0.03    0.05</time>
   <energy>
    <i name="alphaZ">      4.28417619 </i>
    <i name="ewald">   -261.71704362 </i>
    <i name="hartreedc">     -3.20936379 </i>
    <i name="XCdc">    -17.64924110 </i>
    <i name="pawpsdc">     71.42934705 </i>
    <i name="pawaedc">    -36.36555122 </i>
    <i name="eentropy">     -0.02037117 </i>
    <i name="bandstr">     26.78317188 </i>
    <i name="atom">    206.12349923 </i>
    <i name="e_fr_energy">    -10.34137654 </i>
    <i name="e_wo_entrp">    -10.32100538 </i>
    <i name="e_0_energy">    -10.33119096 </i>
   </energy>
  </scstep>
  <structure>
   <crystal>
    <varray name="basis" >
     <v>      -2.30873386       2.30873386       1.47414010 </v>
     <v>       2.30873386      -2.30873386       1.47414010 </v>
     <v>       2.30873386       2.30873386      -1.47414010 </v>
    </varray>
    <i name="volume">     31.43015308 </i>
    <varray name="rec_basis" >
     <v>      -0.00000000       0.21656892       0.33918079 </v>
     <v>       0.21656892      -0.00000000       0.33918079 </v>
     <v>       0.21656892       0.21656892       0.00000000 </v>
    </varray>
   </crystal>
   <varray name="positions" >
    <v>       0.25000000       0.75000000       0.50000000 </v>
    <v>      -0.00000000       0.00000000      -0.00000000 </v>
   </varray>
  </structure>
  <varray name="forces" >
   <v>      -0.00000000       0.00000000      -0.00000000 </v>
   <v>       0.00000000      -0.00000000       0.00000000 </v>
  </varray>
  <varray name="stress" >
   <v>      -6.50540584       0.00000000      -0.00000000 </v>
   <v>       0.00000000      -6.50540584      -0.00000000 </v>
   <v>      -0.00000000      -0.00000000      -3.40119432 </v>
  </varray>
  <energy>
   <i name="e_fr_energy">    -10.34137654 </i>
   <i name="e_wo_entrp">    -10.33119096 </i>
   <i name="e_0_energy">     -0.02037117 </i>
  </energy>
  <time name="totalsc">    0.17    0.31</time>
 </calculation>
 <calculation>
  <scstep>
   <time name="dav">    0.05    0.05</time>
   <time name="total">    0.07    0.08</time>
   <energy>
    <i name="alphaZ">      4.28371080 </i>
    <i name="ewald">   -261.68483762 </i>
    <i name="hartreedc">     -3.21251686 </i>
    <i name="XCdc">    -17.64970983 </i>
    <i name="pawpsdc">     71.42780225 </i>
    <i name="pawaedc">    -36.36387225 </i>
    <i name="eentropy">     -0.02076402 </i>
    <i name="bandstr">     26.75526830 </i>
    <i name="atom">    206.12349923 </i>
    <i name="e_fr_energy">    -10.34142000 </i>
    <i name="e_wo_entrp">    -10.32065598 </i>
    <i name="e_0_energy">    -10.33103799 </i>
   </energy>
  </scstep>
  <scstep>
   <time name="dav">    0.02    0.02</time>
   <time name="total">    0.04    0.05</time>
   <energy>
    <i name="alphaZ">      4.28371080 </i>
    <i name="ewald">   -261.68483762 </i>
    <i name="hartreedc">     -3.21702787 </i>
    <i name="XCdc">    -17.64921340 </i>
    <i name="pawpsdc">     71.43641779 </i>
    <i name="pawaedc">    -36.37271495 </i>
    <i name="eentropy">     -0.02076807 </i>
    <i name="bandstr">     26.75952471 </i>
    <i name="atom">    206.12349923 </i>
    <i name="e_fr_energy">    -10.34140939 </i>
    <i name="e_wo_entrp">    -10.32064132 </i>
    <i name="e_0_energy">    -10.33102535 </i>
   </energy>
  </scstep>
  <structure>
   <crystal>
    <varray name="basis" >
     <v>      -2.30757875       2.30757875       1.47577661 </v>
     <v>       2.30757875      -2.30757875       1.47577661 </v>
     <v>       2.30757875       2.30757875      -1.47577661 </v>
    </varray>
    <i name="volume">     31.43356777 </i>
    <varray name="rec_basis" >
     <v>       0.00000000       0.21667733       0.33880466 </v>
     <v>       0.21667733       0.00000000       0.33880466 </v>
     <v>       0.21667733       0.21667733       0.00000000 </v>
    </varray>
   </crystal>
   <varray name="positions" >
    <v>       0.25000000       0.75000000       0.50000000 </v>
    <v>      -0.00000000       0.00000000      -0.00000000 </v>
   </varray>
  </structure>
  <varray name="forces" >
   <v>      -0.00000000       0.00000000       0.00000000 </v>
   <v>       0.00000000      -0.00000000      -0.00000000 </v>
  </varray>
  <varray name="stress" >
   <v>      -5.44694877       0.00000000       0.00000000 </v>
   <v>       0.00000000      -5.44694877      -0.00000000 </v>
   <v>       0.00000000       0.00000000      -3.60824517 </v>
  </varray>
  <energy>
   <i name="e_fr_energy">    -10.34140939 </i>
   <i name="e_wo_entrp">    -10.33102535 </i>
   <i name="e_0_energy">     -0.02076807 </i>
  </energy>
  <time name="totalsc">    0.18    0.32</time>
 </calculation>
 <calculation>
  <scstep>
   <time name="dav">    0.02    0.02</time>
   <time name="total">    0.04    0.05</time>
   <energy>
    <i name="alphaZ">      4.28355629 </i>
    <i name="ewald">   -261.67402650 </i>
    <i name="hartreedc">     -3.22328954 </i>
    <i name="XCdc">    -17.64882803 </i>
    <i name="pawpsdc">     71.44488472 </i>
    <i name="pawaedc">    -36.38139105 </i>
    <i name="eentropy">     -0.02089774 </i>
    <i name="bandstr">     26.75508723 </i>
    <i name="atom">    206.12349923 </i>
    <i name="e_fr_energy">    -10.34140540 </i>
    <i name="e_wo_entrp">    -10.32050766 </i>
    <i name="e_0_energy">    -10.33095653 </i>
   </energy>
  </scstep>
  <scstep>
   <time name="dav">    0.02    0.02</time>
   <time name="total">    0.04    0.05</time>
   <energy>
    <i name="alphaZ">      4.28355629 </i>
    <i name="ewald">   -261.67402650 </i>
    <i name="hartreedc">     -3.22455747 </i>
    <i name="XCdc">    -17.64870480 </i>
    <i name="pawpsdc">     71.44665896 </i>
    <i name="pawaedc">    -36.38319923 </i>
    <i name="eentropy">     -0.02089894 </i>
    <i name="bandstr">     26.75626782 </i>
    <i name="atom">    206.12349923 </i>
    <i name="e_fr_energy">    -10.34140465 </i>
    <i name="e_wo_entrp">    -10.32050571 </i>
    <i name="e_0_energy">    -10.33095518 </i>
   </energy>
  </scstep>
  <structure>
   <crystal>
    <varray name="basis" >
     <v>      -2.30719112       2.30719112       1.47632579 </v>
     <v>       2.30719112      -2.30719112       1.47632579 </v>
     <v>       2.30719112       2.30719112      -1.47632579 </v>
    </varray>
    <i name="volume">     31.43470154 </i>
    <varray name="rec_basis" >
     <v>      -0.00000000       0.21671373       0.33867863 </v>
     <v>       0.21671373      -0.00000000       0.33867863 </v>
     <v>       0.21671373       0.21671373       0.00000000 </v>
    </varray>
   </crystal>
   <varray name="positions" >
    <v>       0.25000000       0.75000000       0.50000000 </v>
    <v>      -0.00000000       0.00000000      -0.00000000 </v>
   </varray>
  </structure>
  <varray name="forces" >
   <v>       0.00000000      -0.00000000       0.00000000 </v>
   <v>      -0.00000000       0.00000000      -0.00000000 </v>
  </varray>
  <varray name="stress" >
   <v>      -4.98489037       0.00000000      -0.00000000 </v>
   <v>       0.00000000      -4.98489037      -0.00000000 </v>
   <v>      -0.00000000      -0.00000000      -4.56314640 </v>
  </varray>
  <energy>
   <i name="e_fr_energy">    -10.34140465 </i>
   <i name="e_wo_entrp">    -10.33095518 </i>
   <i name="e_0_energy">     -0.02089894 </i>
  </energy>
  <time name="totalsc">    0.16    0.29</time>
 </calculation>
 <calculation>
  <scstep>
   <time name="dav">    0.02    0.02</time>
   <time name="total">    0.04    0.04</time>
   <energy>
    <i name="alphaZ">      4.28366412 </i>
    <i name="ewald">   -261.68157810 </i>
    <i name="hartreedc">     -3.22567395 </i>
    <i name="XCdc">    -17.64845276 </i>
    <i name="pawpsdc">     71.44803235 </i>
    <i name="pawaedc">    -36.38458589 </i>
    <i name="eentropy">     -0.02081393 </i>
    <i name="bandstr">     26.76450350 </i>
    <i name="atom">    206.12349923 </i>
    <i name="e_fr_energy">    -10.34140542 </i>
    <i name="e_wo_entrp">    -10.32059149 </i>
    <i name="e_0_energy">    -10.33099846 </i>
   </energy>
  </scstep>
  <scstep>
   <time name="dav">    0.02    0.02</time>
   <time name="total">    0.03    0.05</time>
   <energy>
    <i name="alphaZ">      4.28366412 </i>
    <i name="ewald">   -261.68157810 </i>
    <i name="hartreedc">     -3.22455787 </i>
    <i name="XCdc">    -17.64858339 </i>
    <i name="pawpsdc">     71.44552513 </i>
    <i name="pawaedc">    -36.38200770 </i>
    <i name="eentropy">     -0.02081299 </i>
    <i name="bandstr">     26.76344666 </i>
    <i name="atom">    206.12349923 </i>
    <i name="e_fr_energy">    -10.34140491 </i>
    <i name="e_wo_entrp">    -10.32059192 </i>
    <i name="e_0_energy">    -10.33099841 </i>
   </energy>
  </scstep>
  <structure>
   <crystal>
    <varray name="basis" >
     <v>      -2.30746187       2.30746187       1.47594220 </v>
     <v>       2.30746187      -2.30746187       1.47594220 </v>
     <v>       2.30746187       2.30746187      -1.47594220 </v>
    </varray>
    <i name="volume">     31.43391026 </i>
    <varray name="rec_basis" >
     <v>      -0.00000000       0.21668830       0.33876665 </v>
     <v>       0.21668830      -0.00000000       0.33876665 </v>
     <v>       0.21668830       0.21668830      -0.00000000 </v>
    </varray>
   </crystal>
   <varray name="positions" >
    <v>       0.25000000       0.75000000       0.50000000 </v>
    <v>      -0.00000000       0.00000000      -0.00000000 </v>
   </varray>
  </structure>
  <varray name="forces" >
   <v>       0.00000000       0.00000000       0.00000000 </v>
   <v>      -0.00000000      -0.00000000      -0.00000000 </v>
  </varray>
  <varray name="stress" >
   <v>      -5.21217877       0.00000000       0.00000000 </v>
   <v>       0.00000000      -5.21217877       0.00000000 </v>
   <v>       0.00000000       0.00000000      -4.77223773 </v>
  </varray>
  <energy>
   <i name="e_fr_energy">    -10.34140491 </i>
   <i name="e_wo_entrp">    -10.33099841 </i>
   <i name="e_0_energy">     -0.02081299 </i>
  </energy>
  <time name="totalsc">    0.38    1.05</time>
 </calculation>
 <calculation>
  <scstep>
   <time name="dav">    0.02    0.02</time>
   <time name="total">    0.04    0.05</time>
   <energy>
    <i name="alphaZ">      4.28369716 </i>
    <i name="ewald">   -261.68388589 </i>
    <i name="hartreedc">     -3.22296978 </i>
    <i name="XCdc">    -17.64870262 </i>
    <i name="pawpsdc">     71.44316525 </i>
    <i name="pawaedc">    -36.37958023 </i>
    <i name="eentropy">     -0.02078498 </i>
    <i name="bandstr">     26.76415767 </i>
    <i name="atom">    206.12349923 </i>
    <i name="e_fr_energy">    -10.34140419 </i>
    <i name="e_wo_entrp">    -10.32061921 </i>
    <i name="e_0_energy">    -10.33101170 </i>
   </energy>
  </scstep>
  <scstep>
   <time name="dav">    0.02    0.02</time>
   <time name="total">    0.03    0.06</time>
   <energy>
    <i name="alphaZ">      4.28369716 </i>
    <i name="ewald">   -261.68388589 </i>
    <i name="hartreedc">     -3.22268319 </i>
    <i name="XCdc">    -17.64873048 </i>
    <i name="pawpsdc">     71.44276829 </i>
    <i name="pawaedc">    -36.37917533 </i>
    <i name="eentropy">     -0.02078471 </i>
    <i name="bandstr">     26.76389078 </i>
    <i name="atom">    206.12349923 </i>
    <i name="e_fr_energy">    -10.34140414 </i>
    <i name="e_wo_entrp">    -10.32061943 </i>
    <i name="e_0_energy">    -10.33101178 </i>
   </energy>
  </scstep>
  <structure>
   <crystal>
    <varray name="basis" >
     <v>      -2.30754462       2.30754462       1.47582496 </v>
     <v>       2.30754462      -2.30754462       1.47582496 </v>
     <v>       2.30754462       2.30754462      -1.47582496 </v>
    </varray>
    <i name="volume">     31.43366783 </i>
    <varray name="rec_basis" >
     <v>      -0.00000000       0.21668053       0.33879356 </v>
     <v>       0.21668053      -0.00000000       0.33879356 </v>
     <v>       0.21668053       0.21668053      -0.00000000 </v>
    </varray>
   </crystal>
   <varray name="positions" >
    <v>       0.25000000       0.75000000       0.50000000 </v>
    <v>      -0.00000000       0.00000000      -0.00000000 </v>
   </varray>
  </structure>
  <varray name="forces" >
   <v>       0.00000000      -0.00000000       0.00000000 </v>
   <v>      -0.00000000       0.00000000      -0.00000000 </v>
  </varray>
  <varray name="stress" >
   <v>      -5.30276555       0.00000000      -0.00000000 </v>
   <v>       0.00000000      -5.30276555      -0.00000000 </v>
   <v>       0.00000000      -0.00000000      -4.56992654 </v>
  </varray>
  <energy>
   <i name="e_fr_energy">    -10.34140414 </i>
   <i name="e_wo_entrp">    -10.33101178 </i>
   <i name="e_0_energy">     -0.02078471 </i>
  </energy>
  <time name="totalsc">    0.16    0.45</time>
 </calculation>
 <calculation>
  <scstep>
   <time name="dav">    0.02    0.02</time>
   <time name="total">    0.04    0.07</time>
   <energy>
    <i name="alphaZ">      4.28370581 </i>
    <i name="ewald">   -261.68448975 </i>
    <i name="hartreedc">     -3.22230734 </i>
    <i name="XCdc">    -17.64875138 </i>
    <i name="pawpsdc">     71.44250320 </i>
    <i name="pawaedc">    -36.37890899 </i>
    <i name="eentropy">     -0.02077735 </i>
    <i name="bandstr">     26.76412258 </i>
    <i name="atom">    206.12349923 </i>
    <i name="e_fr_energy">    -10.34140400 </i>
    <i name="e_wo_entrp">    -10.32062665 </i>
    <i name="e_0_energy">    -10.33101532 </i>
   </energy>
  </scstep>
  <scstep>
   <time name="dav">    0.02    0.02</time>
   <time name="total">    0.04    0.06</time>
   <energy>
    <i name="alphaZ">      4.28370581 </i>
    <i name="ewald">   -261.68448975 </i>
    <i name="hartreedc">     -3.22222943 </i>
    <i name="XCdc">    -17.64875885 </i>
    <i name="pawpsdc">     71.44239656 </i>
    <i name="pawaedc">    -36.37880063 </i>
    <i name="eentropy">     -0.02077727 </i>
    <i name="bandstr">     26.76405036 </i>
    <i name="atom">    206.12349923 </i>
    <i name="e_fr_energy">    -10.34140399 </i>
    <i name="e_wo_entrp">    -10.32062672 </i>
    <i name="e_0_energy">    -10.33101535 </i>
   </energy>
  </scstep>
  <structure>
   <crystal>
    <varray name="basis" >
     <v>      -2.30756628       2.30756628       1.47579429 </v>
     <v>       2.30756628      -2.30756628       1.47579429 </v>
     <v>       2.30756628       2.30756628      -1.47579429 </v>
    </varray>
    <i name="volume">     31.43360435 </i>
    <varray name="rec_basis" >
     <v>       0.00000000       0.21667850       0.33880061 </v>
     <v>       0.21667850       0.00000000       0.33880061 </v>
     <v>       0.21667850       0.21667850      -0.00000000 </v>
    </varray>
   </crystal>
   <varray name="positions" >
    <v>       0.25000000       0.75000000       0.50000000 </v>
    <v>      -0.00000000       0.00000000      -0.00000000 </v>
   </varray>
  </structure>
  <varray name="forces" >
   <v>      -0.00000000       0.00000000       0.00000000 </v>
   <v>       0.00000000      -0.00000000      -0.00000000 </v>
  </varray>
  <varray name="stress" >
   <v>      -5.32631746       0.00000000       0.00000000 </v>
   <v>       0.00000000      -5.32631746       0.00000000 </v>
   <v>      -0.00000000      -0.00000000      -4.52013875 </v>
  </varray>
  <energy>
   <i name="e_fr_energy">    -10.34140399 </i>
   <i name="e_wo_entrp">    -10.33101535 </i>
   <i name="e_0_energy">     -0.02077727 </i>
  </energy>
  <time name="totalsc">    0.16    0.34</time>
 </calculation>
 <calculation>
  <scstep>
   <time name="dav">    0.02    0.02</time>
   <time name="total">    0.04    0.04</time>
   <energy>
    <i name="alphaZ">      4.28370885 </i>
    <i name="ewald">   -261.68470194 </i>
    <i name="hartreedc">     -3.22212922 </i>
    <i name="XCdc">    -17.64876319 </i>
    <i name="pawpsdc">     71.44231451 </i>
    <i name="pawaedc">    -36.37871839 </i>
    <i name="eentropy">     -0.02077471 </i>
    <i name="bandstr">     26.76416093 </i>
    <i name="atom">    206.12349923 </i>
    <i name="e_fr_energy">    -10.34140394 </i>
    <i name="e_wo_entrp">    -10.32062924 </i>
    <i name="e_0_energy">    -10.33101659 </i>
   </energy>
  </scstep>
  <scstep>
   <time name="dav">    0.02    0.02</time>
   <time name="total">    0.04    0.05</time>
   <energy>
    <i name="alphaZ">      4.28370885 </i>
    <i name="ewald">   -261.68470194 </i>
    <i name="hartreedc">     -3.22210044 </i>
    <i name="XCdc">    -17.64876603 </i>
    <i name="pawpsdc">     71.44227099 </i>
    <i name="pawaedc">    -36.37867406 </i>
    <i name="eentropy">     -0.02077468 </i>
    <i name="bandstr">     26.76413416 </i>
    <i name="atom">    206.12349923 </i>
    <i name="e_fr_energy">    -10.34140394 </i>
    <i name="e_wo_entrp">    -10.32062926 </i>
    <i name="e_0_energy">    -10.33101660 </i>
   </energy>
  </scstep>
  <structure>
   <crystal>
    <varray name="basis" >
     <v>      -2.30757388       2.30757388       1.47578351 </v>
     <v>       2.30757388      -2.30757388       1.47578351 </v>
     <v>       2.30757388       2.30757388      -1.47578351 </v>
    </varray>
    <i name="volume">     31.43358203 </i>
    <varray name="rec_basis" >
     <v>       0.00000000       0.21667779       0.33880308 </v>
     <v>       0.21667779       0.00000000       0.33880308 </v>
     <v>       0.21667779       0.21667779      -0.00000000 </v>
    </varray>
   </crystal>
   <varray name="positions" >
    <v>       0.25000000       0.75000000       0.50000000 </v>
    <v>      -0.00000000       0.00000000      -0.00000000 </v>
   </varray>
  </structure>
  <varray name="forces" >
   <v>       0.00000000       0.00000000      -0.00000000 </v>
   <v>      -0.00000000      -0.00000000       0.00000000 </v>
  </varray>
  <varray name="stress" >
   <v>      -5.33362406       0.00000000       0.00000000 </v>
   <v>       0.00000000      -5.33362406       0.00000000 </v>
   <v>       0.00000000       0.00000000      -4.50788046 </v>
  </varray>
  <energy>
   <i name="e_fr_energy">    -10.34140394 </i>
   <i name="e_wo_entrp">    -10.33101660 </i>
   <i name="e_0_energy">     -0.02077468 </i>
  </energy>
  <time name="totalsc">    0.15    0.30</time>
 </calculation>
 <calculation>
  <scstep>
   <time name="dav">    0.02    0.02</time>
   <time name="total">    0.04    0.05</time>
   <energy>
    <i name="alphaZ">      4.28371002 </i>
    <i name="ewald">   -261.68478375 </i>
    <i name="hartreedc">     -3.22206292 </i>
    <i name="XCdc">    -17.64876765 </i>
    <i name="pawpsdc">     71.44223622 </i>
    <i name="pawaedc">    -36.37863896 </i>
    <i name="eentropy">     -0.02077369 </i>
    <i name="bandstr">     26.76417759 </i>
    <i name="atom">    206.12349923 </i>
    <i name="e_fr_energy">    -10.34140392 </i>
    <i name="e_wo_entrp">    -10.32063023 </i>
    <i name="e_0_energy">    -10.33101708 </i>
   </energy>
  </scstep>
  <scstep>
   <time name="dav">    0.02    0.02</time>
   <time name="total">    0.04    0.05</time>
   <energy>
    <i name="alphaZ">      4.28371002 </i>
    <i name="ewald">   -261.68478375 </i>
    <i name="hartreedc">     -3.22205188 </i>
    <i name="XCdc">    -17.64876875 </i>
    <i name="pawpsdc">     71.44221958 </i>
    <i name="pawaedc">    -36.37862200 </i>
    <i name="eentropy">     -0.02077368 </i>
    <i name="bandstr">     26.76416732 </i>
    <i name="atom">    206.12349923 </i>
    <i name="e_fr_energy">    -10.34140392 </i>
    <i name="e_wo_entrp">    -10.32063024 </i>
    <i name="e_0_energy">    -10.33101708 </i>
   </energy>
  </scstep>
  <structure>
   <crystal>
    <varray name="basis" >
     <v>      -2.30757682       2.30757682       1.47577935 </v>
     <v>       2.30757682      -2.30757682       1.47577935 </v>
     <v>       2.30757682       2.30757682      -1.47577935 </v>
    </varray>
    <i name="volume">     31.43357343 </i>
    <varray name="rec_basis" >
     <v>      -0.00000000       0.21667751       0.33880404 </v>
     <v>       0.21667751      -0.00000000       0.33880404 </v>
     <v>       0.21667751       0.21667751       0.00000000 </v>
    </varray>
   </crystal>
   <varray name="positions" >
    <v>       0.25000000       0.75000000       0.50000000 </v>
    <v>      -0.00000000       0.00000000      -0.00000000 </v>
   </varray>
  </structure>
  <varray name="forces" >
   <v>      -0.00000000       0.00000000       0.00000000 </v>
   <v>       0.00000000      -0.00000000      -0.00000000 </v>
  </varray>
  <varray name="stress" >
   <v>      -5.33635462       0.00000000       0.00000000 </v>
   <v>       0.00000000      -5.33635462       0.00000000 </v>
   <v>       0.00000000       0.00000000      -4.50338001 </v>
  </varray>
  <energy>
   <i name="e_fr_energy">    -10.34140392 </i>
   <i name="e_wo_entrp">    -10.33101708 </i>
   <i name="e_0_energy">     -0.02077368 </i>
  </energy>
  <time name="totalsc">    0.16    0.38</time>
  <eigenvalues>
   <array>
    <dimension dim="1">band</dimension>
    <dimension dim="2">kpoint</dimension>
    <dimension dim="3">spin</dimension>
    <field>eigene</field>
    <field>occ</field>
    <set>
     <set comment="spin 1">
      <set comment="kpoint 1">
       <r>   -2.9081    1.0000 </r>
       <r>    3.5057    1.0000 </r>
       <r>    7.4693    1.0000 </r>
       <r>    8.4473    0.6281 </r>
       <r>   10.1363    0.0000 </r>
       <r>   11.4947    0.0000 </r>
       <r>   14.6146    0.0000 </r>
       <r>   14.8403    0.0000 </r>
      </set>
      <set comment="kpoint 2">
       <r>    0.5833    1.0000 </r>
       <r>    1.9493    1.0000 </r>
       <r>    4.2186    1.0000 </r>
       <r>    5.4643    1.0000 </r>
       <r>   10.1447    0.0000 </r>
       <r>   12.2913    0.0000 </r>
       <r>   13.9565    0.0000 </r>
       <r>   14.5258    0.0000 </r>
      </set>
      <set comment="kpoint 3">
       <r>   -4.3263    1.0000 </r>
       <r>    5.0103    1.0000 </r>
       <r>    5.6725    1.0000 </r>
       <r>   11.2825    0.0000 </r>
       <r>   12.9235    0.0000 </r>
       <r>   13.0992    0.0000 </r>
       <r>   14.7230    0.0000 </r>
       <r>   16.0941    0.0000 </r>
      </set>
      <set comment="kpoint 4">
       <r>   -0.4441    1.0000 </r>
       <r>   -0.4441    1.0000 </r>
       <r>    7.4315    1.0000 </r>
       <r>    7.4315    1.0000 </r>
       <r>   11.9192    0.0000 </r>
       <r>   11.9192    0.0000 </r>
       <r>   13.7887    0.0000 </r>
       <r>   13.7887    0.0000 </r>
      </set>
      <set comment="kpoint 5">
       <r>   -2.6536    1.0000 </r>
       <r>    0.6297    1.0000 </r>
       <r>    6.8940    1.0000 </r>
       <r>    9.7128    0.0000 </r>
       <r>   12.6549    0.0000 </r>
       <r>   13.5100    0.0000 </r>
       <r>   14.5701    0.0000 </r>
       <r>   16.4467    0.0000 </r>
      </set>
      <set comment="kpoint 6">
       <r>   -2.0850    1.0000 </r>
       <r>    3.7188    1.0000 </r>
       <r>    4.7846    1.0000 </r>
       <r>    6.5139    1.0000 </r>
       <r>   10.3438    0.0000 </r>
       <r>   12.8427    0.0000 </r>
       <r>   13.2253    0.0000 </r>
       <r>   16.1989    0.0000 </r>
      </set>
      <set comment="kpoint 7">
       <r>    0.2650    1.0000 </r>
       <r>    0.4114    1.0000 </r>
       <r>    5.0520    1.0000 </r>
       <r>    6.7672    1.0000 </r>
       <r>    7.4765    1.0000 </r>
       <r>   12.0519    0.0000 </r>
       <r>   17.3806    0.0000 </r>
       <r>   17.6150    0.0000 </r>
      </set>
      <set comment="kpoint 8">
       <r>   -0.4713    1.0000 </r>
       <r>    3.1198    1.0000 </r>
       <r>    6.1076    1.0000 </r>
       <r>    6.1137    1.0000 </r>
       <r>    8.3329    0.8719 </r>
       <r>   10.7006    0.0000 </r>
       <r>   10.8489    0.0000 </r>
       <r>   15.6791    0.0000 </r>
      </set>
      <set comment="kpoint 9">
       <r>   -3.7400    1.0000 </r>
       <r>    7.4857    1.0000 </r>
       <r>    7.4858    1.0000 </r>
       <r>    9.6999    0.0000 </r>
       <r>   10.1810    0.0000 </r>
       <r>   10.5051    0.0000 </r>
       <r>   12.0320    0.0000 </r>
       <r>   12.7383    0.0000 </r>
      </set>
      <set comment="kpoint 10">
       <r>   -1.0126    1.0000 </r>
       <r>    1.7891    1.0000 </r>
       <r>    2.7782    1.0000 </r>
       <r>    5.4784    1.0000 </r>
       <r>   11.8161    0.0000 </r>
       <r>   11.9052    0.0000 </r>
       <r>   20.2412    0.0000 </r>
       <r>   20.3500    0.0000 </r>
      </set>
      <set comment="kpoint 11">
       <r>    1.8074    1.0000 </r>
       <r>    2.4712    1.0000 </r>
       <r>    3.3237    1.0000 </r>
       <r>    3.3237    1.0000 </r>
       <r>    5.3482    1.0000 </r>
       <r>   16.1138    0.0000 </r>
       <r>   16.6599    0.0000 </r>
       <r>   16.6600    0.0000 </r>
      </set>
     </set>
    </set>
   </array>
  </eigenvalues>
  <separator name="orbital magnetization" >
   <v name="MAGDIPOLOUT">      0.00000000      0.00000000      0.00000000</v>
  </separator>
  <dos>
   <i name="efermi">      8.49350996 </i>
   <total>
    <array>
     <dimension dim="1">gridpoints</dimension>
     <dimension dim="2">spin</dimension>
     <field>energy</field>
     <field>total</field>
     <field>integrated</field>
     <set>
      <set comment="spin 1">
       <r>    -6.3263     0.0000     0.0000 </r>
       <r>    -6.2307     0.0000     0.0000 </r>
       <r>    -6.1351     0.0000     0.0000 </r>
       <r>    -6.0395     0.0000     0.0000 </r>
       <r>    -5.9440     0.0000     0.0000 </r>
       <r>    -5.8484     0.0000     0.0000 </r>
       <r>    -5.7528     0.0000     0.0000 </r>
       <r>    -5.6572     0.0000     0.0000 </r>
       <r>    -5.5616     0.0000     0.0000 </r>
       <r>    -5.4660     0.0000     0.0000 </r>
       <r>    -5.3704     0.0000     0.0000 </r>
       <r>    -5.2748     0.0000     0.0000 </r>
       <r>    -5.1793     0.0000     0.0000 </r>
       <r>    -5.0837     0.0000     0.0000 </r>
       <r>    -4.9881     0.0000     0.0000 </r>
       <r>    -4.8925     0.0000     0.0000 </r>
       <r>    -4.7969     0.0005     0.0001 </r>
       <r>    -4.7013     0.0047     0.0005 </r>
       <r>    -4.6057     0.0263     0.0030 </r>
       <r>    -4.5101     0.0951     0.0121 </r>
       <r>    -4.4145     0.2217     0.0333 </r>
       <r>    -4.3190     0.3327     0.0651 </r>
       <r>    -4.2234     0.3218     0.0959 </r>
       <r>    -4.1278     0.2021     0.1152 </r>
       <r>    -4.0322     0.0910     0.1239 </r>
       <r>    -3.9366     0.0618     0.1298 </r>
       <r>    -3.8410     0.1049     0.1398 </r>
       <r>    -3.7454     0.1620     0.1553 </r>
       <r>    -3.6498     0.1657     0.1711 </r>
       <r>    -3.5543     0.1095     0.1816 </r>
       <r>    -3.4587     0.0467     0.1861 </r>
       <r>    -3.3631     0.0143     0.1874 </r>
       <r>    -3.2675     0.0150     0.1889 </r>
       <r>    -3.1719     0.0674     0.1953 </r>
       <r>    -3.0763     0.2285     0.2171 </r>
       <r>    -2.9807     0.5117     0.2661 </r>
       <r>    -2.8851     0.7877     0.3413 </r>
       <r>    -2.7896     0.9206     0.4293 </r>
       <r>    -2.6940     0.9296     0.5182 </r>
       <r>    -2.5984     0.8241     0.5970 </r>
       <r>    -2.5028     0.5715     0.6516 </r>
       <r>    -2.4072     0.2982     0.6801 </r>
       <r>    -2.3116     0.1994     0.6992 </r>
       <r>    -2.2160     0.3383     0.7315 </r>
       <r>    -2.1204     0.5881     0.7877 </r>
       <r>    -2.0249     0.6897     0.8537 </r>
       <r>    -1.9293     0.5229     0.9036 </r>
       <r>    -1.8337     0.2554     0.9281 </r>
       <r>    -1.7381     0.0803     0.9357 </r>
       <r>    -1.6425     0.0162     0.9373 </r>
       <r>    -1.5469     0.0022     0.9375 </r>
       <r>    -1.4513     0.0013     0.9376 </r>
       <r>    -1.3557     0.0087     0.9385 </r>
       <r>    -1.2602     0.0424     0.9425 </r>
       <r>    -1.1646     0.1324     0.9552 </r>
       <r>    -1.0690     0.2666     0.9806 </r>
       <r>    -0.9734     0.3461     1.0137 </r>
       <r>    -0.8778     0.2958     1.0420 </r>
       <r>    -0.7822     0.2054     1.0616 </r>
       <r>    -0.6866     0.2754     1.0880 </r>
       <r>    -0.5910     0.6420     1.1493 </r>
       <r>    -0.4954     1.1590     1.2601 </r>
       <r>    -0.3999     1.3748     1.3915 </r>
       <r>    -0.3043     1.0560     1.4925 </r>
       <r>    -0.2087     0.5255     1.5427 </r>
       <r>    -0.1131     0.1774     1.5596 </r>
       <r>    -0.0175     0.0878     1.5680 </r>
       <r>     0.0781     0.2098     1.5881 </r>
       <r>     0.1737     0.5378     1.6395 </r>
       <r>     0.2693     0.9936     1.7345 </r>
       <r>     0.3648     1.3984     1.8681 </r>
       <r>     0.4604     1.6676     2.0275 </r>
       <r>     0.5560     1.8083     2.2004 </r>
       <r>     0.6516     1.6935     2.3623 </r>
       <r>     0.7472     1.2173     2.4786 </r>
       <r>     0.8428     0.6148     2.5374 </r>
       <r>     0.9384     0.2085     2.5573 </r>
       <r>     1.0340     0.0466     2.5618 </r>
       <r>     1.1295     0.0068     2.5624 </r>
       <r>     1.2251     0.0007     2.5625 </r>
       <r>     1.3207     0.0008     2.5626 </r>
       <r>     1.4163     0.0068     2.5632 </r>
       <r>     1.5119     0.0397     2.5670 </r>
       <r>     1.6075     0.1549     2.5818 </r>
       <r>     1.7031     0.4103     2.6210 </r>
       <r>     1.7987     0.7624     2.6939 </r>
       <r>     1.8942     1.0228     2.7917 </r>
       <r>     1.9898     1.0002     2.8873 </r>
       <r>     2.0854     0.7020     2.9544 </r>
       <r>     2.1810     0.3512     2.9880 </r>
       <r>     2.2766     0.1535     3.0026 </r>
       <r>     2.3722     0.1294     3.0150 </r>
       <r>     2.4678     0.1815     3.0324 </r>
       <r>     2.5634     0.2312     3.0545 </r>
       <r>     2.6589     0.2861     3.0818 </r>
       <r>     2.7545     0.3629     3.1165 </r>
       <r>     2.8501     0.4152     3.1562 </r>
       <r>     2.9457     0.4633     3.2005 </r>
       <r>     3.0413     0.6113     3.2589 </r>
       <r>     3.1369     0.8129     3.3366 </r>
       <r>     3.2325     0.9078     3.4234 </r>
       <r>     3.3281     0.9143     3.5108 </r>
       <r>     3.4236     0.9690     3.6034 </r>
       <r>     3.5192     1.0713     3.7058 </r>
       <r>     3.6148     1.1185     3.8127 </r>
       <r>     3.7104     1.0467     3.9128 </r>
       <r>     3.8060     0.8236     3.9915 </r>
       <r>     3.9016     0.5121     4.0405 </r>
       <r>     3.9972     0.3193     4.0710 </r>
       <r>     4.0928     0.3890     4.1082 </r>
       <r>     4.1884     0.6073     4.1662 </r>
       <r>     4.2839     0.6885     4.2320 </r>
       <r>     4.3795     0.5137     4.2811 </r>
       <r>     4.4751     0.2747     4.3074 </r>
       <r>     4.5707     0.2095     4.3274 </r>
       <r>     4.6663     0.3870     4.3644 </r>
       <r>     4.7619     0.7020     4.4315 </r>
       <r>     4.8575     0.9816     4.5253 </r>
       <r>     4.9531     1.1670     4.6369 </r>
       <r>     5.0486     1.2344     4.7549 </r>
       <r>     5.1442     1.0906     4.8591 </r>
       <r>     5.2398     0.8624     4.9416 </r>
       <r>     5.3354     0.8765     5.0253 </r>
       <r>     5.4310     1.1447     5.1348 </r>
       <r>     5.5266     1.3000     5.2590 </r>
       <r>     5.6222     1.1217     5.3662 </r>
       <r>     5.7178     0.7663     5.4395 </r>
       <r>     5.8133     0.4876     5.4861 </r>
       <r>     5.9089     0.4823     5.5322 </r>
       <r>     6.0045     0.8358     5.6121 </r>
       <r>     6.1001     1.2901     5.7354 </r>
       <r>     6.1957     1.3674     5.8661 </r>
       <r>     6.2913     1.0252     5.9641 </r>
       <r>     6.3869     0.7346     6.0343 </r>
       <r>     6.4825     0.7580     6.1068 </r>
       <r>     6.5780     0.9152     6.1943 </r>
       <r>     6.6736     1.0645     6.2960 </r>
       <r>     6.7692     1.2415     6.4147 </r>
       <r>     6.8648     1.3279     6.5416 </r>
       <r>     6.9604     1.1194     6.6486 </r>
       <r>     7.0560     0.6970     6.7153 </r>
       <r>     7.1516     0.3999     6.7535 </r>
       <r>     7.2472     0.5468     6.8058 </r>
       <r>     7.3427     1.2471     6.9250 </r>
       <r>     7.4383     2.1201     7.1276 </r>
       <r>     7.5339     2.3681     7.3540 </r>
       <r>     7.6295     1.7201     7.5184 </r>
       <r>     7.7251     0.8112     7.5959 </r>
       <r>     7.8207     0.2484     7.6197 </r>
       <r>     7.9163     0.0531     7.6248 </r>
       <r>     8.0119     0.0349     7.6281 </r>
       <r>     8.1075     0.1337     7.6409 </r>
       <r>     8.2030     0.4125     7.6803 </r>
       <r>     8.2986     0.8618     7.7627 </r>
       <r>     8.3942     1.2307     7.8803 </r>
       <r>     8.4898     1.2113     7.9961 </r>
       <r>     8.5854     0.8212     8.0746 </r>
       <r>     8.6810     0.3802     8.1110 </r>
       <r>     8.7766     0.1186     8.1223 </r>
       <r>     8.8722     0.0246     8.1246 </r>
       <r>     8.9677     0.0033     8.1250 </r>
       <r>     9.0633     0.0003     8.1250 </r>
       <r>     9.1589     0.0002     8.1250 </r>
       <r>     9.2545     0.0019     8.1252 </r>
       <r>     9.3501     0.0158     8.1267 </r>
       <r>     9.4457     0.0828     8.1346 </r>
       <r>     9.5413     0.2795     8.1613 </r>
       <r>     9.6369     0.6084     8.2195 </r>
       <r>     9.7324     0.8608     8.3018 </r>
       <r>     9.8280     0.8333     8.3814 </r>
       <r>     9.9236     0.7256     8.4508 </r>
       <r>    10.0192     0.9480     8.5414 </r>
       <r>    10.1148     1.4931     8.6841 </r>
       <r>    10.2104     1.8701     8.8629 </r>
       <r>    10.3060     1.7686     9.0319 </r>
       <r>    10.4016     1.3780     9.1637 </r>
       <r>    10.4971     1.0261     9.2618 </r>
       <r>    10.5927     0.9232     9.3500 </r>
       <r>    10.6883     1.0767     9.4529 </r>
       <r>    10.7839     1.2464     9.5720 </r>
       <r>    10.8795     1.1627     9.6832 </r>
       <r>    10.9751     0.8171     9.7613 </r>
       <r>    11.0707     0.4625     9.8055 </r>
       <r>    11.1663     0.3345     9.8375 </r>
       <r>    11.2618     0.4422     9.8798 </r>
       <r>    11.3574     0.6487     9.9418 </r>
       <r>    11.4530     0.8201    10.0201 </r>
       <r>    11.5486     0.8505    10.1014 </r>
       <r>    11.6442     0.7776    10.1758 </r>
       <r>    11.7398     0.8730    10.2592 </r>
       <r>    11.8354     1.3033    10.3838 </r>
       <r>    11.9310     1.8045    10.5563 </r>
       <r>    12.0266     1.9607    10.7437 </r>
       <r>    12.1221     1.7038    10.9066 </r>
       <r>    12.2177     1.3256    11.0333 </r>
       <r>    12.3133     1.0336    11.1321 </r>
       <r>    12.4089     0.8011    11.2087 </r>
       <r>    12.5045     0.6900    11.2746 </r>
       <r>    12.6001     0.8520    11.3561 </r>
       <r>    12.6957     1.2016    11.4709 </r>
       <r>    12.7913     1.4745    11.6119 </r>
       <r>    12.8868     1.5122    11.7564 </r>
       <r>    12.9824     1.3545    11.8859 </r>
       <r>    13.0780     1.1937    12.0000 </r>
       <r>    13.1736     1.1430    12.1093 </r>
       <r>    13.2692     1.0905    12.2135 </r>
       <r>    13.3648     0.9728    12.3065 </r>
       <r>    13.4604     0.9056    12.3930 </r>
       <r>    13.5560     0.9086    12.4799 </r>
       <r>    13.6515     0.9213    12.5680 </r>
       <r>    13.7471     1.0071    12.6642 </r>
       <r>    13.8427     1.1590    12.7750 </r>
       <r>    13.9383     1.1837    12.8882 </r>
       <r>    14.0339     0.9522    12.9792 </r>
       <r>    14.1295     0.5713    13.0338 </r>
       <r>    14.2251     0.2934    13.0618 </r>
       <r>    14.3207     0.3398    13.0943 </r>
       <r>    14.4162     0.8342    13.1741 </r>
       <r>    14.5118     1.6534    13.3321 </r>
       <r>    14.6074     2.2929    13.5513 </r>
       <r>    14.7030     2.3220    13.7732 </r>
       <r>    14.7986     1.8731    13.9523 </r>
       <r>    14.8942     1.2896    14.0755 </r>
       <r>    14.9898     0.7366    14.1460 </r>
       <r>    15.0854     0.3174    14.1763 </r>
       <r>    15.1809     0.0958    14.1855 </r>
       <r>    15.2765     0.0243    14.1878 </r>
       <r>    15.3721     0.0359    14.1912 </r>
       <r>    15.4677     0.1375    14.2044 </r>
       <r>    15.5633     0.3635    14.2391 </r>
       <r>    15.6589     0.6209    14.2985 </r>
       <r>    15.7545     0.6940    14.3648 </r>
       <r>    15.8501     0.5574    14.4181 </r>
       <r>    15.9456     0.4906    14.4650 </r>
       <r>    16.0412     0.7128    14.5331 </r>
       <r>    16.1368     1.0778    14.6361 </r>
       <r>    16.2324     1.2615    14.7567 </r>
       <r>    16.3280     1.1954    14.8710 </r>
       <r>    16.4236     1.0730    14.9735 </r>
       <r>    16.5192     0.9641    15.0657 </r>
       <r>    16.6148     0.7990    15.1421 </r>
       <r>    16.7104     0.5756    15.1971 </r>
       <r>    16.8059     0.3417    15.2298 </r>
       <r>    16.9015     0.1538    15.2445 </r>
       <r>    16.9971     0.0555    15.2498 </r>
       <r>    17.0927     0.0560    15.2551 </r>
       <r>    17.1883     0.1771    15.2720 </r>
       <r>    17.2839     0.4405    15.3141 </r>
       <r>    17.3795     0.7535    15.3862 </r>
       <r>    17.4751     0.9530    15.4773 </r>
       <r>    17.5706     0.9894    15.5718 </r>
       <r>    17.6662     0.8692    15.6549 </r>
       <r>    17.7618     0.5942    15.7117 </r>
       <r>    17.8574     0.2863    15.7391 </r>
       <r>    17.9530     0.0920    15.7479 </r>
       <r>    18.0486     0.0193    15.7497 </r>
       <r>    18.1442     0.0026    15.7500 </r>
       <r>    18.2398     0.0002    15.7500 </r>
       <r>    18.3353     0.0000    15.7500 </r>
       <r>    18.4309     0.0000    15.7500 </r>
       <r>    18.5265     0.0000    15.7500 </r>
       <r>    18.6221     0.0000    15.7500 </r>
       <r>    18.7177     0.0000    15.7500 </r>
       <r>    18.8133     0.0000    15.7500 </r>
       <r>    18.9089     0.0000    15.7500 </r>
       <r>    19.0045     0.0000    15.7500 </r>
       <r>    19.1000     0.0000    15.7500 </r>
       <r>    19.1956     0.0000    15.7500 </r>
       <r>    19.2912     0.0000    15.7500 </r>
       <r>    19.3868     0.0000    15.7500 </r>
       <r>    19.4824     0.0000    15.7500 </r>
       <r>    19.5780     0.0000    15.7500 </r>
       <r>    19.6736     0.0000    15.7500 </r>
       <r>    19.7692     0.0005    15.7501 </r>
       <r>    19.8647     0.0049    15.7505 </r>
       <r>    19.9603     0.0291    15.7533 </r>
       <r>    20.0559     0.1143    15.7642 </r>
       <r>    20.1515     0.2998    15.7929 </r>
       <r>    20.2471     0.5320    15.8437 </r>
       <r>    20.3427     0.6445    15.9053 </r>
       <r>    20.4383     0.5351    15.9565 </r>
       <r>    20.5339     0.3034    15.9855 </r>
       <r>    20.6295     0.1163    15.9966 </r>
       <r>    20.7250     0.0298    15.9995 </r>
       <r>    20.8206     0.0050    15.9999 </r>
       <r>    20.9162     0.0006    16.0000 </r>
       <r>    21.0118     0.0000    16.0000 </r>
       <r>    21.1074     0.0000    16.0000 </r>
       <r>    21.2030     0.0000    16.0000 </r>
       <r>    21.2986     0.0000    16.0000 </r>
       <r>    21.3942     0.0000    16.0000 </r>
       <r>    21.4897     0.0000    16.0000 </r>
       <r>    21.5853     0.0000    16.0000 </r>
       <r>    21.6809     0.0000    16.0000 </r>
       <r>    21.7765     0.0000    16.0000 </r>
       <r>    21.8721     0.0000    16.0000 </r>
       <r>    21.9677     0.0000    16.0000 </r>
       <r>    22.0633     0.0000    16.0000 </r>
       <r>    22.1589     0.0000    16.0000 </r>
       <r>    22.2544     0.0000    16.0000 </r>
       <r>    22.3500     0.0000    16.0000 </r>
      </set>
     </set>
    </array>
   </total>
  </dos>
 </calculation>
 <structure name="finalpos" >
  <crystal>
   <varray name="basis" >
    <v>      -2.30757682       2.30757682       1.47577935 </v>
    <v>       2.30757682      -2.30757682       1.47577935 </v>
    <v>       2.30757682       2.30757682      -1.47577935 </v>
   </varray>
   <i name="volume">     31.43357343 </i>
   <varray name="rec_basis" >
    <v>      -0.00000000       0.21667751       0.33880404 </v>
    <v>       0.21667751      -0.00000000       0.33880404 </v>
    <v>       0.21667751       0.21667751       0.00000000 </v>
   </varray>
  </crystal>
  <varray name="positions" >
   <v>       0.25000000       0.75000000       0.50000000 </v>
   <v>      -0.00000000       0.00000000      -0.00000000 </v>
  </varray>
 </structure>
</modeling>
