unknown system                          
           1
    -2.450000    2.450000    1.274000
     2.450000   -2.450000    1.274000
     2.450000    2.450000   -1.274000
   Si
   2
Direct configuration=     1
   0.25000000  0.75000000  0.50000000
   0.00000000  0.00000000  0.00000000
unknown system                          
           1
    -2.384747    2.384747    1.366448
     2.384747   -2.384747    1.366448
     2.384747    2.384747   -1.366448
   Si
   2
Direct configuration=     2
   0.25000000  0.75000000  0.50000000
  -0.00000000  0.00000000 -0.00000000
unknown system                          
           1
    -2.325664    2.325664    1.450155
     2.325664   -2.325664    1.450155
     2.325664    2.325664   -1.450155
   Si
   2
Direct configuration=     3
   0.25000000  0.75000000  0.50000000
  -0.00000000  0.00000000 -0.00000000
unknown system                          
           1
    -2.301878    2.301878    1.483854
     2.301878   -2.301878    1.483854
     2.301878    2.301878   -1.483854
   Si
   2
Direct configuration=     4
   0.25000000  0.75000000  0.50000000
  -0.00000000  0.00000000 -0.00000000
unknown system                          
           1
    -2.306424    2.306424    1.477413
     2.306424   -2.306424    1.477413
     2.306424    2.306424   -1.477413
   Si
   2
Direct configuration=     5
   0.25000000  0.75000000  0.50000000
  -0.00000000  0.00000000 -0.00000000
unknown system                          
           1
    -2.315945    2.315945    1.463924
     2.315945   -2.315945    1.463924
     2.315945    2.315945   -1.463924
   Si
   2
Direct configuration=     6
   0.25000000  0.75000000  0.50000000
  -0.00000000  0.00000000 -0.00000000
unknown system                          
           1
    -2.309264    2.309264    1.473389
     2.309264   -2.309264    1.473389
     2.309264    2.309264   -1.473389
   Si
   2
Direct configuration=     7
   0.25000000  0.75000000  0.50000000
  -0.00000000  0.00000000 -0.00000000
unknown system                          
           1
    -2.308734    2.308734    1.474140
     2.308734   -2.308734    1.474140
     2.308734    2.308734   -1.474140
   Si
   2
Direct configuration=     8
   0.25000000  0.75000000  0.50000000
  -0.00000000  0.00000000 -0.00000000
unknown system                          
           1
    -2.307579    2.307579    1.475777
     2.307579   -2.307579    1.475777
     2.307579    2.307579   -1.475777
   Si
   2
Direct configuration=     9
   0.25000000  0.75000000  0.50000000
  -0.00000000  0.00000000 -0.00000000
unknown system                          
           1
    -2.307191    2.307191    1.476326
     2.307191   -2.307191    1.476326
     2.307191    2.307191   -1.476326
   Si
   2
Direct configuration=    10
   0.25000000  0.75000000  0.50000000
  -0.00000000  0.00000000 -0.00000000
unknown system                          
           1
    -2.307462    2.307462    1.475942
     2.307462   -2.307462    1.475942
     2.307462    2.307462   -1.475942
   Si
   2
Direct configuration=    11
   0.25000000  0.75000000  0.50000000
  -0.00000000  0.00000000 -0.00000000
unknown system                          
           1
    -2.307545    2.307545    1.475825
     2.307545   -2.307545    1.475825
     2.307545    2.307545   -1.475825
   Si
   2
Direct configuration=    12
   0.25000000  0.75000000  0.50000000
  -0.00000000  0.00000000 -0.00000000
unknown system                          
           1
    -2.307566    2.307566    1.475794
     2.307566   -2.307566    1.475794
     2.307566    2.307566   -1.475794
   Si
   2
Direct configuration=    13
   0.25000000  0.75000000  0.50000000
  -0.00000000  0.00000000 -0.00000000
unknown system                          
           1
    -2.307574    2.307574    1.475784
     2.307574   -2.307574    1.475784
     2.307574    2.307574   -1.475784
   Si
   2
Direct configuration=    14
   0.25000000  0.75000000  0.50000000
  -0.00000000  0.00000000 -0.00000000
unknown system                          
           1
    -2.307577    2.307577    1.475779
     2.307577   -2.307577    1.475779
     2.307577    2.307577   -1.475779
   Si
   2
Direct configuration=    15
   0.25000000  0.75000000  0.50000000
  -0.00000000  0.00000000 -0.00000000
