unknown system                          
   1.00000000000000     
     0.000000    2.570241    2.570241
     2.570241    0.000000    2.570241
     2.570241    2.570241    0.000000
   Si
     2
Direct
  0.000000  0.000000  0.000000
  0.250000  0.250000  0.250000
 
   36   36   36
 -.68149243654E+01 -.57005558157E+01 -.26213235402E+01 0.17172152505E+01 0.63911462311E+01
 0.10527930945E+02 0.13521311189E+02 0.15128925236E+02 0.15450840827E+02 0.14828588648E+02
 0.13710140101E+02 0.12450945003E+02 0.11195728034E+02 0.10040352150E+02 0.90512055274E+01
 0.82668944587E+01 0.77046099196E+01 0.73683255540E+01 0.72566230312E+01 0.73683376156E+01
 0.77046223856E+01 0.82668964384E+01 0.90512018529E+01 0.10040367007E+02 0.11195789069E+02
 0.12451052408E+02 0.13710244137E+02 0.14828604129E+02 0.15450701606E+02 0.15128640357E+02
 0.13520971816E+02 0.10527656593E+02 0.63910124384E+01 0.17172174887E+01 -.26212515626E+01
 -.57004943032E+01 -.57005558157E+01 -.34443949814E+01 0.51777396212E+00 0.52772855781E+01
 0.98609640402E+01 0.13501300563E+02 0.15789795815E+02 0.16692676887E+02 0.16466947002E+02
 0.15530660243E+02 0.14310938983E+02 0.13027157684E+02 0.11785942183E+02 0.10669773101E+02
 0.97360197022E+01 0.90192912543E+01 0.85367683666E+01 0.82947957080E+01 0.82948031071E+01
 0.85367830731E+01 0.90192989764E+01 0.97360158856E+01 0.10669772138E+02 0.11785972147E+02
 0.13027239244E+02 0.14311056856E+02 0.15530749445E+02 0.16466922402E+02 0.16692498400E+02
 0.15789514403E+02 0.13501031252E+02 0.98608033133E+01 0.52772503527E+01 0.51781190539E+00
 -.34443479126E+01 -.57005367827E+01 -.26213235402E+01 0.51777396212E+00 0.48775761803E+01
 0.94807772386E+01 0.13452971435E+02 0.16234988824E+02 0.17648994958E+02 0.17843074601E+02
 0.17172331890E+02 0.16063539878E+02 0.14814575574E+02 0.13545140632E+02 0.12345954896E+02
 0.11288670340E+02 0.10425268475E+02 0.97898130842E+01 0.94021157718E+01 0.92719326279E+01
 0.94021284056E+01 0.97898258055E+01 0.10425270420E+02 0.11288664321E+02 0.12345957545E+02
 0.13545173499E+02 0.14814649861E+02 0.16063637221E+02 0.17172399267E+02 0.17843054561E+02
 0.17648875971E+02 0.16234825842E+02 0.13452846786E+02 0.94807373822E+01 0.48776063354E+01
 0.51782598601E+00 -.26212892541E+01 -.37659658854E+01 0.17172152505E+01 0.52772855781E+01
 0.94807772386E+01 0.13431319276E+02 0.16461587117E+02 0.18256832089E+02 0.18842031191E+02
 0.18484206660E+02 0.17565837620E+02 0.16423063153E+02 0.15196246320E+02 0.13976402833E+02
 0.12842139282E+02 0.11858742061E+02 0.11077507759E+02 0.10536057648E+02 0.10259151611E+02
 0.10259159302E+02 0.10536074135E+02 0.11077520754E+02 0.11858745780E+02 0.12842137966E+02
 0.13976406947E+02 0.15196269460E+02 0.16423115193E+02 0.17565911767E+02 0.18484273881E+02
 0.18842058232E+02 0.18256809976E+02 0.16461541250E+02 0.13431289263E+02 0.94807861145E+01
 0.52773261155E+01 0.17172590260E+01 -.33131327844E+00 -.33133176760E+00 0.63911462311E+01
 0.98609640402E+01 0.13452971435E+02 0.16461587117E+02 0.18466008078E+02 0.19369076288E+02
 0.19333755801E+02 0.18672048052E+02 0.17709265662E+02 0.16602938954E+02 0.15438224301E+02
 0.14292520669E+02 0.13237005646E+02 0.12336128128E+02 0.11646038095E+02 0.11211865261E+02
 0.11063607383E+02 0.11211882014E+02 0.11646062631E+02 0.12336150297E+02 0.13237019849E+02
 0.14292525971E+02 0.15438225635E+02 0.16602949761E+02 0.17709302362E+02 0.18672115326E+02
 0.19333837394E+02 0.19369143273E+02 0.18466037328E+02 0.16461574474E+02 0.13452932519E+02
 0.98609223802E+01 0.63911180896E+01 0.38613187817E+01 0.29331282810E+01 0.38613307164E+01
 0.10527930945E+02 0.13501300563E+02 0.16234988824E+02 0.18256832089E+02 0.19369076288E+02
 0.19628153355E+02 0.19259786227E+02 0.18542952396E+02 0.17632292757E+02 0.16602938576E+02
 0.15523892065E+02 0.14463303458E+02 0.13490649566E+02 0.12676138127E+02 0.12086265611E+02
 0.11775184274E+02 0.11775197152E+02 0.12086299002E+02 0.12676180177E+02 0.13490688661E+02
 0.14463329666E+02 0.15523900216E+02 0.16602935617E+02 0.17632298611E+02 0.18542987078E+02
 0.19259852606E+02 0.19628231574E+02 0.19369133593E+02 0.18256837698E+02 0.16234926105E+02
 0.13501177993E+02 0.10527784472E+02 0.79746745281E+01 0.64941740974E+01 0.64942195680E+01
 0.79747931311E+01 0.13521311189E+02 0.15789795815E+02 0.17648994958E+02 0.18842031191E+02
 0.19333755801E+02 0.19259786227E+02 0.18831982904E+02 0.18177082745E+02 0.17355690224E+02
 0.16423062483E+02 0.15436114585E+02 0.14459204480E+02 0.13565837552E+02 0.12834107974E+02
 0.12348403409E+02 0.12177620159E+02 0.12348442197E+02 0.12834169570E+02 0.13565902462E+02
 0.14459258482E+02 0.15436148224E+02 0.16423073411E+02 0.17355691234E+02 0.18177095991E+02
 0.18832020524E+02 0.19259837646E+02 0.19333794855E+02 0.18842030991E+02 0.17648936579E+02
 0.15789671761E+02 0.13521136822E+02 0.11300165902E+02 0.96679764547E+01 0.90669263036E+01
 0.96680897939E+01 0.11300343007E+02 0.15128925236E+02 0.16692676887E+02 0.17843074601E+02
 0.18484206660E+02 0.18672048052E+02 0.18542952396E+02 0.18177082745E+02 0.17616238101E+02
 0.16898438522E+02 0.16063539493E+02 0.15161307758E+02 0.14250880324E+02 0.13411151128E+02
 0.12753089167E+02 0.12388677272E+02 0.12388707789E+02 0.12753164201E+02 0.13411237088E+02
 0.14250953869E+02 0.15161362730E+02 0.16063577149E+02 0.16898463025E+02 0.17616261526E+02
 0.18177117224E+02 0.18542993231E+02 0.18672072437E+02 0.18484192398E+02 0.17843016797E+02
 0.16692586755E+02 0.15128819541E+02 0.13416642454E+02 0.11939172004E+02 0.11079927483E+02
 0.11079956608E+02 0.11939249360E+02 0.13416745467E+02 0.15450840827E+02 0.16466947002E+02
 0.17172331890E+02 0.17565837620E+02 0.17709265662E+02 0.17632292757E+02 0.17355690224E+02
 0.16898438522E+02 0.16280546147E+02 0.15530659970E+02 0.14681686162E+02 0.13797653321E+02
 0.12999882730E+02 0.12437328333E+02 0.12233773767E+02 0.12437398220E+02 0.12999979129E+02
 0.13797731940E+02 0.14681736136E+02 0.15530696649E+02 0.16280586720E+02 0.16898489029E+02
 0.17355751371E+02 0.17632358228E+02 0.17709316944E+02 0.17565850633E+02 0.17172298266E+02
 0.16466887867E+02 0.15450795359E+02 0.14242809344E+02 0.13071265460E+02 0.12213367784E+02
 0.11897806521E+02 0.12213334867E+02 0.13071232699E+02 0.14242812447E+02 0.14828588648E+02
 0.15530660243E+02 0.16063539878E+02 0.16423063153E+02 0.16602938954E+02 0.16602938576E+02
 0.16423062483E+02 0.16063539493E+02 0.15530659970E+02 0.14828588250E+02 0.13990099147E+02
 0.13124033593E+02 0.12396946300E+02 0.11979348083E+02 0.11979389163E+02 0.12397038713E+02
 0.13124115172E+02 0.13990132995E+02 0.14828587435E+02 0.15530663427E+02 0.16063576254E+02
 0.16423134139E+02 0.16603030256E+02 0.16603030459E+02 0.16423134360E+02 0.16063576107E+02
 0.15530663308E+02 0.14828587729E+02 0.13990133285E+02 0.13124115019E+02 0.12397038448E+02
 0.11979389138E+02 0.11979347921E+02 0.12396945692E+02 0.13124033069E+02 0.13990099241E+02
 0.13710140101E+02 0.14310938983E+02 0.14814575574E+02 0.15196246320E+02 0.15438224301E+02
 0.15523892065E+02 0.15436114585E+02 0.15161307758E+02 0.14681686162E+02 0.13990099147E+02
 0.13160640088E+02 0.12350033606E+02 0.11753533419E+02 0.11533651486E+02 0.11753603733E+02
 0.12350121274E+02 0.13160683787E+02 0.13990078333E+02 0.14681632126E+02 0.15161273109E+02
 0.15436132812E+02 0.15523958730E+02 0.15438314822E+02 0.15196338720E+02 0.14814659227E+02
 0.14311009770E+02 0.13710197784E+02 0.13051630770E+02 0.12387883700E+02 0.11799182178E+02
 0.11387472203E+02 0.11238949442E+02 0.11387418644E+02 0.11799106830E+02 0.12387816758E+02
 0.13051575810E+02 0.12450945003E+02 0.13027157684E+02 0.13545140632E+02 0.13976402833E+02
 0.14292520669E+02 0.14463303458E+02 0.14459204480E+02 0.14250880324E+02 0.13797653321E+02
 0.13124033593E+02 0.12350033606E+02 0.11664262005E+02 0.11260166228E+02 0.11260200062E+02
 0.11664340661E+02 0.12350103707E+02 0.13124046337E+02 0.13797598906E+02 0.14250793873E+02
 0.14459139759E+02 0.14463292261E+02 0.14292555835E+02 0.13976458792E+02 0.13545201090E+02
 0.13027222386E+02 0.12451014815E+02 0.11849268632E+02 0.11263416067E+02 0.10745574789E+02
 0.10354096537E+02 0.10141758846E+02 0.10141752555E+02 0.10354077346E+02 0.10745540356E+02
 0.11263363653E+02 0.11849201930E+02 0.11195728034E+02 0.11785942183E+02 0.12345954896E+02
 0.12842139282E+02 0.13237005646E+02 0.13490649566E+02 0.13565837552E+02 0.13411151128E+02
 0.12999882730E+02 0.12396946300E+02 0.11753533419E+02 0.11260166228E+02 0.11075230032E+02
 0.11260213180E+02 0.11753603104E+02 0.12396999595E+02 0.12999884899E+02 0.13411094693E+02
 0.13565749876E+02 0.13490575113E+02 0.13236971570E+02 0.12842140873E+02 0.12345969976E+02
 0.11785956892E+02 0.11195743363E+02 0.10606506764E+02 0.10049572382E+02 0.95587518909E+01
 0.91704385590E+01 0.89197150532E+01 0.88328661061E+01 0.89197310680E+01 0.91704553637E+01
 0.95587543877E+01 0.10049559393E+02 0.10606488739E+02 0.10040352150E+02 0.10669773101E+02
 0.11288670340E+02 0.11858742061E+02 0.12336128128E+02 0.12676138127E+02 0.12834107974E+02
 0.12753089167E+02 0.12437328333E+02 0.11979348083E+02 0.11533651486E+02 0.11260200062E+02
 0.11260213180E+02 0.11533687518E+02 0.11979396271E+02 0.12437368844E+02 0.12753099930E+02
 0.12834077214E+02 0.12676077450E+02 0.12336066677E+02 0.11858704856E+02 0.11288660772E+02
 0.10669773376E+02 0.10040342230E+02 0.94322939107E+01 0.88724808407E+01 0.83847683025E+01
 0.79917052393E+01 0.77145250111E+01 0.75708285192E+01 0.75708470905E+01 0.77145732151E+01
 0.79917663461E+01 0.83848270816E+01 0.88725277829E+01 0.94323231655E+01 0.90512055274E+01
 0.97360197022E+01 0.10425268475E+02 0.11077507759E+02 0.11646038095E+02 0.12086265611E+02
 0.12348403409E+02 0.12388677272E+02 0.12233773767E+02 0.11979389163E+02 0.11753603733E+02
 0.11664340661E+02 0.11753603104E+02 0.11979396271E+02 0.12233797475E+02 0.12388716254E+02
 0.12348440713E+02 0.12086278541E+02 0.11646018581E+02 0.11077471134E+02 0.10425243363E+02
 0.97360223213E+01 0.90512247291E+01 0.84038646843E+01 0.78186677001E+01 0.73139539941E+01
 0.69039806056E+01 0.66006678097E+01 0.64139758321E+01 0.63509077926E+01 0.64140255259E+01
 0.66007528033E+01 0.69040746982E+01 0.73140272653E+01 0.78187001689E+01 0.84038588264E+01
 0.82668944587E+01 0.90192912543E+01 0.97898130842E+01 0.10536057648E+02 0.11211865261E+02
 0.11775184274E+02 0.12177620159E+02 0.12388707789E+02 0.12437398220E+02 0.12397038713E+02
 0.12350121274E+02 0.12350103707E+02 0.12396999595E+02 0.12437368844E+02 0.12388716254E+02
 0.12177671449E+02 0.11775255875E+02 0.11211921757E+02 0.10536074975E+02 0.97897985268E+01
 0.90192779046E+01 0.82669127169E+01 0.75662126285E+01 0.69405193652E+01 0.64045232692E+01
 0.59670502704E+01 0.56337487106E+01 0.54088022733E+01 0.52954175466E+01 0.52954427119E+01
 0.54088666058E+01 0.56338215489E+01 0.59670943185E+01 0.64045164539E+01 0.69404727348E+01
 0.75661635728E+01 0.77046099196E+01 0.85367683666E+01 0.94021157718E+01 0.10259151611E+02
 0.11063607383E+02 0.11775197152E+02 0.12348442197E+02 0.12753164201E+02 0.12999979129E+02
 0.13124115172E+02 0.13160683787E+02 0.13124046337E+02 0.12999884899E+02 0.12753099930E+02
 0.12348440713E+02 0.11775255875E+02 0.11063696571E+02 0.10259230197E+02 0.94021535610E+01
 0.85367655640E+01 0.77045984839E+01 0.69386260066E+01 0.62608245511E+01 0.56830490274E+01
 0.52099717473E+01 0.48424575639E+01 0.45801427695E+01 0.44227387198E+01 0.43702596565E+01
 0.44227581726E+01 0.45801596101E+01 0.48424433895E+01 0.52099155211E+01 0.56829709783E+01
 0.62607636838E+01 0.69386072555E+01 0.73683255540E+01 0.82947957080E+01 0.92719326279E+01
 0.10259159302E+02 0.11211882014E+02 0.12086299002E+02 0.12834169570E+02 0.13411237088E+02
 0.13797731940E+02 0.13990132995E+02 0.13990078333E+02 0.13797598906E+02 0.13411094693E+02
 0.12834077214E+02 0.12086278541E+02 0.11211921757E+02 0.10259230197E+02 0.92720005010E+01
 0.82948321687E+01 0.73683237906E+01 0.65242509650E+01 0.57829453146E+01 0.51537206755E+01
 0.46377213039E+01 0.42316990934E+01 0.39312566245E+01 0.37327709278E+01 0.36340139195E+01
 0.36340055043E+01 0.37327403242E+01 0.39311964594E+01 0.42316161941E+01 0.46376421168E+01
 0.51536752806E+01 0.57829425972E+01 0.65242687534E+01 0.72566230312E+01 0.82948031071E+01
 0.94021284056E+01 0.10536074135E+02 0.11646062631E+02 0.12676180177E+02 0.13565902462E+02
 0.14250953869E+02 0.14681736136E+02 0.14828587435E+02 0.14681632126E+02 0.14250793873E+02
 0.13565749876E+02 0.12676077450E+02 0.11646018581E+02 0.10536074975E+02 0.94021535610E+01
 0.82948321687E+01 0.72566374547E+01 0.63190935728E+01 0.55010512857E+01 0.48094113479E+01
 0.42420975667E+01 0.37921032833E+01 0.34511989361E+01 0.32123682124E+01 0.30707996700E+01
 0.30238670584E+01 0.30707602665E+01 0.32122994231E+01 0.34511231004E+01 0.37920490369E+01
 0.42420828708E+01 0.48094301198E+01 0.55010782007E+01 0.63191037273E+01 0.73683376156E+01
 0.85367830731E+01 0.97898258055E+01 0.11077520754E+02 0.12336150297E+02 0.13490688661E+02
 0.14459258482E+02 0.15161362730E+02 0.15530696649E+02 0.15530663427E+02 0.15161273109E+02
 0.14459139759E+02 0.13490575113E+02 0.12336066677E+02 0.11077471134E+02 0.97897985268E+01
 0.85367655640E+01 0.73683237906E+01 0.63190935728E+01 0.54080859197E+01 0.46404466771E+01
 0.40111453654E+01 0.35095753342E+01 0.31237386877E+01 0.28431052920E+01 0.26599375989E+01
 0.25694506010E+01 0.25694323932E+01 0.26598932458E+01 0.28430602937E+01 0.31237190364E+01
 0.35095901707E+01 0.40111817347E+01 0.46404827529E+01 0.54081098514E+01 0.63191085350E+01
 0.77046223856E+01 0.90192989764E+01 0.10425270420E+02 0.11858745780E+02 0.13237019849E+02
 0.14463329666E+02 0.15436148224E+02 0.16063577149E+02 0.16280586720E+02 0.16063576254E+02
 0.15436132812E+02 0.14463292261E+02 0.13236971570E+02 0.11858704856E+02 0.10425243363E+02
 0.90192779046E+01 0.77045984839E+01 0.65242509650E+01 0.55010512857E+01 0.46404466771E+01
 0.39353502353E+01 0.33717942893E+01 0.29339605351E+01 0.26076132439E+01 0.23817627368E+01
 0.22490027749E+01 0.22051840963E+01 0.22489899737E+01 0.23817527744E+01 0.26076237340E+01
 0.29339955657E+01 0.33718416955E+01 0.39353939724E+01 0.46404808207E+01 0.55010801806E+01
 0.65242781873E+01 0.82668964384E+01 0.97360158856E+01 0.11288664321E+02 0.12842137966E+02
 0.14292525971E+02 0.15523900216E+02 0.16423073411E+02 0.16898463025E+02 0.16898489029E+02
 0.16423134139E+02 0.15523958730E+02 0.14292555835E+02 0.12842140873E+02 0.11288660772E+02
 0.97360223213E+01 0.82669127169E+01 0.69386260066E+01 0.57829453146E+01 0.48094113479E+01
 0.40111453654E+01 0.33717942893E+01 0.28718631815E+01 0.24931652682E+01 0.22210791003E+01
 0.20451319559E+01 0.19587352636E+01 0.19587381419E+01 0.20451444122E+01 0.22211074813E+01
 0.24932091592E+01 0.28719132488E+01 0.33718386277E+01 0.40111762793E+01 0.48094257981E+01
 0.57829430782E+01 0.69386114133E+01 0.90512018529E+01 0.10669772138E+02 0.12345957545E+02
 0.13976406947E+02 0.15438225635E+02 0.16602935617E+02 0.17355691234E+02 0.17616261526E+02
 0.17355751371E+02 0.16603030256E+02 0.15438314822E+02 0.13976458792E+02 0.12345969976E+02
 0.10669773376E+02 0.90512247291E+01 0.75662126285E+01 0.62608245511E+01 0.51537206755E+01
 0.42420975667E+01 0.35095753342E+01 0.29339605351E+01 0.24931652682E+01 0.21685582431E+01
 0.19461116548E+01 0.18162980063E+01 0.17736295676E+01 0.18163145710E+01 0.19461429277E+01
 0.21685988040E+01 0.24932062843E+01 0.29339917269E+01 0.35095862001E+01 0.42420788682E+01
 0.51536712468E+01 0.62607594747E+01 0.75661590727E+01 0.10040367007E+02 0.11785972147E+02
 0.13545173499E+02 0.15196269460E+02 0.16602949761E+02 0.17632298611E+02 0.18177095991E+02
 0.18177117224E+02 0.17632358228E+02 0.16603030459E+02 0.15196338720E+02 0.13545201090E+02
 0.11785956892E+02 0.10040342230E+02 0.84038646843E+01 0.69405193652E+01 0.56830490274E+01
 0.46377213039E+01 0.37921032833E+01 0.31237386877E+01 0.26076132439E+01 0.22210791003E+01
 0.19461116548E+01 0.17697157237E+01 0.16835582623E+01 0.16835668446E+01 0.17697380296E+01
 0.19461389467E+01 0.22211008902E+01 0.26076194825E+01 0.31237201718E+01 0.37920537752E+01
 0.46376453120E+01 0.56829684945E+01 0.69404664173E+01 0.84038581292E+01 0.11195789069E+02
 0.13027239244E+02 0.14814649861E+02 0.16423115193E+02 0.17709302362E+02 0.18542987078E+02
 0.18832020524E+02 0.18542993231E+02 0.17709316944E+02 0.16423134360E+02 0.14814659227E+02
 0.13027222386E+02 0.11195743363E+02 0.94322939107E+01 0.78186677001E+01 0.64045232692E+01
 0.52099717473E+01 0.42316990934E+01 0.34511989361E+01 0.28431052920E+01 0.23817627368E+01
 0.20451319559E+01 0.18162980063E+01 0.16835582623E+01 0.16400673819E+01 0.16835677177E+01
 0.18163088799E+01 0.20451330274E+01 0.23817445978E+01 0.28430633962E+01 0.34511366106E+01
 0.42316311804E+01 0.52099224797E+01 0.64045140773E+01 0.78187013260E+01 0.94323490792E+01
 0.12451052408E+02 0.14311056856E+02 0.16063637221E+02 0.17565911767E+02 0.18672115326E+02
 0.19259852606E+02 0.19259837646E+02 0.18672072437E+02 0.17565850633E+02 0.16063576107E+02
 0.14311009770E+02 0.12451014815E+02 0.10606506764E+02 0.88724808407E+01 0.73139539941E+01
 0.59670502704E+01 0.48424575639E+01 0.39312566245E+01 0.32123682124E+01 0.26599375989E+01
 0.22490027749E+01 0.19587352636E+01 0.17736295676E+01 0.16835668446E+01 0.16835677177E+01
 0.17736283207E+01 0.19587233412E+01 0.22489732260E+01 0.26598908193E+01 0.32123153446E+01
 0.39312189521E+01 0.48424568353E+01 0.59670927382E+01 0.73140219005E+01 0.88725452672E+01
 0.10606553060E+02 0.13710244137E+02 0.15530749445E+02 0.17172399267E+02 0.18484273881E+02
 0.19333837394E+02 0.19628231574E+02 0.19333794855E+02 0.18484192398E+02 0.17172298266E+02
 0.15530663308E+02 0.13710197784E+02 0.11849268632E+02 0.10049572382E+02 0.83847683025E+01
 0.69039806056E+01 0.56337487106E+01 0.45801427695E+01 0.37327709278E+01 0.30707996700E+01
 0.25694506010E+01 0.22051840963E+01 0.19587381419E+01 0.18163145710E+01 0.17697380296E+01
 0.18163088799E+01 0.19587233412E+01 0.22051575830E+01 0.25694162806E+01 0.30707709351E+01
 0.37327671355E+01 0.45801774651E+01 0.56338160698E+01 0.69040534782E+01 0.83848169070E+01
 0.10049591429E+02 0.11849284025E+02 0.14828604129E+02 0.16466922402E+02 0.17843054561E+02
 0.18842058232E+02 0.19369143273E+02 0.19369133593E+02 0.18842030991E+02 0.17843016797E+02
 0.16466887867E+02 0.14828587729E+02 0.13051630770E+02 0.11263416067E+02 0.95587518909E+01
 0.79917052393E+01 0.66006678097E+01 0.54088022733E+01 0.44227387198E+01 0.36340139195E+01
 0.30238670584E+01 0.25694323932E+01 0.22489899737E+01 0.20451444122E+01 0.19461429277E+01
 0.19461389467E+01 0.20451330274E+01 0.22489732260E+01 0.25694162806E+01 0.30238627582E+01
 0.36340341854E+01 0.44227870890E+01 0.54088656569E+01 0.66007209065E+01 0.79917282065E+01
 0.95587443316E+01 0.11263396930E+02 0.13051623943E+02 0.15450701606E+02 0.16692498400E+02
 0.17648875971E+02 0.18256809976E+02 0.18466037328E+02 0.18256837698E+02 0.17648936579E+02
 0.16692586755E+02 0.15450795359E+02 0.13990133285E+02 0.12387883700E+02 0.10745574789E+02
 0.91704385590E+01 0.77145250111E+01 0.64139758321E+01 0.52954175466E+01 0.43702596565E+01
 0.36340055043E+01 0.30707602665E+01 0.26598932458E+01 0.23817527744E+01 0.22211074813E+01
 0.21685988040E+01 0.22211008902E+01 0.23817445978E+01 0.26598908193E+01 0.30707709351E+01
 0.36340341854E+01 0.43703030637E+01 0.52954614064E+01 0.64140022709E+01 0.77145269509E+01
 0.91704215241E+01 0.10745544778E+02 0.12387835053E+02 0.13990058113E+02 0.15128640357E+02
 0.15789514403E+02 0.16234825842E+02 0.16461541250E+02 0.16461574474E+02 0.16234926105E+02
 0.15789671761E+02 0.15128819541E+02 0.14242809344E+02 0.13124115019E+02 0.11799182178E+02
 0.10354096537E+02 0.89197150532E+01 0.75708285192E+01 0.63509077926E+01 0.52954427119E+01
 0.44227581726E+01 0.37327403242E+01 0.32122994231E+01 0.28430602937E+01 0.26076237340E+01
 0.24932091592E+01 0.24932062843E+01 0.26076194825E+01 0.28430633962E+01 0.32123153446E+01
 0.37327671355E+01 0.44227870890E+01 0.52954614064E+01 0.63509078089E+01 0.75708134092E+01
 0.89196967291E+01 0.10354077614E+02 0.11799141814E+02 0.13124023154E+02 0.14242658401E+02
 0.13520971816E+02 0.13501031252E+02 0.13452846786E+02 0.13431289263E+02 0.13452932519E+02
 0.13501177993E+02 0.13521136822E+02 0.13416642454E+02 0.13071265460E+02 0.12397038448E+02
 0.11387472203E+02 0.10141758846E+02 0.88328661061E+01 0.75708470905E+01 0.64140255259E+01
 0.54088666058E+01 0.45801596101E+01 0.39311964594E+01 0.34511231004E+01 0.31237190364E+01
 0.29339955657E+01 0.28719132488E+01 0.29339917269E+01 0.31237201718E+01 0.34511366106E+01
 0.39312189521E+01 0.45801774651E+01 0.54088656569E+01 0.64140022709E+01 0.75708134092E+01
 0.88328414275E+01 0.10141753066E+02 0.11387471559E+02 0.12397011299E+02 0.13071183791E+02
 0.13416504674E+02 0.10527656593E+02 0.98608033133E+01 0.94807373822E+01 0.94807861145E+01
 0.98609223802E+01 0.10527784472E+02 0.11300165902E+02 0.11939172004E+02 0.12213367784E+02
 0.11979389138E+02 0.11238949442E+02 0.10141752555E+02 0.89197310680E+01 0.77145732151E+01
 0.66007528033E+01 0.56338215489E+01 0.48424433895E+01 0.42316161941E+01 0.37920490369E+01
 0.35095901707E+01 0.33718416955E+01 0.33718386277E+01 0.35095862001E+01 0.37920537752E+01
 0.42316311804E+01 0.48424568353E+01 0.56338160698E+01 0.66007209065E+01 0.77145269509E+01
 0.89196967291E+01 0.10141753066E+02 0.11238987917E+02 0.11979445048E+02 0.12213405600E+02
 0.11939157548E+02 0.11300084424E+02 0.63910124384E+01 0.52772503527E+01 0.48776063354E+01
 0.52773261155E+01 0.63911180896E+01 0.79746745281E+01 0.96679764547E+01 0.11079927483E+02
 0.11897806521E+02 0.11979347921E+02 0.11387418644E+02 0.10354077346E+02 0.91704553637E+01
 0.79917663461E+01 0.69040746982E+01 0.59670943185E+01 0.52099155211E+01 0.46376421168E+01
 0.42420828708E+01 0.40111817347E+01 0.39353939724E+01 0.40111762793E+01 0.42420788682E+01
 0.46376453120E+01 0.52099224797E+01 0.59670927382E+01 0.69040534782E+01 0.79917282065E+01
 0.91704215241E+01 0.10354077614E+02 0.11387471559E+02 0.11979445048E+02 0.11897912214E+02
 0.11079995344E+02 0.96679729337E+01 0.79745999432E+01 0.17172174887E+01 0.51781190539E+00
 0.51782598601E+00 0.17172590260E+01 0.38613187817E+01 0.64941740974E+01 0.90669263036E+01
 0.11079956608E+02 0.12213334867E+02 0.12396945692E+02 0.11799106830E+02 0.10745540356E+02
 0.95587543877E+01 0.83848270816E+01 0.73140272653E+01 0.64045164539E+01 0.56829709783E+01
 0.51536752806E+01 0.48094301198E+01 0.46404827529E+01 0.46404808207E+01 0.48094257981E+01
 0.51536712468E+01 0.56829684945E+01 0.64045140773E+01 0.73140219005E+01 0.83848169070E+01
 0.95587443316E+01 0.10745544778E+02 0.11799141814E+02 0.12397011299E+02 0.12213405600E+02
 0.11079995344E+02 0.90669130845E+01 0.64941216093E+01 0.38612588138E+01 -.26212515626E+01
 -.34443479126E+01 -.26212892541E+01 -.33131327844E+00 0.29331282810E+01 0.64942195680E+01
 0.96680897939E+01 0.11939249360E+02 0.13071232699E+02 0.13124033069E+02 0.12387816758E+02
 0.11263363653E+02 0.10049559393E+02 0.88725277829E+01 0.78187001689E+01 0.69404727348E+01
 0.62607636838E+01 0.57829425972E+01 0.55010782007E+01 0.54081098514E+01 0.55010801806E+01
 0.57829430782E+01 0.62607594747E+01 0.69404664173E+01 0.78187013260E+01 0.88725452672E+01
 0.10049591429E+02 0.11263396930E+02 0.12387835053E+02 0.13124023154E+02 0.13071183791E+02
 0.11939157548E+02 0.96679729337E+01 0.64941216093E+01 0.29330915854E+01 -.33128855274E+00
 -.57004943032E+01 -.57005367827E+01 -.37659658854E+01 -.33133176760E+00 0.38613307164E+01
 0.79747931311E+01 0.11300343007E+02 0.13416745467E+02 0.14242812447E+02 0.13990099241E+02
 0.13051575810E+02 0.11849201930E+02 0.10606488739E+02 0.94323231655E+01 0.84038588264E+01
 0.75661635728E+01 0.69386072555E+01 0.65242687534E+01 0.63191037273E+01 0.63191085350E+01
 0.65242781873E+01 0.69386114133E+01 0.75661590727E+01 0.84038581292E+01 0.94323490792E+01
 0.10606553060E+02 0.11849284025E+02 0.13051623943E+02 0.13990058113E+02 0.14242658401E+02
 0.13416504674E+02 0.11300084424E+02 0.79745999432E+01 0.38612588138E+01 -.33128855274E+00
 -.37658785481E+01 -.57005559813E+01 -.34443956731E+01 0.51777334981E+00 0.52772853352E+01
 0.98609639005E+01 0.13501300524E+02 0.15789796253E+02 0.16692677690E+02 0.16466947503E+02
 0.15530660213E+02 0.14310938838E+02 0.13027157578E+02 0.11785941807E+02 0.10669772521E+02
 0.97360194503E+01 0.90192914173E+01 0.85367684519E+01 0.82947955807E+01 0.82948031689E+01
 0.85367833728E+01 0.90192990574E+01 0.97360156788E+01 0.10669772103E+02 0.11785972362E+02
 0.13027239255E+02 0.14311056584E+02 0.15530749336E+02 0.16466922536E+02 0.16692498349E+02
 0.15789514139E+02 0.13501031285E+02 0.98608037561E+01 0.52772507427E+01 0.51781208585E+00
 -.34443476275E+01 -.57005364589E+01 -.34443956731E+01 -.17100572296E+00 0.43770699564E+01
 0.91840339241E+01 0.13342447001E+02 0.16272587977E+02 0.17788983896E+02 0.18041565289E+02
 0.17392863833E+02 0.16280545731E+02 0.15019779880E+02 0.13735389809E+02 0.12519742228E+02
 0.11446195046E+02 0.10568346395E+02 0.99216090380E+01 0.95267659842E+01 0.93941407755E+01
 0.95267810660E+01 0.99216238194E+01 0.10568348019E+02 0.11446187201E+02 0.12519743201E+02
 0.13735422988E+02 0.15019858988E+02 0.16280654044E+02 0.17392944949E+02 0.18041553963E+02
 0.17788862511E+02 0.16272411856E+02 0.13342301328E+02 0.91839650964E+01 0.43770620133E+01
 -.17099449303E+00 -.34443889004E+01 -.46378786238E+01 0.51777334981E+00 0.43770699564E+01
 0.89392805271E+01 0.13240008226E+02 0.16563226542E+02 0.18570713879E+02 0.19284850252E+02
 0.18983206592E+02 0.18065645797E+02 0.16898438288E+02 0.15640446238E+02 0.14385167055E+02
 0.13214116547E+02 0.12195882596E+02 0.11385066078E+02 0.10822149931E+02 0.10533970967E+02
 0.10533982067E+02 0.10822172039E+02 0.11385078606E+02 0.12195876620E+02 0.13214099281E+02
 0.14385153355E+02 0.15640454102E+02 0.16898484781E+02 0.18065732413E+02 0.18983306381E+02
 0.19284921786E+02 0.18570734580E+02 0.16563210232E+02 0.13239987363E+02 0.89392758337E+01
 0.43770801069E+01 0.51778576916E+00 -.17020803042E+01 -.17020853960E+01 0.52772853352E+01
 0.91840339241E+01 0.13240008226E+02 0.16661134598E+02 0.18980382190E+02 0.20086165469E+02
 0.20149484730E+02 0.19503015023E+02 0.18507197219E+02 0.17355690646E+02 0.16137588836E+02
 0.14933540888E+02 0.13819136592E+02 0.12864164339E+02 0.12130327802E+02 0.11667645936E+02
 0.11509487408E+02 0.11667670987E+02 0.12130356662E+02 0.12864175479E+02 0.13819123123E+02
 0.14933508276E+02 0.16137548583E+02 0.17355663353E+02 0.18507213013E+02 0.19503097603E+02
 0.20149628117E+02 0.20086330100E+02 0.18980517238E+02 0.16661210464E+02 0.13240032087E+02
 0.91840356607E+01 0.52772887025E+01 0.24319637865E+01 0.13883318435E+01 0.24319574242E+01
 0.98609639005E+01 0.13342447001E+02 0.16563226542E+02 0.18980382190E+02 0.20363519554E+02
 0.20767953450E+02 0.20438341098E+02 0.19689997689E+02 0.18727242645E+02 0.17632292992E+02
 0.16477034538E+02 0.15334107469E+02 0.14279641676E+02 0.13392049025E+02 0.12745120356E+02
 0.12402228819E+02 0.12402246145E+02 0.12745159896E+02 0.13392084209E+02 0.14279651585E+02
 0.15334084808E+02 0.16476983060E+02 0.17632227935E+02 0.18727194313E+02 0.19690005923E+02
 0.20438434784E+02 0.20768124155E+02 0.20363714862E+02 0.18980530818E+02 0.16563282747E+02
 0.13342418598E+02 0.98608977940E+01 0.68791655016E+01 0.51517310731E+01 0.51517515175E+01
 0.68792211687E+01 0.13501300524E+02 0.16272587977E+02 0.18570713879E+02 0.20086165469E+02
 0.20767953450E+02 0.20763156674E+02 0.20318095762E+02 0.19616034588E+02 0.18727242362E+02
 0.17709265236E+02 0.16622536043E+02 0.15537548112E+02 0.14531411424E+02 0.13696462733E+02
 0.13137816451E+02 0.12940657077E+02 0.13137856314E+02 0.13696519322E+02 0.14531454424E+02
 0.15537556315E+02 0.16622503331E+02 0.17709199741E+02 0.18727167580E+02 0.19615986818E+02
 0.20318109672E+02 0.20763246729E+02 0.20768097539E+02 0.20086306655E+02 0.18570785969E+02
 0.16272554376E+02 0.13501179988E+02 0.10802352067E+02 0.88235332674E+01 0.80954205223E+01
 0.88236277347E+01 0.10802495758E+02 0.15789796253E+02 0.17788983896E+02 0.19284850252E+02
 0.20149484730E+02 0.20438341098E+02 0.20318095762E+02 0.19924107516E+02 0.19307203186E+02
 0.18507197224E+02 0.17565837377E+02 0.16532965010E+02 0.15464400353E+02 0.14461696390E+02
 0.13668068486E+02 0.13226366762E+02 0.13226394502E+02 0.13668136076E+02 0.14461768989E+02
 0.15464446741E+02 0.16532969862E+02 0.17565801916E+02 0.18507136270E+02 0.19307142159E+02
 0.19924075284E+02 0.20318109024E+02 0.20438395387E+02 0.20149553709E+02 0.19284893686E+02
 0.17788965466E+02 0.15789704915E+02 0.13619463057E+02 0.11754716724E+02 0.10672325959E+02
 0.10672374335E+02 0.11754837832E+02 0.13619598702E+02 0.16692677690E+02 0.18041565289E+02
 0.18983206592E+02 0.19503015023E+02 0.19689997689E+02 0.19616034588E+02 0.19307203186E+02
 0.18783708100E+02 0.18065646833E+02 0.17172332306E+02 0.16124833100E+02 0.15012433555E+02
 0.13998683900E+02 0.13280487921E+02 0.13020118266E+02 0.13280547094E+02 0.13998766987E+02
 0.15012500100E+02 0.16124864037E+02 0.17172330404E+02 0.18065624203E+02 0.18783678719E+02
 0.19307180250E+02 0.19616027834E+02 0.19690005395E+02 0.19503024725E+02 0.18983204106E+02
 0.18041543101E+02 0.16692639492E+02 0.15099134744E+02 0.13560603843E+02 0.12436886435E+02
 0.12024043676E+02 0.12436905876E+02 0.13560639291E+02 0.15099177681E+02 0.16466947503E+02
 0.17392863833E+02 0.18065645797E+02 0.18507197219E+02 0.18727242645E+02 0.18727242362E+02
 0.18507197224E+02 0.18065646833E+02 0.17392864758E+02 0.16466947236E+02 0.15341616099E+02
 0.14172831229E+02 0.13190247910E+02 0.12625787609E+02 0.12625817167E+02 0.13190314381E+02
 0.14172889410E+02 0.15341637422E+02 0.16466938462E+02 0.17392851015E+02 0.18065647311E+02
 0.18507214967E+02 0.18727269688E+02 0.18727270147E+02 0.18507215411E+02 0.18065646806E+02
 0.17392850482E+02 0.16466938833E+02 0.15341637794E+02 0.14172888902E+02 0.13190313980E+02
 0.12625817842E+02 0.12625788422E+02 0.13190247853E+02 0.14172831091E+02 0.15341616666E+02
 0.15530660213E+02 0.16280545731E+02 0.16898438288E+02 0.17355690646E+02 0.17632292992E+02
 0.17709265236E+02 0.17565837377E+02 0.17172332306E+02 0.16466947236E+02 0.15450840404E+02