   2   2   0   0
  0.1697937E+02  0.3634870E-09  0.3634870E-09  0.3634870E-09  0.5000000E-15
  1.000000000000000E-004
  CAR 
 unknown system                          
     20.23199978     -7.49415511  301      7.73903011      1.00000000
     -7.494  0.0000E+00  0.0000E+00
     -7.402  0.0000E+00  0.0000E+00
     -7.309  0.0000E+00  0.0000E+00
     -7.217  0.0000E+00  0.0000E+00
     -7.124  0.0000E+00  0.0000E+00
     -7.032  0.0000E+00  0.0000E+00
     -6.940  0.0000E+00  0.0000E+00
     -6.847  0.0000E+00  0.0000E+00
     -6.755  0.0000E+00  0.0000E+00
     -6.662  0.3128E-18  0.2891E-19
     -6.570  0.7883E-16  0.7315E-17
     -6.478  0.9967E-14  0.9285E-15
     -6.385  0.8298E-12  0.7762E-13
     -6.293  0.4543E-10  0.4276E-11
     -6.200  0.1638E-08  0.1557E-09
     -6.108  0.3900E-07  0.3760E-08
     -6.015  0.6152E-06  0.6062E-07
     -5.923  0.6475E-05  0.6590E-06
     -5.831  0.4597E-04  0.4908E-05
     -5.738  0.2246E-03  0.2566E-04
     -5.646  0.7785E-03  0.9761E-04
     -5.553  0.1997E-02  0.2822E-03
     -5.461  0.3962E-02  0.6483E-03
     -5.368  0.6323E-02  0.1233E-02
     -5.276  0.8473E-02  0.2016E-02
     -5.184  0.1017E-01  0.2956E-02
     -5.091  0.1179E-01  0.4046E-02
     -4.999  0.1366E-01  0.5308E-02
     -4.906  0.1528E-01  0.6720E-02
     -4.814  0.1588E-01  0.8187E-02
     -4.722  0.1586E-01  0.9653E-02
     -4.629  0.1691E-01  0.1122E-01
     -4.537  0.1959E-01  0.1303E-01
     -4.444  0.2209E-01  0.1507E-01
     -4.352  0.2232E-01  0.1713E-01
     -4.259  0.2099E-01  0.1907E-01
     -4.167  0.2087E-01  0.2100E-01
     -4.075  0.2283E-01  0.2311E-01
     -3.982  0.2512E-01  0.2543E-01
     -3.890  0.2652E-01  0.2788E-01
     -3.797  0.2776E-01  0.3045E-01
     -3.705  0.2940E-01  0.3317E-01
     -3.612  0.3057E-01  0.3599E-01
     -3.520  0.3033E-01  0.3879E-01
     -3.428  0.2883E-01  0.4146E-01
     -3.335  0.2770E-01  0.4402E-01
     -3.243  0.2975E-01  0.4677E-01
     -3.150  0.3581E-01  0.5008E-01
     -3.058  0.4205E-01  0.5397E-01
     -2.966  0.4435E-01  0.5806E-01
     -2.873  0.4358E-01  0.6209E-01
     -2.781  0.4282E-01  0.6605E-01
     -2.688  0.4321E-01  0.7004E-01
     -2.596  0.4470E-01  0.7417E-01
     -2.503  0.4619E-01  0.7844E-01
     -2.411  0.4507E-01  0.8261E-01
     -2.319  0.4121E-01  0.8642E-01
     -2.226  0.3943E-01  0.9006E-01
     -2.134  0.4297E-01  0.9403E-01
     -2.041  0.4806E-01  0.9847E-01
     -1.949  0.4822E-01  0.1029E+00
     -1.857  0.4168E-01  0.1068E+00
     -1.764  0.3244E-01  0.1098E+00
     -1.672  0.2488E-01  0.1121E+00
     -1.579  0.2060E-01  0.1140E+00
     -1.487  0.2024E-01  0.1159E+00
     -1.394  0.2422E-01  0.1181E+00
     -1.302  0.3089E-01  0.1209E+00
     -1.210  0.3574E-01  0.1243E+00
     -1.117  0.3479E-01  0.1275E+00
     -1.025  0.2828E-01  0.1301E+00
     -0.932  0.1913E-01  0.1318E+00
     -0.840  0.1035E-01  0.1328E+00
     -0.747  0.4215E-02  0.1332E+00
     -0.655  0.1250E-02  0.1333E+00
     -0.563  0.4687E-03  0.1334E+00
     -0.470  0.1416E-02  0.1335E+00
     -0.378  0.5875E-02  0.1340E+00
     -0.285  0.1714E-01  0.1356E+00
     -0.193  0.3494E-01  0.1388E+00
     -0.101  0.5128E-01  0.1436E+00
     -0.008  0.5816E-01  0.1490E+00
      0.084  0.5840E-01  0.1544E+00
      0.177  0.5953E-01  0.1599E+00
      0.269  0.6131E-01  0.1655E+00
      0.362  0.6018E-01  0.1711E+00
      0.454  0.5747E-01  0.1764E+00
      0.546  0.5396E-01  0.1814E+00
      0.639  0.4866E-01  0.1859E+00
      0.731  0.4478E-01  0.1900E+00
      0.824  0.4588E-01  0.1943E+00
      0.916  0.4950E-01  0.1988E+00
      1.009  0.4883E-01  0.2033E+00
      1.101  0.3935E-01  0.2070E+00
      1.193  0.2512E-01  0.2093E+00
      1.286  0.1584E-01  0.2108E+00
      1.378  0.1740E-01  0.2124E+00
      1.471  0.2701E-01  0.2149E+00
      1.563  0.3511E-01  0.2181E+00
      1.655  0.3345E-01  0.2212E+00
      1.748  0.2388E-01  0.2234E+00
      1.840  0.1548E-01  0.2248E+00
      1.933  0.1347E-01  0.2261E+00
      2.025  0.1680E-01  0.2276E+00
      2.118  0.2359E-01  0.2298E+00
      2.210  0.3098E-01  0.2327E+00
      2.302  0.3379E-01  0.2358E+00
      2.395  0.3149E-01  0.2387E+00
      2.487  0.3062E-01  0.2415E+00
      2.580  0.3475E-01  0.2448E+00
      2.672  0.4067E-01  0.2485E+00
      2.765  0.4719E-01  0.2529E+00
      2.857  0.5712E-01  0.2582E+00
      2.949  0.6912E-01  0.2645E+00
      3.042  0.7543E-01  0.2715E+00
      3.134  0.7059E-01  0.2780E+00
      3.227  0.5928E-01  0.2835E+00
      3.319  0.5181E-01  0.2883E+00
      3.411  0.5239E-01  0.2932E+00
      3.504  0.5595E-01  0.2983E+00
      3.596  0.5798E-01  0.3037E+00
      3.689  0.6086E-01  0.3093E+00
      3.781  0.6558E-01  0.3154E+00
      3.874  0.6843E-01  0.3217E+00
      3.966  0.6936E-01  0.3281E+00
      4.058  0.7120E-01  0.3347E+00
      4.151  0.7303E-01  0.3414E+00
      4.243  0.7312E-01  0.3482E+00
      4.336  0.7330E-01  0.3550E+00
      4.428  0.7718E-01  0.3621E+00
      4.521  0.8549E-01  0.3700E+00
      4.613  0.9315E-01  0.3786E+00
      4.705  0.9344E-01  0.3872E+00
      4.798  0.8526E-01  0.3951E+00
      4.890  0.7428E-01  0.4020E+00
      4.983  0.6876E-01  0.4083E+00
      5.075  0.7258E-01  0.4151E+00
      5.167  0.8104E-01  0.4225E+00
      5.260  0.8551E-01  0.4304E+00
      5.352  0.8185E-01  0.4380E+00
      5.445  0.7244E-01  0.4447E+00
      5.537  0.6315E-01  0.4505E+00
      5.630  0.6051E-01  0.4561E+00
      5.722  0.6650E-01  0.4623E+00
      5.814  0.7543E-01  0.4692E+00
      5.907  0.7865E-01  0.4765E+00
      5.999  0.7193E-01  0.4832E+00
      6.092  0.5979E-01  0.4887E+00
      6.184  0.5086E-01  0.4934E+00
      6.277  0.4914E-01  0.4979E+00
      6.369  0.5259E-01  0.5028E+00
      6.461  0.5550E-01  0.5079E+00
      6.554  0.5110E-01  0.5126E+00
      6.646  0.3851E-01  0.5162E+00
      6.739  0.2568E-01  0.5186E+00
      6.831  0.2047E-01  0.5205E+00
      6.923  0.2278E-01  0.5226E+00
      7.016  0.2610E-01  0.5250E+00
      7.108  0.2461E-01  0.5273E+00
      7.201  0.1887E-01  0.5290E+00
      7.293  0.1355E-01  0.5303E+00
      7.386  0.1078E-01  0.5313E+00
      7.478  0.9115E-02  0.5321E+00
      7.570  0.6892E-02  0.5327E+00
      7.663  0.4262E-02  0.5331E+00
      7.755  0.2685E-02  0.5334E+00
      7.848  0.3407E-02  0.5337E+00
      7.940  0.6289E-02  0.5343E+00
      8.032  0.9595E-02  0.5352E+00
      8.125  0.1186E-01  0.5363E+00
      8.217  0.1391E-01  0.5375E+00
      8.310  0.1737E-01  0.5391E+00
      8.402  0.2240E-01  0.5412E+00
      8.495  0.2756E-01  0.5438E+00
      8.587  0.3065E-01  0.5466E+00
      8.679  0.3115E-01  0.5495E+00
      8.772  0.3192E-01  0.5524E+00
      8.864  0.3527E-01  0.5557E+00
      8.957  0.3862E-01  0.5593E+00
      9.049  0.3828E-01  0.5628E+00
      9.142  0.3569E-01  0.5661E+00
      9.234  0.3597E-01  0.5694E+00
      9.326  0.4112E-01  0.5732E+00
      9.419  0.4804E-01  0.5777E+00
      9.511  0.5446E-01  0.5827E+00
      9.604  0.6105E-01  0.5883E+00
      9.696  0.6639E-01  0.5945E+00
      9.788  0.6785E-01  0.6007E+00
      9.881  0.6774E-01  0.6070E+00
      9.973  0.7150E-01  0.6136E+00
     10.066  0.7856E-01  0.6209E+00
     10.158  0.8243E-01  0.6285E+00
     10.251  0.8239E-01  0.6361E+00
     10.343  0.8490E-01  0.6439E+00
     10.435  0.9082E-01  0.6523E+00
     10.528  0.9322E-01  0.6610E+00
     10.620  0.8982E-01  0.6693E+00
     10.713  0.8701E-01  0.6773E+00
     10.805  0.9034E-01  0.6856E+00
     10.898  0.9959E-01  0.6948E+00
     10.990  0.1119E+00  0.7052E+00
     11.082  0.1206E+00  0.7163E+00
     11.175  0.1160E+00  0.7271E+00
     11.267  0.9854E-01  0.7362E+00
     11.360  0.8191E-01  0.7437E+00
     11.452  0.7681E-01  0.7508E+00
     11.544  0.8094E-01  0.7583E+00
     11.637  0.8736E-01  0.7664E+00
     11.729  0.9401E-01  0.7751E+00
     11.822  0.1002E+00  0.7843E+00
     11.914  0.1017E+00  0.7937E+00
     12.007  0.9457E-01  0.8025E+00
     12.099  0.8090E-01  0.8100E+00
     12.191  0.6543E-01  0.8160E+00
     12.284  0.5174E-01  0.8208E+00
     12.376  0.4331E-01  0.8248E+00
     12.469  0.4460E-01  0.8289E+00
     12.561  0.5680E-01  0.8342E+00
     12.654  0.7312E-01  0.8409E+00
     12.746  0.8343E-01  0.8486E+00
     12.838  0.8593E-01  0.8566E+00
     12.931  0.8689E-01  0.8646E+00
     13.023  0.8872E-01  0.8728E+00
     13.116  0.8729E-01  0.8809E+00
     13.208  0.7770E-01  0.8881E+00
     13.300  0.6062E-01  0.8937E+00
     13.393  0.4552E-01  0.8979E+00
     13.485  0.4338E-01  0.9019E+00
     13.578  0.5631E-01  0.9071E+00
     13.670  0.7446E-01  0.9140E+00
     13.763  0.8227E-01  0.9216E+00
     13.855  0.7341E-01  0.9283E+00
     13.947  0.5808E-01  0.9337E+00
     14.040  0.5194E-01  0.9385E+00
     14.132  0.6097E-01  0.9441E+00
     14.225  0.7663E-01  0.9512E+00
     14.317  0.8461E-01  0.9590E+00
     14.410  0.7861E-01  0.9663E+00
     14.502  0.6433E-01  0.9723E+00
     14.594  0.5225E-01  0.9771E+00
     14.687  0.4682E-01  0.9814E+00
     14.779  0.4302E-01  0.9854E+00
     14.872  0.3552E-01  0.9887E+00
     14.964  0.2702E-01  0.9912E+00
     15.056  0.2418E-01  0.9934E+00
     15.149  0.3050E-01  0.9962E+00
     15.241  0.4509E-01  0.1000E+01
     15.334  0.6334E-01  0.1006E+01
     15.426  0.7625E-01  0.1013E+01
     15.519  0.7522E-01  0.1020E+01
     15.611  0.6152E-01  0.1026E+01
     15.703  0.4577E-01  0.1030E+01
     15.796  0.3647E-01  0.1034E+01
     15.888  0.3302E-01  0.1037E+01
     15.981  0.2963E-01  0.1039E+01
     16.073  0.2324E-01  0.1041E+01
     16.165  0.1639E-01  0.1043E+01
     16.258  0.1313E-01  0.1044E+01
     16.350  0.1403E-01  0.1045E+01
     16.443  0.1625E-01  0.1047E+01
     16.535  0.1762E-01  0.1049E+01
     16.628  0.1977E-01  0.1050E+01
     16.720  0.2454E-01  0.1053E+01
     16.812  0.2847E-01  0.1055E+01
     16.905  0.2595E-01  0.1058E+01
     16.997  0.1727E-01  0.1059E+01
     17.090  0.8167E-02  0.1060E+01
     17.182  0.2707E-02  0.1060E+01
     17.275  0.6343E-03  0.1060E+01
     17.367  0.2030E-03  0.1060E+01
     17.459  0.5871E-03  0.1060E+01
     17.552  0.2099E-02  0.1061E+01
     17.644  0.5080E-02  0.1061E+01
     17.737  0.8297E-02  0.1062E+01
     17.829  0.9534E-02  0.1063E+01
     17.921  0.8641E-02  0.1064E+01
     18.014  0.7543E-02  0.1064E+01
     18.106  0.7135E-02  0.1065E+01
     18.199  0.6762E-02  0.1066E+01
     18.291  0.5644E-02  0.1066E+01
     18.384  0.3709E-02  0.1066E+01
     18.476  0.1763E-02  0.1067E+01
     18.568  0.5775E-03  0.1067E+01
     18.661  0.1272E-03  0.1067E+01
     18.753  0.1863E-04  0.1067E+01
     18.846  0.1807E-05  0.1067E+01
     18.938  0.1158E-06  0.1067E+01
     19.031  0.4888E-08  0.1067E+01
     19.123  0.1359E-09  0.1067E+01
     19.215  0.2486E-11  0.1067E+01
     19.308  0.2988E-13  0.1067E+01
     19.400  0.2365E-15  0.1067E+01
     19.493  0.0000E+00  0.1067E+01
     19.585  0.0000E+00  0.1067E+01
     19.677  0.0000E+00  0.1067E+01
     19.770  0.0000E+00  0.1067E+01
     19.862  0.0000E+00  0.1067E+01
     19.955  0.0000E+00  0.1067E+01
     20.047  0.0000E+00  0.1067E+01
     20.140  0.0000E+00  0.1067E+01
     20.232  0.0000E+00  0.1067E+01
