    2    2   15    1
  0.1697937E+02  0.3634870E-09  0.3634870E-09  0.3634870E-09  0.5000000E-15
  1.000000000000000E-004
  CAR 
 unknown system                          
      8     60      8
 
  0.6250000E-01  0.6250000E-01  0.6250000E-01  0.3906250E-02
    1       -5.494155   1.000000
    2        7.074282   0.999999
    3        7.522192   0.937396
    4        7.522192   0.937396
    5       10.387975   0.000000
    6       10.387975   0.000000
    7       10.402496   0.000000
    8       13.275312   0.000000
 
  0.1875000E+00  0.6250000E-01  0.6250000E-01  0.1171875E-01
    1       -5.182131   1.000000
    2        5.473973   1.000000
    3        6.554836   1.000000
    4        7.410127   0.989983
    5       10.656813   0.000000
    6       10.710419   0.000000
    7       11.123769   0.000000
    8       14.167043   0.000000
 
  0.3125000E+00  0.6250000E-01  0.6250000E-01  0.1171875E-01
    1       -4.423259   1.000000
    2        2.942639   1.000000
    3        6.031164   1.000000
    4        6.883089   1.000000
    5       10.437261   0.000000
    6       11.110246   0.000000
    7       11.447466   0.000000
    8       14.410825   0.000000
 
  0.4375000E+00  0.6250000E-01  0.6250000E-01  0.1171875E-01
    1       -3.333473   1.000000
    2        0.741066   1.000000
    3        5.817701   1.000000
    4        6.415977   1.000000
    5       10.146449   0.000000
    6       11.020573   0.000000
    7       11.045124   0.000000
    8       15.856807   0.000000
 
 -0.4375000E+00  0.6250000E-01  0.6250000E-01  0.1171875E-01
    1       -2.751027   1.000000
    2       -0.126596   1.000000
    3        5.900473   1.000000
    4        6.152121   1.000000
    5       10.044817   0.000000
    6       10.789389   0.000000
    7       11.084052   0.000000
    8       15.797203   0.000000
 
 -0.3125000E+00  0.6250000E-01  0.6250000E-01  0.1171875E-01
    1       -3.713862   1.000000
    2        1.402986   1.000000
    3        6.151998   1.000000
    4        6.236797   1.000000
    5       10.167044   0.000000
    6       10.892718   0.000000
    7       11.462390   0.000000
    8       14.917771   0.000000
 
 -0.1875000E+00  0.6250000E-01  0.6250000E-01  0.1171875E-01
    1       -4.722153   1.000000
    2        3.776729   1.000000
    3        6.446504   1.000000
    4        6.759806   1.000000
    5       10.371774   0.000000
    6       11.037521   0.000000
    7       11.716112   0.000000
    8       13.616928   0.000000
 
 -0.6250000E-01  0.6250000E-01  0.6250000E-01  0.1171875E-01
    1       -5.337521   1.000000
    2        6.305278   1.000000
    3        6.996051   1.000000
    4        7.254777   0.999692
    5       10.063001   0.000000
    6       10.946099   0.000000
    7       11.088278   0.000000
    8       13.615305   0.000000
 
  0.1875000E+00  0.1875000E+00  0.6250000E-01  0.1171875E-01
    1       -5.025524   1.000000
    2        5.418691   1.000000
    3        6.333587   1.000000
    4        6.527405   1.000000
    5        9.559833   0.000000
    6       11.905436   0.000000
    7       12.088995   0.000000
    8       12.597583   0.000000
 
  0.3125000E+00  0.1875000E+00  0.6250000E-01  0.2343750E-01
    1       -4.412679   1.000000
    2        3.760497   1.000000
    3        5.213691   1.000000
    4        6.206661   1.000000
    5        9.752675   0.000000
    6       11.839691   0.000000
    7       12.248584   0.000000
    8       12.972479   0.000000
 
  0.4375000E+00  0.1875000E+00  0.6250000E-01  0.2343750E-01
    1       -3.407737   1.000000
    2        1.555324   1.000000
    3        4.734108   1.000000
    4        5.687737   1.000000
    5        9.949136   0.000000
    6       11.703311   0.000000
    7       12.904864   0.000000
    8       13.148865   0.000000
 
 -0.4375000E+00  0.1875000E+00  0.6250000E-01  0.2343750E-01
    1       -2.442610   1.000000
    2        0.065550   1.000000
    3        4.426605   1.000000
    4        5.564769   1.000000
    5       10.074835   0.000000
    6       11.251414   0.000000
    7       12.734355   0.000000
    8       15.455857   0.000000
 
 -0.3125000E+00  0.1875000E+00  0.6250000E-01  0.2343750E-01
    1       -3.032998   1.000000
    2        0.927312   1.000000
    3        4.299402   1.000000
    4        5.920580   1.000000
    5       10.543887   0.000000
    6       11.030482   0.000000
    7       12.705051   0.000000
    8       14.515209   0.000000
 
 -0.1875000E+00  0.1875000E+00  0.6250000E-01  0.2343750E-01
    1       -4.119066   1.000000
    2        2.997720   1.000000
    3        4.555956   1.000000
    4        6.541752   1.000000
    5       10.852769   0.000000
    6       11.229633   0.000000
    7       12.628761   0.000000
    8       12.828043   0.000000
 
 -0.6250000E-01  0.1875000E+00  0.6250000E-01  0.2343750E-01
    1       -4.872813   1.000000
    2        4.610016   1.000000
    3        5.878476   1.000000
    4        6.993196   1.000000
    5       10.256839   0.000000
    6       11.398608   0.000000
    7       11.854792   0.000000
    8       13.040234   0.000000
 
  0.3125000E+00  0.3125000E+00  0.6250000E-01  0.1171875E-01
    1       -3.947959   1.000000
    2        3.356499   1.000000
    3        5.042978   1.000000
    4        5.185019   1.000000
    5        8.582365   0.000000
    6       10.212415   0.000000
    7       14.309046   0.000000
    8       14.350907   0.000000
 
  0.4375000E+00  0.3125000E+00  0.6250000E-01  0.2343750E-01
    1       -3.063829   1.000000
    2        1.948360   1.000000
    3        4.089466   1.000000
    4        4.759142   1.000000
    5        8.906333   0.000000
    6       10.091329   0.000000
    7       14.206589   0.000000
    8       15.501017   0.000000
 
 -0.4375000E+00  0.3125000E+00  0.6250000E-01  0.2343750E-01
    1       -1.964148   1.000000
    2        0.487206   1.000000
    3        3.093794   1.000000
    4        4.727128   1.000000
    5        9.116658   0.000000
    6       12.012341   0.000000
    7       13.702736   0.000000
    8       15.453559   0.000000
 
 -0.3125000E+00  0.3125000E+00  0.6250000E-01  0.2343750E-01
    1       -2.034139   1.000000
    2        0.588442   1.000000
    3        2.642885   1.000000
    4        5.146170   1.000000
    5        9.612459   0.000000
    6       12.977934   0.000000
    7       14.348667   0.000000
    8       14.748221   0.000000
 
 -0.1875000E+00  0.3125000E+00  0.6250000E-01  0.2343750E-01
    1       -3.125530   1.000000
    2        1.631996   1.000000
    3        3.409345   1.000000
    4        5.859782   1.000000
    5       10.450427   0.000000
    6       11.788283   0.000000
    7       13.400600   0.000000
    8       13.671106   0.000000
 
 -0.6250000E-01  0.3125000E+00  0.6250000E-01  0.2343750E-01
    1       -3.981689   1.000000
    2        2.197491   1.000000
    3        5.420909   1.000000
    4        6.434200   1.000000
    5       10.451079   0.000000
    6       11.115759   0.000000
    7       11.984718   0.000000
    8       13.720790   0.000000
 
  0.4375000E+00  0.4375000E+00  0.6250000E-01  0.1171875E-01
    1       -2.306440   1.000000
    2        0.976932   1.000000
    3        4.216910   1.000000
    4        4.504511   1.000000
    5        8.050018   0.013938
    6        8.739368   0.000000
    7       16.747454   0.000000
    8       16.896160   0.000000
 
 -0.4375000E+00  0.4375000E+00  0.6250000E-01  0.2343750E-01
    1       -1.224986   1.000000
    2       -0.162574   1.000000
    3        3.504928   1.000000
    4        4.186750   1.000000
    5        8.509034   0.000000
    6        9.358972   0.000000
    7       16.474870   0.000000
    8       17.748258   0.000000
 
 -0.3125000E+00  0.4375000E+00  0.6250000E-01  0.2343750E-01
    1       -1.272217   1.000000
    2       -0.013818   1.000000
    3        2.588435   1.000000
    4        4.560952   1.000000
    5        8.939498   0.000000
    6       11.876689   0.000000
    7       14.756600   0.000000
    8       16.029955   0.000000
 
 -0.1875000E+00  0.4375000E+00  0.6250000E-01  0.2343750E-01
    1       -2.147276   1.000000
    2        0.214812   1.000000
    3        3.436379   1.000000
    4        5.281861   1.000000
    5        9.772181   0.000000
    6       12.076346   0.000000
    7       13.802381   0.000000
    8       15.270817   0.000000
 
 -0.6250000E-01  0.4375000E+00  0.6250000E-01  0.2343750E-01
    1       -2.880851   1.000000
    2        0.269293   1.000000
    3        5.269853   1.000000
    4        6.020194   1.000000
    5       10.382005   0.000000
    6       10.714212   0.000000
    7       11.721399   0.000000
    8       15.700789   0.000000
 
 -0.4375000E+00 -0.4375000E+00  0.6250000E-01  0.1171875E-01
    1       -1.301446   1.000000
    2       -0.196475   1.000000
    3        4.055936   1.000000
    4        4.365933   1.000000
    5        7.990099   0.037922
    6        8.396372   0.000002
    7       18.022260   0.000000
    8       18.232000   0.000000
 
 -0.3125000E+00 -0.4375000E+00  0.6250000E-01  0.2343750E-01
    1       -2.195828   1.000000
    2        0.910988   1.000000
    3        3.704167   1.000000
    4        4.368986   1.000000
    5        8.643378   0.000000
    6        9.600883   0.000000
    7       15.295621   0.000000
    8       16.829126   0.000000
 
 -0.1875000E+00 -0.4375000E+00  0.6250000E-01  0.2343750E-01
    1       -2.721068   1.000000
    2        1.001506   1.000000
    3        3.907507   1.000000
    4        5.084319   1.000000
    5        9.462687   0.000000
    6       12.161351   0.000000
    7       12.915150   0.000000
    8       14.196784   0.000000
 
 -0.3125000E+00 -0.3125000E+00  0.6250000E-01  0.1171875E-01
    1       -3.193300   1.000000
    2        2.179727   1.000000
    3        4.542868   1.000000
    4        4.779306   1.000000
    5        8.245582   0.000171
    6        9.349251   0.000000
    7       15.529079   0.000000
    8       15.586772   0.000000
 
 -0.1875000E+00 -0.3125000E+00  0.6250000E-01  0.2343750E-01
    1       -3.806991   1.000000
    2        2.893316   1.000000
    3        4.610462   1.000000
    4        5.391765   1.000000
    5        9.284934   0.000000
    6       10.839119   0.000000
    7       13.196256   0.000000
    8       14.206479   0.000000
 
 -0.1875000E+00 -0.1875000E+00  0.6250000E-01  0.1171875E-01
    1       -4.560888   1.000000
    2        4.445143   1.000000
    3        5.710691   1.000000
    4        5.722581   1.000000
    5        9.036279   0.000000
    6       11.312871   0.000000
    7       13.073433   0.000000
    8       13.198189   0.000000
 
  0.1875000E+00  0.1875000E+00  0.1875000E+00  0.3906250E-02
    1       -5.028209   1.000000
    2        4.627430   1.000000
    3        7.008946   1.000000
    4        7.008946   1.000000
    5       10.374772   0.000000
    6       11.084970   0.000000
    7       11.084970   0.000000
    8       14.659867   0.000000
 
  0.3125000E+00  0.1875000E+00  0.1875000E+00  0.1171875E-01
    1       -4.569266   1.000000
    2        3.779371   1.000000
    3        5.204847   1.000000
    4        7.072142   0.999999
    5       11.030813   0.000000
    6       11.197639   0.000000
    7       11.584954   0.000000
    8       13.697289   0.000000
 
  0.4375000E+00  0.1875000E+00  0.1875000E+00  0.1171875E-01
    1       -3.686216   1.000000
    2        2.279371   1.000000
    3        3.930400   1.000000
    4        6.468583   1.000000
    5       10.535325   0.000000
    6       12.024774   0.000000
    7       12.379285   0.000000
    8       13.870874   0.000000
 
 -0.4375000E+00  0.1875000E+00  0.1875000E+00  0.1171875E-01
    1       -2.585846   1.000000
    2        0.456912   1.000000
    3        3.843635   1.000000
    4        5.829799   1.000000
    5        9.808502   0.000000
    6       12.301296   0.000000
    7       12.469491   0.000000
    8       15.903880   0.000000
 
 -0.3125000E+00  0.1875000E+00  0.1875000E+00  0.1171875E-01
    1       -2.570838   1.000000
    2        0.428065   1.000000
    3        4.225319   1.000000
    4        5.441361   1.000000
    5        9.413186   0.000000
    6       12.539651   0.000000
    7       12.689175   0.000000
    8       14.069014   0.000000
 
 -0.1875000E+00  0.1875000E+00  0.1875000E+00  0.1171875E-01
    1       -3.671584   1.000000
    2        2.268382   1.000000
    3        4.932012   1.000000
    4        5.395465   1.000000
    5        9.349852   0.000000
    6       11.689783   0.000000
    7       13.048332   0.000000
    8       13.232130   0.000000
 
  0.3125000E+00  0.3125000E+00  0.1875000E+00  0.1171875E-01
    1       -4.267728   1.000000
    2        2.992458   1.000000
    3        5.884693   1.000000
    4        5.937656   1.000000
    5        9.921633   0.000000
    6       11.843086   0.000000
    7       12.434104   0.000000
    8       12.577036   0.000000
 
  0.4375000E+00  0.3125000E+00  0.1875000E+00  0.2343750E-01
    1       -3.529431   1.000000
    2        2.262922   1.000000
    3        3.995360   1.000000
    4        5.667261   1.000000
    5       10.412094   0.000000
    6       11.556197   0.000000
    7       12.187793   0.000000
    8       13.971309   0.000000
 
 -0.4375000E+00  0.3125000E+00  0.1875000E+00  0.2343750E-01
    1       -2.457225   1.000000
    2        1.045219   1.000000
    3        3.029658   1.000000
    4        4.948705   1.000000
    5       10.823021   0.000000
    6       11.502218   0.000000
    7       12.920656   0.000000
    8       15.134434   0.000000
 
 -0.3125000E+00  0.3125000E+00  0.1875000E+00  0.2343750E-01
    1       -1.841420   1.000000
    2        0.263844   1.000000
    3        3.088686   1.000000
    4        4.553521   1.000000
    5       10.288628   0.000000
    6       11.839900   0.000000
    7       13.744560   0.000000
    8       15.389055   0.000000
 
 -0.1875000E+00  0.3125000E+00  0.1875000E+00  0.2343750E-01
    1       -2.812423   1.000000
    2        1.532902   1.000000
    3        3.544934   1.000000
    4        4.780500   1.000000
    5       10.031821   0.000000
    6       11.212799   0.000000
    7       12.687163   0.000000
    8       15.368655   0.000000
 
  0.4375000E+00  0.4375000E+00  0.1875000E+00  0.1171875E-01
    1       -2.944924   1.000000
    2        1.551152   1.000000
    3        3.980976   1.000000
    4        5.011416   1.000000
    5        8.848753   0.000000
    6       11.095711   0.000000
    7       14.130340   0.000000
    8       14.291526   0.000000
 
 -0.4375000E+00  0.4375000E+00  0.1875000E+00  0.2343750E-01
    1       -1.988604   1.000000
    2        0.743462   1.000000
    3        3.214964   1.000000
    4        4.114637   1.000000
    5        9.760286   0.000000
    6       10.840821   0.000000
    7       13.605106   0.000000
    8       16.722359   0.000000
 
 -0.3125000E+00  0.4375000E+00  0.1875000E+00  0.2343750E-01
    1       -0.998750   1.000000
    2       -0.105418   1.000000
    3        2.780146   1.000000
    4        3.486819   1.000000
    5       10.985137   0.000000
    6       11.937942   0.000000
    7       13.165566   0.000000
    8       14.190693   0.000000
 
 -0.1875000E+00  0.4375000E+00  0.1875000E+00  0.2343750E-01
    1       -1.718837   1.000000
    2        0.477413   1.000000
    3        2.818573   1.000000
    4        4.070843   1.000000
    5       11.054893   0.000000
    6       11.649640   0.000000
    7       12.721843   0.000000
    8       15.393637   0.000000
 
 -0.4375000E+00 -0.4375000E+00  0.1875000E+00  0.1171875E-01
    1       -1.218410   1.000000
    2       -0.121001   1.000000
    3        2.916228   1.000000
    4        4.615750   1.000000
    5        8.305347   0.000031
    6       10.527086   0.000000
    7       16.274846   0.000000
    8       16.833827   0.000000
 
 -0.3125000E+00 -0.4375000E+00  0.1875000E+00  0.2343750E-01
    1       -1.101595   1.000000
    2       -0.122545   1.000000
    3        3.030626   1.000000
    4        3.781563   1.000000
    5        9.619437   0.000000
    6       10.651730   0.000000
    7       14.688896   0.000000
    8       15.909161   0.000000
 
 -0.3125000E+00 -0.3125000E+00  0.1875000E+00  0.1171875E-01
    1       -2.108122   1.000000
    2        0.755987   1.000000
    3        3.273041   1.000000
    4        4.748785   1.000000
    5        8.490161   0.000000
    6       10.713335   0.000000
    7       15.147005   0.000000
    8       15.570655   0.000000
 
  0.3125000E+00  0.3125000E+00  0.3125000E+00  0.3906250E-02
    1       -4.135089   1.000000
    2        2.116466   1.000000
    3        6.550047   1.000000
    4        6.550047   1.000000
    5       10.006673   0.000000
    6       11.169868   0.000000
    7       11.169868   0.000000
    8       15.550236   0.000000
 
  0.4375000E+00  0.3125000E+00  0.3125000E+00  0.1171875E-01
    1       -3.563798   1.000000
    2        1.497467   1.000000
    3        4.861866   1.000000
    4        6.459155   1.000000
    5       10.505871   0.000000
    6       11.454198   0.000000
    7       11.549331   0.000000
    8       14.891974   0.000000
 
 -0.4375000E+00  0.3125000E+00  0.3125000E+00  0.1171875E-01
    1       -2.614873   1.000000
    2        1.066645   1.000000
    3        2.939817   1.000000
    4        5.748949   1.000000
    5        9.666617   0.000000
    6       13.156415   0.000000
    7       13.458748   0.000000
    8       14.695691   0.000000
 
 -0.3125000E+00  0.3125000E+00  0.3125000E+00  0.1171875E-01
    1       -1.607828   1.000000
    2        0.224688   1.000000
    3        2.469181   1.000000
    4        5.094479   1.000000
    5        8.874954   0.000000
    6       13.171739   0.000000
    7       14.589248   0.000000
    8       15.410768   0.000000
 
  0.4375000E+00  0.4375000E+00  0.3125000E+00  0.1171875E-01
    1       -3.178693   1.000000
    2        0.832076   1.000000
    3        5.320582   1.000000
    4        5.764876   1.000000
    5        9.887367   0.000000
    6       11.535193   0.000000
    7       11.976931   0.000000
    8       14.365336   0.000000
 
 -0.4375000E+00  0.4375000E+00  0.3125000E+00  0.2343750E-01
    1       -2.429033   1.000000
    2        0.508682   1.000000
    3        3.722177   1.000000
    4        5.151158   1.000000
    5       10.563388   0.000000
    6       11.099128   0.000000
    7       13.847284   0.000000
    8       14.286355   0.000000
 
 -0.3125000E+00  0.4375000E+00  0.3125000E+00  0.2343750E-01
    1       -1.450954   1.000000
    2        0.194406   1.000000
    3        2.575752   1.000000
    4        4.274460   1.000000
    5       10.141473   0.000000
    6       12.624207   0.000000
    7       13.712595   0.000000
    8       14.418462   0.000000
 
 -0.4375000E+00 -0.4375000E+00  0.3125000E+00  0.1171875E-01
    1       -1.985491   1.000000
    2        0.224975   1.000000
    3        3.188746   1.000000
    4        5.212435   1.000000
    5        9.058319   0.000000
    6       13.129000   0.000000
    7       13.576434   0.000000
    8       14.409660   0.000000
 
  0.4375000E+00  0.4375000E+00  0.4375000E+00  0.3906250E-02
    1       -3.034324   1.000000
    2        0.164887   1.000000
    3        6.312133   1.000000
    4        6.312133   1.000000
    5        9.778508   0.000000
    6       10.888808   0.000000
    7       10.888808   0.000000
    8       15.596293   0.000000
 
 -0.4375000E+00  0.4375000E+00  0.4375000E+00  0.1171875E-01
    1       -2.597673   1.000000
    2       -0.022755   1.000000
    3        4.930528   1.000000
    4        5.975470   1.000000
    5       10.040467   0.000000
    6       11.416909   0.000000
    7       11.573226   0.000000
    8       16.393179   0.000000
