       N       E                     dE             d eps       ncg     rms          rms(c)
DAV:   1     0.387920388008E+01    0.38792E+01   -0.28461E+03   960   0.576E+02
DAV:   2    -0.105343520166E+02   -0.14414E+02   -0.13960E+02  1512   0.742E+01
DAV:   3    -0.106922903107E+02   -0.15794E+00   -0.15792E+00  1176   0.970E+00
DAV:   4    -0.106929615328E+02   -0.67122E-03   -0.67122E-03  1544   0.624E-01
DAV:   5    -0.106929617340E+02   -0.20120E-06   -0.20144E-06  1232   0.109E-02    0.344E+00
DAV:   6    -0.104835228956E+02    0.20944E+00   -0.15147E-01  1056   0.207E+00    0.198E+00
DAV:   7    -0.103971951907E+02    0.86328E-01   -0.23907E-01  1256   0.271E+00    0.188E-01
DAV:   8    -0.103984895016E+02   -0.12943E-02   -0.54012E-03  1128   0.579E-01    0.274E-02
DAV:   9    -0.103985469608E+02   -0.57459E-04   -0.93449E-05   888   0.827E-02
   1 F= -.10398547E+02 E0= -.10398168E+02  d E =-.103985E+02
