<?xml version="1.0" encoding="ISO-8859-1"?>
<modeling>
 <generator>
  <i name="program" type="string">vasp </i>
  <i name="version" type="string">5.4.4.18Apr17-6-g9f103f2a35  </i>
  <i name="subversion" type="string">(build Dec 09 2018 21:25:21) complex            parallel </i>
  <i name="platform" type="string">IFC18.0.1.163_CrayMPICH7.7.0_MKL18.0.1.163 </i>
  <i name="date" type="string">2019 04 01 </i>
  <i name="time" type="string">15:57:19 </i>
 </generator>
 <incar>
  <i type="string" name="PREC">normal</i>
  <i type="int" name="IBRION">     2</i>
  <i name="EDIFF">      0.00040000</i>
  <i name="EDIFFG">     -0.01000000</i>
  <i type="int" name="NSW">    15</i>
  <i type="int" name="ISIF">     2</i>
  <i name="ENCUT">    350.00000000</i>
  <i type="int" name="NBANDS">     8</i>
  <i type="logical" name="LREAL"> F  </i>
  <i type="int" name="ISMEAR">     0</i>
  <i name="SIGMA">      0.20000000</i>
  <v type="int" name="KPOINT_BSE">    -1     0     0     0</v>
 </incar>
 <structure name="primitive_cell" >
  <crystal>
   <varray name="basis" >
    <v>       0.00000000       2.57024100       2.57024100 </v>
    <v>       2.57024100       0.00000000       2.57024100 </v>
    <v>       2.57024100       2.57024100       0.00000000 </v>
   </varray>
   <i name="volume">     33.95873758 </i>
   <varray name="rec_basis" >
    <v>      -0.19453429       0.19453429       0.19453429 </v>
    <v>       0.19453429      -0.19453429       0.19453429 </v>
    <v>       0.19453429       0.19453429      -0.19453429 </v>
   </varray>
  </crystal>
  <varray name="positions" >
   <v>       0.00000000       0.00000000       0.00000000 </v>
   <v>       0.25000000       0.25000000       0.25000000 </v>
  </varray>
 </structure>
 <varray name="primitive_index" >
  <v type="int" >        1 </v>
  <v type="int" >        2 </v>
 </varray>
 <kpoints>
  <generation param="Monkhorst-Pack">
   <v type="int" name="divisions">       8        8        8 </v>
   <v name="usershift">      0.00000000       0.00000000       0.00000000 </v>
   <v name="genvec1">      0.12500000      -0.00000000       0.00000000 </v>
   <v name="genvec2">     -0.00000000       0.12500000      -0.00000000 </v>
   <v name="genvec3">      0.00000000       0.00000000       0.12500000 </v>
   <v name="shift">      0.50000000       0.50000000       0.50000000 </v>
  </generation>
  <varray name="kpointlist" >
   <v>       0.06250000       0.06250000       0.06250000 </v>
   <v>       0.18750000       0.06250000       0.06250000 </v>
   <v>       0.31250000       0.06250000       0.06250000 </v>
   <v>       0.43750000       0.06250000       0.06250000 </v>
   <v>      -0.43750000       0.06250000       0.06250000 </v>
   <v>      -0.31250000       0.06250000       0.06250000 </v>
   <v>      -0.18750000       0.06250000       0.06250000 </v>
   <v>      -0.06250000       0.06250000       0.06250000 </v>
   <v>       0.18750000       0.18750000       0.06250000 </v>
   <v>       0.31250000       0.18750000       0.06250000 </v>
   <v>       0.43750000       0.18750000       0.06250000 </v>
   <v>      -0.43750000       0.18750000       0.06250000 </v>
   <v>      -0.31250000       0.18750000       0.06250000 </v>
   <v>      -0.18750000       0.18750000       0.06250000 </v>
   <v>      -0.06250000       0.18750000       0.06250000 </v>
   <v>       0.31250000       0.31250000       0.06250000 </v>
   <v>       0.43750000       0.31250000       0.06250000 </v>
   <v>      -0.43750000       0.31250000       0.06250000 </v>
   <v>      -0.31250000       0.31250000       0.06250000 </v>
   <v>      -0.18750000       0.31250000       0.06250000 </v>
   <v>      -0.06250000       0.31250000       0.06250000 </v>
   <v>       0.43750000       0.43750000       0.06250000 </v>
   <v>      -0.43750000       0.43750000       0.06250000 </v>
   <v>      -0.31250000       0.43750000       0.06250000 </v>
   <v>      -0.18750000       0.43750000       0.06250000 </v>
   <v>      -0.06250000       0.43750000       0.06250000 </v>
   <v>      -0.43750000      -0.43750000       0.06250000 </v>
   <v>      -0.31250000      -0.43750000       0.06250000 </v>
   <v>      -0.18750000      -0.43750000       0.06250000 </v>
   <v>      -0.31250000      -0.31250000       0.06250000 </v>
   <v>      -0.18750000      -0.31250000       0.06250000 </v>
   <v>      -0.18750000      -0.18750000       0.06250000 </v>
   <v>       0.18750000       0.18750000       0.18750000 </v>
   <v>       0.31250000       0.18750000       0.18750000 </v>
   <v>       0.43750000       0.18750000       0.18750000 </v>
   <v>      -0.43750000       0.18750000       0.18750000 </v>
   <v>      -0.31250000       0.18750000       0.18750000 </v>
   <v>      -0.18750000       0.18750000       0.18750000 </v>
   <v>       0.31250000       0.31250000       0.18750000 </v>
   <v>       0.43750000       0.31250000       0.18750000 </v>
   <v>      -0.43750000       0.31250000       0.18750000 </v>
   <v>      -0.31250000       0.31250000       0.18750000 </v>
   <v>      -0.18750000       0.31250000       0.18750000 </v>
   <v>       0.43750000       0.43750000       0.18750000 </v>
   <v>      -0.43750000       0.43750000       0.18750000 </v>
   <v>      -0.31250000       0.43750000       0.18750000 </v>
   <v>      -0.18750000       0.43750000       0.18750000 </v>
   <v>      -0.43750000      -0.43750000       0.18750000 </v>
   <v>      -0.31250000      -0.43750000       0.18750000 </v>
   <v>      -0.31250000      -0.31250000       0.18750000 </v>
   <v>       0.31250000       0.31250000       0.31250000 </v>
   <v>       0.43750000       0.31250000       0.31250000 </v>
   <v>      -0.43750000       0.31250000       0.31250000 </v>
   <v>      -0.31250000       0.31250000       0.31250000 </v>
   <v>       0.43750000       0.43750000       0.31250000 </v>
   <v>      -0.43750000       0.43750000       0.31250000 </v>
   <v>      -0.31250000       0.43750000       0.31250000 </v>
   <v>      -0.43750000      -0.43750000       0.31250000 </v>
   <v>       0.43750000       0.43750000       0.43750000 </v>
   <v>      -0.43750000       0.43750000       0.43750000 </v>
  </varray>
  <varray name="weights" >
   <v>       0.00390625 </v>
   <v>       0.01171875 </v>
   <v>       0.01171875 </v>
   <v>       0.01171875 </v>
   <v>       0.01171875 </v>
   <v>       0.01171875 </v>
   <v>       0.01171875 </v>
   <v>       0.01171875 </v>
   <v>       0.01171875 </v>
   <v>       0.02343750 </v>
   <v>       0.02343750 </v>
   <v>       0.02343750 </v>
   <v>       0.02343750 </v>
   <v>       0.02343750 </v>
   <v>       0.02343750 </v>
   <v>       0.01171875 </v>
   <v>       0.02343750 </v>
   <v>       0.02343750 </v>
   <v>       0.02343750 </v>
   <v>       0.02343750 </v>
   <v>       0.02343750 </v>
   <v>       0.01171875 </v>
   <v>       0.02343750 </v>
   <v>       0.02343750 </v>
   <v>       0.02343750 </v>
   <v>       0.02343750 </v>
   <v>       0.01171875 </v>
   <v>       0.02343750 </v>
   <v>       0.02343750 </v>
   <v>       0.01171875 </v>
   <v>       0.02343750 </v>
   <v>       0.01171875 </v>
   <v>       0.00390625 </v>
   <v>       0.01171875 </v>
   <v>       0.01171875 </v>
   <v>       0.01171875 </v>
   <v>       0.01171875 </v>
   <v>       0.01171875 </v>
   <v>       0.01171875 </v>
   <v>       0.02343750 </v>
   <v>       0.02343750 </v>
   <v>       0.02343750 </v>
   <v>       0.02343750 </v>
   <v>       0.01171875 </v>
   <v>       0.02343750 </v>
   <v>       0.02343750 </v>
   <v>       0.02343750 </v>
   <v>       0.01171875 </v>
   <v>       0.02343750 </v>
   <v>       0.01171875 </v>
   <v>       0.00390625 </v>
   <v>       0.01171875 </v>
   <v>       0.01171875 </v>
   <v>       0.01171875 </v>
   <v>       0.01171875 </v>
   <v>       0.02343750 </v>
   <v>       0.02343750 </v>
   <v>       0.01171875 </v>
   <v>       0.00390625 </v>
   <v>       0.01171875 </v>
  </varray>
 </kpoints>
 <parameters>
  <separator name="general" >
   <i type="string" name="SYSTEM">unknown system</i>
   <i type="logical" name="LCOMPAT"> F  </i>
  </separator>
  <separator name="electronic" >
   <i type="string" name="PREC">normal</i>
   <i name="ENMAX">    350.00000000</i>
   <i name="ENAUG">    322.06900000</i>
   <i name="EDIFF">      0.00040000</i>
   <i type="int" name="IALGO">    38</i>
   <i type="int" name="IWAVPR">    11</i>
   <i type="int" name="NBANDS">     8</i>
   <i name="NELECT">      8.00000000</i>
   <i type="int" name="TURBO">     0</i>
   <i type="int" name="IRESTART">     0</i>
   <i type="int" name="NREBOOT">     0</i>
   <i type="int" name="NMIN">     0</i>
   <i name="EREF">      0.00000000</i>
   <separator name="electronic smearing" >
    <i type="int" name="ISMEAR">     0</i>
    <i name="SIGMA">      0.20000000</i>
    <i name="KSPACING">      0.50000000</i>
    <i type="logical" name="KGAMMA"> T  </i>
   </separator>
   <separator name="electronic projectors" >
    <i type="logical" name="LREAL"> F  </i>
    <v name="ROPT">      0.00000000</v>
    <i type="int" name="LMAXPAW">  -100</i>
    <i type="int" name="LMAXMIX">     2</i>
    <i type="logical" name="NLSPLINE"> F  </i>
   </separator>
   <separator name="electronic startup" >
    <i type="int" name="ISTART">     0</i>
    <i type="int" name="ICHARG">     2</i>
    <i type="int" name="INIWAV">     1</i>
   </separator>
   <separator name="electronic spin" >
    <i type="int" name="ISPIN">     1</i>
    <i type="logical" name="LNONCOLLINEAR"> F  </i>
    <v name="MAGMOM">      1.00000000      1.00000000</v>
    <i name="NUPDOWN">     -1.00000000</i>
    <i type="logical" name="LSORBIT"> F  </i>
    <v name="SAXIS">      0.00000000      0.00000000      1.00000000</v>
    <i type="logical" name="LSPIRAL"> F  </i>
    <v name="QSPIRAL">      0.00000000      0.00000000      0.00000000</v>
    <i type="logical" name="LZEROZ"> F  </i>
   </separator>
   <separator name="electronic exchange-correlation" >
    <i type="logical" name="LASPH"> F  </i>
    <i type="logical" name="LMETAGGA"> F  </i>
   </separator>
   <separator name="electronic convergence" >
    <i type="int" name="NELM">    60</i>
    <i type="int" name="NELMDL">    -5</i>
    <i type="int" name="NELMIN">     2</i>
    <i name="ENINI">    350.00000000</i>
    <separator name="electronic convergence detail" >
     <i type="logical" name="LDIAG"> T  </i>
     <i type="logical" name="LSUBROT"> F  </i>
     <i name="WEIMIN">      0.00100000</i>
     <i name="EBREAK">      0.00001250</i>
     <i name="DEPER">      0.30000000</i>
     <i type="int" name="NRMM">     4</i>
     <i name="TIME">      0.40000000</i>
    </separator>
   </separator>
   <separator name="electronic mixer" >
    <i name="AMIX">      0.40000000</i>
    <i name="BMIX">      1.00000000</i>
    <i name="AMIN">      0.10000000</i>
    <i name="AMIX_MAG">      1.60000000</i>
    <i name="BMIX_MAG">      1.00000000</i>
    <separator name="electronic mixer details" >
     <i type="int" name="IMIX">     4</i>
     <i type="logical" name="MIXFIRST"> F  </i>
     <i type="int" name="MAXMIX">   -45</i>
     <i name="WC">    100.00000000</i>
     <i type="int" name="INIMIX">     1</i>
     <i type="int" name="MIXPRE">     1</i>
     <i type="int" name="MREMOVE">     5</i>
    </separator>
   </separator>
   <separator name="electronic dipolcorrection" >
    <i type="logical" name="LDIPOL"> F  </i>
    <i type="logical" name="LMONO"> F  </i>
    <i type="int" name="IDIPOL">     0</i>
    <i name="EPSILON">      1.00000000</i>
    <v name="DIPOL">   -100.00000000   -100.00000000   -100.00000000</v>
    <i name="EFIELD">      0.00000000</i>
   </separator>
  </separator>
  <separator name="grids" >
   <i type="int" name="NGX">    18</i>
   <i type="int" name="NGY">    18</i>
   <i type="int" name="NGZ">    18</i>
   <i type="int" name="NGXF">    36</i>
   <i type="int" name="NGYF">    36</i>
   <i type="int" name="NGZF">    36</i>
   <i type="logical" name="ADDGRID"> F  </i>
  </separator>
  <separator name="ionic" >
   <i type="int" name="NSW">    15</i>
   <i type="int" name="IBRION">     2</i>
   <i type="int" name="MDALGO">     0</i>
   <i type="int" name="ISIF">     2</i>
   <i name="PSTRESS">      0.00000000</i>
   <i name="EDIFFG">     -0.01000000</i>
   <i type="int" name="NFREE">     1</i>
   <i name="POTIM">      0.50000000</i>
   <i name="SMASS">     -3.00000000</i>
   <i name="SCALEE">      1.00000000</i>
  </separator>
  <separator name="ionic md" >
   <i name="TEBEG">      0.00010000</i>
   <i name="TEEND">      0.00010000</i>
   <i type="int" name="NBLOCK">     1</i>
   <i type="int" name="KBLOCK">    15</i>
   <i type="int" name="NPACO">   256</i>
   <i name="APACO">     16.00000000</i>
  </separator>
  <separator name="symmetry" >
   <i type="int" name="ISYM">     2</i>
   <i name="SYMPREC">      0.00001000</i>
  </separator>
  <separator name="dos" >
   <i type="int" name="LORBIT">     0</i>
   <v name="RWIGS">     -1.00000000</v>
   <i type="int" name="NEDOS">   301</i>
   <i name="EMIN">     10.00000000</i>
   <i name="EMAX">    -10.00000000</i>
   <i name="EFERMI">      0.00000000</i>
  </separator>
  <separator name="writing" >
   <i type="int" name="NWRITE">     2</i>
   <i type="logical" name="LWAVE"> T  </i>
   <i type="logical" name="LDOWNSAMPLE"> F  </i>
   <i type="logical" name="LCHARG"> T  </i>
   <i type="logical" name="LPARD"> F  </i>
   <i type="logical" name="LVTOT"> F  </i>
   <i type="logical" name="LVHAR"> F  </i>
   <i type="logical" name="LELF"> F  </i>
   <i type="logical" name="LOPTICS"> F  </i>
   <v name="STM">      0.00000000      0.00000000      0.00000000      0.00000000      0.00000000      0.00000000      0.00000000</v>
  </separator>
  <separator name="performance" >
   <i type="int" name="NPAR">     8</i>
   <i type="int" name="NSIM">     4</i>
   <i type="int" name="NBLK">    -1</i>
   <i type="logical" name="LPLANE"> T  </i>
   <i type="logical" name="LSCALAPACK"> T  </i>
   <i type="logical" name="LSCAAWARE"> F  </i>
   <i type="logical" name="LSCALU"> F  </i>
   <i type="logical" name="LASYNC"> F  </i>
   <i type="logical" name="LORBITALREAL"> F  </i>
  </separator>
  <separator name="miscellaneous" >
   <i type="int" name="IDIOT">     3</i>
   <i type="int" name="ISPECIAL">     0</i>
   <i type="logical" name="LMUSIC"> F  </i>
   <v name="POMASS">     28.08500000</v>
   <v name="DARWINR">      0.00000000</v>
   <v name="DARWINV">      1.00000000</v>
   <i type="logical" name="LCORR"> T  </i>
  </separator>
  <i type="logical" name="GGA_COMPAT"> T  </i>
  <i type="logical" name="LBERRY"> F  </i>
  <i type="int" name="ICORELEVEL">     0</i>
  <i type="logical" name="LDAU"> F  </i>
  <i type="int" name="I_CONSTRAINED_M">     0</i>
  <separator name="electronic exchange-correlation" >
   <i type="string" name="GGA">--</i>
   <i type="int" name="VOSKOWN">     0</i>
   <i type="logical" name="LHFCALC"> F  </i>
   <i type="string" name="PRECFOCK"></i>
   <i type="logical" name="LSYMGRAD"> F  </i>
   <i type="logical" name="LHFONE"> F  </i>
   <i type="logical" name="LRHFCALC"> F  </i>
   <i type="logical" name="LTHOMAS"> F  </i>
   <i type="logical" name="LMODELHF"> F  </i>
   <i name="ENCUT4O">     -1.00000000</i>
   <i type="int" name="EXXOEP">     0</i>
   <i type="int" name="FOURORBIT">     0</i>
   <i name="AEXX">      0.00000000</i>
   <i name="HFALPHA">      0.00000000</i>
   <i name="MCALPHA">      0.00000000</i>
   <i name="ALDAX">      1.00000000</i>
   <i name="AGGAX">      1.00000000</i>
   <i name="ALDAC">      1.00000000</i>
   <i name="AGGAC">      1.00000000</i>
   <i type="int" name="NKREDX">     1</i>
   <i type="int" name="NKREDY">     1</i>
   <i type="int" name="NKREDZ">     1</i>
   <i type="logical" name="SHIFTRED"> F  </i>
   <i type="logical" name="ODDONLY"> F  </i>
   <i type="logical" name="EVENONLY"> F  </i>
   <i type="int" name="LMAXFOCK">     0</i>
   <i type="int" name="NMAXFOCKAE">     0</i>
   <i type="logical" name="LFOCKAEDFT"> F  </i>
   <i name="HFSCREEN">      0.00000000</i>
   <i name="HFSCREENC">      0.00000000</i>
   <i type="int" name="NBANDSGWLOW">     0</i>
  </separator>
  <separator name="vdW DFT" >
   <i type="logical" name="LUSE_VDW"> F  </i>
   <i name="Zab_VDW">     -0.84910000</i>
   <i name="PARAM1">      0.12340000</i>
   <i name="PARAM2">      1.00000000</i>
   <i name="PARAM3">      0.00000000</i>
  </separator>
  <separator name="model GW" >
   <i type="int" name="MODEL_GW">     0</i>
   <i name="MODEL_EPS0">     10.18762127</i>
   <i name="MODEL_ALPHA">      1.00000000</i>
  </separator>
  <separator name="linear response parameters" >
   <i type="logical" name="LEPSILON"> F  </i>
   <i type="logical" name="LRPA"> F  </i>
   <i type="logical" name="LNABLA"> F  </i>
   <i type="logical" name="LVEL"> F  </i>
   <i type="int" name="KINTER">     0</i>
   <i name="CSHIFT">      0.10000000</i>
   <i name="OMEGAMAX">     -1.00000000</i>
   <i name="DEG_THRESHOLD">      0.00200000</i>
   <i name="RTIME">     -0.10000000</i>
   <i name="WPLASMAI">      0.00000000</i>
   <v name="DFIELD">      0.00000000      0.00000000      0.00000000</v>
   <v name="WPLASMA">      0.00000000      0.00000000      0.00000000      0.00000000      0.00000000      0.00000000      0.00000000      0.00000000      0.00000000</v>
  </separator>
  <separator name="orbital magnetization" >
   <i type="logical" name="NUCIND"> F  </i>
   <v name="MAGPOS">      0.00000000      0.00000000      0.00000000</v>
   <i type="logical" name="LNICSALL"> T  </i>
   <i type="logical" name="ORBITALMAG"> F  </i>
   <i type="logical" name="LMAGBLOCH"> F  </i>
   <i type="logical" name="LCHIMAG"> F  </i>
   <i type="logical" name="LGAUGE"> T  </i>
   <i type="int" name="MAGATOM">     0</i>
   <v name="MAGDIPOL">      0.00000000      0.00000000      0.00000000</v>
   <v name="AVECCONST">      0.00000000      0.00000000      0.00000000</v>
  </separator>
  <separator name="response functions" >
   <i type="logical" name="LADDER"> F  </i>
   <i type="logical" name="LRPAFORCE"> F  </i>
   <i type="logical" name="LFXC"> F  </i>
   <i type="logical" name="LHARTREE"> T  </i>
   <i type="int" name="IBSE">     0</i>
   <v type="int" name="KPOINT">    -1     0     0     0</v>
   <i type="logical" name="LTCTE"> F  </i>
   <i type="logical" name="LTETE"> F  </i>
   <i type="logical" name="LTRIPLET"> F  </i>
   <i type="logical" name="LFXCEPS"> F  </i>
   <i type="logical" name="LFXHEG"> F  </i>
   <i type="int" name="NATURALO">     2</i>
   <i type="logical" name="L2ORDER"> F  </i>
   <i type="logical" name="LMP2LT"> F  </i>
   <i type="logical" name="LUSEW"> F  </i>
   <i name="ENCUTGW">     -2.00000000</i>
   <i name="ENCUTGWSOFT">     -2.00000000</i>
   <i name="ENCUTLF">     -1.00000000</i>
   <i type="int" name="LMAXMP2">    -1</i>
   <i name="SCISSOR">      0.00000000</i>
   <i type="int" name="NOMEGA">     0</i>
   <i type="int" name="NOMEGAR">     0</i>
   <i type="int" name="NBANDSGW">    -1</i>
   <i type="int" name="NBANDSO">    -1</i>
   <i type="int" name="NBANDSV">    -1</i>
   <i type="int" name="NELM">     1</i>
   <i type="int" name="NELMHF">     1</i>
   <i type="int" name="DIM">     3</i>
   <i type="int" name="ANTIRES">     0</i>
   <i name="OMEGAMAX">    -30.00000000</i>
   <i name="OMEGAMIN">    -30.00000000</i>
   <i name="OMEGATL">   -200.00000000</i>
   <i type="int" name="OMEGAGRID">   140</i>
   <i name="CSHIFT">     -0.10000000</i>
   <i type="logical" name="SELFENERGY"> F  </i>
   <i type="logical" name="LSPECTRAL"> F  </i>
   <i type="logical" name="LSPECTRALGW"> F  </i>
   <i type="logical" name="LSINGLES"> F  </i>
   <i type="logical" name="LFERMIGW"> F  </i>
   <i type="logical" name="ODDONLYGW"> F  </i>
   <i type="logical" name="EVENONLYGW"> F  </i>
   <i type="int" name="NKREDLFX">     1</i>
   <i type="int" name="NKREDLFY">     1</i>
   <i type="int" name="NKREDLFZ">     1</i>
   <i type="int" name="MAXMEM">  2800</i>
   <i type="int" name="TELESCOPE">     0</i>
   <i type="int" name="TAUPAR">     1</i>
   <i type="int" name="OMEGAPAR">    -1</i>
   <i name="LAMBDA">      1.00000000</i>
  </separator>
  <separator name="External order field" >
   <i name="OFIELD_KAPPA">      0.00000000</i>
   <v name="OFIELD_K">      0.00000000      0.00000000      0.00000000</v>
   <i name="OFIELD_Q6_NEAR">      0.00000000</i>
   <i name="OFIELD_Q6_FAR">      0.00000000</i>
   <i name="OFIELD_A">      0.00000000</i>
  </separator>
 </parameters>
 <atominfo>
  <atoms>       2 </atoms>
  <types>       1 </types>
  <array name="atoms" >
   <dimension dim="1">ion</dimension>
   <field type="string">element</field>
   <field type="int">atomtype</field>
   <set>
    <rc><c>Si</c><c>   1</c></rc>
    <rc><c>Si</c><c>   1</c></rc>
   </set>
  </array>
  <array name="atomtypes" >
   <dimension dim="1">type</dimension>
   <field type="int">atomspertype</field>
   <field type="string">element</field>
   <field>mass</field>
   <field>valence</field>
   <field type="string">pseudopotential</field>
   <set>
    <rc><c>   2</c><c>Si</c><c>     28.08500000</c><c>      4.00000000</c><c> PAW_PBE Si 05Jan2001                   </c></rc>
   </set>
  </array>
 </atominfo>
 <structure name="initialpos" >
  <crystal>
   <varray name="basis" >
    <v>       0.00000000       2.57024100       2.57024100 </v>
    <v>       2.57024100       0.00000000       2.57024100 </v>
    <v>       2.57024100       2.57024100       0.00000000 </v>
   </varray>
   <i name="volume">     33.95873758 </i>
   <varray name="rec_basis" >
    <v>      -0.19453429       0.19453429       0.19453429 </v>
    <v>       0.19453429      -0.19453429       0.19453429 </v>
    <v>       0.19453429       0.19453429      -0.19453429 </v>
   </varray>
  </crystal>
  <varray name="positions" >
   <v>       0.00000000       0.00000000       0.00000000 </v>
   <v>       0.25000000       0.25000000       0.25000000 </v>
  </varray>
 </structure>
 <calculation>
  <scstep>
   <time name="dav">    0.77    0.78</time>
   <time name="total">    0.82    0.84</time>
   <energy>
    <i name="alphaZ">      3.96517430 </i>
    <i name="ewald">   -241.43649182 </i>
    <i name="hartreedc">     -8.67564906 </i>
    <i name="XCdc">    -17.92351060 </i>
    <i name="pawpsdc">     65.95520812 </i>
    <i name="pawaedc">    -30.76852678 </i>
    <i name="eentropy">     -0.01289575 </i>
    <i name="bandstr">     26.64464133 </i>
    <i name="atom">    206.13125414 </i>
    <i name="e_fr_energy">      3.87920388 </i>
    <i name="e_wo_entrp">      3.89209963 </i>
    <i name="e_0_energy">      3.88565175 </i>
   </energy>
  </scstep>
  <scstep>
   <time name="dav">    1.19    1.20</time>
   <time name="total">    1.19    1.20</time>
   <energy>
    <i name="e_fr_energy">    -10.53435202 </i>
    <i name="e_wo_entrp">    -10.53425468 </i>
    <i name="e_0_energy">    -10.53430335 </i>
   </energy>
  </scstep>
  <scstep>
   <time name="dav">    0.94    0.94</time>
   <time name="total">    0.94    0.95</time>
   <energy>
    <i name="e_fr_energy">    -10.69229031 </i>
    <i name="e_wo_entrp">    -10.69227244 </i>
    <i name="e_0_energy">    -10.69228138 </i>
   </energy>
  </scstep>
  <scstep>
   <time name="dav">    1.23    1.23</time>
   <time name="total">    1.23    1.23</time>
   <energy>
    <i name="e_fr_energy">    -10.69296153 </i>
    <i name="e_wo_entrp">    -10.69294377 </i>
    <i name="e_0_energy">    -10.69295265 </i>
   </energy>
  </scstep>
  <scstep>
   <time name="dav">    0.98    0.99</time>
   <time name="total">    1.05    1.05</time>
   <energy>
    <i name="e_fr_energy">    -10.69296173 </i>
    <i name="e_wo_entrp">    -10.69294397 </i>
    <i name="e_0_energy">    -10.69295285 </i>
   </energy>
  </scstep>
  <scstep>
   <time name="dav">    0.84    0.84</time>
   <time name="total">    0.94    0.95</time>
   <energy>
    <i name="e_fr_energy">    -10.48352290 </i>
    <i name="e_wo_entrp">    -10.48338050 </i>
    <i name="e_0_energy">    -10.48345170 </i>
   </energy>
  </scstep>
  <scstep>
   <time name="dav">    0.99    0.99</time>
   <time name="total">    1.09    1.09</time>
   <energy>
    <i name="e_fr_energy">    -10.39719519 </i>
    <i name="e_wo_entrp">    -10.39630391 </i>
    <i name="e_0_energy">    -10.39674955 </i>
   </energy>
  </scstep>
  <scstep>
   <time name="dav">    0.90    0.90</time>
   <time name="total">    1.00    1.00</time>
   <energy>
    <i name="e_fr_energy">    -10.39848950 </i>
    <i name="e_wo_entrp">    -10.39773762 </i>
    <i name="e_0_energy">    -10.39811356 </i>
   </energy>
  </scstep>
  <scstep>
   <time name="dav">    0.75    0.75</time>
   <time name="total">    0.79    0.80</time>
   <energy>
    <i name="alphaZ">      3.96517430 </i>
    <i name="ewald">   -241.43649182 </i>
    <i name="hartreedc">    -13.00836333 </i>
    <i name="XCdc">    -17.18116840 </i>
    <i name="pawpsdc">     80.83061889 </i>
    <i name="pawaedc">    -46.04118090 </i>
    <i name="eentropy">     -0.00075833 </i>
    <i name="bandstr">     16.34236849 </i>
    <i name="atom">    206.13125414 </i>
    <i name="e_fr_energy">    -10.39854696 </i>
    <i name="e_wo_entrp">    -10.39778863 </i>
    <i name="e_0_energy">    -10.39816780 </i>
   </energy>
  </scstep>
  <structure>
   <crystal>
    <varray name="basis" >
     <v>       0.00000000       2.57024100       2.57024100 </v>
     <v>       2.57024100       0.00000000       2.57024100 </v>
     <v>       2.57024100       2.57024100       0.00000000 </v>
    </varray>
    <i name="volume">     33.95873758 </i>
    <varray name="rec_basis" >
     <v>      -0.19453429       0.19453429       0.19453429 </v>
     <v>       0.19453429      -0.19453429       0.19453429 </v>
     <v>       0.19453429       0.19453429      -0.19453429 </v>
    </varray>
   </crystal>
   <varray name="positions" >
    <v>       0.00000000       0.00000000       0.00000000 </v>
    <v>       0.25000000       0.25000000       0.25000000 </v>
   </varray>
  </structure>
  <varray name="forces" >
   <v>      -0.00000000      -0.00000000      -0.00000000 </v>
   <v>       0.00000000       0.00000000       0.00000000 </v>
  </varray>
  <varray name="stress" >
   <v>     242.90370929      -0.00000000       0.00000000 </v>
   <v>      -0.00000000     242.90370929       0.00000000 </v>
   <v>       0.00000000       0.00000000     242.90370929 </v>
  </varray>
  <energy>
   <i name="e_fr_energy">    -10.39854696 </i>
   <i name="e_wo_entrp">    -10.39816780 </i>
   <i name="e_0_energy">     -0.00075833 </i>
  </energy>
  <time name="totalsc">   10.68   11.30</time>
  <eigenvalues>
   <array>
    <dimension dim="1">band</dimension>
    <dimension dim="2">kpoint</dimension>
    <dimension dim="3">spin</dimension>
    <field>eigene</field>
    <field>occ</field>
    <set>
     <set comment="spin 1">
      <set comment="kpoint 1">
       <r>   -5.4942    1.0000 </r>
       <r>    7.0743    1.0000 </r>
       <r>    7.5222    0.9374 </r>
       <r>    7.5222    0.9374 </r>
       <r>   10.3880    0.0000 </r>
       <r>   10.3880    0.0000 </r>
       <r>   10.4025    0.0000 </r>
       <r>   13.2753    0.0000 </r>
      </set>
      <set comment="kpoint 2">
       <r>   -5.1821    1.0000 </r>
       <r>    5.4740    1.0000 </r>
       <r>    6.5548    1.0000 </r>
       <r>    7.4101    0.9900 </r>
       <r>   10.6568    0.0000 </r>
       <r>   10.7104    0.0000 </r>
       <r>   11.1238    0.0000 </r>
       <r>   14.1670    0.0000 </r>
      </set>
      <set comment="kpoint 3">
       <r>   -4.4233    1.0000 </r>
       <r>    2.9426    1.0000 </r>
       <r>    6.0312    1.0000 </r>
       <r>    6.8831    1.0000 </r>
       <r>   10.4373    0.0000 </r>
       <r>   11.1102    0.0000 </r>
       <r>   11.4475    0.0000 </r>
       <r>   14.4108    0.0000 </r>
      </set>
      <set comment="kpoint 4">
       <r>   -3.3335    1.0000 </r>
       <r>    0.7411    1.0000 </r>
       <r>    5.8177    1.0000 </r>
       <r>    6.4160    1.0000 </r>
       <r>   10.1464    0.0000 </r>
       <r>   11.0206    0.0000 </r>
       <r>   11.0451    0.0000 </r>
       <r>   15.8568    0.0000 </r>
      </set>
      <set comment="kpoint 5">
       <r>   -2.7510    1.0000 </r>
       <r>   -0.1266    1.0000 </r>
       <r>    5.9005    1.0000 </r>
       <r>    6.1521    1.0000 </r>
       <r>   10.0448    0.0000 </r>
       <r>   10.7894    0.0000 </r>
       <r>   11.0841    0.0000 </r>
       <r>   15.7972    0.0000 </r>
      </set>
      <set comment="kpoint 6">
       <r>   -3.7139    1.0000 </r>
       <r>    1.4030    1.0000 </r>
       <r>    6.1520    1.0000 </r>
       <r>    6.2368    1.0000 </r>
       <r>   10.1670    0.0000 </r>
       <r>   10.8927    0.0000 </r>
       <r>   11.4624    0.0000 </r>
       <r>   14.9178    0.0000 </r>
      </set>
      <set comment="kpoint 7">
       <r>   -4.7222    1.0000 </r>
       <r>    3.7767    1.0000 </r>
       <r>    6.4465    1.0000 </r>
       <r>    6.7598    1.0000 </r>
       <r>   10.3718    0.0000 </r>
       <r>   11.0375    0.0000 </r>
       <r>   11.7161    0.0000 </r>
       <r>   13.6169    0.0000 </r>
      </set>
      <set comment="kpoint 8">
       <r>   -5.3375    1.0000 </r>
       <r>    6.3053    1.0000 </r>
       <r>    6.9961    1.0000 </r>
       <r>    7.2548    0.9997 </r>
       <r>   10.0630    0.0000 </r>
       <r>   10.9461    0.0000 </r>
       <r>   11.0883    0.0000 </r>
       <r>   13.6153    0.0000 </r>
      </set>
      <set comment="kpoint 9">
       <r>   -5.0255    1.0000 </r>
       <r>    5.4187    1.0000 </r>
       <r>    6.3336    1.0000 </r>
       <r>    6.5274    1.0000 </r>
       <r>    9.5598    0.0000 </r>
       <r>   11.9054    0.0000 </r>
       <r>   12.0890    0.0000 </r>
       <r>   12.5976    0.0000 </r>
      </set>
      <set comment="kpoint 10">
       <r>   -4.4127    1.0000 </r>
       <r>    3.7605    1.0000 </r>
       <r>    5.2137    1.0000 </r>
       <r>    6.2067    1.0000 </r>
       <r>    9.7527    0.0000 </r>
       <r>   11.8397    0.0000 </r>
       <r>   12.2486    0.0000 </r>
       <r>   12.9725    0.0000 </r>
      </set>
      <set comment="kpoint 11">
       <r>   -3.4077    1.0000 </r>
       <r>    1.5553    1.0000 </r>
       <r>    4.7341    1.0000 </r>
       <r>    5.6877    1.0000 </r>
       <r>    9.9491    0.0000 </r>
       <r>   11.7033    0.0000 </r>
       <r>   12.9049    0.0000 </r>
       <r>   13.1489    0.0000 </r>
      </set>
      <set comment="kpoint 12">
       <r>   -2.4426    1.0000 </r>
       <r>    0.0656    1.0000 </r>
       <r>    4.4266    1.0000 </r>
       <r>    5.5648    1.0000 </r>
       <r>   10.0748    0.0000 </r>
       <r>   11.2514    0.0000 </r>
       <r>   12.7344    0.0000 </r>
       <r>   15.4559    0.0000 </r>
      </set>
      <set comment="kpoint 13">
       <r>   -3.0330    1.0000 </r>
       <r>    0.9273    1.0000 </r>
       <r>    4.2994    1.0000 </r>
       <r>    5.9206    1.0000 </r>
       <r>   10.5439    0.0000 </r>
       <r>   11.0305    0.0000 </r>
       <r>   12.7051    0.0000 </r>
       <r>   14.5152    0.0000 </r>
      </set>
      <set comment="kpoint 14">
       <r>   -4.1191    1.0000 </r>
       <r>    2.9977    1.0000 </r>
       <r>    4.5560    1.0000 </r>
       <r>    6.5418    1.0000 </r>
       <r>   10.8528    0.0000 </r>
       <r>   11.2296    0.0000 </r>
       <r>   12.6288    0.0000 </r>
       <r>   12.8280    0.0000 </r>
      </set>
      <set comment="kpoint 15">
       <r>   -4.8728    1.0000 </r>
       <r>    4.6100    1.0000 </r>
       <r>    5.8785    1.0000 </r>
       <r>    6.9932    1.0000 </r>
       <r>   10.2568    0.0000 </r>
       <r>   11.3986    0.0000 </r>
       <r>   11.8548    0.0000 </r>
       <r>   13.0402    0.0000 </r>
      </set>
      <set comment="kpoint 16">
       <r>   -3.9480    1.0000 </r>
       <r>    3.3565    1.0000 </r>
       <r>    5.0430    1.0000 </r>
       <r>    5.1850    1.0000 </r>
       <r>    8.5824    0.0000 </r>
       <r>   10.2124    0.0000 </r>
       <r>   14.3090    0.0000 </r>
       <r>   14.3509    0.0000 </r>
      </set>
      <set comment="kpoint 17">
       <r>   -3.0638    1.0000 </r>
       <r>    1.9484    1.0000 </r>
       <r>    4.0895    1.0000 </r>
       <r>    4.7591    1.0000 </r>
       <r>    8.9063    0.0000 </r>
       <r>   10.0913    0.0000 </r>
       <r>   14.2066    0.0000 </r>
       <r>   15.5010    0.0000 </r>
      </set>
      <set comment="kpoint 18">
       <r>   -1.9641    1.0000 </r>
       <r>    0.4872    1.0000 </r>
       <r>    3.0938    1.0000 </r>
       <r>    4.7271    1.0000 </r>
       <r>    9.1167    0.0000 </r>
       <r>   12.0123    0.0000 </r>
       <r>   13.7027    0.0000 </r>
       <r>   15.4536    0.0000 </r>
      </set>
      <set comment="kpoint 19">
       <r>   -2.0341    1.0000 </r>
       <r>    0.5884    1.0000 </r>
       <r>    2.6429    1.0000 </r>
       <r>    5.1462    1.0000 </r>
       <r>    9.6125    0.0000 </r>
       <r>   12.9779    0.0000 </r>
       <r>   14.3487    0.0000 </r>
       <r>   14.7482    0.0000 </r>
      </set>
      <set comment="kpoint 20">
       <r>   -3.1255    1.0000 </r>
       <r>    1.6320    1.0000 </r>
       <r>    3.4093    1.0000 </r>
       <r>    5.8598    1.0000 </r>
       <r>   10.4504    0.0000 </r>
       <r>   11.7883    0.0000 </r>
       <r>   13.4006    0.0000 </r>
       <r>   13.6711    0.0000 </r>
      </set>
      <set comment="kpoint 21">
       <r>   -3.9817    1.0000 </r>
       <r>    2.1975    1.0000 </r>
       <r>    5.4209    1.0000 </r>
       <r>    6.4342    1.0000 </r>
       <r>   10.4511    0.0000 </r>
       <r>   11.1158    0.0000 </r>
       <r>   11.9847    0.0000 </r>
       <r>   13.7208    0.0000 </r>
      </set>
      <set comment="kpoint 22">
       <r>   -2.3064    1.0000 </r>
       <r>    0.9769    1.0000 </r>
       <r>    4.2169    1.0000 </r>
       <r>    4.5045    1.0000 </r>
       <r>    8.0500    0.0139 </r>
       <r>    8.7394    0.0000 </r>
       <r>   16.7475    0.0000 </r>
       <r>   16.8962    0.0000 </r>
      </set>
      <set comment="kpoint 23">
       <r>   -1.2250    1.0000 </r>
       <r>   -0.1626    1.0000 </r>
       <r>    3.5049    1.0000 </r>
       <r>    4.1867    1.0000 </r>
       <r>    8.5090    0.0000 </r>
       <r>    9.3590    0.0000 </r>
       <r>   16.4749    0.0000 </r>
       <r>   17.7483    0.0000 </r>
      </set>
      <set comment="kpoint 24">
       <r>   -1.2722    1.0000 </r>
       <r>   -0.0138    1.0000 </r>
       <r>    2.5884    1.0000 </r>
       <r>    4.5610    1.0000 </r>
       <r>    8.9395    0.0000 </r>
       <r>   11.8767    0.0000 </r>
       <r>   14.7566    0.0000 </r>
       <r>   16.0300    0.0000 </r>
      </set>
      <set comment="kpoint 25">
       <r>   -2.1473    1.0000 </r>
       <r>    0.2148    1.0000 </r>
       <r>    3.4364    1.0000 </r>
       <r>    5.2819    1.0000 </r>
       <r>    9.7722    0.0000 </r>
       <r>   12.0763    0.0000 </r>
       <r>   13.8024    0.0000 </r>
       <r>   15.2708    0.0000 </r>
      </set>
      <set comment="kpoint 26">
       <r>   -2.8809    1.0000 </r>
       <r>    0.2693    1.0000 </r>
       <r>    5.2699    1.0000 </r>
       <r>    6.0202    1.0000 </r>
       <r>   10.3820    0.0000 </r>
       <r>   10.7142    0.0000 </r>
       <r>   11.7214    0.0000 </r>
       <r>   15.7008    0.0000 </r>
      </set>
      <set comment="kpoint 27">
       <r>   -1.3014    1.0000 </r>
       <r>   -0.1965    1.0000 </r>
       <r>    4.0559    1.0000 </r>
       <r>    4.3659    1.0000 </r>
       <r>    7.9901    0.0379 </r>
       <r>    8.3964    0.0000 </r>
       <r>   18.0223    0.0000 </r>
       <r>   18.2320    0.0000 </r>
      </set>
      <set comment="kpoint 28">
       <r>   -2.1958    1.0000 </r>
       <r>    0.9110    1.0000 </r>
       <r>    3.7042    1.0000 </r>
       <r>    4.3690    1.0000 </r>
       <r>    8.6434    0.0000 </r>
       <r>    9.6009    0.0000 </r>
       <r>   15.2956    0.0000 </r>
       <r>   16.8291    0.0000 </r>
      </set>
      <set comment="kpoint 29">
       <r>   -2.7211    1.0000 </r>
       <r>    1.0015    1.0000 </r>
       <r>    3.9075    1.0000 </r>
       <r>    5.0843    1.0000 </r>
       <r>    9.4627    0.0000 </r>
       <r>   12.1614    0.0000 </r>
       <r>   12.9151    0.0000 </r>
       <r>   14.1968    0.0000 </r>
      </set>
      <set comment="kpoint 30">
       <r>   -3.1933    1.0000 </r>
       <r>    2.1797    1.0000 </r>
       <r>    4.5429    1.0000 </r>
       <r>    4.7793    1.0000 </r>
       <r>    8.2456    0.0002 </r>
       <r>    9.3493    0.0000 </r>
       <r>   15.5291    0.0000 </r>
       <r>   15.5868    0.0000 </r>
      </set>
      <set comment="kpoint 31">
       <r>   -3.8070    1.0000 </r>
       <r>    2.8933    1.0000 </r>
       <r>    4.6105    1.0000 </r>
       <r>    5.3918    1.0000 </r>
       <r>    9.2849    0.0000 </r>
       <r>   10.8391    0.0000 </r>
       <r>   13.1963    0.0000 </r>
       <r>   14.2065    0.0000 </r>
      </set>
      <set comment="kpoint 32">
       <r>   -4.5609    1.0000 </r>
       <r>    4.4451    1.0000 </r>
       <r>    5.7107    1.0000 </r>
       <r>    5.7226    1.0000 </r>
       <r>    9.0363    0.0000 </r>
       <r>   11.3129    0.0000 </r>
       <r>   13.0734    0.0000 </r>
       <r>   13.1982    0.0000 </r>
      </set>
      <set comment="kpoint 33">
       <r>   -5.0282    1.0000 </r>
       <r>    4.6274    1.0000 </r>
       <r>    7.0089    1.0000 </r>
       <r>    7.0089    1.0000 </r>
       <r>   10.3748    0.0000 </r>
       <r>   11.0850    0.0000 </r>
       <r>   11.0850    0.0000 </r>
       <r>   14.6599    0.0000 </r>
      </set>
      <set comment="kpoint 34">
       <r>   -4.5693    1.0000 </r>
       <r>    3.7794    1.0000 </r>
       <r>    5.2048    1.0000 </r>
       <r>    7.0721    1.0000 </r>
       <r>   11.0308    0.0000 </r>
       <r>   11.1976    0.0000 </r>
       <r>   11.5850    0.0000 </r>
       <r>   13.6973    0.0000 </r>
      </set>
      <set comment="kpoint 35">
       <r>   -3.6862    1.0000 </r>
       <r>    2.2794    1.0000 </r>
       <r>    3.9304    1.0000 </r>
       <r>    6.4686    1.0000 </r>
       <r>   10.5353    0.0000 </r>
       <r>   12.0248    0.0000 </r>
       <r>   12.3793    0.0000 </r>
       <r>   13.8709    0.0000 </r>
      </set>
      <set comment="kpoint 36">
       <r>   -2.5858    1.0000 </r>
       <r>    0.4569    1.0000 </r>
       <r>    3.8436    1.0000 </r>
       <r>    5.8298    1.0000 </r>
       <r>    9.8085    0.0000 </r>
       <r>   12.3013    0.0000 </r>
       <r>   12.4695    0.0000 </r>
       <r>   15.9039    0.0000 </r>
      </set>
      <set comment="kpoint 37">
       <r>   -2.5708    1.0000 </r>
       <r>    0.4281    1.0000 </r>
       <r>    4.2253    1.0000 </r>
       <r>    5.4414    1.0000 </r>
       <r>    9.4132    0.0000 </r>
       <r>   12.5397    0.0000 </r>
       <r>   12.6892    0.0000 </r>
       <r>   14.0690    0.0000 </r>
      </set>
      <set comment="kpoint 38">
       <r>   -3.6716    1.0000 </r>
       <r>    2.2684    1.0000 </r>
       <r>    4.9320    1.0000 </r>
       <r>    5.3955    1.0000 </r>
       <r>    9.3499    0.0000 </r>
       <r>   11.6898    0.0000 </r>
       <r>   13.0483    0.0000 </r>
       <r>   13.2321    0.0000 </r>
      </set>
      <set comment="kpoint 39">
       <r>   -4.2677    1.0000 </r>
       <r>    2.9925    1.0000 </r>
       <r>    5.8847    1.0000 </r>
       <r>    5.9377    1.0000 </r>
       <r>    9.9216    0.0000 </r>
       <r>   11.8431    0.0000 </r>
       <r>   12.4341    0.0000 </r>
       <r>   12.5770    0.0000 </r>
      </set>
      <set comment="kpoint 40">
       <r>   -3.5294    1.0000 </r>
       <r>    2.2629    1.0000 </r>
       <r>    3.9954    1.0000 </r>
       <r>    5.6673    1.0000 </r>
       <r>   10.4121    0.0000 </r>
       <r>   11.5562    0.0000 </r>
       <r>   12.1878    0.0000 </r>
       <r>   13.9713    0.0000 </r>
      </set>
      <set comment="kpoint 41">
       <r>   -2.4572    1.0000 </r>
       <r>    1.0452    1.0000 </r>
       <r>    3.0297    1.0000 </r>
       <r>    4.9487    1.0000 </r>
       <r>   10.8230    0.0000 </r>
       <r>   11.5022    0.0000 </r>
       <r>   12.9207    0.0000 </r>
       <r>   15.1344    0.0000 </r>
      </set>
      <set comment="kpoint 42">
       <r>   -1.8414    1.0000 </r>
       <r>    0.2638    1.0000 </r>
       <r>    3.0887    1.0000 </r>
       <r>    4.5535    1.0000 </r>
       <r>   10.2886    0.0000 </r>
       <r>   11.8399    0.0000 </r>
       <r>   13.7446    0.0000 </r>
       <r>   15.3891    0.0000 </r>
      </set>
      <set comment="kpoint 43">
       <r>   -2.8124    1.0000 </r>
       <r>    1.5329    1.0000 </r>
       <r>    3.5449    1.0000 </r>
       <r>    4.7805    1.0000 </r>
       <r>   10.0318    0.0000 </r>
       <r>   11.2128    0.0000 </r>
       <r>   12.6872    0.0000 </r>
       <r>   15.3687    0.0000 </r>
      </set>
      <set comment="kpoint 44">
       <r>   -2.9449    1.0000 </r>
       <r>    1.5512    1.0000 </r>
       <r>    3.9810    1.0000 </r>
       <r>    5.0114    1.0000 </r>
       <r>    8.8488    0.0000 </r>
       <r>   11.0957    0.0000 </r>
       <r>   14.1303    0.0000 </r>
       <r>   14.2915    0.0000 </r>
      </set>
      <set comment="kpoint 45">
       <r>   -1.9886    1.0000 </r>
       <r>    0.7435    1.0000 </r>
       <r>    3.2150    1.0000 </r>
       <r>    4.1146    1.0000 </r>
       <r>    9.7603    0.0000 </r>
       <r>   10.8408    0.0000 </r>
       <r>   13.6051    0.0000 </r>
       <r>   16.7224    0.0000 </r>
      </set>
      <set comment="kpoint 46">
       <r>   -0.9987    1.0000 </r>
       <r>   -0.1054    1.0000 </r>
       <r>    2.7801    1.0000 </r>
       <r>    3.4868    1.0000 </r>
       <r>   10.9851    0.0000 </r>
       <r>   11.9379    0.0000 </r>
       <r>   13.1656    0.0000 </r>
       <r>   14.1907    0.0000 </r>
      </set>
      <set comment="kpoint 47">
       <r>   -1.7188    1.0000 </r>
       <r>    0.4774    1.0000 </r>
       <r>    2.8186    1.0000 </r>
       <r>    4.0708    1.0000 </r>
       <r>   11.0549    0.0000 </r>
       <r>   11.6496    0.0000 </r>
       <r>   12.7218    0.0000 </r>
       <r>   15.3936    0.0000 </r>
      </set>
      <set comment="kpoint 48">
       <r>   -1.2184    1.0000 </r>
       <r>   -0.1210    1.0000 </r>
       <r>    2.9162    1.0000 </r>
       <r>    4.6157    1.0000 </r>
       <r>    8.3053    0.0000 </r>
       <r>   10.5271    0.0000 </r>
       <r>   16.2748    0.0000 </r>
       <r>   16.8338    0.0000 </r>
      </set>
      <set comment="kpoint 49">
       <r>   -1.1016    1.0000 </r>
       <r>   -0.1225    1.0000 </r>
       <r>    3.0306    1.0000 </r>
       <r>    3.7816    1.0000 </r>
       <r>    9.6194    0.0000 </r>
       <r>   10.6517    0.0000 </r>
       <r>   14.6889    0.0000 </r>
       <r>   15.9092    0.0000 </r>
      </set>
      <set comment="kpoint 50">
       <r>   -2.1081    1.0000 </r>
       <r>    0.7560    1.0000 </r>
       <r>    3.2730    1.0000 </r>
       <r>    4.7488    1.0000 </r>
       <r>    8.4902    0.0000 </r>
       <r>   10.7133    0.0000 </r>
       <r>   15.1470    0.0000 </r>
       <r>   15.5707    0.0000 </r>
      </set>
      <set comment="kpoint 51">
       <r>   -4.1351    1.0000 </r>
       <r>    2.1165    1.0000 </r>
       <r>    6.5500    1.0000 </r>
       <r>    6.5500    1.0000 </r>
       <r>   10.0067    0.0000 </r>
       <r>   11.1699    0.0000 </r>
       <r>   11.1699    0.0000 </r>
       <r>   15.5502    0.0000 </r>
      </set>
      <set comment="kpoint 52">
       <r>   -3.5638    1.0000 </r>
       <r>    1.4975    1.0000 </r>
       <r>    4.8619    1.0000 </r>
       <r>    6.4592    1.0000 </r>
       <r>   10.5059    0.0000 </r>
       <r>   11.4542    0.0000 </r>
       <r>   11.5493    0.0000 </r>
       <r>   14.8920    0.0000 </r>
      </set>
      <set comment="kpoint 53">
       <r>   -2.6149    1.0000 </r>
       <r>    1.0666    1.0000 </r>
       <r>    2.9398    1.0000 </r>
       <r>    5.7489    1.0000 </r>
       <r>    9.6666    0.0000 </r>
       <r>   13.1564    0.0000 </r>
       <r>   13.4587    0.0000 </r>
       <r>   14.6957    0.0000 </r>
      </set>
      <set comment="kpoint 54">
       <r>   -1.6078    1.0000 </r>
       <r>    0.2247    1.0000 </r>
       <r>    2.4692    1.0000 </r>
       <r>    5.0945    1.0000 </r>
       <r>    8.8750    0.0000 </r>
       <r>   13.1717    0.0000 </r>
       <r>   14.5892    0.0000 </r>
       <r>   15.4108    0.0000 </r>
      </set>
      <set comment="kpoint 55">
       <r>   -3.1787    1.0000 </r>
       <r>    0.8321    1.0000 </r>
       <r>    5.3206    1.0000 </r>
       <r>    5.7649    1.0000 </r>
       <r>    9.8874    0.0000 </r>
       <r>   11.5352    0.0000 </r>
       <r>   11.9769    0.0000 </r>
       <r>   14.3653    0.0000 </r>
      </set>
      <set comment="kpoint 56">
       <r>   -2.4290    1.0000 </r>
       <r>    0.5087    1.0000 </r>
       <r>    3.7222    1.0000 </r>
       <r>    5.1512    1.0000 </r>
       <r>   10.5634    0.0000 </r>
       <r>   11.0991    0.0000 </r>
       <r>   13.8473    0.0000 </r>
       <r>   14.2864    0.0000 </r>
      </set>
      <set comment="kpoint 57">
       <r>   -1.4510    1.0000 </r>
       <r>    0.1944    1.0000 </r>
       <r>    2.5758    1.0000 </r>
       <r>    4.2745    1.0000 </r>
       <r>   10.1415    0.0000 </r>
       <r>   12.6242    0.0000 </r>
       <r>   13.7126    0.0000 </r>
       <r>   14.4185    0.0000 </r>
      </set>
      <set comment="kpoint 58">
       <r>   -1.9855    1.0000 </r>
       <r>    0.2250    1.0000 </r>
       <r>    3.1887    1.0000 </r>
       <r>    5.2124    1.0000 </r>
       <r>    9.0583    0.0000 </r>
       <r>   13.1290    0.0000 </r>
       <r>   13.5764    0.0000 </r>
       <r>   14.4097    0.0000 </r>
      </set>
      <set comment="kpoint 59">
       <r>   -3.0343    1.0000 </r>
       <r>    0.1649    1.0000 </r>
       <r>    6.3121    1.0000 </r>
       <r>    6.3121    1.0000 </r>
       <r>    9.7785    0.0000 </r>
       <r>   10.8888    0.0000 </r>
       <r>   10.8888    0.0000 </r>
       <r>   15.5963    0.0000 </r>
      </set>
      <set comment="kpoint 60">
       <r>   -2.5977    1.0000 </r>
       <r>   -0.0228    1.0000 </r>
       <r>    4.9305    1.0000 </r>
       <r>    5.9755    1.0000 </r>
       <r>   10.0405    0.0000 </r>
       <r>   11.4169    0.0000 </r>
       <r>   11.5732    0.0000 </r>
       <r>   16.3932    0.0000 </r>
      </set>
     </set>
    </set>
   </array>
  </eigenvalues>
  <separator name="orbital magnetization" >
   <v name="MAGDIPOLOUT">      0.00000000      0.00000000      0.00000000</v>
  </separator>
  <dos>
   <i name="efermi">      7.73903011 </i>
   <total>
    <array>
     <dimension dim="1">gridpoints</dimension>
     <dimension dim="2">spin</dimension>
     <field>energy</field>
     <field>total</field>
     <field>integrated</field>
     <set>
      <set comment="spin 1">
       <r>    -7.4942     0.0000     0.0000 </r>
       <r>    -7.4017     0.0000     0.0000 </r>
       <r>    -7.3093     0.0000     0.0000 </r>
       <r>    -7.2169     0.0000     0.0000 </r>
       <r>    -7.1245     0.0000     0.0000 </r>
       <r>    -7.0321     0.0000     0.0000 </r>
       <r>    -6.9396     0.0000     0.0000 </r>
       <r>    -6.8472     0.0000     0.0000 </r>
       <r>    -6.7548     0.0000     0.0000 </r>
       <r>    -6.6624     0.0000     0.0000 </r>
       <r>    -6.5699     0.0000     0.0000 </r>
       <r>    -6.4775     0.0000     0.0000 </r>
       <r>    -6.3851     0.0000     0.0000 </r>
       <r>    -6.2927     0.0000     0.0000 </r>
       <r>    -6.2003     0.0000     0.0000 </r>
       <r>    -6.1078     0.0000     0.0000 </r>
       <r>    -6.0154     0.0000     0.0000 </r>
       <r>    -5.9230     0.0001     0.0000 </r>
       <r>    -5.8306     0.0007     0.0001 </r>
       <r>    -5.7382     0.0034     0.0004 </r>
       <r>    -5.6457     0.0117     0.0015 </r>
       <r>    -5.5533     0.0300     0.0042 </r>
       <r>    -5.4609     0.0594     0.0097 </r>
       <r>    -5.3685     0.0948     0.0185 </r>
       <r>    -5.2761     0.1271     0.0302 </r>
       <r>    -5.1836     0.1526     0.0443 </r>
       <r>    -5.0912     0.1769     0.0607 </r>
       <r>    -4.9988     0.2048     0.0796 </r>
       <r>    -4.9064     0.2292     0.1008 </r>
       <r>    -4.8140     0.2382     0.1228 </r>
       <r>    -4.7215     0.2380     0.1448 </r>
       <r>    -4.6291     0.2536     0.1682 </r>
       <r>    -4.5367     0.2939     0.1954 </r>
       <r>    -4.4443     0.3314     0.2260 </r>
       <r>    -4.3519     0.3348     0.2570 </r>
       <r>    -4.2594     0.3149     0.2861 </r>
       <r>    -4.1670     0.3131     0.3150 </r>
       <r>    -4.0746     0.3425     0.3467 </r>
       <r>    -3.9822     0.3767     0.3815 </r>
       <r>    -3.8898     0.3978     0.4182 </r>
       <r>    -3.7973     0.4164     0.4567 </r>
       <r>    -3.7049     0.4411     0.4975 </r>
       <r>    -3.6125     0.4586     0.5399 </r>
       <r>    -3.5201     0.4549     0.5819 </r>
       <r>    -3.4277     0.4325     0.6219 </r>
       <r>    -3.3352     0.4155     0.6603 </r>
       <r>    -3.2428     0.4463     0.7015 </r>
       <r>    -3.1504     0.5372     0.7512 </r>
       <r>    -3.0580     0.6308     0.8095 </r>
       <r>    -2.9655     0.6653     0.8710 </r>
       <r>    -2.8731     0.6537     0.9314 </r>
       <r>    -2.7807     0.6423     0.9907 </r>
       <r>    -2.6883     0.6482     1.0507 </r>
       <r>    -2.5959     0.6704     1.1126 </r>
       <r>    -2.5034     0.6928     1.1766 </r>
       <r>    -2.4110     0.6760     1.2391 </r>
       <r>    -2.3186     0.6181     1.2963 </r>
       <r>    -2.2262     0.5914     1.3509 </r>
       <r>    -2.1338     0.6446     1.4105 </r>
       <r>    -2.0413     0.7208     1.4771 </r>
       <r>    -1.9489     0.7234     1.5440 </r>
       <r>    -1.8565     0.6252     1.6017 </r>
       <r>    -1.7641     0.4866     1.6467 </r>
       <r>    -1.6717     0.3732     1.6812 </r>
       <r>    -1.5792     0.3090     1.7098 </r>
       <r>    -1.4868     0.3035     1.7378 </r>
       <r>    -1.3944     0.3633     1.7714 </r>
       <r>    -1.3020     0.4633     1.8142 </r>
       <r>    -1.2096     0.5361     1.8638 </r>
       <r>    -1.1171     0.5219     1.9120 </r>
       <r>    -1.0247     0.4242     1.9512 </r>
       <r>    -0.9323     0.2870     1.9777 </r>
       <r>    -0.8399     0.1553     1.9921 </r>
       <r>    -0.7475     0.0632     1.9979 </r>
       <r>    -0.6550     0.0187     1.9996 </r>
       <r>    -0.5626     0.0070     2.0003 </r>
       <r>    -0.4702     0.0212     2.0023 </r>
       <r>    -0.3778     0.0881     2.0104 </r>
       <r>    -0.2854     0.2572     2.0342 </r>
       <r>    -0.1929     0.5241     2.0826 </r>
       <r>    -0.1005     0.7692     2.1537 </r>
       <r>    -0.0081     0.8724     2.2343 </r>
       <r>     0.0843     0.8761     2.3153 </r>
       <r>     0.1767     0.8930     2.3978 </r>
       <r>     0.2692     0.9197     2.4828 </r>
       <r>     0.3616     0.9027     2.5662 </r>
       <r>     0.4540     0.8621     2.6459 </r>
       <r>     0.5464     0.8094     2.7207 </r>
       <r>     0.6389     0.7298     2.7882 </r>
       <r>     0.7313     0.6717     2.8503 </r>
       <r>     0.8237     0.6881     2.9139 </r>
       <r>     0.9161     0.7425     2.9825 </r>
       <r>     1.0085     0.7324     3.0502 </r>
       <r>     1.1010     0.5903     3.1047 </r>
       <r>     1.1934     0.3768     3.1395 </r>
       <r>     1.2858     0.2376     3.1615 </r>
       <r>     1.3782     0.2610     3.1856 </r>
       <r>     1.4706     0.4051     3.2231 </r>
       <r>     1.5631     0.5267     3.2717 </r>
       <r>     1.6555     0.5018     3.3181 </r>
       <r>     1.7479     0.3582     3.3512 </r>
       <r>     1.8403     0.2322     3.3727 </r>
       <r>     1.9327     0.2020     3.3914 </r>
       <r>     2.0252     0.2520     3.4146 </r>
       <r>     2.1176     0.3538     3.4473 </r>
       <r>     2.2100     0.4647     3.4903 </r>
       <r>     2.3024     0.5069     3.5371 </r>
       <r>     2.3948     0.4723     3.5808 </r>
       <r>     2.4873     0.4593     3.6232 </r>
       <r>     2.5797     0.5212     3.6714 </r>
       <r>     2.6721     0.6101     3.7278 </r>
       <r>     2.7645     0.7079     3.7932 </r>
       <r>     2.8569     0.8569     3.8724 </r>
       <r>     2.9494     1.0368     3.9682 </r>
       <r>     3.0418     1.1315     4.0728 </r>
       <r>     3.1342     1.0588     4.1707 </r>
       <r>     3.2266     0.8891     4.2528 </r>
       <r>     3.3190     0.7771     4.3247 </r>
       <r>     3.4115     0.7859     4.3973 </r>
       <r>     3.5039     0.8393     4.4749 </r>
       <r>     3.5963     0.8697     4.5552 </r>
       <r>     3.6887     0.9130     4.6396 </r>
       <r>     3.7811     0.9837     4.7305 </r>
       <r>     3.8736     1.0264     4.8254 </r>
       <r>     3.9660     1.0404     4.9216 </r>
       <r>     4.0584     1.0679     5.0203 </r>
       <r>     4.1508     1.0954     5.1215 </r>
       <r>     4.2433     1.0967     5.2229 </r>
       <r>     4.3357     1.0995     5.3245 </r>
       <r>     4.4281     1.1577     5.4315 </r>
       <r>     4.5205     1.2824     5.5500 </r>
       <r>     4.6129     1.3972     5.6791 </r>
       <r>     4.7054     1.4016     5.8087 </r>
       <r>     4.7978     1.2789     5.9268 </r>
       <r>     4.8902     1.1143     6.0298 </r>
       <r>     4.9826     1.0315     6.1252 </r>
       <r>     5.0750     1.0887     6.2258 </r>
       <r>     5.1675     1.2156     6.3381 </r>
       <r>     5.2599     1.2826     6.4567 </r>
       <r>     5.3523     1.2277     6.5701 </r>
       <r>     5.4447     1.0866     6.6705 </r>
       <r>     5.5371     0.9472     6.7581 </r>
       <r>     5.6296     0.9076     6.8420 </r>
       <r>     5.7220     0.9975     6.9342 </r>
       <r>     5.8144     1.1314     7.0387 </r>
       <r>     5.9068     1.1797     7.1478 </r>
       <r>     5.9992     1.0790     7.2475 </r>
       <r>     6.0917     0.8968     7.3304 </r>
       <r>     6.1841     0.7628     7.4009 </r>
       <r>     6.2765     0.7371     7.4690 </r>
       <r>     6.3689     0.7888     7.5419 </r>
       <r>     6.4613     0.8326     7.6188 </r>
       <r>     6.5538     0.7665     7.6897 </r>
       <r>     6.6462     0.5777     7.7431 </r>
       <r>     6.7386     0.3851     7.7787 </r>
       <r>     6.8310     0.3071     7.8070 </r>
       <r>     6.9234     0.3417     7.8386 </r>
       <r>     7.0159     0.3916     7.8748 </r>
       <r>     7.1083     0.3691     7.9089 </r>
       <r>     7.2007     0.2830     7.9351 </r>
       <r>     7.2931     0.2032     7.9539 </r>
       <r>     7.3855     0.1617     7.9688 </r>
       <r>     7.4780     0.1367     7.9814 </r>
       <r>     7.5704     0.1034     7.9910 </r>
       <r>     7.6628     0.0639     7.9969 </r>
       <r>     7.7552     0.0403     8.0006 </r>
       <r>     7.8477     0.0511     8.0053 </r>
       <r>     7.9401     0.0943     8.0141 </r>
       <r>     8.0325     0.1439     8.0274 </r>
       <r>     8.1249     0.1779     8.0438 </r>
       <r>     8.2173     0.2086     8.0631 </r>
       <r>     8.3098     0.2605     8.0872 </r>
       <r>     8.4022     0.3360     8.1182 </r>
       <r>     8.4946     0.4134     8.1564 </r>
       <r>     8.5870     0.4598     8.1989 </r>
       <r>     8.6794     0.4673     8.2421 </r>
       <r>     8.7719     0.4788     8.2863 </r>
       <r>     8.8643     0.5290     8.3352 </r>
       <r>     8.9567     0.5794     8.3888 </r>
       <r>     9.0491     0.5742     8.4418 </r>
       <r>     9.1415     0.5353     8.4913 </r>
       <r>     9.2340     0.5396     8.5412 </r>
       <r>     9.3264     0.6169     8.5982 </r>
       <r>     9.4188     0.7207     8.6648 </r>
       <r>     9.5112     0.8169     8.7403 </r>
       <r>     9.6036     0.9157     8.8249 </r>
       <r>     9.6961     0.9958     8.9170 </r>
       <r>     9.7885     1.0178     9.0110 </r>
       <r>     9.8809     1.0162     9.1050 </r>
       <r>     9.9733     1.0724     9.2041 </r>
       <r>    10.0657     1.1784     9.3130 </r>
       <r>    10.1582     1.2364     9.4273 </r>
       <r>    10.2506     1.2358     9.5415 </r>
       <r>    10.3430     1.2735     9.6592 </r>
       <r>    10.4354     1.3622     9.7851 </r>
       <r>    10.5278     1.3983     9.9143 </r>
       <r>    10.6203     1.3473    10.0388 </r>
       <r>    10.7127     1.3052    10.1594 </r>
       <r>    10.8051     1.3551    10.2847 </r>
       <r>    10.8975     1.4938    10.4227 </r>
       <r>    10.9899     1.6792    10.5779 </r>
       <r>    11.0824     1.8093    10.7451 </r>
       <r>    11.1748     1.7397    10.9059 </r>
       <r>    11.2672     1.4781    11.0425 </r>
       <r>    11.3596     1.2286    11.1561 </r>
       <r>    11.4521     1.1522    11.2626 </r>
       <r>    11.5445     1.2142    11.3748 </r>
       <r>    11.6369     1.3104    11.4959 </r>
       <r>    11.7293     1.4102    11.6262 </r>
       <r>    11.8217     1.5035    11.7652 </r>
       <r>    11.9142     1.5249    11.9061 </r>
       <r>    12.0066     1.4186    12.0372 </r>
       <r>    12.0990     1.2135    12.1494 </r>
       <r>    12.1914     0.9814    12.2401 </r>
       <r>    12.2838     0.7761    12.3118 </r>
       <r>    12.3763     0.6497    12.3718 </r>
       <r>    12.4687     0.6690    12.4337 </r>
       <r>    12.5611     0.8520    12.5124 </r>
       <r>    12.6535     1.0968    12.6138 </r>
       <r>    12.7459     1.2514    12.7295 </r>
       <r>    12.8384     1.2890    12.8486 </r>
       <r>    12.9308     1.3033    12.9690 </r>
       <r>    13.0232     1.3308    13.0920 </r>
       <r>    13.1156     1.3093    13.2130 </r>
       <r>    13.2080     1.1655    13.3208 </r>
       <r>    13.3005     0.9093    13.4048 </r>
       <r>    13.3929     0.6828    13.4679 </r>
       <r>    13.4853     0.6506    13.5280 </r>
       <r>    13.5777     0.8446    13.6061 </r>
       <r>    13.6701     1.1169    13.7093 </r>
       <r>    13.7626     1.2340    13.8234 </r>
       <r>    13.8550     1.1011    13.9251 </r>
       <r>    13.9474     0.8712    14.0056 </r>
       <r>    14.0398     0.7792    14.0777 </r>
       <r>    14.1322     0.9146    14.1622 </r>
       <r>    14.2247     1.1494    14.2684 </r>
       <r>    14.3171     1.2692    14.3857 </r>
       <r>    14.4095     1.1791    14.4947 </r>
       <r>    14.5019     0.9649    14.5839 </r>
       <r>    14.5943     0.7837    14.6563 </r>
       <r>    14.6868     0.7023    14.7212 </r>
       <r>    14.7792     0.6453    14.7808 </r>
       <r>    14.8716     0.5329    14.8301 </r>
       <r>    14.9640     0.4054    14.8675 </r>
       <r>    15.0565     0.3627    14.9011 </r>
       <r>    15.1489     0.4575    14.9433 </r>
       <r>    15.2413     0.6763    15.0059 </r>
       <r>    15.3337     0.9501    15.0937 </r>
       <r>    15.4261     1.1438    15.1994 </r>
       <r>    15.5186     1.1283    15.3037 </r>
       <r>    15.6110     0.9228    15.3889 </r>
       <r>    15.7034     0.6866    15.4524 </r>
       <r>    15.7958     0.5470    15.5029 </r>
       <r>    15.8882     0.4953    15.5487 </r>
       <r>    15.9807     0.4445    15.5898 </r>
       <r>    16.0731     0.3486    15.6220 </r>
       <r>    16.1655     0.2459    15.6447 </r>
       <r>    16.2579     0.1969    15.6629 </r>
       <r>    16.3503     0.2105    15.6824 </r>
       <r>    16.4428     0.2437    15.7049 </r>
       <r>    16.5352     0.2644    15.7293 </r>
       <r>    16.6276     0.2965    15.7567 </r>
       <r>    16.7200     0.3681    15.7908 </r>
       <r>    16.8124     0.4271    15.8302 </r>
       <r>    16.9049     0.3893    15.8662 </r>
       <r>    16.9973     0.2590    15.8902 </r>
       <r>    17.0897     0.1225    15.9015 </r>
       <r>    17.1821     0.0406    15.9052 </r>
       <r>    17.2745     0.0095    15.9061 </r>
       <r>    17.3670     0.0030    15.9064 </r>
       <r>    17.4594     0.0088    15.9072 </r>
       <r>    17.5518     0.0315    15.9101 </r>
       <r>    17.6442     0.0762    15.9172 </r>
       <r>    17.7366     0.1245    15.9287 </r>
       <r>    17.8291     0.1430    15.9419 </r>
       <r>    17.9215     0.1296    15.9539 </r>
       <r>    18.0139     0.1131    15.9643 </r>
       <r>    18.1063     0.1070    15.9742 </r>
       <r>    18.1987     0.1014    15.9836 </r>
       <r>    18.2912     0.0847    15.9914 </r>
       <r>    18.3836     0.0556    15.9966 </r>
       <r>    18.4760     0.0265    15.9990 </r>
       <r>    18.5684     0.0087    15.9998 </r>
       <r>    18.6609     0.0019    16.0000 </r>
       <r>    18.7533     0.0003    16.0000 </r>
       <r>    18.8457     0.0000    16.0000 </r>
       <r>    18.9381     0.0000    16.0000 </r>
       <r>    19.0305     0.0000    16.0000 </r>
       <r>    19.1230     0.0000    16.0000 </r>
       <r>    19.2154     0.0000    16.0000 </r>
       <r>    19.3078     0.0000    16.0000 </r>
       <r>    19.4002     0.0000    16.0000 </r>
       <r>    19.4926     0.0000    16.0000 </r>
       <r>    19.5851     0.0000    16.0000 </r>
       <r>    19.6775     0.0000    16.0000 </r>
       <r>    19.7699     0.0000    16.0000 </r>
       <r>    19.8623     0.0000    16.0000 </r>
       <r>    19.9547     0.0000    16.0000 </r>
       <r>    20.0472     0.0000    16.0000 </r>
       <r>    20.1396     0.0000    16.0000 </r>
       <r>    20.2320     0.0000    16.0000 </r>
      </set>
     </set>
    </array>
   </total>
  </dos>
 </calculation>
 <structure name="finalpos" >
  <crystal>
   <varray name="basis" >
    <v>       0.00000000       2.57024100       2.57024100 </v>
    <v>       2.57024100       0.00000000       2.57024100 </v>
    <v>       2.57024100       2.57024100       0.00000000 </v>
   </varray>
   <i name="volume">     33.95873758 </i>
   <varray name="rec_basis" >
    <v>      -0.19453429       0.19453429       0.19453429 </v>
    <v>       0.19453429      -0.19453429       0.19453429 </v>
    <v>       0.19453429       0.19453429      -0.19453429 </v>
   </varray>
  </crystal>
  <varray name="positions" >
   <v>       0.00000000       0.00000000       0.00000000 </v>
   <v>       0.25000000       0.25000000       0.25000000 </v>
  </varray>
 </structure>
</modeling>
