unknown system                          
   1.00000000000000     
    -2.450000    2.450000    1.274000
     2.450000   -2.450000    1.274000
     2.450000    2.450000   -1.274000
   Si
     2
Direct
  0.250000  0.750000  0.500000
  0.000000  0.000000  0.000000
 
   28   28   28
 -.55747580783E+01 -.40419156659E+01 -.47814076551E-01 0.48967227323E+01 0.91017430617E+01
 0.11435920004E+02 0.11698522998E+02 0.10500532682E+02 0.87936022462E+01 0.71758447536E+01
 0.58250258651E+01 0.48010852385E+01 0.41002907508E+01 0.36958206520E+01 0.35639483945E+01
 0.36958147122E+01 0.41002999845E+01 0.48011093383E+01 0.58250398302E+01 0.71758409481E+01
 0.87935990450E+01 0.10500538353E+02 0.11698526158E+02 0.11435918152E+02 0.91017459621E+01
 0.48967258135E+01 -.47825255252E-01 -.40419331801E+01 -.40419331801E+01 -.48345056150E+01
 -.26852095206E+01 0.15530153391E+01 0.62904189003E+01 0.99558522748E+01 0.11657710794E+02
 0.11429119093E+02 0.10006485761E+02 0.83012207694E+01 0.67516669004E+01 0.54924317967E+01
 0.45622663051E+01 0.39481724457E+01 0.36223369907E+01 0.35639588284E+01 0.37681216708E+01
 0.42472629668E+01 0.50268268273E+01 0.61308002380E+01 0.75521352499E+01 0.92105786327E+01
 0.10879465952E+02 0.11846853463E+02 0.11199132741E+02 0.84854697833E+01 0.41184527417E+01
 -.61801743446E+00 -.47825255252E-01 -.26852208417E+01 -.27483391155E+01 -.22003531425E+00
 0.38818708202E+01 0.80149977078E+01 0.10838109324E+02 0.11752799146E+02 0.11013523736E+02
 0.94256506537E+01 0.77622322285E+01 0.63048425593E+01 0.51523621080E+01 0.43237558258E+01
 0.37991548986E+01 0.35515856819E+01 0.35639879687E+01 0.38353201360E+01 0.43807978048E+01
 0.52262014382E+01 0.63911245657E+01 0.78573287909E+01 0.95274325088E+01 0.11131962344E+02
 0.11913053694E+02 0.11050169973E+02 0.82611868343E+01 0.41184527417E+01 0.48967258135E+01
 0.15530099235E+01 -.22003638508E+00 0.31161270471E+00 0.29156769249E+01 0.65158394065E+01
 0.97350617284E+01 0.11539640927E+02 0.11636330220E+02 0.10456522533E+02 0.87977359135E+01
 0.72071690764E+01 0.58604572120E+01 0.48232852196E+01 0.40980488676E+01 0.36608575708E+01
 0.34871688266E+01 0.35640272774E+01 0.38937731629E+01 0.44933101639E+01 0.53872854092E+01
 0.65897735259E+01 0.80722231507E+01 0.97253523172E+01 0.11257185986E+02 0.11930745908E+02
 0.11050169973E+02 0.84854697833E+01 0.91017459621E+01 0.62904175540E+01 0.38818728210E+01
 0.29156866397E+01 0.38221578550E+01 0.61956946919E+01 0.90105474499E+01 0.11145171413E+02
 0.11906684706E+02 0.11277959651E+02 0.97999732033E+01 0.81577223429E+01 0.66658353922E+01
 0.54414693311E+01 0.45214234769E+01 0.38958698154E+01 0.35397636550E+01 0.34321500647E+01
 0.35640666349E+01 0.39403902557E+01 0.45784395155E+01 0.55003675043E+01 0.67142201161E+01
 0.81831944588E+01 0.97926450904E+01 0.11257185986E+02 0.11913053694E+02 0.11199132741E+02
 0.11435918152E+02 0.99558480658E+01 0.80149919281E+01 0.65158479834E+01 0.61957120729E+01
 0.72273202737E+01 0.91227341576E+01 0.10998824317E+02 0.12038761713E+02 0.11877754624E+02
 0.10713123202E+02 0.91132291723E+01 0.75394210031E+01 0.61651644584E+01 0.50672729318E+01
 0.42598883771E+01 0.37256835161E+01 0.34409538833E+01 0.33889301330E+01 0.35640981234E+01
 0.39727931332E+01 0.46314500788E+01 0.55586508865E+01 0.67565952977E+01 0.81831944588E+01
 0.97253523172E+01 0.11131962344E+02 0.11846853463E+02 0.11698526158E+02 0.11657713631E+02
 0.10838099450E+02 0.97350531828E+01 0.90105595997E+01 0.91227536206E+01 0.10057373086E+02
 0.11331131188E+02 0.12263847116E+02 0.12347638002E+02 0.11494268521E+02 0.10034994781E+02
 0.84480623441E+01 0.69742560703E+01 0.57277590166E+01 0.47529845555E+01 0.40484004457E+01
 0.35936097747E+01 0.33680766058E+01 0.33592250026E+01 0.35641176724E+01 0.39893904175E+01
 0.46494444326E+01 0.55586508865E+01 0.67142201161E+01 0.80722231507E+01 0.95274325088E+01
 0.10879465952E+02 0.10500538353E+02 0.11429135517E+02 0.11752806137E+02 0.11539629084E+02
 0.11145162776E+02 0.10998835996E+02 0.11331146774E+02 0.12018641918E+02 0.12650028729E+02
 0.12770003135E+02 0.12143957501E+02 0.10883503533E+02 0.93555205758E+01 0.78429628486E+01
 0.64894303958E+01 0.53712531360E+01 0.45094422437E+01 0.38935268012E+01 0.35036643224E+01
 0.33234932341E+01 0.33441146897E+01 0.35641242020E+01 0.39893904175E+01 0.46314500788E+01
 0.55003675043E+01 0.65897735259E+01 0.78573287909E+01 0.92105786327E+01 0.87935990450E+01
 0.10006498632E+02 0.11013547707E+02 0.11636339957E+02 0.11906675382E+02 0.12038755624E+02
 0.12263854758E+02 0.12650036287E+02 0.13033951752E+02 0.13114810672E+02 0.12647697833E+02
 0.11607686869E+02 0.10216818007E+02 0.87379288835E+01 0.73328039029E+01 0.61068849151E+01
 0.51083925805E+01 0.43437317110E+01 0.37992490291E+01 0.34581718956E+01 0.33084963438E+01
 0.33441146897E+01 0.35641176724E+01 0.39727931332E+01 0.45784395155E+01 0.53872854092E+01
 0.63911245657E+01 0.75521352499E+01 0.71758409481E+01 0.83012172181E+01 0.94256654070E+01
 0.10456546455E+02 0.11277970260E+02 0.11877751259E+02 0.12347636076E+02 0.12770004969E+02
 0.13114809251E+02 0.13228736275E+02 0.12929680436E+02 0.12141108435E+02 0.10969735725E+02
 0.96121173876E+01 0.82286708369E+01 0.69465951369E+01 0.58429351237E+01 0.49475644358E+01
 0.42599567497E+01 0.37676162952E+01 0.34581718956E+01 0.33234932341E+01 0.33592250026E+01
 0.35640981234E+01 0.39403902557E+01 0.44933101639E+01 0.52262014382E+01 0.61308002380E+01
 0.58250398302E+01 0.67516642397E+01 0.77622289724E+01 0.87977470763E+01 0.97999903841E+01
 0.10713132736E+02 0.11494272061E+02 0.12143959796E+02 0.12647694427E+02 0.12929672295E+02
 0.12872824898E+02 0.12396719275E+02 0.11533540430E+02 0.10399061049E+02 0.91313533487E+01
 0.78662181819E+01 0.67059720325E+01 0.57083081795E+01 0.48934554735E+01 0.42599567497E+01
 0.37992490291E+01 0.35036643224E+01 0.33680766058E+01 0.33889301330E+01 0.35640666349E+01
 0.38937731629E+01 0.43807978048E+01 0.50268268273E+01 0.48011093383E+01 0.54924472633E+01
 0.63048428822E+01 0.72071666407E+01 0.81577264570E+01 0.91132360604E+01 0.10035001508E+02
 0.10883512031E+02 0.11607692024E+02 0.12141102216E+02 0.12396708525E+02 0.12297823293E+02
 0.11823069200E+02 0.11015442642E+02 0.99736635444E+01 0.88224557368E+01 0.76779063350E+01
 0.66242640918E+01 0.57083081795E+01 0.49475644358E+01 0.43437317110E+01 0.38935268012E+01
 0.35936097747E+01 0.34409538833E+01 0.34321500647E+01 0.35640272774E+01 0.38353201360E+01
 0.42472629668E+01 0.41002999845E+01 0.45622843310E+01 0.51523757486E+01 0.58604611217E+01
 0.66658341249E+01 0.75394179302E+01 0.84480593437E+01 0.93555231860E+01 0.10216827514E+02
 0.10969741677E+02 0.11533534398E+02 0.11823059741E+02 0.11775572078E+02 0.11376697810E+02
 0.10670387843E+02 0.97469581693E+01 0.87159939660E+01 0.76779063350E+01 0.67059720325E+01
 0.58429351237E+01 0.51083925805E+01 0.45094422437E+01 0.40484004457E+01 0.37256835161E+01
 0.35397636550E+01 0.34871688266E+01 0.35639879687E+01 0.37681216708E+01 0.36958147122E+01
 0.39481719252E+01 0.43237629525E+01 0.48232946434E+01 0.54414757434E+01 0.61651645622E+01
 0.69742488291E+01 0.78429534689E+01 0.87379266686E+01 0.96121237762E+01 0.10399066000E+02
 0.11015438900E+02 0.11376691550E+02 0.11421529043E+02 0.11133704324E+02 0.10549506993E+02
 0.97469581693E+01 0.88224557368E+01 0.78662181819E+01 0.69465951369E+01 0.61068849151E+01
 0.53712531360E+01 0.47529845555E+01 0.42598883771E+01 0.38958698154E+01 0.36608575708E+01
 0.35515856819E+01 0.35639588284E+01 0.35639483945E+01 0.36223278279E+01 0.37991444948E+01
 0.40980450825E+01 0.45214274693E+01 0.50672793531E+01 0.57277605890E+01 0.64894235830E+01
 0.73327927324E+01 0.82286638629E+01 0.91313542412E+01 0.99736667272E+01 0.10670386666E+02
 0.11133700560E+02 0.11296537813E+02 0.11133704324E+02 0.10670387843E+02 0.99736635444E+01
 0.91313533487E+01 0.82286708369E+01 0.73328039029E+01 0.64894303958E+01 0.57277590166E+01
 0.50672729318E+01 0.45214234769E+01 0.40980488676E+01 0.37991548986E+01 0.36223369907E+01
 0.36958206520E+01 0.35639597378E+01 0.35515751672E+01 0.36608417328E+01 0.38958592832E+01
 0.42598867431E+01 0.47529880597E+01 0.53712561646E+01 0.61068824406E+01 0.69465856350E+01
 0.78662073761E+01 0.88224515963E+01 0.97469600561E+01 0.10549506909E+02 0.11133700560E+02
 0.11421529043E+02 0.11376697810E+02 0.11015442642E+02 0.10399061049E+02 0.96121173876E+01
 0.87379288835E+01 0.78429628486E+01 0.69742560703E+01 0.61651644584E+01 0.54414693311E+01
 0.48232852196E+01 0.43237558258E+01 0.39481724457E+01 0.41002907508E+01 0.37681237591E+01
 0.35639889489E+01 0.34871597334E+01 0.35397495447E+01 0.37256722558E+01 0.40483937280E+01
 0.45094407702E+01 0.51083968939E+01 0.58429383351E+01 0.67059651683E+01 0.76778933878E+01
 0.87159878088E+01 0.97469600561E+01 0.10670386666E+02 0.11376691550E+02 0.11775572078E+02
 0.11823069200E+02 0.11533540430E+02 0.10969735725E+02 0.10216818007E+02 0.93555205758E+01
 0.84480623441E+01 0.75394210031E+01 0.66658353922E+01 0.58604572120E+01 0.51523621080E+01
 0.45622663051E+01 0.48010852385E+01 0.42472484854E+01 0.38353187716E+01 0.35640270215E+01
 0.34321451839E+01 0.34409482301E+01 0.35936027854E+01 0.38935160620E+01 0.43437250780E+01
 0.49475696531E+01 0.57083152890E+01 0.66242584334E+01 0.76778933878E+01 0.88224515963E+01
 0.99736667272E+01 0.11015438900E+02 0.11823059741E+02 0.12297823293E+02 0.12396719275E+02
 0.12141108435E+02 0.11607686869E+02 0.10883503533E+02 0.10034994781E+02 0.91132291723E+01
 0.81577223429E+01 0.72071690764E+01 0.63048425593E+01 0.54924317967E+01 0.58250258651E+01
 0.50268048065E+01 0.43807848657E+01 0.38937692656E+01 0.35640639737E+01 0.33889311737E+01
 0.33680826758E+01 0.35036634408E+01 0.37992357096E+01 0.42599468609E+01 0.48934610191E+01
 0.57083152890E+01 0.67059651683E+01 0.78662073761E+01 0.91313542412E+01 0.10399066000E+02
 0.11533534398E+02 0.12396708525E+02 0.12872824898E+02 0.12929680436E+02 0.12647697833E+02
 0.12143957501E+02 0.11494268521E+02 0.10713123202E+02 0.97999732033E+01 0.87977359135E+01
 0.77622322285E+01 0.67516669004E+01 0.71758447536E+01 0.61307912745E+01 0.52261898903E+01
 0.44933048464E+01 0.39403847940E+01 0.35640926104E+01 0.33592317710E+01 0.33235092820E+01
 0.34581752765E+01 0.37676020861E+01 0.42599468609E+01 0.49475696531E+01 0.58429383351E+01
 0.69465856350E+01 0.82286638629E+01 0.96121237762E+01 0.10969741677E+02 0.12141102216E+02
 0.12929672295E+02 0.13228736275E+02 0.13114810672E+02 0.12770003135E+02 0.12347638002E+02
 0.11877754624E+02 0.11277959651E+02 0.10456522533E+02 0.94256506537E+01 0.83012207694E+01
 0.87936022462E+01 0.75521380394E+01 0.63911231584E+01 0.53872895498E+01 0.45784446010E+01
 0.39727868607E+01 0.35641098697E+01 0.33441249707E+01 0.33085162864E+01 0.34581752765E+01
 0.37992357096E+01 0.43437250780E+01 0.51083968939E+01 0.61068824406E+01 0.73327927324E+01
 0.87379266686E+01 0.10216827514E+02 0.11607692024E+02 0.12647694427E+02 0.13114809251E+02
 0.13033951752E+02 0.12650028729E+02 0.12263847116E+02 0.12038761713E+02 0.11906684706E+02
 0.11636330220E+02 0.11013523736E+02 0.10006485761E+02 0.10500532682E+02 0.92105809063E+01
 0.78573290421E+01 0.65897802455E+01 0.55003870653E+01 0.46314639138E+01 0.39893838237E+01
 0.35641155256E+01 0.33441249707E+01 0.33235092820E+01 0.35036634408E+01 0.38935160620E+01
 0.45094407702E+01 0.53712561646E+01 0.64894235830E+01 0.78429534689E+01 0.93555231860E+01
 0.10883512031E+02 0.12143959796E+02 0.12770004969E+02 0.12650036287E+02 0.12018641918E+02
 0.11331131188E+02 0.10998824317E+02 0.11145171413E+02 0.11539640927E+02 0.11752799146E+02
 0.11429119093E+02 0.11698522998E+02 0.10879470531E+02 0.95274335906E+01 0.80722205872E+01
 0.67142330844E+01 0.55586799383E+01 0.46494616614E+01 0.39893838237E+01 0.35641098697E+01
 0.33592317710E+01 0.33680826758E+01 0.35936027854E+01 0.40483937280E+01 0.47529880597E+01
 0.57277605890E+01 0.69742488291E+01 0.84480593437E+01 0.10035001508E+02 0.11494272061E+02
 0.12347636076E+02 0.12263854758E+02 0.11331146774E+02 0.10057373086E+02 0.91227341576E+01
 0.90105474499E+01 0.97350617284E+01 0.10838109324E+02 0.11657710794E+02 0.11435920004E+02
 0.11846865170E+02 0.11131976728E+02 0.97253524064E+01 0.81831900903E+01 0.67566106108E+01
 0.55586799383E+01 0.46314639138E+01 0.39727868607E+01 0.35640926104E+01 0.33889311737E+01
 0.34409482301E+01 0.37256722558E+01 0.42598867431E+01 0.50672793531E+01 0.61651645622E+01
 0.75394179302E+01 0.91132360604E+01 0.10713132736E+02 0.11877751259E+02 0.12038755624E+02
 0.10998835996E+02 0.91227536206E+01 0.72273202737E+01 0.61956946919E+01 0.65158394065E+01
 0.80149977078E+01 0.99558522748E+01 0.91017430617E+01 0.11199138676E+02 0.11913076971E+02
 0.11257206316E+02 0.97926447948E+01 0.81831900903E+01 0.67142330844E+01 0.55003870653E+01
 0.45784446010E+01 0.39403847940E+01 0.35640639737E+01 0.34321451839E+01 0.35397495447E+01
 0.38958592832E+01 0.45214274693E+01 0.54414757434E+01 0.66658341249E+01 0.81577264570E+01
 0.97999903841E+01 0.11277970260E+02 0.11906675382E+02 0.11145162776E+02 0.90105595997E+01
 0.61957120729E+01 0.38221578550E+01 0.29156769249E+01 0.38818708202E+01 0.62904189003E+01
 0.48967227323E+01 0.84854611119E+01 0.11050178290E+02 0.11930773539E+02 0.11257206316E+02
 0.97253524064E+01 0.80722205872E+01 0.65897802455E+01 0.53872895498E+01 0.44933048464E+01
 0.38937692656E+01 0.35640270215E+01 0.34871597334E+01 0.36608417328E+01 0.40980450825E+01
 0.48232946434E+01 0.58604611217E+01 0.72071666407E+01 0.87977470763E+01 0.10456546455E+02
 0.11636339957E+02 0.11539629084E+02 0.97350531828E+01 0.65158479834E+01 0.29156866397E+01
 0.31161270471E+00 -.22003531425E+00 0.15530153391E+01 -.47814076551E-01 0.41184469248E+01
 0.82611759579E+01 0.11050178290E+02 0.11913076971E+02 0.11131976728E+02 0.95274335906E+01
 0.78573290421E+01 0.63911231584E+01 0.52261898903E+01 0.43807848657E+01 0.38353187716E+01
 0.35639889489E+01 0.35515751672E+01 0.37991444948E+01 0.43237629525E+01 0.51523757486E+01
 0.63048428822E+01 0.77622289724E+01 0.94256654070E+01 0.11013547707E+02 0.11752806137E+02
 0.10838099450E+02 0.80149919281E+01 0.38818728210E+01 -.22003638508E+00 -.27483391155E+01
 -.26852095206E+01 -.40419156659E+01 -.61800409110E+00 0.41184469248E+01 0.84854611119E+01
 0.11199138676E+02 0.11846865170E+02 0.10879470531E+02 0.92105809063E+01 0.75521380394E+01
 0.61307912745E+01 0.50268048065E+01 0.42472484854E+01 0.37681237591E+01 0.35639597378E+01
 0.36223278279E+01 0.39481719252E+01 0.45622843310E+01 0.54924472633E+01 0.67516642397E+01
 0.83012172181E+01 0.10006498632E+02 0.11429135517E+02 0.11657713631E+02 0.99558480658E+01
 0.62904175540E+01 0.15530099235E+01 -.26852208417E+01 -.48345056150E+01 -.40418546381E+01
 -.29307638492E+01 0.56125013145E+00 0.50846106557E+01 0.90384113717E+01 0.11287841591E+02
 0.11565269843E+02 0.10402857753E+02 0.87061727025E+01 0.70830769291E+01 0.57171988778E+01
 0.46719428664E+01 0.39456317615E+01 0.35114096886E+01 0.33440412962E+01 0.34325224092E+01
 0.37835531738E+01 0.44194434521E+01 0.53682627688E+01 0.66408699292E+01 0.81936684944E+01
 0.98846924514E+01 0.11242766215E+02 0.11370752132E+02 0.96041649727E+01 0.60000673061E+01
 0.15060412715E+01 -.23324795722E+01 -.29307770594E+01 -.40418630542E+01 -.23324854976E+01
 0.15060230031E+01 0.60000402366E+01 0.96041429860E+01 0.11370731701E+02 0.11242737824E+02
 0.98846677937E+01 0.81936637237E+01 0.66408732460E+01 0.53682517127E+01 0.44194233931E+01
 0.37835456421E+01 0.34325269748E+01 0.33440434076E+01 0.35114148024E+01 0.39456552716E+01
 0.46719750852E+01 0.57172160394E+01 0.70830803075E+01 0.87061833282E+01 0.10402879499E+02
 0.11565290121E+02 0.11287860353E+02 0.90384364297E+01 0.50846318795E+01 0.56125077914E+00
 0.66000371807E+00 -.22272947210E+01 -.26851696034E+01 -.54746852806E+00 0.33036078317E+01
 0.73839630984E+01 0.10316826677E+02 0.11408847131E+02 0.10817864166E+02 0.92967349746E+01
 0.76471707528E+01 0.61867240655E+01 0.50223377335E+01 0.41783285900E+01 0.36366448730E+01
 0.33697409272E+01 0.33591733090E+01 0.36027171519E+01 0.41150907012E+01 0.49230847810E+01
 0.60505634661E+01 0.74889474049E+01 0.91566483105E+01 0.10827237236E+02 0.11809517260E+02
 0.11255104007E+02 0.87854279960E+01 0.48436926494E+01 0.53414061521E+01 0.17900235058E+01
 -.35020048979E+00 -.22001094988E+00 0.20936152368E+01 0.56071087534E+01 0.89416601199E+01
 0.10978991653E+02 0.11311241394E+02 0.10283764415E+02 0.86744998587E+01 0.70948664149E+01
 0.57440672630E+01 0.46967719759E+01 0.39602861840E+01 0.35118493847E+01 0.33260719976E+01
 0.33889133767E+01 0.37022524876E+01 0.42834851025E+01 0.51594348065E+01 0.63494643535E+01
 0.78346150673E+01 0.95186550414E+01 0.11143444877E+02 0.11999470464E+02 0.11338375241E+02
 0.89322337185E+01 0.94618130638E+01 0.64829742548E+01 0.37387332363E+01 0.23595922191E+01
 0.29156838707E+01 0.51227054514E+01 0.79971278718E+01 0.10363956257E+02 0.11416073407E+02
 0.11022733682E+02 0.96629575413E+01 0.80498631626E+01 0.65635618397E+01 0.53340556630E+01
 0.44065973247E+01 0.37751007572E+01 0.34147854657E+01 0.33036788469E+01 0.34321778176E+01
 0.38054777568E+01 0.44423130492E+01 0.53679253299E+01 0.65960652334E+01 0.80983771546E+01
 0.97691118750E+01 0.11340648203E+02 0.12143632878E+02 0.11551030387E+02 0.11847497212E+02
 0.10256576935E+02 0.80382877369E+01 0.61446419851E+01 0.54286301072E+01 0.61956842244E+01
 0.80422529010E+01 0.10079462602E+02 0.11401834574E+02 0.11522675065E+02 0.10544375621E+02
 0.90089921880E+01 0.74515318452E+01 0.60774025990E+01 0.49745519986E+01 0.41639208502E+01
 0.36303369963E+01 0.33495189381E+01 0.33036877208E+01 0.34872409347E+01 0.39075667996E+01
 0.45832377376E+01 0.55364226644E+01 0.67747194517E+01 0.82623479846E+01 0.98900818141E+01
 0.11406917268E+02 0.12227083001E+02 0.12214363343E+02 0.12136088748E+02 0.11129871005E+02
 0.96995299258E+01 0.85832738848E+01 0.83593044100E+01 0.91227094855E+01 0.10434100159E+02
 0.11570746948E+02 0.11921229411E+02 0.11287599408E+02 0.99363756985E+01 0.83752346896E+01
 0.69066552830E+01 0.56568884528E+01 0.46795619602E+01 0.39776226236E+01 0.35311625791E+01
 0.33184407377E+01 0.33260942958E+01 0.35516901125E+01 0.40034985168E+01 0.46984591476E+01
 0.56545092546E+01 0.68732302026E+01 0.83141550330E+01 0.98707520388E+01 0.11329052603E+02
 0.11097248078E+02 0.12062210487E+02 0.12306960129E+02 0.11876047874E+02 0.11156597115E+02
 0.10664403661E+02 0.10737788205E+02 0.11331098936E+02 0.12041510918E+02 0.12350535634E+02
 0.11924573677E+02 0.10791781722E+02 0.92997108771E+01 0.77953727351E+01 0.64395529875E+01
 0.53183448445E+01 0.44591456184E+01 0.38534454915E+01 0.34804521792E+01 0.33223142511E+01
 0.33697654789E+01 0.36224515067E+01 0.40882138620E+01 0.47811344500E+01 0.57142865091E+01
 0.68840720783E+01 0.82484986022E+01 0.97092456680E+01 0.94137680110E+01 0.10712811605E+02
 0.11737675231E+02 0.12266414522E+02 0.12324608739E+02 0.12169679813E+02 0.12115074768E+02
 0.12314229876E+02 0.12649997185E+02 0.12805608918E+02 0.12469198188E+02 0.11536144706E+02
 0.10181498859E+02 0.87088038554E+01 0.73007918660E+01 0.60707506974E+01 0.50738630715E+01
 0.43197434407E+01 0.37943882567E+01 0.34790875990E+01 0.33604482984E+01 0.34325403216E+01
 0.36959187006E+01 0.41568887431E+01 0.48259030192E+01 0.57111972684E+01 0.68054386171E+01
 0.80682676607E+01 0.77848236800E+01 0.90025598583E+01 0.10195569250E+02 0.11235188730E+02
 0.11966933742E+02 0.12383168542E+02 0.12620001966E+02 0.12828100156E+02 0.13037191106E+02
 0.13114786741E+02 0.12851577355E+02 0.12114161670E+02 0.10958618231E+02 0.95977208454E+01
 0.82076166542E+01 0.69195679100E+01 0.58164142729E+01 0.49316012968E+01 0.42647635650E+01
 0.38012555052E+01 0.35263393796E+01 0.34309258113E+01 0.35114014549E+01 0.37681825868E+01
 0.42053217117E+01 0.48294722405E+01 0.56447314543E+01 0.66418554004E+01 0.64040829142E+01
 0.74171664914E+01 0.85023841740E+01 0.95845021852E+01 0.10586417638E+02 0.11423876001E+02
 0.12057876659E+02 0.12526896768E+02 0.12866653450E+02 0.13038277249E+02 0.12929667083E+02
 0.12433959917E+02 0.11547885262E+02 0.10392813494E+02 0.91100001015E+01 0.78353766862E+01
 0.66745909944E+01 0.56880984551E+01 0.48962546446E+01 0.42952220764E+01 0.38731795838E+01
 0.36201947033E+01 0.35308053132E+01 0.36026702624E+01 0.38353262446E+01 0.42303752663E+01
 0.47911375081E+01 0.55188023358E+01 0.53415943979E+01 0.61081615365E+01 0.69899770444E+01
 0.79457108636E+01 0.89204538887E+01 0.98583722690E+01 0.10714113925E+02 0.11447005432E+02
 0.12029584948E+02 0.12428291608E+02 0.12576580218E+02 0.12396715064E+02 0.11858981956E+02
 0.11007856462E+02 0.99373583403E+01 0.87702510827E+01 0.76234064060E+01 0.65821619274E+01
 0.56926442982E+01 0.49694764690E+01 0.44102152330E+01 0.40079332922E+01 0.37575112202E+01
 0.36562252303E+01 0.37021784881E+01 0.38937263802E+01 0.42303659558E+01 0.47130687158E+01
 0.46002275508E+01 0.51248033730E+01 0.57736878231E+01 0.65308756032E+01 0.73671833851E+01
 0.82435961556E+01 0.91187354661E+01 0.99540925968E+01 0.10711125083E+02 0.11341696767E+02
 0.11781993954E+02 0.11960814331E+02 0.11823070120E+02 0.11356303992E+02 0.10603565147E+02
 0.96541046049E+01 0.86170748916E+01 0.75922679716E+01 0.66509672270E+01 0.58320675379E+01
 0.51500556967E+01 0.46070380958E+01 0.42019034012E+01 0.39339296494E+01 0.38023815296E+01
 0.38053896274E+01 0.39403031451E+01 0.42052941151E+01 0.41568441734E+01 0.44598792242E+01
 0.48823702687E+01 0.54216528857E+01 0.60674791346E+01 0.68001551118E+01 0.75925380718E+01
 0.84137991044E+01 0.92303265827E+01 0.10001031544E+02 0.10670465598E+02 0.11168247652E+02
 0.11421334268E+02 0.11376700040E+02 0.11023091428E+02 0.10399286858E+02 0.95838367402E+01
 0.86717525263E+01 0.77498659403E+01 0.68813670446E+01 0.61033284143E+01 0.54337179442E+01
 0.48808543755E+01 0.44496959455E+01 0.41435647486E+01 0.39634108379E+01 0.39074800881E+01
 0.39726831128E+01 0.39892744652E+01 0.40881553125E+01 0.43007885012E+01 0.46289737531E+01
 0.50723083500E+01 0.56248781633E+01 0.62739945776E+01 0.70013683970E+01 0.77844715948E+01
 0.85947071662E+01 0.93915464812E+01 0.10116863725E+02 0.10696693341E+02 0.11054669096E+02
 0.11133705915E+02 0.10915839559E+02 0.10429769322E+02 0.97419699586E+01 0.89360193113E+01
 0.80904790858E+01 0.72649685300E+01 0.64979278917E+01 0.58125228948E+01 0.52239621156E+01
 0.47434777416E+01 0.43785955020E+01 0.41322757473E+01 0.40034270477E+01 0.40881665329E+01
 0.39892825979E+01 0.40034313265E+01 0.41322879167E+01 0.43786158037E+01 0.47434962524E+01
 0.52239793771E+01 0.58125449974E+01 0.64979463300E+01 0.72649705218E+01 0.80904731561E+01
 0.89360246874E+01 0.97419850857E+01 0.10429776821E+02 0.10915837097E+02 0.11133704700E+02
 0.11054666664E+02 0.10696677146E+02 0.10116839386E+02 0.93915336112E+01 0.85947074394E+01
 0.77844674813E+01 0.70013529235E+01 0.62739769858E+01 0.56248617553E+01 0.50722885599E+01
 0.46289570105E+01 0.43007876076E+01 0.44598890165E+01 0.41568682391E+01 0.39727049660E+01
 0.39074987281E+01 0.39634335963E+01 0.41435863286E+01 0.44497085225E+01 0.48808666909E+01
 0.54337397357E+01 0.61033477058E+01 0.68813679712E+01 0.77498571527E+01 0.86717522608E+01
 0.95838417926E+01 0.10399282805E+02 0.11023081476E+02 0.11376695762E+02 0.11421328608E+02
 0.11168226007E+02 0.10670435223E+02 0.10001012353E+02 0.92303199607E+01 0.84137913233E+01
 0.75925265554E+01 0.68001464038E+01 0.60674696556E+01 0.54216370691E+01 0.48823596756E+01
 0.51248016154E+01 0.46002465450E+01 0.42053252356E+01 0.39403319519E+01 0.38054180542E+01
 0.38024123770E+01 0.39339502925E+01 0.42019073032E+01 0.46070420962E+01 0.51500731427E+01
 0.58320842633E+01 0.66509666811E+01 0.75922592560E+01 0.86170723045E+01 0.96541005038E+01
 0.10603548288E+02 0.11356284744E+02 0.11823061348E+02 0.11960805454E+02 0.11781969814E+02
 0.11341665706E+02 0.10711104003E+02 0.99540802763E+01 0.91187234640E+01 0.82435891655E+01
 0.73671861788E+01 0.65308770154E+01 0.57736802784E+01 0.61081643467E+01 0.53416034650E+01
 0.47130945776E+01 0.42303967396E+01 0.38937534624E+01 0.37022099207E+01 0.36562595355E+01
 0.37575284016E+01 0.40079283128E+01 0.44102110245E+01 0.49694871327E+01 0.56926543622E+01
 0.65821580964E+01 0.76233995168E+01 0.87702489201E+01 0.99373469684E+01 0.11007828264E+02
 0.11858954171E+02 0.12396700789E+02 0.12576567118E+02 0.12428267661E+02 0.12029559749E+02
 0.11446988878E+02 0.10714099476E+02 0.98583576294E+01 0.89204521537E+01 0.79457250586E+01
 0.69899895859E+01 0.74171864796E+01 0.64040953101E+01 0.55188223998E+01 0.47911669355E+01
 0.42303987234E+01 0.38353438786E+01 0.36026974323E+01 0.35308366690E+01 0.36202055108E+01
 0.38731677415E+01 0.42952127190E+01 0.48962578922E+01 0.56880984647E+01 0.66745817747E+01
 0.78353716048E+01 0.91099990238E+01 0.10392797012E+02 0.11547850351E+02 0.12433927813E+02
 0.12929648058E+02 0.13038259507E+02 0.12866632579E+02 0.12526883581E+02 0.12057870733E+02
 0.11423864272E+02 0.10586404148E+02 0.95845066431E+01 0.85024067478E+01 0.90025855578E+01
 0.77848447875E+01 0.66418739437E+01 0.56447599711E+01 0.48295009566E+01 0.42053330644E+01
 0.37681863780E+01 0.35114183810E+01 0.34309472571E+01 0.35263409278E+01 0.38012399602E+01
 0.42647533377E+01 0.49315980046E+01 0.58164030858E+01 0.69195524671E+01 0.82076119661E+01
 0.95977192491E+01 0.10958598835E+02 0.12114127165E+02 0.12851548028E+02 0.13114766211E+02
 0.13037170494E+02 0.12828085728E+02 0.12620004706E+02 0.12383176587E+02 0.11966929123E+02
 0.11235181223E+02 0.10195580511E+02 0.10712829159E+02 0.94137908155E+01 0.80682831592E+01
 0.68054581238E+01 0.57112288423E+01 0.48259261455E+01 0.41568864701E+01 0.36959086140E+01
 0.34325436454E+01 0.33604541873E+01 0.34790779549E+01 0.37943720441E+01 0.43197357693E+01
 0.50738550140E+01 0.60707303652E+01 0.73007718351E+01 0.87087979175E+01 0.10181494101E+02
 0.11536124801E+02 0.12469172057E+02 0.12805590383E+02 0.12649980466E+02 0.12314210829E+02
 0.12115070224E+02 0.12169698727E+02 0.12324629797E+02 0.12266419242E+02 0.11737677624E+02
 0.12062223905E+02 0.11097269749E+02 0.97092605252E+01 0.82485036908E+01 0.68840870616E+01
 0.57143138711E+01 0.47811473230E+01 0.40881996248E+01 0.36224312694E+01 0.33697550833E+01
 0.33223022150E+01 0.34804314877E+01 0.38534306541E+01 0.44591416530E+01 0.53183340560E+01
 0.64395285508E+01 0.77953523598E+01 0.92997031630E+01 0.10791772108E+02 0.11924556187E+02
 0.12350524528E+02 0.12041509398E+02 0.11331091749E+02 0.10737776697E+02 0.10664411416E+02
 0.11156628345E+02 0.11876076680E+02 0.12306973246E+02 0.12136106285E+02 0.12214385152E+02
 0.11329074592E+02 0.98707562862E+01 0.83141484274E+01 0.68732364359E+01 0.56545251686E+01
 0.46984584179E+01 0.40034761690E+01 0.35516654330E+01 0.33260730908E+01 0.33184129241E+01
 0.35311338490E+01 0.39776101143E+01 0.46795604347E+01 0.56568767701E+01 0.69066333709E+01
 0.83752197343E+01 0.99363676267E+01 0.11287585833E+02 0.11921217722E+02 0.11570754154E+02
 0.10434117641E+02 0.91227156773E+01 0.83593056185E+01 0.85832940151E+01 0.96995663347E+01
 0.11129899585E+02 0.10256597195E+02 0.11847513395E+02 0.12227107266E+02 0.11406934910E+02
 0.98900757864E+01 0.82623321815E+01 0.67747151639E+01 0.55364222096E+01 0.45832225041E+01
 0.39075410151E+01 0.34872173476E+01 0.33036606834E+01 0.33494818959E+01 0.36303060362E+01
 0.41639110769E+01 0.49745503405E+01 0.60773915448E+01 0.74515186327E+01 0.90089879731E+01
 0.10544370284E+02 0.11522661301E+02 0.11401831885E+02 0.10079486875E+02 0.80422859827E+01
 0.61957038570E+01 0.54286459381E+01 0.61446714116E+01 0.80383208073E+01 0.64829964330E+01
 0.94618194487E+01 0.11551039617E+02 0.12143652159E+02 0.11340657201E+02 0.97690984973E+01
 0.80983573515E+01 0.65960515723E+01 0.53679077248E+01 0.44422856123E+01 0.38054528737E+01
 0.34321590551E+01 0.33036516334E+01 0.34147485074E+01 0.37750750115E+01 0.44065909051E+01
 0.53340517667E+01 0.65635527755E+01 0.80498624026E+01 0.96629668192E+01 0.11022734525E+02
 0.11416064821E+02 0.10363964485E+02 0.79971635721E+01 0.51227460024E+01 0.29157125950E+01
 0.23596198609E+01 0.37387658956E+01 0.17900516318E+01 0.53414129128E+01 0.89322250258E+01
 0.11338374066E+02 0.11999478296E+02 0.11143442615E+02 0.95186386622E+01 0.78345971781E+01
 0.63494448989E+01 0.51594040187E+01 0.42834509917E+01 0.37022319365E+01 0.33889008018E+01
 0.33260495691E+01 0.35118219451E+01 0.39602727275E+01 0.46967701248E+01 0.57440609389E+01
 0.70948607093E+01 0.86745117297E+01 0.10283786007E+02 0.11311250449E+02 0.10978992910E+02
 0.89416788185E+01 0.56071472949E+01 0.20936527283E+01 -.21998087834E+00 -.35016828023E+00
 -.22272675592E+01 0.66001990175E+00 0.48436836079E+01 0.87854076897E+01 0.11255092369E+02
 0.11809510427E+02 0.10827223750E+02 0.91566332459E+01 0.74889359378E+01 0.60505429732E+01
 0.49230485948E+01 0.41150577366E+01 0.36027034294E+01 0.33591664799E+01 0.33697266623E+01
 0.36366337719E+01 0.41783318487E+01 0.50223419207E+01 0.61867174421E+01 0.76471697722E+01
 0.92967561198E+01 0.10817892958E+02 0.11408863697E+02 0.10316839502E+02 0.73839889250E+01
 0.33036399671E+01 -.54744384187E+00 -.26851469384E+01 -.47666195538E-01 0.66011000231E+00
 0.33550775944E+01 0.69464290471E+01 0.10075263334E+02 0.11749801760E+02 0.11724062855E+02
 0.10462606264E+02 0.87672434452E+01 0.71559923313E+01 0.57938676835E+01 0.47406890728E+01
 0.39949748326E+01 0.35309008718E+01 0.33235146718E+01 0.33605088108E+01 0.36455004429E+01
 0.41970039293E+01 0.50415295672E+01 0.61954103018E+01 0.76331823451E+01 0.92503242107E+01
 0.10753698397E+02 0.11411270934E+02 0.10552559743E+02 0.80727414550E+01 0.46404076269E+01
 0.15061193521E+01 0.56134917575E+00 -.61784342821E+00 0.56135235931E+00 0.36030761618E+01
 0.72754662739E+01 0.10223306638E+02 0.11582260016E+02 0.11274316634E+02 0.98826695219E+01
 0.82117373380E+01 0.66766217973E+01 0.54110367784E+01 0.44576151864E+01 0.38066198734E+01
 0.34310127713E+01 0.33085166317E+01 0.34310073352E+01 0.38066212231E+01 0.44576179948E+01
 0.54110226918E+01 0.66765956818E+01 0.82117256663E+01 0.98826790995E+01 0.11274326512E+02
 0.11582258164E+02 0.10223303947E+02 0.72754697685E+01 0.36030777123E+01 0.33550768008E+01
 0.66010865927E+00 -.47661505786E-01 0.15061218620E+01 0.46404024602E+01 0.80727414387E+01