    2    2   15    1
  0.1529437E+02  0.3691622E-09  0.3691622E-09  0.3691622E-09  0.5000000E-15
  1.000000000000000E-004
  CAR 
 unknown system                          
      8     11      8
 
  0.1250000E+00  0.1250000E+00  0.1250000E+00  0.1250000E+00
    1       -2.486514   1.000000
    2        3.232043   1.000000
    3        8.087310   1.000000
    4        9.601896   0.010690
    5       11.248917   0.000000
    6       11.351495   0.000000
    7       14.436758   0.000000
    8       15.131657   0.000000
 
  0.3750000E+00  0.1250000E+00  0.1250000E+00  0.1250000E+00
    1        2.411162   1.000000
    2        2.932175   1.000000
    3        5.318568   1.000000
    4        5.573258   1.000000
    5       10.606292   0.000000
    6       12.383021   0.000000
    7       13.919282   0.000000
    8       14.552788   0.000000
 
 -0.1250000E+00  0.1250000E+00  0.1250000E+00  0.6250000E-01
    1       -4.241524   1.000000
    2        3.758420   1.000000
    3        5.182121   1.000000
    4        9.368428   0.257730
    5       12.510515   0.000000
    6       12.941596   0.000000
    7       17.694639   0.000000
    8       18.247202   0.000000
 
  0.3750000E+00  0.3750000E+00  0.1250000E+00  0.6250000E-01
    1       -0.296040   1.000000
    2       -0.296037   1.000000
    3        9.446920   0.114029
    4        9.446948   0.113991
    5       11.211476   0.000000
    6       11.211532   0.000000
    7       12.765289   0.000000
    8       12.765323   0.000000
 
 -0.3750000E+00  0.3750000E+00  0.1250000E+00  0.1250000E+00
    1       -2.764665   1.000000
    2        0.124153   1.000000
    3        6.092035   1.000000
    4        8.885967   0.997120
    5       11.798161   0.000000
    6       14.533223   0.000000
    7       17.782341   0.000000
    8       18.438217   0.000000
 
 -0.1250000E+00  0.3750000E+00  0.1250000E+00  0.1250000E+00
    1       -1.756085   1.000000
    2        3.275312   1.000000
    3        4.940851   1.000000
    4        8.828556   0.999230
    5        9.808075   0.000085
    6       13.897121   0.000000
    7       14.903856   0.000000
    8       15.551024   0.000000
 
 -0.3750000E+00 -0.3750000E+00  0.1250000E+00  0.1250000E+00
    1        0.385142   1.000000
    2        0.398698   1.000000
    3        6.373945   1.000000
    4        6.374156   1.000000
    5        8.321285   1.000000
    6       14.067651   0.000000
    7       16.816910   0.000000
    8       17.741698   0.000000
 
 -0.1250000E+00 -0.3750000E+00  0.1250000E+00  0.1250000E+00
    1        1.220831   1.000000
    2        4.087913   1.000000
    3        6.156372   1.000000
    4        7.516826   1.000000
    5        8.482387   1.000000
    6       10.910424   0.000000
    7       11.340673   0.000000
    8       14.855600   0.000000
 
 -0.1250000E+00 -0.1250000E+00  0.1250000E+00  0.3125000E-01
    1       -3.224640   1.000000
    2        7.445802   1.000000
    3        7.471248   1.000000
    4        7.471274   1.000000
    5       12.070403   0.000000
    6       12.125895   0.000000
    7       12.509471   0.000000
    8       14.792642   0.000000
 
 -0.3750000E+00  0.3750000E+00  0.3750000E+00  0.6250000E-01
    1       -1.338566   1.000000
    2        0.836784   1.000000
    3        2.640487   1.000000
    4        4.777781   1.000000
    5       16.019685   0.000000
    6       16.668019   0.000000
    7       18.527015   0.000000
    8       20.027338   0.000000
 
 -0.3750000E+00 -0.3750000E+00  0.3750000E+00  0.3125000E-01
    1        1.803454   1.000000
    2        1.837733   1.000000
    3        3.611799   1.000000
    4        3.611805   1.000000
    5        7.632900   1.000000
    6       17.222809   0.000000
    7       18.408588   0.000000
    8       18.408617   0.000000
