unknown system                          
   1.00000000000000     
     0.000000    2.746293    2.746293
     2.746293   -0.000000    2.746293
     2.746293    2.746293    0.000000
   Si
     2
Direct
  0.500000  0.500000  0.500000
  0.750000  0.750000  0.750000
 
   32   32   32
 0.87710     0.89752     0.96063      1.0716      1.2380      1.4687      1.7731      2.1593      2.6328      3.1918    
  3.8233      4.4992      5.1750      5.7940      6.2947      6.6212      6.7347      6.6212      6.2946      5.7940    
  5.1751      4.4992      3.8234      3.1918      2.6328      2.1593      1.7730      1.4687      1.2380      1.0716    
 0.96064     0.89752     0.89752     0.93247      1.0055      1.1222      1.2894      1.5142      1.8031      2.1605    
  2.5866      3.0753      3.6099      4.1616      4.6900      5.1471      5.4850      5.6648      5.6649      5.4850    
  5.1471      4.6900      4.1616      3.6099      3.0753      2.5866      2.1604      1.8031      1.5142      1.2894    
  1.1222      1.0055     0.93248     0.89752     0.96063      1.0055      1.0845      1.2031      1.3668      1.5809    
  1.8489      2.1720      2.5471      2.9646      3.4066      3.8454      4.2457      4.5687      4.7791      4.8522    
  4.7791      4.5687      4.2457      3.8454      3.4066      2.9646      2.5471      2.1720      1.8489      1.5808    
  1.3668      1.2031      1.0846      1.0055     0.96062     0.94612      1.0716      1.1222      1.2031      1.3189    
  1.4741      1.6718      1.9137      2.1984      2.5204      2.8687      3.2250      3.5642      3.8566      4.0723    
  4.1871      4.1871      4.0723      3.8566      3.5643      3.2251      2.8687      2.5204      2.1983      1.9137    
  1.6718      1.4741      1.3189      1.2031      1.1222      1.0716      1.0474      1.0474      1.2380      1.2894    
  1.3668      1.4741      1.6144      1.7897      2.0000      2.2428      2.5110      2.7930      3.0713      3.3241    
  3.5275      3.6598      3.7058      3.6598      3.5275      3.3240      3.0713      2.7930      2.5110      2.2427    
  2.0000      1.7897      1.6144      1.4741      1.3668      1.2894      1.2380      1.2090      1.1997      1.2090    
  1.4687      1.5142      1.5809      1.6718      1.7897      1.9357      2.1092      2.3066      2.5204      2.7389    
  2.9465      3.1249      3.2564      3.3262      3.3262      3.2564      3.1249      2.9464      2.7389      2.5204    
  2.3066      2.1092      1.9357      1.7897      1.6718      1.5809      1.5142      1.4687      1.4409      1.4279    
  1.4279      1.4409      1.7731      1.8031      1.8489      1.9137      2.0000      2.1092      2.2401      2.3886    
  2.5471      2.7047      2.8482      2.9638      3.0390      3.0651      3.0390      2.9638      2.8482      2.7047    
  2.5471      2.3886      2.2401      2.1092      2.0001      1.9137      1.8489      1.8031      1.7730      1.7551    
  1.7459      1.7432      1.7459      1.7551      2.1593      2.1605      2.1720      2.1984      2.2428      2.3066    
  2.3886      2.4844      2.5866      2.6862      2.7729      2.8372      2.8715      2.8715      2.8372      2.7729    
  2.6862      2.5867      2.4844      2.3886      2.3066      2.2427      2.1983      2.1720      2.1604      2.1593    
  2.1640      2.1702      2.1742      2.1742      2.1701      2.1640      2.6328      2.5866      2.5471      2.5204    
  2.5110      2.5204      2.5471      2.5866      2.6328      2.6785      2.7171      2.7428      2.7519      2.7429    
  2.7172      2.6786      2.6328      2.5866      2.5471      2.5204      2.5110      2.5204      2.5470      2.5866    
  2.6328      2.6786      2.7171      2.7429      2.7519      2.7428      2.7171      2.6785      3.1918      3.0753    
  2.9646      2.8687      2.7930      2.7389      2.7047      2.6862      2.6785      2.6772      2.6785      2.6798    
  2.6798      2.6785      2.6772      2.6785      2.6861      2.7046      2.7388      2.7929      2.8687      2.9647    
  3.0753      3.1918      3.3034      3.3990      3.4689      3.5058      3.5058      3.4689      3.3990      3.3034    
  3.8233      3.6099      3.4066      3.2250      3.0713      2.9465      2.8482      2.7729      2.7171      2.6785    
  2.6557      2.6481      2.6557      2.6785      2.7171      2.7728      2.8481      2.9464      3.0713      3.2250    
  3.4066      3.6099      3.8234      4.0313      4.2163      4.3619      4.4551      4.4871      4.4551      4.3619    
  4.2162      4.0312      4.4992      4.1616      3.8454      3.5642      3.3241      3.1249      2.9638      2.8372    
  2.7428      2.6798      2.6481      2.6481      2.6798      2.7428      2.8371      2.9637      3.1249      3.3240    
  3.5643      3.8454      4.1616      4.4992      4.8370      5.1498      5.4116      5.6000      5.6984      5.6985    
  5.6000      5.4116      5.1497      4.8370      5.1750      4.6900      4.2457      3.8566      3.5275      3.2564    
  3.0390      2.8715      2.7519      2.6798      2.6557      2.6798      2.7519      2.8714      3.0389      3.2563    
  3.5274      3.8566      4.2457      4.6901      5.1751      5.6750      6.1557      6.5798      6.9117      7.1231    
  7.1957      7.1231      6.9118      6.5799      6.1558      5.6750      5.7940      5.1471      4.5687      4.0723    
  3.6598      3.3262      3.0651      2.8715      2.7429      2.6785      2.6785      2.7428      2.8714      3.0650    
  3.3261      3.6598      4.0723      4.5687      5.1471      5.7941      6.4811      7.1660      7.7987      8.3280    
  8.7089      8.9082      8.9082      8.7090      8.3281      7.7988      7.1660      6.4810      6.2947      5.4850    
  4.7791      4.1871      3.7058      3.3262      3.0390      2.8372      2.7172      2.6772      2.7171      2.8371    
  3.0389      3.3261      3.7057      4.1870      4.7792      5.4851      6.2947      7.1800      8.0938      8.9747    
  9.7545      10.368      10.760      10.895      10.760      10.368      9.7545      8.9747      8.0938      7.1800    
  6.6212      5.6648      4.8522      4.1871      3.6598      3.2564      2.9638      2.7729      2.6786      2.6785    
  2.7728      2.9637      3.2563      3.6598      4.1870      4.8523      5.6649      6.6213      7.6974      8.8457    
  9.9978      11.071      11.978      12.638      12.986      12.985      12.638      11.978      11.071      9.9978    
  8.8458      7.6974      6.7347      5.6649      4.7791      4.0723      3.5275      3.1249      2.8482      2.6862    
  2.6328      2.6861      2.8481      3.1249      3.5274      4.0723      4.7792      5.6649      6.7348      7.9730    
  9.3371      10.758      12.145      13.393      14.392      15.040      15.265      15.040      14.392      13.393    
  12.145      10.758      9.3371      7.9730      6.6212      5.4850      4.5687      3.8566      3.3240      2.9464    
  2.7047      2.5867      2.5866      2.7046      2.9464      3.3240      3.8566      4.5687      5.4851      6.6213    
  7.9730      9.5081      11.164      12.851      14.456      15.842      16.860      17.399      17.399      16.860    
  15.841      14.455      12.851      11.164      9.5081      7.9730      6.2946      5.1471      4.2457      3.5643    
  3.0713      2.7389      2.5471      2.4844      2.5471      2.7388      3.0713      3.5643      4.2457      5.1471    
  6.2947      7.6974      9.3371      11.164      13.098      15.028      16.800      18.225      19.147      19.466    
  19.147      18.225      16.800      15.028      13.098      11.164      9.3371      7.6974      5.7940      4.6900    
  3.8454      3.2251      2.7930      2.5204      2.3886      2.3886      2.5204      2.7929      3.2250      3.8454    
  4.6901      5.7941      7.1800      8.8457      10.758      12.851      15.028      17.135      18.956      20.297    
  21.008      21.008      20.297      18.956      17.135      15.028      12.851      10.758      8.8457      7.1800    
  5.1751      4.1616      3.4066      2.8687      2.5110      2.3066      2.2401      2.3066      2.5110      2.8687    
  3.4066      4.1616      5.1751      6.4811      8.0938      9.9978      12.145      14.456      16.800      18.956    
  20.698      21.834      22.230      21.834      20.698      18.956      16.800      14.456      12.145      9.9977    
  8.0938      6.4811      4.4992      3.6099      2.9646      2.5204      2.2427      2.1092      2.1092      2.2427    
  2.5204      2.9647      3.6099      4.4992      5.6750      7.1660      8.9747      11.071      13.393      15.842    
  18.225      20.297      21.834      22.656      22.656      21.834      20.297      18.225      15.842      13.393    
  11.071      8.9746      7.1660      5.6751      3.8234      3.0753      2.5471      2.1983      2.0000      1.9357    
  2.0001      2.1983      2.5470      3.0753      3.8234      4.8370      6.1557      7.7987      9.7545      11.978    
  14.392      16.860      19.147      21.008      22.230      22.656      22.230      21.008      19.147      16.860    
  14.392      11.978      9.7545      7.7988      6.1558      4.8371      3.1918      2.5866      2.1720      1.9137    
  1.7897      1.7897      1.9137      2.1720      2.5866      3.1918      4.0313      5.1498      6.5798      8.3280    
  10.368      12.638      15.040      17.399      19.466      21.008      21.834      21.834      21.008      19.466    
  17.399      15.040      12.638      10.368      8.3281      6.5799      5.1499      4.0313      2.6328      2.1604    
  1.8489      1.6718      1.6144      1.6718      1.8489      2.1604      2.6328      3.3034      4.2163      5.4116    
  6.9117      8.7089      10.760      12.986      15.265      17.399      19.147      20.297      20.698      20.297    
  19.147      17.399      15.265      12.986      10.760      8.7090      6.9118      5.4117      4.2163      3.3034    
  2.1593      1.8031      1.5808      1.4741      1.4741      1.5809      1.8031      2.1593      2.6786      3.3990    
  4.3619      5.6000      7.1231      8.9082      10.895      12.985      15.040      16.860      18.225      18.956    
  18.956      18.225      16.860      15.040      12.986      10.895      8.9082      7.1232      5.6001      4.3620    
  3.3991      2.6785      1.7730      1.5142      1.3668      1.3189      1.3668      1.5142      1.7730      2.1640    
  2.7171      3.4689      4.4551      5.6984      7.1957      8.9082      10.760      12.638      14.392      15.841    
  16.800      17.135      16.800      15.842      14.392      12.638      10.760      8.9082      7.1957      5.6985    
  4.4552      3.4689      2.7171      2.1640      1.4687      1.2894      1.2031      1.2031      1.2894      1.4687    
  1.7551      2.1702      2.7429      3.5058      4.4871      5.6985      7.1231      8.7090      10.368      11.978    
  13.393      14.455      15.028      15.028      14.456      13.393      11.978      10.368      8.7090      7.1232    
  5.6985      4.4872      3.5058      2.7429      2.1701      1.7550      1.2380      1.1222      1.0846      1.1222    
  1.2380      1.4409      1.7459      2.1742      2.7519      3.5058      4.4551      5.6000      6.9118      8.3281    
  9.7545      11.071      12.145      12.851      13.098      12.851      12.145      11.071      9.7545      8.3281    
  6.9118      5.6001      4.4552      3.5058      2.7519      2.1742      1.7459      1.4409      1.0716      1.0055    
  1.0055      1.0716      1.2090      1.4279      1.7432      2.1742      2.7428      3.4689      4.3619      5.4116    
  6.5799      7.7988      8.9747      9.9978      10.758      11.164      11.164      10.758      9.9977      8.9746    
  7.7988      6.5799      5.4117      4.3620      3.4689      2.7429      2.1742      1.7432      1.4278      1.2090    
 0.96064     0.93248     0.96062      1.0474      1.1997      1.4279      1.7459      2.1701      2.7171      3.3990    
  4.2162      5.1497      6.1558      7.1660      8.0938      8.8458      9.3371      9.5081      9.3371      8.8457    
  8.0938      7.1660      6.1558      5.1499      4.2163      3.3991      2.7171      2.1701      1.7459      1.4278    
  1.1996      1.0474     0.89752     0.89752     0.94612      1.0474      1.2090      1.4409      1.7551      2.1640    
  2.6785      3.3034      4.0312      4.8370      5.6750      6.4810      7.1800      7.6974      7.9730      7.9730    
  7.6974      7.1800      6.4811      5.6751      4.8371      4.0313      3.3034      2.6785      2.1640      1.7550    
  1.4409      1.2090      1.0474     0.94613     0.89752     0.93248      1.0055      1.1222      1.2894      1.5142    
  1.8031      2.1605      2.5866      3.0753      3.6099      4.1616      4.6900      5.1471      5.4850      5.6648    
  5.6649      5.4850      5.1471      4.6900      4.1616      3.6099      3.0753      2.5866      2.1604      1.8031    
  1.5142      1.2894      1.1222      1.0055     0.93248     0.89752     0.93248     0.97585      1.0525      1.1677    
  1.3275      1.5369      1.7995      2.1164      2.4844      2.8938      3.3268      3.7563      4.1476      4.4631    
  4.6685      4.7399      4.6685      4.4631      4.1476      3.7563      3.3268      2.8938      2.4843      2.1164    
  1.7995      1.5369      1.3275      1.1678      1.0525     0.97586     0.93248     0.91849      1.0055      1.0525    
  1.1282      1.2376      1.3851      1.5742      1.8061      2.0794      2.3886      2.7227      3.0640      3.3885    
  3.6678      3.8735      3.9829      3.9829      3.8736      3.6678      3.3885      3.0640      2.7227      2.3886    
  2.0794      1.8061      1.5742      1.3851      1.2376      1.1282      1.0525      1.0055     0.98320     0.98320    
  1.1222      1.1677      1.2376      1.3358      1.4659      1.6296      1.8269      2.0548      2.3066      2.5711    
  2.8320      3.0687      3.2590      3.3827      3.4256      3.3826      3.2589      3.0687      2.8320      2.5711    
  2.3066      2.0547      1.8269      1.6296      1.4659      1.3358      1.2376      1.1677      1.1222      1.0968    
  1.0887      1.0968      1.2894      1.3275      1.3851      1.4659      1.5724      1.7056      1.8647      2.0461    
  2.2428      2.4438      2.6350      2.7995      2.9207      2.9851      2.9851      2.9207      2.7995      2.6350    
  2.4438      2.2427      2.0461      1.8647      1.7056      1.5724      1.4659      1.3851      1.3275      1.2894    
  1.2669      1.2566      1.2566      1.2669      1.5142      1.5369      1.5742      1.6296      1.7056      1.8030    
  1.9207      2.0548      2.1984      2.3417      2.4729      2.5788      2.6479      2.6720      2.6480      2.5789    
  2.4729      2.3417      2.1983      2.0548      1.9207      1.8031      1.7056      1.6296      1.5742      1.5369    
  1.5142      1.5022      1.4969      1.4955      1.4969      1.5022      1.8031      1.7995      1.8061      1.8269    
  1.8647      1.9207      1.9935      2.0794      2.1720      2.2631      2.3432      2.4031      2.4352      2.4352    
  2.4031      2.3432      2.2631      2.1720      2.0794      1.9935      1.9207      1.8647      1.8269      1.8061    
  1.7995      1.8031      1.8121      1.8215      1.8274      1.8275      1.8216      1.8121      2.1605      2.1164    
  2.0794      2.0548      2.0461      2.0548      2.0794      2.1164      2.1605      2.2049      2.2431      2.2690    
  2.2781      2.2690      2.2431      2.2049      2.1605      2.1165      2.0794      2.0547      2.0461      2.0547    
  2.0794      2.1165      2.1605      2.2049      2.2431      2.2690      2.2781      2.2689      2.2431      2.2049    
  2.5866      2.4844      2.3886      2.3066      2.2428      2.1984      2.1720      2.1605      2.1593      2.1640    
  2.1702      2.1742      2.1742      2.1702      2.1640      2.1593      2.1604      2.1720      2.1983      2.2427    
  2.3066      2.3886      2.4844      2.5867      2.6862      2.7729      2.8372      2.8715      2.8715      2.8372    
  2.7729      2.6862      3.0753      2.8938      2.7227      2.5711      2.4438      2.3417      2.2631      2.2049    
  2.1640      2.1373      2.1225      2.1177      2.1224      2.1373      2.1640      2.2049      2.2630      2.3416    
  2.4437      2.5711      2.7228      2.8939      3.0753      3.2544      3.4162      3.5455      3.6292      3.6581    
  3.6292      3.5455      3.4162      3.2544      3.6099      3.3268      3.0640      2.8320      2.6350      2.4729    
  2.3432      2.2431      2.1702      2.1225      2.0989      2.0989      2.1224      2.1701      2.2431      2.3431    
  2.4727      2.6348      2.8320      3.0642      3.3270      3.6100      3.8968      4.1665      4.3960      4.5634    
  4.6517      4.6517      4.5634      4.3960      4.1665      3.8968      4.1616      3.7563      3.3885      3.0687    
  2.7995      2.5788      2.4031      2.2690      2.1742      2.1177      2.0989      2.1177      2.1742      2.2689    
  2.4030      2.5786      2.7993      3.0687      3.3887      3.7565      4.1618      4.5851      4.9991      5.3707    
  5.6665      5.8572      5.9232      5.8573      5.6665      5.3707      4.9991      4.5851      4.6900      4.1476    
  3.6678      3.2590      2.9207      2.6479      2.4352      2.2781      2.1742      2.1224      2.1224      2.1742    
  2.2781      2.4351      2.6477      2.9204      3.2589      3.6680      4.1479      4.6902      5.2744      5.8673    
  6.4258      6.9018      7.2497      7.4335      7.4335      7.2497      6.9019      6.4259      5.8674      5.2744    
  5.1471      4.4631      3.8735      3.3827      2.9851      2.6720      2.4352      2.2690      2.1702      2.1373    
  2.1701      2.2689      2.4351      2.6717      2.9848      3.3826      3.8738      4.4635      5.1473      5.9066    
  6.7052      7.4906      8.1997      8.7668      9.1339      9.2610      9.1339      8.7668      8.1997      7.4907    
  6.7053      5.9066      5.4850      4.6685      3.9829      3.4256      2.9851      2.6480      2.4031      2.2431    
  2.1640      2.1640      2.2431      2.4030      2.6477      2.9848      3.4256      3.9832      4.6689      5.4852    
  6.4186      7.4338      8.4732      9.4602      10.308      10.932      11.263      11.263      10.932      10.308    
  9.4602      8.4733      7.4340      6.4186      5.6648      4.7399      3.9829      3.3826      2.9207      2.5789    
  2.3432      2.2049      2.1593      2.2049      2.3431      2.5786      2.9204      3.3826      3.9832      4.7403    
  5.6651      6.7528      7.9745      9.2728      10.563      11.741      12.693      13.315      13.531      13.315    
  12.693      11.741      10.563      9.2729      7.9747      6.7528      5.6649      4.6685      3.8736      3.2589    
  2.7995      2.4729      2.2631      2.1605      2.1604      2.2630      2.4727      2.7993      3.2589      3.8738    
  4.6689      5.6651      6.8691      8.2629      9.7968      11.386      12.917      14.251      15.245      15.777    
  15.777      15.245      14.250      12.917      11.386      9.7969      8.2631      6.8691      5.4850      4.4631    
  3.6678      3.0687      2.6350      2.3417      2.1720      2.1165      2.1720      2.3416      2.6348      3.0687    
  3.6680      4.4635      5.4852      6.7528      8.2629      9.9794      11.827      13.693      15.424      16.847    
  17.789      18.119      17.789      16.847      15.424      13.692      11.827      9.9795      8.2631      6.7529    
  5.1471      4.1476      3.3885      2.8320      2.4438      2.1983      2.0794      2.0794      2.1983      2.4437    
  2.8320      3.3887      4.1479      5.1473      6.4186      7.9745      9.7968      11.827      13.964      16.057    
  17.916      19.322      20.080      20.080      19.322      17.916      16.058      13.964      11.827      9.7968    
  7.9747      6.4187      4.6900      3.7563      3.0640      2.5711      2.2427      2.0548      1.9935      2.0547    
  2.2427      2.5711      3.0642      3.7565      4.6902      5.9066      7.4338      9.2728      11.386      13.693    
  16.057      18.292      20.152      21.389      21.823      21.389      20.152      18.292      16.058      13.693    
  11.386      9.2729      7.4340      5.9066      4.1616      3.3268      2.7227      2.3066      2.0461      1.9207    
  1.9207      2.0461      2.3066      2.7228      3.3270      4.1618      5.2744      6.7052      8.4732      10.563    
  12.917      15.424      17.916      20.152      21.849      22.767      22.767      21.849      20.152      17.916    
  15.424      12.917      10.563      8.4733      6.7052      5.2743      3.6099      2.8938      2.3886      2.0547    
  1.8647      1.8031      1.8647      2.0547      2.3886      2.8939      3.6100      4.5851      5.8673      7.4906    
  9.4602      11.741      14.251      16.847      19.322      21.389      22.767      23.252      22.767      21.389    
  19.322      16.847      14.251      11.741      9.4603      7.4906      5.8673      4.5851      3.0753      2.4843    
  2.0794      1.8269      1.7056      1.7056      1.8269      2.0794      2.4844      3.0753      3.8968      4.9991    
  6.4258      8.1997      10.308      12.693      15.245      17.789      20.080      21.823      22.767      22.767    
  21.823      20.080      17.789      15.245      12.693      10.308      8.1996      6.4257      4.9990      3.8969    
  2.5866      2.1164      1.8061      1.6296      1.5724      1.6296      1.8061      2.1165      2.5867      3.2544    
  4.1665      5.3707      6.9018      8.7668      10.932      13.315      15.777      18.119      20.080      21.389    
  21.849      21.389      20.080      18.120      15.778      13.315      10.932      8.7667      6.9016      5.3706    
  4.1666      3.2545      2.1604      1.7995      1.5742      1.4659      1.4659      1.5742      1.7995      2.1605    
  2.6862      3.4162      4.3960      5.6665      7.2497      9.1339      11.263      13.531      15.777      17.789    
  19.322      20.152      20.152      19.322      17.789      15.778      13.531      11.263      9.1338      7.2495    
  5.6663      4.3960      3.4163      2.6862      1.8031      1.5369      1.3851      1.3358      1.3851      1.5369    
  1.8031      2.2049      2.7729      3.5455      4.5634      5.8572      7.4335      9.2610      11.263      13.315    
  15.245      16.847      17.916      18.292      17.916      16.847      15.245      13.315      11.263      9.2609    
  7.4333      5.8571      4.5634      3.5457      2.7730      2.2049      1.5142      1.3275      1.2376      1.2376    
  1.3275      1.5142      1.8121      2.2431      2.8372      3.6292      4.6517      5.9232      7.4335      9.1339    
  10.932      12.693      14.250      15.424      16.058      16.058      15.424      14.251      12.693      10.932    
  9.1338      7.4333      5.9230      4.6518      3.6294      2.8373      2.2431      1.8120      1.2894      1.1678    
  1.1282      1.1677      1.2894      1.5022      1.8215      2.2690      2.8715      3.6581      4.6517      5.8573    
  7.2497      8.7668      10.308      11.741      12.917      13.692      13.964      13.693      12.917      11.741    
  10.308      8.7667      7.2495      5.8571      4.6518      3.6583      2.8716      2.2690      1.8215      1.5022    
  1.1222      1.0525      1.0525      1.1222      1.2669      1.4969      1.8274      2.2781      2.8715      3.6292    
  4.5634      5.6665      6.9019      8.1997      9.4602      10.563      11.386      11.827      11.827      11.386    
  10.563      9.4603      8.1996      6.9016      5.6663      4.5634      3.6294      2.8716      2.2781      1.8274    
  1.4969      1.2669      1.0055     0.97586      1.0055      1.0968      1.2566      1.4955      1.8275      2.2689    
  2.8372      3.5455      4.3960      5.3707      6.4259      7.4907      8.4733      9.2729      9.7969      9.9795    
  9.7968      9.2729      8.4733      7.4906      6.4257      5.3706      4.3960      3.5457      2.8373      2.2690    
  1.8274      1.4955      1.2566      1.0968     0.93248     0.93248     0.98320      1.0887      1.2566      1.4969    
  1.8216      2.2431      2.7729      3.4162      4.1665      4.9991      5.8674      6.7053      7.4340      7.9747    
  8.2631      8.2631      7.9747      7.4340      6.7052      5.8673      4.9990      4.1666      3.4163      2.7730    
  2.2431      1.8215      1.4969      1.2566      1.0887     0.98320     0.89752     0.91849     0.98320      1.0968    
  1.2669      1.5022      1.8121      2.2049      2.6862      3.2544      3.8968      4.5851      5.2744      5.9066    
  6.4186      6.7528      6.8691      6.7529      6.4187      5.9066      5.2743      4.5851      3.8969      3.2545    
  2.6862      2.2049      1.8120      1.5022      1.2669      1.0968     0.98320     0.91847     0.96064      1.0055    
  1.0846      1.2031      1.3668      1.5809      1.8489      2.1720      2.5471      2.9646      3.4066      3.8454    
  4.2457      4.5687      4.7791      4.8522      4.7791      4.5687      4.2457      3.8454      3.4066      2.9646    
  2.5471      2.1720      1.8489      1.5808      1.3668      1.2031      1.0846      1.0055     0.96063     0.94613    
  1.0055      1.0525      1.1282      1.2376      1.3851      1.5742      1.8061      2.0794      2.3886      2.7227    
  3.0640      3.3885      3.6678      3.8735      3.9829      3.9829      3.8736      3.6678      3.3885      3.0640    
  2.7227      2.3886      2.0793      1.8060      1.5742      1.3851      1.2376      1.1282      1.0525      1.0055    
 0.98320     0.98321      1.0846      1.1282      1.1956      1.2908      1.4175      1.5774      1.7704      1.9935    
  2.2401      2.4990      2.7542      2.9856      3.1716      3.2924      3.3343      3.2924      3.1716      2.9856    
  2.7542      2.4990      2.2401      1.9935      1.7704      1.5774      1.4175      1.2909      1.1956      1.1282    
  1.0845      1.0604      1.0527      1.0604      1.2031      1.2376      1.2908      1.3666      1.4675      1.5947    
  1.7469      1.9207      2.1092      2.3020      2.4852      2.6429      2.7591      2.8208      2.8208      2.7591    
  2.6429      2.4852      2.3020      2.1092      1.9207      1.7469      1.5947      1.4676      1.3666      1.2909    
  1.2376      1.2031      1.1831      1.1742      1.1742      1.1831      1.3668      1.3851      1.4175      1.4675    
  1.5376      1.6284      1.7387      1.8647      2.0001      2.1354      2.2594      2.3598      2.4254      2.4481    
  2.4253      2.3598      2.2594      2.1354      2.0001      1.8647      1.7387      1.6284      1.5376      1.4676    
  1.4175      1.3851      1.3668      1.3582      1.3551      1.3544      1.3551      1.3582      1.5809      1.5742    
  1.5774      1.5947      1.6284      1.6796      1.7469      1.8269      1.9137      1.9996      2.0755      2.1324    
  2.1630      2.1630      2.1325      2.0755      1.9996      1.9137      1.8269      1.7469      1.6796      1.6284    
  1.5947      1.5774      1.5742      1.5808      1.5925      1.6041      1.6111      1.6111      1.6041      1.5925    
  1.8489      1.8061      1.7704      1.7469      1.7387      1.7469      1.7704      1.8061      1.8489      1.8927    
  1.9305      1.9563      1.9654      1.9563      1.9305      1.8927      1.8489      1.8061      1.7704      1.7469    
  1.7388      1.7469      1.7704      1.8061      1.8489      1.8927      1.9305      1.9563      1.9654      1.9563    
  1.9305      1.8927      2.1720      2.0794      1.9935      1.9207      1.8647      1.8269      1.8061      1.7995    
  1.8031      1.8121      1.8216      1.8275      1.8274      1.8215      1.8121      1.8031      1.7995      1.8061    
  1.8269      1.8647      1.9207      1.9936      2.0794      2.1720      2.2631      2.3432      2.4031      2.4352    
  2.4352      2.4031      2.3432      2.2631      2.5471      2.3886      2.2401      2.1092      2.0001      1.9137    
  1.8489      1.8031      1.7731      1.7551      1.7459      1.7432      1.7459      1.7551      1.7730      1.8031    
  1.8489      1.9137      2.0001      2.1092      2.2401      2.3886      2.5471      2.7047      2.8482      2.9638    
  3.0390      3.0651      3.0390      2.9638      2.8482      2.7047      2.9646      2.7227      2.4990      2.3020    
  2.1354      1.9996      1.8927      1.8121      1.7551      1.7189      1.7015      1.7015      1.7189      1.7551    
  1.8121      1.8926      1.9996      2.1355      2.3020      2.4990      2.7227      2.9647      3.2113      3.4449    
  3.6451      3.7922      3.8702      3.8702      3.7922      3.6451      3.4449      3.2113      3.4066      3.0640    
  2.7542      2.4852      2.2594      2.0755      1.9305      1.8216      1.7459      1.7015      1.6869      1.7015    
  1.7459      1.8215      1.9305      2.0755      2.2595      2.4853      2.7543      3.0641      3.4067      3.7664    
  4.1208      4.4417      4.6992      4.8663      4.9243      4.8663      4.6992      4.4417      4.1208      3.7664    
  3.8454      3.3885      2.9856      2.6429      2.3598      2.1324      1.9563      1.8275      1.7432      1.7015    
  1.7015      1.7431      1.8274      1.9562      2.1325      2.3599      2.6430      2.9857      3.3885      3.8454    
  4.3406      4.8473      5.3290      5.7436      6.0490      6.2113      6.2113      6.0490      5.7436      5.3290    
  4.8472      4.3406      4.2457      3.6678      3.1716      2.7591      2.4254      2.1630      1.9654      1.8274    
  1.7459      1.7189      1.7459      1.8274      1.9654      2.1630      2.4254      2.7591      3.1716      3.6678    