unknown system                          
   1.00000000000000     
     0.000000    2.733803    2.733803
     2.733803   -0.000000    2.733803
     2.733803    2.733803    0.000000
   Si
     2
Direct
  0.500000  0.500000  0.500000
  0.750000  0.750000  0.750000
 
   32   32   32
 0.85180985664E+00 0.87186462955E+00 0.93389384233E+00 0.10430940940E+01 0.12070666396E+01
 0.14347460642E+01 0.17354108752E+01 0.21174742179E+01 0.25863118248E+01 0.31405998193E+01
 0.37676720511E+01 0.44396387904E+01 0.51124529651E+01 0.57293594032E+01 0.62286976536E+01
 0.65545766742E+01 0.66678729586E+01 0.65545337044E+01 0.62286522445E+01 0.57293434886E+01
 0.51124570724E+01 0.44396334311E+01 0.37676473893E+01 0.31405731241E+01 0.25863029645E+01
 0.21174849481E+01 0.17354273577E+01 0.14347546225E+01 0.12070652165E+01 0.10430906475E+01
 0.93389511987E+00 0.87186837260E+00 0.87186462955E+00 0.90614151086E+00 0.97784554940E+00
 0.10925639712E+01 0.12572278655E+01 0.14790007100E+01 0.17642755709E+01 0.21174906145E+01
 0.25392241791E+01 0.30233067846E+01 0.35535196322E+01 0.41013467309E+01 0.46264920559E+01
 0.50811216840E+01 0.54173841223E+01 0.55964260387E+01 0.55964339095E+01 0.54173844010E+01
 0.50810793038E+01 0.46264154101E+01 0.41012853854E+01 0.35535081856E+01 0.30233306755E+01
 0.25392471050E+01 0.21174987534E+01 0.17642815048E+01 0.14790147288E+01 0.12572439463E+01
 0.10925736456E+01 0.97785018325E+00 0.90614548967E+00 0.87186671586E+00 0.93389384233E+00
 0.97784554940E+00 0.10553801872E+01 0.11718524305E+01 0.13330262561E+01 0.15440645860E+01
 0.18086520371E+01 0.21279405611E+01 0.24989440704E+01 0.29123451581E+01 0.33503185238E+01
 0.37855766261E+01 0.41829083248E+01 0.45037223040E+01 0.47128114567E+01 0.47854684774E+01
 0.47128094090E+01 0.45037266295E+01 0.41829195577E+01 0.37855813775E+01 0.33503077531E+01
 0.29123322425E+01 0.24989510931E+01 0.21279665926E+01 0.18086707826E+01 0.15440596053E+01
 0.13330127039E+01 0.11718523385E+01 0.10553909088E+01 0.97784987166E+00 0.93389002099E+00
 0.91970257766E+00 0.10430940940E+01 0.10925639712E+01 0.11718524305E+01 0.12856296873E+01
 0.14383091257E+01 0.16332342339E+01 0.18719437238E+01 0.21532334062E+01 0.24718000449E+01
 0.28166089907E+01 0.31696346349E+01 0.35059617921E+01 0.37960497630E+01 0.40101751877E+01
 0.41240622481E+01 0.41240480759E+01 0.40101497392E+01 0.37960472056E+01 0.35059963751E+01
 0.31696807601E+01 0.28166261875E+01 0.24717782784E+01 0.21532016372E+01 0.18719310160E+01
 0.16332381090E+01 0.14383102647E+01 0.12856220997E+01 0.11718450261E+01 0.10925623417E+01
 0.10430952618E+01 0.10194957279E+01 0.10194951247E+01 0.12070666396E+01 0.12572278655E+01
 0.13330262561E+01 0.14383091257E+01 0.15763242893E+01 0.17491088499E+01 0.19568041879E+01
 0.21967287427E+01 0.24622184423E+01 0.27415370075E+01 0.30174593903E+01 0.32682109653E+01
 0.34701002112E+01 0.36014968888E+01 0.36471458038E+01 0.36015178864E+01 0.34701035757E+01
 0.32681770015E+01 0.30174161018E+01 0.27415199057E+01 0.24622238833E+01 0.21967257831E+01
 0.19567801149E+01 0.17490825793E+01 0.15763175805E+01 0.14383213726E+01 0.13330411445E+01
 0.12572337614E+01 0.12070643758E+01 0.11788155721E+01 0.11697404838E+01 0.11788191734E+01
 0.14347460642E+01 0.14790007100E+01 0.15440645860E+01 0.16332342339E+01 0.17491088499E+01
 0.18930646663E+01 0.20645016962E+01 0.22598764078E+01 0.24717991011E+01 0.26885911870E+01
 0.28946689360E+01 0.30720072166E+01 0.32026921637E+01 0.32721449115E+01 0.32721531506E+01
 0.32027112980E+01 0.30720182468E+01 0.28946479882E+01 0.26885372393E+01 0.24717461865E+01
 0.22598613043E+01 0.20645221230E+01 0.18930850428E+01 0.17491066131E+01 0.16332232920E+01
 0.15440683075E+01 0.14790182096E+01 0.14347579431E+01 0.14078160703E+01 0.13952206386E+01
 0.13952242023E+01 0.14078177240E+01 0.17354108752E+01 0.17642755709E+01 0.18086520371E+01
 0.18719437238E+01 0.19568041879E+01 0.20645016962E+01 0.21940605185E+01 0.23414086955E+01
 0.24989433448E+01 0.26557906465E+01 0.27987774723E+01 0.29140242705E+01 0.29890530813E+01
 0.30151076270E+01 0.29890373902E+01 0.29140156556E+01 0.27987903670E+01 0.26558143620E+01
 0.24989580430E+01 0.23414059724E+01 0.21940469257E+01 0.20644920071E+01 0.19568102030E+01
 0.18719604548E+01 0.18086593781E+01 0.17642641552E+01 0.17353981464E+01 0.17183993808E+01
 0.17098546329E+01 0.17072984244E+01 0.17098397260E+01 0.17183936867E+01 0.21174742179E+01
 0.21174906145E+01 0.21279405611E+01 0.21532334062E+01 0.21967287427E+01 0.22598764078E+01
 0.23414086955E+01 0.24369421967E+01 0.25392234804E+01 0.26389531781E+01 0.27259548498E+01
 0.27905366401E+01 0.28249844455E+01 0.28249829918E+01 0.27905295018E+01 0.27259422163E+01
 0.26389498202E+01 0.25392483488E+01 0.24369887432E+01 0.23414380633E+01 0.22598580413E+01
 0.21966813204E+01 0.21532036434E+01 0.21279442452E+01 0.21175006941E+01 0.21174686894E+01
 0.21231318322E+01 0.21300041789E+01 0.21344624508E+01 0.21344587334E+01 0.21300030965E+01
 0.21231415854E+01 0.25863118248E+01 0.25392241791E+01 0.24989440704E+01 0.24718000449E+01
 0.24622184423E+01 0.24717991011E+01 0.24989433448E+01 0.25392234804E+01 0.25863097245E+01
 0.26330649692E+01 0.26725434058E+01 0.26988808111E+01 0.27081236598E+01 0.26988785108E+01
 0.26725508639E+01 0.26330803012E+01 0.25863125203E+01 0.25392043518E+01 0.24989208475E+01
 0.24717939618E+01 0.24622230126E+01 0.24717900708E+01 0.24989149864E+01 0.25391976758E+01
 0.25863051789E+01 0.26330736694E+01 0.26725471881E+01 0.26988780987E+01 0.27081248593E+01
 0.26988827906E+01 0.26725464958E+01 0.26330684085E+01 0.31405998193E+01 0.30233067846E+01
 0.29123451581E+01 0.28166089907E+01 0.27415370075E+01 0.26885911870E+01 0.26557906465E+01
 0.26389531781E+01 0.26330649692E+01 0.26333418876E+01 0.26358535683E+01 0.26378297619E+01
 0.26378315351E+01 0.26358594017E+01 0.26333555535E+01 0.26330864610E+01 0.26389633128E+01
 0.26557649587E+01 0.26885410784E+01 0.27415109574E+01 0.28166329831E+01 0.29123847695E+01
 0.30233116940E+01 0.31405668557E+01 0.32532443441E+01 0.33500591745E+01 0.34209527050E+01
 0.34584060879E+01 0.34583993513E+01 0.34209419753E+01 0.33500657837E+01 0.32532770784E+01
 0.37676720511E+01 0.35535196322E+01 0.33503185238E+01 0.31696346349E+01 0.30174593903E+01
 0.28946689360E+01 0.27987774723E+01 0.27259548498E+01 0.26725434058E+01 0.26358535683E+01
 0.26143176728E+01 0.26072183836E+01 0.26143400825E+01 0.26358594483E+01 0.26725254603E+01
 0.27259492788E+01 0.27987996606E+01 0.28946918866E+01 0.30174641093E+01 0.31696323973E+01
 0.33503165537E+01 0.35535112758E+01 0.37676649977E+01 0.39769367845E+01 0.41636528287E+01
 0.43110257589E+01 0.44054129170E+01 0.44379219799E+01 0.44054394686E+01 0.43110402965E+01
 0.41636423436E+01 0.39769278265E+01 0.44396387904E+01 0.41013467309E+01 0.37855766261E+01
 0.35059617921E+01 0.32682109653E+01 0.30720072166E+01 0.29140242705E+01 0.27905366401E+01
 0.26988808111E+01 0.26378297619E+01 0.26072183836E+01 0.26072275668E+01 0.26378419079E+01
 0.26988745914E+01 0.27905166049E+01 0.29140121230E+01 0.30720191157E+01 0.32682499015E+01
 0.35060068389E+01 0.37855806133E+01 0.41012854715E+01 0.44395640631E+01 0.47793641570E+01
 0.50948889359E+01 0.53596664112E+01 0.55505048414E+01 0.56504244798E+01 0.56504548385E+01
 0.55505430193E+01 0.53596440385E+01 0.50948400222E+01 0.47793742205E+01 0.51124529651E+01
 0.46264920559E+01 0.41829083248E+01 0.37960497630E+01 0.34701002112E+01 0.32026921637E+01
 0.29890530813E+01 0.28249844455E+01 0.27081236598E+01 0.26378315351E+01 0.26143400825E+01
 0.26378419079E+01 0.27081243117E+01 0.28249724297E+01 0.29890507513E+01 0.32027090227E+01
 0.34701124725E+01 0.37960350597E+01 0.41828809937E+01 0.46264807932E+01 0.51124551476E+01
 0.56151878598E+01 0.61002272965E+01 0.65292451678E+01 0.68658066716E+01 0.70804274762E+01
 0.71541341323E+01 0.70804187924E+01 0.68658170094E+01 0.65292849047E+01 0.61002688292E+01
 0.56152025632E+01 0.57293594032E+01 0.50811216840E+01 0.45037223040E+01 0.40101751877E+01
 0.36014968888E+01 0.32721449115E+01 0.30151076270E+01 0.28249829918E+01 0.26988785108E+01
 0.26358594017E+01 0.26358594483E+01 0.26988745914E+01 0.28249724297E+01 0.30151034302E+01
 0.32721649113E+01 0.36015285048E+01 0.40101731141E+01 0.45036701658E+01 0.50810758107E+01
 0.57293842378E+01 0.64203286446E+01 0.71115552851E+01 0.77519320524E+01 0.82889525273E+01
 0.86760816957E+01 0.88787970724E+01 0.88787966284E+01 0.86761071954E+01 0.82890220565E+01
 0.77519878271E+01 0.71115324558E+01 0.64202589675E+01 0.62286976536E+01 0.54173841223E+01
 0.47128114567E+01 0.41240622481E+01 0.36471458038E+01 0.32721531506E+01 0.29890373902E+01
 0.27905295018E+01 0.26725508639E+01 0.26333555535E+01 0.26725254603E+01 0.27905166049E+01
 0.29890507513E+01 0.32721649113E+01 0.36471387633E+01 0.41240575418E+01 0.47128288557E+01
 0.54174100733E+01 0.62287119447E+01 0.71191235508E+01 0.80414788365E+01 0.89333021973E+01
 0.97248380160E+01 0.10348470918E+02 0.10747784465E+02 0.10885281623E+02 0.10747797796E+02
 0.10348486067E+02 0.97248409011E+01 0.89332917645E+01 0.80414679502E+01 0.71191170795E+01
 0.65545766742E+01 0.55964260387E+01 0.47854684774E+01 0.41240480759E+01 0.36015178864E+01
 0.32027112980E+01 0.29140156556E+01 0.27259422163E+01 0.26330803012E+01 0.26330864610E+01
 0.27259492788E+01 0.29140121230E+01 0.32027090227E+01 0.36015285048E+01 0.41240575418E+01
 0.47854654250E+01 0.55964365788E+01 0.65546296117E+01 0.76369091712E+01 0.87958922411E+01
 0.99622681176E+01 0.11051720814E+02 0.11974427425E+02 0.12646129314E+02 0.13000401496E+02
 0.13000350579E+02 0.12646038761E+02 0.11974405980E+02 0.11051790085E+02 0.99623423830E+01
 0.87958900029E+01 0.76368454111E+01 0.66678729586E+01 0.55964339095E+01 0.47128094090E+01
 0.40101497392E+01 0.34701035757E+01 0.30720182468E+01 0.27987903670E+01 0.26389498202E+01
 0.25863125203E+01 0.26389633128E+01 0.27987996606E+01 0.30720191157E+01 0.34701124725E+01
 0.40101731141E+01 0.47128288557E+01 0.55964365788E+01 0.66678772760E+01 0.79127697938E+01
 0.92892073365E+01 0.10727515518E+02 0.12135126465E+02 0.13404106998E+02 0.14421076688E+02
 0.15081710946E+02 0.15310757041E+02 0.15081692057E+02 0.14421077921E+02 0.13404145105E+02
 0.12135165716E+02 0.10727514171E+02 0.92891723876E+01 0.79127418657E+01 0.65545337044E+01
 0.54173844010E+01 0.45037266295E+01 0.37960472056E+01 0.32681770015E+01 0.28946479882E+01
 0.26558143620E+01 0.25392483488E+01 0.25392043518E+01 0.26557649587E+01 0.28946918866E+01
 0.32682499015E+01 0.37960350597E+01 0.45036701658E+01 0.54174100733E+01 0.65546296117E+01
 0.79127697938E+01 0.94608322222E+01 0.11136424203E+02 0.12847851521E+02 0.14478207656E+02
 0.15889462231E+02 0.16929673783E+02 0.17480364951E+02 0.17480440982E+02 0.16929801562E+02
 0.15889473379E+02 0.14478089459E+02 0.12847759756E+02 0.11136461126E+02 0.94609049781E+01
 0.79127419468E+01 0.62286522445E+01 0.50810793038E+01 0.41829195577E+01 0.35059963751E+01
 0.30174161018E+01 0.26885372393E+01 0.24989580430E+01 0.24369887432E+01 0.24989208475E+01
 0.26885410784E+01 0.30174641093E+01 0.35060068389E+01 0.41828809937E+01 0.50810758107E+01
 0.62287119447E+01 0.76369091712E+01 0.92892073365E+01 0.11136424203E+02 0.13096741664E+02
 0.15056623246E+02 0.16861779441E+02 0.18317333510E+02 0.19260735477E+02 0.19587332901E+02
 0.19260713187E+02 0.18317316879E+02 0.16861762909E+02 0.15056585000E+02 0.13096707381E+02
 0.11136427234E+02 0.92892099127E+01 0.76368600047E+01 0.57293434886E+01 0.46264154101E+01
 0.37855813775E+01 0.31696807601E+01 0.27415199057E+01 0.24717461865E+01 0.23414059724E+01
 0.23414380633E+01 0.24717939618E+01 0.27415109574E+01 0.31696323973E+01 0.37855806133E+01
 0.46264807932E+01 0.57293842378E+01 0.71191235508E+01 0.87958922411E+01 0.10727515518E+02
 0.12847851521E+02 0.15056623246E+02 0.17201939268E+02 0.19062100701E+02 0.20432867475E+02
 0.21160545098E+02 0.21160452474E+02 0.20432727467E+02 0.19062109875E+02 0.17202054268E+02
 0.15056651265E+02 0.12847755799E+02 0.10727443209E+02 0.87959219208E+01 0.71191619087E+01
 0.51124570724E+01 0.41012853854E+01 0.33503077531E+01 0.28166261875E+01 0.24622238833E+01
 0.22598613043E+01 0.21940469257E+01 0.22598580413E+01 0.24622230126E+01 0.28166329831E+01
 0.33503165537E+01 0.41012854715E+01 0.51124551476E+01 0.64203286446E+01 0.80414788365E+01
 0.99622681176E+01 0.12135126465E+02 0.14478207656E+02 0.16861779441E+02 0.19062100701E+02
 0.20842244124E+02 0.22003697338E+02 0.22407809709E+02 0.22003723765E+02 0.20842230587E+02
 0.19062033589E+02 0.16861731538E+02 0.14478229695E+02 0.12135176501E+02 0.99622830450E+01
 0.80414594625E+01 0.64203144355E+01 0.44396334311E+01 0.35535081856E+01 0.29123322425E+01
 0.24717782784E+01 0.21967257831E+01 0.20645221230E+01 0.20644920071E+01 0.21966813204E+01
 0.24717900708E+01 0.29123847695E+01 0.35535112758E+01 0.44395640631E+01 0.56151878598E+01
 0.71115552851E+01 0.89333021973E+01 0.11051720814E+02 0.13404106998E+02 0.15889462231E+02
 0.18317333510E+02 0.20432867475E+02 0.22003697338E+02 0.22843219915E+02 0.22843265993E+02
 0.22003719961E+02 0.20432733178E+02 0.18317156699E+02 0.15889453506E+02 0.13404250617E+02
 0.11051810218E+02 0.89332557040E+01 0.71115010209E+01 0.56152291887E+01 0.37676473893E+01
 0.30233306755E+01 0.24989510931E+01 0.21532016372E+01 0.19567801149E+01 0.18930850428E+01
 0.19568102030E+01 0.21532036434E+01 0.24989149864E+01 0.30233116940E+01 0.37676649977E+01
 0.47793641570E+01 0.61002272965E+01 0.77519320524E+01 0.97248380160E+01 0.11974427425E+02
 0.14421076688E+02 0.16929673783E+02 0.19260735477E+02 0.21160545098E+02 0.22407809709E+02
 0.22843265993E+02 0.22407741496E+02 0.21160462663E+02 0.19260701600E+02 0.16929697544E+02
 0.14421108246E+02 0.11974432179E+02 0.97248433846E+01 0.77519677469E+01 0.61002624590E+01
 0.47793591965E+01 0.31405731241E+01 0.25392471050E+01 0.21279665926E+01 0.18719310160E+01
 0.17490825793E+01 0.17491066131E+01 0.18719604548E+01 0.21279442452E+01 0.25391976758E+01
 0.31405668557E+01 0.39769367845E+01 0.50948889359E+01 0.65292451678E+01 0.82889525273E+01
 0.10348470918E+02 0.12646129314E+02 0.15081710946E+02 0.17480364951E+02 0.19587332901E+02
 0.21160452474E+02 0.22003723765E+02 0.22003719961E+02 0.21160462663E+02 0.19587379104E+02
 0.17480415920E+02 0.15081717602E+02 0.12646102758E+02 0.10348474192E+02 0.82890057660E+01
 0.65292891119E+01 0.50948720649E+01 0.39768960733E+01 0.25863029645E+01 0.21174987534E+01
 0.18086707826E+01 0.16332381090E+01 0.15763175805E+01 0.16332232920E+01 0.18086593781E+01
 0.21175006941E+01 0.25863051789E+01 0.32532443441E+01 0.41636528287E+01 0.53596664112E+01
 0.68658066716E+01 0.86760816957E+01 0.10747784465E+02 0.13000401496E+02 0.15310757041E+02
 0.17480440982E+02 0.19260713187E+02 0.20432727467E+02 0.20842230587E+02 0.20432733178E+02
 0.19260701600E+02 0.17480415920E+02 0.15310757108E+02 0.13000444641E+02 0.10747838007E+02
 0.86761071029E+01 0.68658084663E+01 0.53596738977E+01 0.41636725011E+01 0.32532572240E+01
 0.21174849481E+01 0.17642815048E+01 0.15440596053E+01 0.14383102647E+01 0.14383213726E+01
 0.15440683075E+01 0.17642641552E+01 0.21174686894E+01 0.26330736694E+01 0.33500591745E+01
 0.43110257589E+01 0.55505048414E+01 0.70804274762E+01 0.88787970724E+01 0.10885281623E+02
 0.13000350579E+02 0.15081692057E+02 0.16929801562E+02 0.18317316879E+02 0.19062109875E+02
 0.19062033589E+02 0.18317156699E+02 0.16929697544E+02 0.15081717602E+02 0.13000444641E+02
 0.10885336042E+02 0.88787915796E+01 0.70804296997E+01 0.55505487533E+01 0.43110653450E+01
 0.33500582894E+01 0.26330646845E+01 0.17354273577E+01 0.14790147288E+01 0.13330127039E+01
 0.12856220997E+01 0.13330411445E+01 0.14790182096E+01 0.17353981464E+01 0.21231318322E+01
 0.26725471881E+01 0.34209527050E+01 0.44054129170E+01 0.56504244798E+01 0.71541341323E+01
 0.88787966284E+01 0.10747797796E+02 0.12646038761E+02 0.14421077921E+02 0.15889473379E+02
 0.16861762909E+02 0.17202054268E+02 0.16861731538E+02 0.15889453506E+02 0.14421108246E+02
 0.12646102758E+02 0.10747838007E+02 0.88787915796E+01 0.71541273005E+01 0.56504506619E+01
 0.44054391092E+01 0.34209380359E+01 0.26725194053E+01 0.21231409529E+01 0.14347546225E+01
 0.12572439463E+01 0.11718523385E+01 0.11718450261E+01 0.12572337614E+01 0.14347579431E+01
 0.17183993808E+01 0.21300041789E+01 0.26988780987E+01 0.34584060879E+01 0.44379219799E+01
 0.56504548385E+01 0.70804187924E+01 0.86761071954E+01 0.10348486067E+02 0.11974405980E+02
 0.13404145105E+02 0.14478089459E+02 0.15056585000E+02 0.15056651265E+02 0.14478229695E+02
 0.13404250617E+02 0.11974432179E+02 0.10348474192E+02 0.86761071029E+01 0.70804296997E+01
 0.56504506619E+01 0.44379008289E+01 0.34583880017E+01 0.26988698268E+01 0.21299945468E+01
 0.17183862494E+01 0.12070652165E+01 0.10925736456E+01 0.10553909088E+01 0.10925623417E+01
 0.12070643758E+01 0.14078160703E+01 0.17098546329E+01 0.21344624508E+01 0.27081248593E+01
 0.34583993513E+01 0.44054394686E+01 0.55505430193E+01 0.68658170094E+01 0.82890220565E+01
 0.97248409011E+01 0.11051790085E+02 0.12135165716E+02 0.12847759756E+02 0.13096707381E+02
 0.12847755799E+02 0.12135176501E+02 0.11051810218E+02 0.97248433846E+01 0.82890057660E+01
 0.68658084663E+01 0.55505487533E+01 0.44054391092E+01 0.34583880017E+01 0.27081199135E+01
 0.21344658155E+01 0.17098496502E+01 0.14078043643E+01 0.10430906475E+01 0.97785018325E+00
 0.97784987166E+00 0.10430952618E+01 0.11788155721E+01 0.13952206386E+01 0.17072984244E+01
 0.21344587334E+01 0.26988827906E+01 0.34209419753E+01 0.43110402965E+01 0.53596440385E+01
 0.65292849047E+01 0.77519878271E+01 0.89332917645E+01 0.99623423830E+01 0.10727514171E+02
 0.11136461126E+02 0.11136427234E+02 0.10727443209E+02 0.99622830450E+01 0.89332557040E+01
 0.77519677469E+01 0.65292891119E+01 0.53596738977E+01 0.43110653450E+01 0.34209380359E+01
 0.26988698268E+01 0.21344658155E+01 0.17073166744E+01 0.13952247430E+01 0.11788069235E+01
 0.93389511987E+00 0.90614548967E+00 0.93389002099E+00 0.10194957279E+01 0.11697404838E+01
 0.13952242023E+01 0.17098397260E+01 0.21300030965E+01 0.26725464958E+01 0.33500657837E+01
 0.41636423436E+01 0.50948400222E+01 0.61002688292E+01 0.71115324558E+01 0.80414679502E+01
 0.87958900029E+01 0.92891723876E+01 0.94609049781E+01 0.92892099127E+01 0.87959219208E+01
 0.80414594625E+01 0.71115010209E+01 0.61002624590E+01 0.50948720649E+01 0.41636725011E+01
 0.33500582894E+01 0.26725194053E+01 0.21299945468E+01 0.17098496502E+01 0.13952247430E+01
 0.11697275034E+01 0.10194899063E+01 0.87186837260E+00 0.87186671586E+00 0.91970257766E+00
 0.10194951247E+01 0.11788191734E+01 0.14078177240E+01 0.17183936867E+01 0.21231415854E+01
 0.26330684085E+01 0.32532770784E+01 0.39769278265E+01 0.47793742205E+01 0.56152025632E+01
 0.64202589675E+01 0.71191170795E+01 0.76368454111E+01 0.79127418657E+01 0.79127419468E+01
 0.76368600047E+01 0.71191619087E+01 0.64203144355E+01 0.56152291887E+01 0.47793591965E+01
 0.39768960733E+01 0.32532572240E+01 0.26330646845E+01 0.21231409529E+01 0.17183862494E+01
 0.14078043643E+01 0.11788069235E+01 0.10194899063E+01 0.91970383549E+00 0.87186730896E+00
 0.90614419509E+00 0.97784701898E+00 0.10925649318E+01 0.12572295790E+01 0.14790026093E+01
 0.17642764970E+01 0.21174911287E+01 0.25392253448E+01 0.30233079837E+01 0.35535199240E+01
 0.41013470292E+01 0.46264935716E+01 0.50811235303E+01 0.54173848840E+01 0.55964264573E+01
 0.55964356348E+01 0.54173873197E+01 0.50810823946E+01 0.46264188508E+01 0.41012893341E+01
 0.35535107260E+01 0.30233294904E+01 0.25392422347E+01 0.21174916833E+01 0.17642729548E+01
 0.14790055838E+01 0.12572367743E+01 0.10925705849E+01 0.97785034131E+00 0.90614666235E+00
 0.87186842940E+00 0.90614419509E+00 0.94863078976E+00 0.10238020219E+01 0.11370827617E+01
 0.12943204307E+01 0.15007319061E+01 0.17599696673E+01 0.20730733063E+01 0.24369423492E+01
 0.28422365425E+01 0.32712829262E+01 0.36972167157E+01 0.40855945357E+01 0.43988768706E+01
 0.46029361127E+01 0.46738366384E+01 0.46029420098E+01 0.43988505967E+01 0.40855326769E+01
 0.36971720445E+01 0.32712925625E+01 0.28422676043E+01 0.24369406429E+01 0.20730402548E+01
 0.17599535107E+01 0.15007543498E+01 0.12943510474E+01 0.11370896612E+01 0.10237937962E+01
 0.94863203530E+00 0.90615409516E+00 0.89246050291E+00 0.97784701898E+00 0.10238020219E+01
 0.10980493307E+01 0.12054727882E+01 0.13506460744E+01 0.15369364768E+01 0.17657551448E+01
 0.20357093832E+01 0.23414089816E+01 0.26719983123E+01 0.30100156711E+01 0.33315477145E+01
 0.36084459506E+01 0.38125676959E+01 0.39210456276E+01 0.39210448463E+01 0.38125656890E+01
 0.36084463896E+01 0.33315567975E+01 0.30100323488E+01 0.26720112965E+01 0.23414101384E+01
 0.20357045471E+01 0.17657549354E+01 0.15369418303E+01 0.13506501093E+01 0.12054722661E+01
 0.10980466424E+01 0.10237990997E+01 0.97784416550E+00 0.95605316907E+00 0.95605452646E+00
 0.10925649318E+01 0.11370827617E+01 0.12054727882E+01 0.13019191119E+01 0.14298260715E+01
 0.15911380789E+01 0.17857616941E+01 0.20108543875E+01 0.22598775438E+01 0.25216491242E+01
 0.27799699443E+01 0.30144836873E+01 0.32031115108E+01 0.33257558792E+01 0.33683107171E+01
 0.33257216234E+01 0.32030935317E+01 0.30145139325E+01 0.27800178400E+01 0.25216617483E+01
 0.22598478297E+01 0.20108259614E+01 0.17857688269E+01 0.15911649559E+01 0.14298347182E+01
 0.13018993194E+01 0.12054478412E+01 0.11370750507E+01 0.10925733995E+01 0.10678626276E+01
 0.10599819510E+01 0.10678528897E+01 0.12572295790E+01 0.12943204307E+01 0.13506460744E+01
 0.14298260715E+01 0.15344951718E+01 0.16657967127E+01 0.18228596666E+01 0.20021423793E+01
 0.21967292354E+01 0.23958889205E+01 0.25853181629E+01 0.27484188733E+01 0.28686534667E+01
 0.29325546747E+01 0.29325467011E+01 0.28686412064E+01 0.27484188091E+01 0.25853254945E+01
 0.23958845472E+01 0.21967078893E+01 0.20021193878E+01 0.18228495880E+01 0.16657970436E+01
 0.15344943408E+01 0.14298190096E+01 0.13506372089E+01 0.12943160409E+01 0.12572314037E+01
 0.12354370664E+01 0.12255299563E+01 0.12255275972E+01 0.12354324094E+01 0.14790026093E+01
 0.15007319061E+01 0.15369364768E+01 0.15911380789E+01 0.16657967127E+01 0.17618425592E+01
 0.18781254247E+01 0.20108536927E+01 0.21532327405E+01 0.22955286805E+01 0.24257455547E+01
 0.25310312433E+01 0.25997253083E+01 0.26236212000E+01 0.25997509871E+01 0.25310628532E+01
 0.24257530114E+01 0.22955003482E+01 0.21531963356E+01 0.20108489300E+01 0.18781529799E+01
 0.17618615657E+01 0.16657800106E+01 0.15911079884E+01 0.15369311200E+01 0.15007528976E+01
 0.14790169132E+01 0.14676569674E+01 0.14627837500E+01 0.14615262205E+01 0.14628046036E+01
 0.14676694067E+01 0.17642764970E+01 0.17599696673E+01 0.17657551448E+01 0.17857616941E+01
 0.18228596666E+01 0.18781254247E+01 0.19503409203E+01 0.20357093913E+01 0.21279403037E+01
 0.22187338520E+01 0.22986540595E+01 0.23584044052E+01 0.23904204142E+01 0.23904273545E+01
 0.23584213551E+01 0.22986695761E+01 0.22187369527E+01 0.21279354381E+01 0.20357144815E+01
 0.19503628966E+01 0.18781480380E+01 0.18228654918E+01 0.17857561995E+01 0.17657562475E+01
 0.17599806887E+01 0.17642834541E+01 0.17738180660E+01 0.17836908773E+01 0.17898120390E+01
 0.17898189939E+01 0.17837049668E+01 0.17738250288E+01 0.21174911287E+01 0.20730733063E+01
 0.20357093832E+01 0.20108543875E+01 0.20021423793E+01 0.20108536927E+01 0.20357093913E+01
 0.20730740542E+01 0.21174913374E+01 0.21623999346E+01 0.22009591573E+01 0.22270234162E+01
 0.22362423828E+01 0.22270248319E+01 0.22009496002E+01 0.21623849591E+01 0.21174973887E+01
 0.20731083193E+01 0.20357380214E+01 0.20108422217E+01 0.20021062319E+01 0.20108425591E+01
 0.20357393312E+01 0.20731093856E+01 0.21174956721E+01 0.21623800006E+01 0.22009434279E+01
 0.22270189719E+01 0.22362370164E+01 0.22270193024E+01 0.22009574630E+01 0.21623999698E+01
 0.25392253448E+01 0.24369423492E+01 0.23414089816E+01 0.22598775438E+01 0.21967292354E+01
 0.21532327405E+01 0.21279403037E+01 0.21174913374E+01 0.21174745687E+01 0.21231415555E+01
 0.21300049982E+01 0.21344636503E+01 0.21344686739E+01 0.21300101929E+01 0.21231377766E+01
 0.21174738869E+01 0.21175030285E+01 0.21279432788E+01 0.21532013577E+01 0.21966786665E+01
 0.22598537423E+01 0.23414317687E+01 0.24369821817E+01 0.25392423338E+01 0.26389433591E+01
 0.27259357047E+01 0.27905255396E+01 0.28249827280E+01 0.28249860922E+01 0.27905386763E+01
 0.27259576323E+01 0.26389564031E+01 0.30233079837E+01 0.28422365425E+01 0.26719983123E+01
 0.25216491242E+01 0.23958889205E+01 0.22955286805E+01 0.22187338520E+01 0.21623999346E+01
 0.21231415555E+01 0.20978125791E+01 0.20838010884E+01 0.20793343543E+01 0.20837889631E+01
 0.20978163641E+01 0.21231779499E+01 0.21624353569E+01 0.22187072534E+01 0.22954324572E+01
 0.23958023035E+01 0.25216553907E+01 0.26720840881E+01 0.28423126744E+01 0.30233197215E+01
 0.32023778953E+01 0.33644357655E+01 0.34941238651E+01 0.35780717922E+01 0.36071368072E+01
 0.35780658577E+01 0.34941228605E+01 0.33644543808E+01 0.32024049015E+01 0.35535199240E+01
 0.32712829262E+01 0.30100156711E+01 0.27799699443E+01 0.25853181629E+01 0.24257455547E+01
 0.22986540595E+01 0.22009591573E+01 0.21300049982E+01 0.20838010884E+01 0.20610203973E+01
 0.20610064100E+01 0.20837859672E+01 0.21300280789E+01 0.22010001014E+01 0.22986337090E+01
 0.24256269188E+01 0.25851848035E+01 0.27799518381E+01 0.30101352979E+01 0.32714278990E+01
 0.35535817116E+01 0.38402507361E+01 0.41102996926E+01 0.43404063322E+01 0.45084871715E+01
 0.45972680393E+01 0.45972582202E+01 0.45084640354E+01 0.43403934501E+01 0.41103171968E+01
 0.38402650609E+01 0.41013470292E+01 0.36972167157E+01 0.33315477145E+01 0.30144836873E+01
 0.27484188733E+01 0.25310312433E+01 0.23584044052E+01 0.22270234162E+01 0.21344636503E+01
 0.20793343543E+01 0.20610064100E+01 0.20793349059E+01 0.21344919595E+01 0.22270518657E+01
 0.23583461769E+01 0.25308618942E+01 0.27482534152E+01 0.30144682677E+01 0.33316887688E+01
 0.36973773029E+01 0.41014140237E+01 0.45245795541E+01 0.49392231175E+01 0.53121911339E+01
 0.56094333893E+01 0.58013360638E+01 0.58677028886E+01 0.58013428810E+01 0.56094215234E+01
 0.53121683269E+01 0.49392241972E+01 0.45245859294E+01 0.46264935716E+01 0.40855945357E+01
 0.36084459506E+01 0.32031115108E+01 0.28686534667E+01 0.25997253083E+01 0.23904204142E+01
 0.22362423828E+01 0.21344686739E+01 0.20837889631E+01 0.20837859672E+01 0.21344919595E+01
 0.22362925928E+01 0.23903803280E+01 0.25995110567E+01 0.28683994555E+01 0.32030580756E+01
 0.36086429981E+01 0.40858391767E+01 0.46265856799E+01 0.52107026484E+01 0.58050500302E+01
 0.63660050314E+01 0.68448983228E+01 0.71952817279E+01 0.73805861254E+01 0.73806075253E+01
 0.71953106145E+01 0.68448933984E+01 0.63660010050E+01 0.58050998892E+01 0.52107499470E+01
 0.50811235303E+01 0.43988768706E+01 0.38125676959E+01 0.33257558792E+01 0.29325546747E+01
 0.26236212000E+01 0.23904273545E+01 0.22270248319E+01 0.21300101929E+01 0.20978163641E+01
 0.21300280789E+01 0.22270518657E+01 0.23903803280E+01 0.26234187533E+01 0.29322915623E+01
 0.33256689706E+01 0.38127612298E+01 0.43991789936E+01 0.50812883433E+01 0.58407681682E+01
 0.66416012023E+01 0.74311018389E+01 0.81452002435E+01 0.87170686833E+01 0.90876324649E+01
 0.92160473320E+01 0.90876673357E+01 0.87170922186E+01 0.81452014306E+01 0.74311338443E+01
 0.66416830030E+01 0.58407928565E+01 0.54173848840E+01 0.46029361127E+01 0.39210456276E+01
 0.33683107171E+01 0.29325467011E+01 0.25997509871E+01 0.23584213551E+01 0.22009496002E+01
 0.21231377766E+01 0.21231779499E+01 0.22010001014E+01 0.23583461769E+01 0.25995110567E+01
 0.29322915623E+01 0.33682642358E+01 0.39212716290E+01 0.46032539508E+01 0.54175552989E+01
 0.63513457492E+01 0.73699064718E+01 0.84152327103E+01 0.94098912533E+01 0.10265670300E+02
 0.10896048615E+02 0.11230985797E+02 0.11231005369E+02 0.10896074947E+02 0.10265659151E+02
 0.94098689648E+01 0.84152751857E+01 0.73700132193E+01 0.63513812965E+01 0.55964264573E+01
 0.46738366384E+01 0.39210448463E+01 0.33257216234E+01 0.28686412064E+01 0.25310628532E+01
 0.22986695761E+01 0.21623849591E+01 0.21174738869E+01 0.21624353569E+01 0.22986337090E+01
 0.25308618942E+01 0.28683994555E+01 0.33256689706E+01 0.39212716290E+01 0.46741804836E+01
 0.55966264028E+01 0.66848603003E+01 0.79106636981E+01 0.92167689918E+01 0.10517896251E+02
 0.11707498392E+02 0.12670083782E+02 0.13299083455E+02 0.13518080943E+02 0.13299116316E+02
 0.12670089473E+02 0.11707461870E+02 0.10517899777E+02 0.92168927829E+01 0.79108457678E+01
 0.66849119743E+01 0.55964356348E+01 0.46029420098E+01 0.38125656890E+01 0.32030935317E+01
 0.27484188091E+01 0.24257530114E+01 0.22187369527E+01 0.21174973887E+01 0.21175030285E+01
 0.22187072534E+01 0.24256269188E+01 0.27482534152E+01 0.32030580756E+01 0.38127612298E+01
 0.46032539508E+01 0.55966264028E+01 0.68009231353E+01 0.81993289705E+01 0.97423576953E+01
 0.11345297726E+02 0.12891234872E+02 0.14240162843E+02 0.15246489556E+02 0.15785946354E+02
 0.15785965581E+02 0.15246532112E+02 0.14240196271E+02 0.12891252811E+02 0.11345353871E+02
 0.97425075907E+01 0.81995134759E+01 0.68009708674E+01 0.54173873197E+01 0.43988505967E+01
 0.36084463896E+01 0.30145139325E+01 0.25853254945E+01 0.22955003482E+01 0.21279354381E+01
 0.20731083193E+01 0.21279432788E+01 0.22954324572E+01 0.25851848035E+01 0.30144682677E+01
 0.36086429981E+01 0.43991789936E+01 0.54175552989E+01 0.66848603003E+01 0.81993289705E+01
 0.99256293145E+01 0.11788743240E+02 0.13672698491E+02 0.15424173687E+02 0.16864871784E+02
 0.17818801835E+02 0.18153314923E+02 0.17818798334E+02 0.16864939270E+02 0.15424284373E+02
 0.13672736994E+02 0.11788726193E+02 0.99257165842E+01 0.81995441789E+01 0.66849778691E+01
 0.50810823946E+01 0.40855326769E+01 0.33315567975E+01 0.27800178400E+01 0.23958845472E+01
 0.21531963356E+01 0.20357144815E+01 0.20357380214E+01 0.21532013577E+01 0.23958023035E+01
 0.27799518381E+01 0.33316887688E+01 0.40858391767E+01 0.50812883433E+01 0.63513457492E+01
 0.79106636981E+01 0.97423576953E+01 0.11788743240E+02 0.13946219331E+02 0.16063186869E+02
 0.17944173399E+02 0.19368790707E+02 0.20138157723E+02 0.20138122879E+02 0.19368783808E+02
 0.17944296136E+02 0.16063325522E+02 0.13946219638E+02 0.11788694199E+02 0.97424700917E+01