   2   2   0   0
  0.2001288E+02  0.3839590E-09  0.3839590E-09  0.3839590E-09  0.5000000E-15
  1.000000000000000E-004
  CAR 
 unknown system                          
     16.75409981     -8.19427388  301      5.91494272      1.00000000
     -8.194  0.0000E+00  0.0000E+00
     -8.111  0.0000E+00  0.0000E+00
     -8.028  0.0000E+00  0.0000E+00
     -7.945  0.0000E+00  0.0000E+00
     -7.862  0.0000E+00  0.0000E+00
     -7.778  0.0000E+00  0.0000E+00
     -7.695  0.0000E+00  0.0000E+00
     -7.612  0.0000E+00  0.0000E+00
     -7.529  0.0000E+00  0.0000E+00
     -7.446  0.0000E+00  0.0000E+00
     -7.363  0.2595E-18  0.2158E-19
     -7.280  0.3892E-16  0.3258E-17
     -7.196  0.3195E-14  0.2690E-15
     -7.113  0.1875E-12  0.1586E-13
     -7.030  0.7825E-11  0.6666E-12
     -6.947  0.2325E-09  0.2000E-10
     -6.864  0.4918E-08  0.4290E-09
     -6.781  0.7414E-07  0.6594E-08
     -6.697  0.7972E-06  0.7289E-07
     -6.614  0.6125E-05  0.5823E-06
     -6.531  0.3377E-04  0.3390E-05
     -6.448  0.1350E-03  0.1462E-04
     -6.365  0.4028E-03  0.4811E-04
     -6.282  0.9599E-03  0.1279E-03
     -6.198  0.2045E-02  0.2980E-03
     -6.115  0.4205E-02  0.6477E-03
     -6.032  0.7912E-02  0.1306E-02
     -5.949  0.1227E-01  0.2326E-02
     -5.866  0.1480E-01  0.3557E-02
     -5.783  0.1404E-01  0.4724E-02
     -5.699  0.1194E-01  0.5717E-02
     -5.616  0.1194E-01  0.6710E-02
     -5.533  0.1511E-01  0.7966E-02
     -5.450  0.2026E-01  0.9651E-02
     -5.367  0.2677E-01  0.1188E-01
     -5.284  0.3360E-01  0.1467E-01
     -5.200  0.3632E-01  0.1769E-01
     -5.117  0.3105E-01  0.2027E-01
     -5.034  0.2079E-01  0.2200E-01
     -4.951  0.1292E-01  0.2308E-01
     -4.868  0.1209E-01  0.2408E-01
     -4.785  0.1864E-01  0.2563E-01
     -4.702  0.3073E-01  0.2819E-01
     -4.618  0.4407E-01  0.3185E-01
     -4.535  0.5203E-01  0.3618E-01
     -4.452  0.5139E-01  0.4045E-01
     -4.369  0.4646E-01  0.4432E-01
     -4.286  0.4304E-01  0.4790E-01
     -4.203  0.4095E-01  0.5130E-01
     -4.119  0.3768E-01  0.5443E-01
     -4.036  0.3524E-01  0.5736E-01
     -3.953  0.3707E-01  0.6045E-01
     -3.870  0.4276E-01  0.6400E-01
     -3.787  0.5031E-01  0.6819E-01
     -3.704  0.5880E-01  0.7308E-01
     -3.620  0.6695E-01  0.7864E-01
     -3.537  0.7142E-01  0.8458E-01
     -3.454  0.6728E-01  0.9018E-01
     -3.371  0.5306E-01  0.9459E-01
     -3.288  0.3654E-01  0.9763E-01
     -3.205  0.2951E-01  0.1001E+00
     -3.121  0.3605E-01  0.1031E+00
     -3.038  0.4849E-01  0.1071E+00
     -2.955  0.5400E-01  0.1116E+00
     -2.872  0.4622E-01  0.1154E+00
     -2.789  0.3140E-01  0.1181E+00
     -2.706  0.2128E-01  0.1198E+00
     -2.622  0.2109E-01  0.1216E+00
     -2.539  0.2588E-01  0.1237E+00
     -2.456  0.2762E-01  0.1260E+00
     -2.373  0.2434E-01  0.1281E+00
     -2.290  0.2013E-01  0.1297E+00
     -2.207  0.1779E-01  0.1312E+00
     -2.124  0.1655E-01  0.1326E+00
     -2.040  0.1583E-01  0.1339E+00
     -1.957  0.1560E-01  0.1352E+00
     -1.874  0.1441E-01  0.1364E+00
     -1.791  0.1148E-01  0.1374E+00
     -1.708  0.9460E-02  0.1381E+00
     -1.625  0.1213E-01  0.1391E+00
     -1.541  0.1967E-01  0.1408E+00
     -1.458  0.2775E-01  0.1431E+00
     -1.375  0.3355E-01  0.1459E+00
     -1.292  0.4185E-01  0.1494E+00
     -1.209  0.5858E-01  0.1542E+00
     -1.126  0.7813E-01  0.1607E+00
     -1.042  0.8663E-01  0.1679E+00
     -0.959  0.8066E-01  0.1746E+00
     -0.876  0.7180E-01  0.1806E+00
     -0.793  0.6837E-01  0.1863E+00
     -0.710  0.6430E-01  0.1916E+00
     -0.627  0.5227E-01  0.1960E+00
     -0.543  0.3723E-01  0.1991E+00
     -0.460  0.2925E-01  0.2015E+00
     -0.377  0.3059E-01  0.2041E+00
     -0.294  0.3559E-01  0.2070E+00
     -0.211  0.3844E-01  0.2102E+00
     -0.128  0.3807E-01  0.2134E+00
     -0.044  0.3611E-01  0.2164E+00
      0.039  0.3212E-01  0.2191E+00
      0.122  0.2523E-01  0.2212E+00
      0.205  0.1907E-01  0.2227E+00
      0.288  0.1884E-01  0.2243E+00
      0.371  0.2389E-01  0.2263E+00
      0.454  0.2782E-01  0.2286E+00
      0.538  0.2713E-01  0.2309E+00
      0.621  0.2557E-01  0.2330E+00
      0.704  0.2686E-01  0.2352E+00
      0.787  0.2795E-01  0.2376E+00
      0.870  0.2423E-01  0.2396E+00
      0.953  0.1735E-01  0.2410E+00
      1.037  0.1241E-01  0.2420E+00
      1.120  0.1104E-01  0.2430E+00
      1.203  0.1196E-01  0.2440E+00
      1.286  0.1632E-01  0.2453E+00
      1.369  0.2756E-01  0.2476E+00
      1.452  0.4495E-01  0.2513E+00
      1.536  0.6038E-01  0.2564E+00
      1.619  0.6536E-01  0.2618E+00
      1.702  0.6099E-01  0.2669E+00
      1.785  0.5897E-01  0.2718E+00
      1.868  0.7021E-01  0.2776E+00
      1.951  0.9139E-01  0.2852E+00
      2.035  0.1051E+00  0.2940E+00
      2.118  0.9667E-01  0.3020E+00
      2.201  0.7059E-01  0.3079E+00
      2.284  0.4782E-01  0.3118E+00
      2.367  0.4784E-01  0.3158E+00
      2.450  0.7292E-01  0.3219E+00
      2.534  0.1039E+00  0.3305E+00
      2.617  0.1140E+00  0.3400E+00
      2.700  0.9601E-01  0.3480E+00
      2.783  0.7093E-01  0.3539E+00
      2.866  0.6282E-01  0.3591E+00
      2.949  0.7262E-01  0.3651E+00
      3.032  0.8303E-01  0.3721E+00
      3.116  0.8487E-01  0.3791E+00
      3.199  0.8885E-01  0.3865E+00
      3.282  0.1060E+00  0.3953E+00
      3.365  0.1265E+00  0.4058E+00
      3.448  0.1290E+00  0.4166E+00
      3.531  0.1083E+00  0.4256E+00
      3.615  0.8004E-01  0.4322E+00
      3.698  0.6303E-01  0.4375E+00
      3.781  0.6397E-01  0.4428E+00
      3.864  0.7901E-01  0.4494E+00
      3.947  0.9949E-01  0.4576E+00
      4.030  0.1152E+00  0.4672E+00
      4.114  0.1167E+00  0.4769E+00
      4.197  0.9966E-01  0.4852E+00
      4.280  0.7071E-01  0.4911E+00
      4.363  0.4575E-01  0.4949E+00
      4.446  0.3663E-01  0.4979E+00
      4.529  0.4244E-01  0.5015E+00
      4.613  0.5382E-01  0.5059E+00
      4.696  0.5996E-01  0.5109E+00
      4.779  0.5413E-01  0.5154E+00
      4.862  0.3845E-01  0.5186E+00
      4.945  0.2212E-01  0.5205E+00
      5.028  0.1360E-01  0.5216E+00
      5.112  0.1542E-01  0.5229E+00
      5.195  0.2356E-01  0.5248E+00
      5.278  0.2975E-01  0.5273E+00
      5.361  0.2776E-01  0.5296E+00
      5.444  0.1925E-01  0.5312E+00
      5.527  0.1077E-01  0.5321E+00
      5.610  0.6012E-02  0.5326E+00
      5.694  0.3956E-02  0.5329E+00
      5.777  0.2610E-02  0.5332E+00
      5.860  0.1457E-02  0.5333E+00
      5.943  0.9348E-03  0.5334E+00
      6.026  0.1488E-02  0.5335E+00
      6.109  0.3252E-02  0.5338E+00
      6.193  0.5742E-02  0.5342E+00
      6.276  0.8126E-02  0.5349E+00
      6.359  0.1065E-01  0.5358E+00
      6.442  0.1473E-01  0.5370E+00
      6.525  0.2030E-01  0.5387E+00
      6.608  0.2521E-01  0.5408E+00
      6.692  0.2885E-01  0.5432E+00
      6.775  0.3308E-01  0.5460E+00
      6.858  0.3804E-01  0.5491E+00
      6.941  0.4175E-01  0.5526E+00
      7.024  0.4374E-01  0.5562E+00
      7.107  0.4353E-01  0.5598E+00
      7.191  0.3856E-01  0.5631E+00
      7.274  0.2929E-01  0.5655E+00
      7.357  0.2210E-01  0.5673E+00
      7.440  0.2327E-01  0.5693E+00
      7.523  0.3531E-01  0.5722E+00
      7.606  0.5918E-01  0.5771E+00
      7.690  0.9137E-01  0.5847E+00
      7.773  0.1180E+00  0.5945E+00
      7.856  0.1224E+00  0.6047E+00
      7.939  0.1045E+00  0.6134E+00
      8.022  0.8493E-01  0.6205E+00
      8.105  0.8570E-01  0.6276E+00
      8.188  0.1072E+00  0.6365E+00
      8.272  0.1274E+00  0.6471E+00
      8.355  0.1254E+00  0.6575E+00
      8.438  0.1038E+00  0.6662E+00
      8.521  0.8449E-01  0.6732E+00
      8.604  0.8266E-01  0.6801E+00
      8.687  0.9047E-01  0.6876E+00
      8.771  0.9044E-01  0.6951E+00
      8.854  0.8139E-01  0.7019E+00
      8.937  0.7889E-01  0.7084E+00
      9.020  0.9138E-01  0.7160E+00
      9.103  0.1085E+00  0.7251E+00
      9.186  0.1171E+00  0.7348E+00
      9.270  0.1210E+00  0.7449E+00
      9.353  0.1336E+00  0.7560E+00
      9.436  0.1535E+00  0.7687E+00
      9.519  0.1619E+00  0.7822E+00
      9.602  0.1477E+00  0.7945E+00
      9.685  0.1201E+00  0.8045E+00
      9.769  0.9246E-01  0.8122E+00
      9.852  0.6858E-01  0.8179E+00
      9.935  0.5023E-01  0.8220E+00
     10.018  0.4368E-01  0.8257E+00
     10.101  0.5140E-01  0.8299E+00
     10.184  0.6577E-01  0.8354E+00
     10.268  0.7690E-01  0.8418E+00
     10.351  0.8247E-01  0.8487E+00
     10.434  0.8428E-01  0.8557E+00
     10.517  0.7977E-01  0.8623E+00
     10.600  0.6491E-01  0.8677E+00
     10.683  0.4321E-01  0.8713E+00
     10.766  0.2583E-01  0.8734E+00
     10.850  0.2343E-01  0.8754E+00
     10.933  0.3972E-01  0.8787E+00
     11.016  0.6820E-01  0.8844E+00
     11.099  0.9429E-01  0.8922E+00
     11.182  0.1071E+00  0.9011E+00
     11.265  0.1078E+00  0.9101E+00
     11.349  0.1017E+00  0.9185E+00
     11.432  0.8884E-01  0.9259E+00
     11.515  0.7204E-01  0.9319E+00
     11.598  0.6333E-01  0.9372E+00
     11.681  0.7104E-01  0.9431E+00
     11.764  0.8817E-01  0.9504E+00
     11.848  0.1014E+00  0.9589E+00
     11.931  0.1065E+00  0.9677E+00
     12.014  0.1117E+00  0.9770E+00
     12.097  0.1251E+00  0.9874E+00
     12.180  0.1378E+00  0.9989E+00
     12.263  0.1311E+00  0.1010E+01
     12.347  0.1013E+00  0.1018E+01
     12.430  0.6343E-01  0.1023E+01
     12.513  0.3260E-01  0.1026E+01
     12.596  0.1383E-01  0.1027E+01
     12.679  0.5371E-02  0.1028E+01
     12.762  0.3681E-02  0.1028E+01
     12.846  0.5543E-02  0.1029E+01
     12.929  0.8016E-02  0.1029E+01
     13.012  0.8636E-02  0.1030E+01
     13.095  0.7047E-02  0.1031E+01
     13.178  0.5350E-02  0.1031E+01
     13.261  0.5670E-02  0.1031E+01
     13.344  0.7840E-02  0.1032E+01
     13.428  0.1012E-01  0.1033E+01
     13.511  0.1227E-01  0.1034E+01
     13.594  0.1637E-01  0.1035E+01
     13.677  0.2266E-01  0.1037E+01
     13.760  0.2656E-01  0.1039E+01
     13.843  0.2383E-01  0.1041E+01
     13.927  0.1730E-01  0.1043E+01
     14.010  0.1442E-01  0.1044E+01
     14.093  0.1923E-01  0.1046E+01
     14.176  0.2847E-01  0.1048E+01
     14.259  0.3487E-01  0.1051E+01
     14.342  0.3442E-01  0.1054E+01
     14.426  0.2955E-01  0.1056E+01
     14.509  0.2526E-01  0.1058E+01
     14.592  0.2364E-01  0.1060E+01
     14.675  0.2308E-01  0.1062E+01
     14.758  0.2096E-01  0.1064E+01
     14.841  0.1617E-01  0.1065E+01
     14.925  0.9949E-02  0.1066E+01
     15.008  0.4661E-02  0.1066E+01
     15.091  0.1615E-02  0.1067E+01
     15.174  0.4066E-03  0.1067E+01
     15.257  0.7376E-04  0.1067E+01
     15.340  0.9588E-05  0.1067E+01
     15.424  0.8908E-06  0.1067E+01
     15.507  0.5905E-07  0.1067E+01
     15.590  0.2791E-08  0.1067E+01
     15.673  0.9392E-10  0.1067E+01
     15.756  0.2250E-11  0.1067E+01
     15.839  0.3834E-13  0.1067E+01
     15.922  0.4733E-15  0.1067E+01
     16.006  0.0000E+00  0.1067E+01
     16.089  0.0000E+00  0.1067E+01
     16.172  0.0000E+00  0.1067E+01
     16.255  0.0000E+00  0.1067E+01
     16.338  0.0000E+00  0.1067E+01
     16.421  0.0000E+00  0.1067E+01
     16.505  0.0000E+00  0.1067E+01
     16.588  0.0000E+00  0.1067E+01
     16.671  0.0000E+00  0.1067E+01
     16.754  0.0000E+00  0.1067E+01
