unknown system                          
   1.00000000000000     
     0.000000    2.788985    2.788985
     2.788985    0.000000    2.788985
     2.788985    2.788985    0.000000
   Si
     2
Direct
  0.000000  0.000000  0.000000
  0.250000  0.250000  0.250000
 
   36   36   36
 -7.7854     -6.2519     -2.0830      3.5930      9.3671      14.015      16.824      17.688      17.008      15.465    
  13.704      11.993      10.461      9.1760      8.1576      7.3959      6.8704      6.5627      6.4613      6.5627    
  6.8704      7.3959      8.1576      9.1760      10.461      11.993      13.704      15.465      17.008      17.687    
  16.824      14.015      9.3672      3.5931     -2.0830     -6.2519     -6.2519     -3.2082      2.0029      7.9822    
  13.323      17.041      18.770      18.721      17.489      15.782      14.033      12.400      10.976      9.8038    
  8.8908      8.2247      7.7899      7.5750      7.5750      7.7899      8.2247      8.8908      9.8038      10.976    
  12.400      14.033      15.782      17.489      18.721      18.769      17.041      13.323      7.9822      2.0028    
 -3.2083     -6.2520     -2.0830      2.0029      7.4726      12.897      17.106      19.490      20.045      19.219    
  17.679      15.980      14.326      12.829      11.549      10.510      9.7138      9.1506      8.8142      8.7022    
  8.8142      9.1506      9.7138      10.510      11.549      12.829      14.326      15.980      17.679      19.219    
  20.045      19.490      17.106      12.897      7.4726      2.0028     -2.0831     -3.5990      3.5930      7.9822    
  12.897      17.117      19.852      20.883      20.484      19.217      17.662      16.083      14.598      13.280    
  12.166      11.269      10.590      10.132      9.8997      9.8997      10.132      10.590      11.269      12.166    
  13.280      14.598      16.083      17.662      19.217      20.484      20.883      19.852      17.117      12.897    
  7.9822      3.5930     0.99389     0.99386      9.3671      13.323      17.106      19.852      21.170      21.153    
  20.223      18.907      17.501      16.125      14.856      13.738      12.792      12.029      11.462      11.108    
  10.988      11.108      11.462      12.029      12.792      13.738      14.856      16.125      17.501      18.907    
  20.223      21.153      21.170      19.852      17.106      13.323      9.3672      6.3512      5.2217      6.3512    
  14.015      17.041      19.490      20.883      21.153      20.573      19.571      18.425      17.252      16.125    
  15.089      14.166      13.372      12.726      12.260      12.014      12.014      12.260      12.726      13.372    
  14.166      15.089      16.125      17.252      18.425      19.571      20.573      21.153      20.883      19.490    
  17.040      14.015      11.229      9.5525      9.5526      11.229      16.824      18.770      20.045      20.484    
  20.223      19.571      18.747      17.851      16.951      16.083      15.266      14.511      13.838      13.288    
  12.921      12.791      12.921      13.288      13.838      14.511      15.266      16.083      16.951      17.851    
  18.747      19.571      20.223      20.484      20.045      18.770      16.824      14.688      13.017      12.385    
  13.018      14.688      17.688      18.721      19.219      19.217      18.907      18.425      17.851      17.237    
  16.611      15.980      15.343      14.712      14.128      13.660      13.394      13.394      13.660      14.128    
  14.712      15.343      15.980      16.611      17.237      17.851      18.425      18.907      19.217      19.219    
  18.721      17.688      16.316      15.004      14.199      14.199      15.004      16.316      17.008      17.489    
  17.679      17.662      17.501      17.252      16.951      16.611      16.227      15.782      15.272      14.720    
  14.189      13.792      13.644      13.792      14.189      14.720      15.272      15.782      16.227      16.611    
  16.951      17.252      17.501      17.662      17.679      17.489      17.008      16.249      15.389      14.701    
  14.437      14.700      15.388      16.249      15.465      15.782      15.980      16.083      16.125      16.125    
  16.083      15.980      15.782      15.465      15.025      14.499      14.007      13.707      13.707      14.007    
  14.499      15.025      15.465      15.782      15.980      16.083      16.125      16.125      16.083      15.980    
  15.782      15.465      15.025      14.499      14.007      13.707      13.707      14.007      14.499      15.025    
  13.704      14.033      14.326      14.598      14.856      15.089      15.266      15.343      15.272      15.025    
  14.600      14.094      13.679      13.519      13.679      14.094      14.600      15.025      15.272      15.343    
  15.266      15.089      14.856      14.598      14.326      14.033      13.704      13.332      12.933      12.560    
  12.288      12.187      12.288      12.561      12.933      13.332      11.993      12.400      12.829      13.280    
  13.738      14.166      14.511      14.712      14.720      14.499      14.094      13.657      13.374      13.375    
  13.657      14.094      14.499      14.720      14.712      14.511      14.166      13.738      13.280      12.829    
  12.400      11.993      11.603      11.229      10.890      10.623      10.474      10.475      10.623      10.890    
  11.229      11.603      10.461      10.976      11.549      12.166      12.792      13.372      13.838      14.128    
  14.189      14.007      13.679      13.374      13.251      13.375      13.679      14.007      14.189      14.128    
  13.838      13.372      12.792      12.166      11.549      10.975      10.461      10.006      9.6051      9.2608    
  8.9863      8.8057      8.7422      8.8057      8.9863      9.2608      9.6050      10.006      9.1760      9.8038    
  10.510      11.269      12.029      12.726      13.288      13.660      13.792      13.707      13.519      13.375    
  13.375      13.519      13.707      13.792      13.660      13.288      12.726      12.029      11.269      10.510    
  9.8038      9.1760      8.6354      8.1789      7.8008      7.5013      7.2892      7.1780      7.1780      7.2891    
  7.5012      7.8008      8.1789      8.6355      8.1576      8.8908      9.7138      10.590      11.462      12.260    
  12.921      13.394      13.644      13.707      13.679      13.657      13.679      13.707      13.644      13.394    
  12.921      12.260      11.462      10.590      9.7138      8.8908      8.1577      7.5297      7.0064      6.5800    
  6.2436      5.9962      5.8430      5.7908      5.8429      5.9962      6.2437      6.5801      7.0065      7.5297    
  7.3959      8.2247      9.1506      10.132      11.108      12.014      12.791      13.394      13.792      14.007    
  14.094      14.094      14.007      13.792      13.394      12.791      12.014      11.108      10.132      9.1506    
  8.2247      7.3959      6.6849      6.0941      5.6151      5.2370      4.9524      4.7600      4.6623      4.6623    
  4.7600      4.9525      5.2370      5.6151      6.0941      6.6849      6.8704      7.7899      8.8142      9.8997    
  10.988      12.014      12.921      13.660      14.189      14.499      14.600      14.499      14.189      13.660    
  12.921      12.014      10.988      9.8997      8.8142      7.7898      6.8704      6.0795      5.4219      4.8893    
  4.4681      4.1465      3.9176      3.7797      3.7335      3.7797      3.9177      4.1465      4.4680      4.8892    
  5.4219      6.0795      6.5627      7.5750      8.7022      9.8997      11.108      12.260      13.288      14.128    
  14.720      15.025      15.025      14.720      14.128      13.288      12.260      11.108      9.8997      8.7022    
  7.5750      6.5627      5.6902      4.9634      4.3743      3.9078      3.5486      3.2852      3.1113      3.0246    
  3.0246      3.1113      3.2852      3.5486      3.9078      4.3744      4.9635      5.6902      6.4613      7.5750    
  8.8142      10.132      11.462      12.726      13.838      14.712      15.272      15.465      15.272      14.712    
  13.838      12.726      11.462      10.132      8.8142      7.5750      6.4614      5.4998      4.6971      4.0452    
  3.5279      3.1275      2.8287      2.6209      2.4982      2.4575      2.4982      2.6209      2.8287      3.1275    
  3.5280      4.0453      4.6971      5.4998      6.5627      7.7899      9.1506      10.590      12.029      13.372    
  14.511      15.343      15.782      15.782      15.343      14.511      13.372      12.029      10.590      9.1506    
  7.7898      6.5627      5.4998      4.6098      3.8848      3.3078      2.8590      2.5204      2.2777      2.1209    
  2.0440      2.0440      2.1209      2.2777      2.5205      2.8591      3.3078      3.8847      4.6097      5.4998    
  6.8704      8.2247      9.7138      11.269      12.792      14.166      15.266      15.980      16.227      15.980    
  15.266      14.166      12.792      11.269      9.7138      8.2247      6.8704      5.6902      4.6971      3.8848    
  3.2357      2.7283      2.3421      2.0598      1.8678      1.7564      1.7200      1.7565      1.8678      2.0598    
  2.3421      2.7283      3.2356      3.8847      4.6971      5.6902      7.3959      8.8908      10.510      12.166    
  13.738      15.089      16.083      16.611      16.611      16.083      15.089      13.738      12.166      10.510    
  8.8908      7.3959      6.0795      4.9634      4.0452      3.3078      2.7283      2.2837      1.9539      1.7221    
  1.5752      1.5042      1.5042      1.5752      1.7221      1.9539      2.2837      2.7283      3.3078      4.0453    
  4.9635      6.0795      8.1576      9.8038      11.549      13.280      14.856      16.125      16.951      17.237    
  16.951      16.125      14.856      13.280      11.549      9.8038      8.1577      6.6849      5.4219      4.3743    
  3.5279      2.8590      2.3421      1.9539      1.6745      1.4877      1.3810      1.3464      1.3810      1.4877    
  1.6745      1.9538      2.3421      2.8591      3.5280      4.3744      5.4219      6.6849      9.1760      10.976    
  12.829      14.598      16.125      17.252      17.851      17.851      17.252      16.125      14.598      12.829    
  10.975      9.1760      7.5297      6.0941      4.8893      3.9078      3.1275      2.5204      2.0598      1.7221    
  1.4877      1.3410      1.2707      1.2707      1.3410      1.4877      1.7221      2.0598      2.5205      3.1275    
  3.9078      4.8892      6.0941      7.5297      10.461      12.400      14.326      16.083      17.501      18.425    
  18.747      18.425      17.501      16.083      14.326      12.400      10.461      8.6354      7.0064      5.6151    
  4.4681      3.5486      2.8287      2.2777      1.8678      1.5752      1.3810      1.2707      1.2350      1.2707    
  1.3810      1.5752      1.8678      2.2777      2.8287      3.5486      4.4680      5.6151      7.0065      8.6355    
  11.993      14.033      15.980      17.662      18.907      19.571      19.571      18.907      17.662      15.980    
  14.033      11.993      10.006      8.1789      6.5800      5.2370      4.1465      3.2852      2.6209      2.1209    
  1.7564      1.5042      1.3464      1.2707      1.2707      1.3464      1.5042      1.7565      2.1209      2.6209    
  3.2852      4.1465      5.2370      6.5801      8.1789      10.006      13.704      15.782      17.679      19.217    
  20.223      20.573      20.223      19.217      17.679      15.782      13.704      11.603      9.6051      7.8008    
  6.2436      4.9524      3.9176      3.1113      2.4982      2.0440      1.7200      1.5042      1.3810      1.3410    
  1.3810      1.5042      1.7200      2.0440      2.4982      3.1113      3.9177      4.9525      6.2437      7.8008    
  9.6050      11.603      15.465      17.489      19.219      20.484      21.153      21.153      20.484      19.219    
  17.489      15.465      13.332      11.229      9.2608      7.5013      5.9962      4.7600      3.7797      3.0246    
  2.4575      2.0440      1.7565      1.5752      1.4877      1.4877      1.5752      1.7565      2.0440      2.4575    
  3.0246      3.7797      4.7600      5.9962      7.5012      9.2608      11.229      13.332      17.008      18.721    
  20.045      20.883      21.170      20.883      20.045      18.721      17.008      15.025      12.933      10.890    
  8.9863      7.2892      5.8430      4.6623      3.7335      3.0246      2.4982      2.1209      1.8678      1.7221    
  1.6745      1.7221      1.8678      2.1209      2.4982      3.0246      3.7335      4.6623      5.8429      7.2891    
  8.9863      10.890      12.933      15.025      17.687      18.769      19.490      19.852      19.852      19.490    
  18.770      17.688      16.249      14.499      12.560      10.623      8.8057      7.1780      5.7908      4.6623    
  3.7797      3.1113      2.6209      2.2777      2.0598      1.9539      1.9538      2.0598      2.2777      2.6209    
  3.1113      3.7797      4.6623      5.7908      7.1780      8.8057      10.623      12.561      14.499      16.249    
  16.824      17.041      17.106      17.117      17.106      17.040      16.824      16.316      15.389      14.007    
  12.288      10.474      8.7422      7.1780      5.8429      4.7600      3.9177      3.2852      2.8287      2.5205    
  2.3421      2.2837      2.3421      2.5205      2.8287      3.2852      3.9177      4.7600      5.8429      7.1780    
  8.7423      10.475      12.288      14.007      15.388      16.316      14.015      13.323      12.897      12.897    
  13.323      14.015      14.688      15.004      14.701      13.707      12.187      10.475      8.8057      7.2891    
  5.9962      4.9525      4.1465      3.5486      3.1275      2.8591      2.7283      2.7283      2.8591      3.1275    
  3.5486      4.1465      4.9525      5.9962      7.2891      8.8057      10.475      12.187      13.707      14.701    
  15.004      14.688      9.3672      7.9822      7.4726      7.9822      9.3672      11.229      13.017      14.199    
  14.437      13.707      12.288      10.623      8.9863      7.5012      6.2437      5.2370      4.4680      3.9078    
  3.5280      3.3078      3.2356      3.3078      3.5280      3.9078      4.4680      5.2370      6.2437      7.5012    
  8.9863      10.623      12.288      13.707      14.437      14.199      13.017      11.229      3.5931      2.0028    
  2.0028      3.5930      6.3512      9.5525      12.385      14.199      14.700      14.007      12.561      10.890    
  9.2608      7.8008      6.5801      5.6151      4.8892      4.3744      4.0453      3.8847      3.8847      4.0453    
  4.3744      4.8892      5.6151      6.5801      7.8008      9.2608      10.890      12.561      14.007      14.701    
  14.199      12.385      9.5524      6.3512     -2.0830     -3.2083     -2.0831     0.99389      5.2217      9.5526    
  13.018      15.004      15.388      14.499      12.933      11.229      9.6050      8.1789      7.0065      6.0941    
  5.4219      4.9635      4.6971      4.6097      4.6971      4.9635      5.4219      6.0941      7.0065      8.1789    
  9.6050      11.229      12.933      14.499      15.388      15.004      13.017      9.5524      5.2217     0.99402    
 -6.2519     -6.2520     -3.5990     0.99386      6.3512      11.229      14.688      16.316      16.249      15.025    
  13.332      11.603      10.006      8.6355      7.5297      6.6849      6.0795      5.6902      5.4998      5.4998    
  5.6902      6.0795      6.6849      7.5297      8.6355      10.006      11.603      13.332      15.025      16.249    
  16.316      14.688      11.229      6.3512     0.99402     -3.5988     -6.2519     -3.2082      2.0029      7.9822    
  13.323      17.041      18.770      18.721      17.489      15.782      14.033      12.400      10.976      9.8038    
  8.8908      8.2247      7.7899      7.5750      7.5750      7.7899      8.2247      8.8908      9.8038      10.976    
  12.400      14.033      15.782      17.489      18.721      18.769      17.041      13.323      7.9822      2.0028    
 -3.2083     -6.2520     -3.2082      1.0865      6.8412      12.562      17.026      19.597      20.264      19.486    
  17.945      16.227      14.551      13.031      11.730      10.674      9.8627      9.2895      8.9472      8.8332    
  8.9472      9.2895      9.8627      10.674      11.730      13.031      14.551      16.227      17.945      19.486    
  20.264      19.597      17.026      12.562      6.8411      1.0863     -3.2084     -4.8012      2.0029      6.8412    
  12.276      16.978      20.087      21.359      21.076      19.825      18.234      16.611      15.080      13.716    
  12.560      11.628      10.922      10.446      10.205      10.205      10.446      10.922      11.628      12.560    
  13.716      15.080      16.611      18.234      19.825      21.076      21.359      20.087      16.978      12.276    
  6.8411      2.0028     -.85885     -.85882      7.9822      12.562      16.978      20.250      21.929      22.103    
  21.220      19.860      18.394      16.951      15.613      14.429      13.424      12.611      12.006      11.628    
  11.500      11.628      12.006      12.611      13.424      14.429      15.613      16.951      18.394      19.860    
  21.220      22.103      21.930      20.250      16.978      12.562      7.9823      4.5025      3.2008      4.5024    
  13.323      17.026      20.087      21.929      22.459      21.964      20.925      19.713      18.462      17.252    
  16.131      15.125      14.255      13.544      13.031      12.760      12.760      13.031      13.544      14.255    
  15.125      16.131      17.252      18.462      19.713      20.925      21.964      22.459      21.929      20.087    
  17.026      13.323      9.9410      7.9137      7.9136      9.9409      17.041      19.597      21.359      22.103    
  21.964      21.296      20.416      19.448      18.462      17.501      16.586      15.732      14.965      14.336    
  13.914      13.763      13.914      14.336      14.965      15.732      16.586      17.501      18.462      19.448    
  20.416      21.296      21.964      22.103      21.359      19.597      17.040      14.289      12.157      11.352    
  12.157      14.289      18.770      20.264      21.076      21.220      20.925      20.416      19.790      19.106    
  18.394      17.662      16.913      16.163      15.456      14.878      14.546      14.546      14.878      15.456    
  16.163      16.913      17.662      18.394      19.106      19.790      20.416      20.925      21.220      21.076    
  20.264      18.770      16.868      15.084      13.999      13.999      15.084      16.868      18.721      19.486    
  19.825      19.860      19.713      19.448      19.106      18.704      18.234      17.679      17.033      16.305    
  15.588      15.047      14.845      15.047      15.588      16.305      17.033      17.679      18.234      18.704    
  19.106      19.448      19.713      19.860      19.825      19.486      18.721      17.584      16.329      15.341    
  14.965      15.341      16.329      17.584      17.489      17.945      18.234      18.394      18.462      18.462    
  18.394      18.234      17.945      17.489      16.830      16.036      15.298      14.849      14.850      15.298    
  16.036      16.830      17.489      17.945      18.234      18.394      18.462      18.462      18.394      18.234    
  17.945      17.489      16.830      16.036      15.298      14.850      14.849      15.298      16.036      16.830    
  15.782      16.227      16.611      16.951      17.252      17.501      17.662      17.679      17.489      17.008    
  16.249      15.388      14.700      14.437      14.701      15.389      16.249      17.008      17.489      17.679    
  17.662      17.501      17.252      16.951      16.611      16.227      15.782      15.272      14.720      14.189    
  13.792      13.644      13.792      14.189      14.720      15.272      14.033      14.551      15.080      15.613    
  16.131      16.586      16.913      17.033      16.830      16.249      15.406      14.569      14.047      14.047    
  14.569      15.406      16.249      16.830      17.033      16.913      16.586      16.131      15.613      15.080    
  14.551      14.033      13.521      13.022      12.563      12.200      11.997      11.997      12.200      12.563    
  13.022      13.521      12.400      13.031      13.716      14.429      15.125      15.732      16.163      16.305    
  16.036      15.388      14.569      13.889      13.625      13.889      14.569      15.388      16.036      16.305    
  16.163      15.732      15.125      14.429      13.716      13.031      12.400      11.827      11.313      10.865    
  10.504      10.266      10.181      10.266      10.505      10.865      11.313      11.827      10.976      11.730    
  12.560      13.424      14.255      14.965      15.456      15.588      15.298      14.700      14.047      13.625    
  13.625      14.047      14.701      15.298      15.588      15.456      14.965      14.255      13.424      12.560    
  11.730      10.975      10.313      9.7462      9.2713      8.8921      8.6220      8.4800      8.4800      8.6220    
  8.8921      9.2712      9.7461      10.313      9.8038      10.674      11.628      12.611      13.544      14.336    
  14.878      15.047      14.849      14.437      14.047      13.889      14.047      14.437      14.849      15.047    
  14.878      14.336      13.544      12.611      11.628      10.674      9.8038      9.0463      8.4082      7.8848    
  7.4702      7.1643      6.9745      6.9098      6.9744      7.1643      7.4701      7.8849      8.4083      9.0464    
  8.8908      9.8627      10.922      12.006      13.031      13.914      14.546      14.845      14.850      14.701    
  14.569      14.569      14.701      14.849      14.845      14.546      13.914      13.031      12.006      10.922    
  9.8627      8.8908      8.0431      7.3314      6.7515      6.2929      5.9476      5.7138      5.5951      5.5951    
  5.7138      5.9476      6.2930      6.7516      7.3314      8.0430      8.2247      9.2895      10.446      11.628    
  12.760      13.763      14.546      15.047      15.298      15.389      15.406      15.388      15.298      15.047    
  14.546      13.763      12.760      11.628      10.446      9.2895      8.2247      7.2927      6.5097      5.8722    
  5.3675      4.9821      4.7077      4.5422      4.4867      4.5422      4.7077      4.9821      5.3675      5.8722    
  6.5096      7.2927      7.7899      8.9472      10.205      11.500      12.760      13.914      14.878      15.588    
  16.036      16.249      16.249      16.036      15.588      14.878      13.914      12.760      11.500      10.205    
  8.9472      7.7898      6.7749      5.9207      5.2248      4.6729      4.2478      3.9358      3.7294      3.6263    
  3.6263      3.7294      3.9358      4.2477      4.6729      5.2248      5.9207      6.7750      7.5750      8.8332    
  10.205      11.628      13.031      14.336      15.456      16.305      16.830      17.008      16.830      16.305    
  15.456      14.336      13.031      11.628      10.205      8.8332      7.5750      6.4717      5.5416      4.7829    
  4.1803      3.7136      3.3648      3.1217      2.9775      2.9296      2.9774      3.1216      3.3648      3.7136    
  4.1803      4.7830      5.5417      6.4717      7.5750      8.9472      10.446      12.006      13.544      14.965    
  16.163      17.033      17.489      17.489      17.033      16.163      14.965      13.544      12.006      10.446    
  8.9472      7.5750      6.3718      5.3562      4.5260      3.8651      3.3512      2.9631      2.6838      2.5026    
  2.4133      2.4133      2.5026      2.6838      2.9631      3.3513      3.8651      4.5260      5.3561      6.3717    
  7.7899      9.2895      10.922      12.611      14.255      15.732      16.913      17.679      17.945      17.679    
  16.913      15.732      14.255      12.611      10.922      9.2895      7.7898      6.4717      5.3562      4.4417    
  3.7113      3.1411      2.7069      2.3886      2.1709      2.0440      2.0023      2.0440      2.1710      2.3886    
  2.7070      3.1411      3.7112      4.4416      5.3561      6.4717      8.2247      9.8627      11.628      13.424    
  15.125      16.586      17.662      18.234      18.234      17.662      16.586      15.125      13.424      11.628    
  9.8627      8.2247      6.7749      5.5416      4.5260      3.7113      3.0722      2.5822      2.2179      1.9608    
  1.7969      1.7173      1.7173      1.7969      1.9608      2.2179      2.5821      3.0721      3.7112      4.5260    
  5.5417      6.7750      8.8908      10.674      12.560      14.429      16.131      17.501      18.394      18.704    
  18.394      17.501      16.131      14.429      12.560      10.674      8.8908      7.2927      5.9207      4.7829    
  3.8651      3.1411      2.5822      2.1621      1.8588      1.6551      1.5382      1.5001      1.5382      1.6551    
  1.8588      2.1620      2.5821      3.1411      3.8651      4.7830      5.9207      7.2927      9.8038      11.730    
  13.716      15.613      17.252      18.462      19.106      19.106      18.462      17.252      15.613      13.716    
  11.730      9.8038      8.0431      6.5097      5.2248      4.1803      3.3512      2.7069      2.2179      1.8588    
  1.6088      1.4519      1.3764      1.3764      1.4519      1.6088      1.8588      2.2179      2.7070      3.3513    
  4.1803      5.2248      6.5096      8.0430      10.976      13.031      15.080      16.951      18.462      19.448    
  19.790      19.448      18.462      16.951      15.080      13.031      10.975      9.0463      7.3314      5.8722    
  4.6729      3.7136      2.9631      2.3886      1.9608      1.6551      1.4519      1.3363      1.2989      1.3363    
  1.4519      1.6551      1.9608      2.3886      2.9631      3.7136      4.6729      5.8722      7.3314      9.0464    
  12.400      14.551      16.611      18.394      19.713      20.416      20.416      19.713      18.394      16.611    
  14.551      12.400      10.313      8.4082      6.7515      5.3675      4.2478      3.3648      2.6838      2.1709    
  1.7969      1.5382      1.3764      1.2989      1.2989      1.3764      1.5382      1.7969      2.1710      2.6838    
  3.3648      4.2477      5.3675      6.7516      8.4083      10.313      14.033      16.227      18.234      19.860    
  20.925      21.296      20.925      19.860      18.234      16.227      14.033      11.827      9.7462      7.8848    
  6.2929      4.9821      3.9358      3.1217      2.5026      2.0440      1.7173      1.5001      1.3764      1.3363    
  1.3764      1.5001      1.7173      2.0440      2.5026      3.1216      3.9357      4.9821      6.2930      7.8848    
  9.7461      11.827      15.782      17.945      19.825      21.220      21.964      21.964      21.220      19.825    
  17.945      15.782      13.521      11.313      9.2713      7.4702      5.9476      4.7077      3.7294      2.9775    
  2.4133      2.0023      1.7173      1.5382      1.4519      1.4519      1.5382      1.7173      2.0023      2.4133    
  2.9774      3.7294      4.7077      5.9476      7.4701      9.2712      11.313      13.521      17.489      19.486    
  21.076      22.103      22.459      22.103      21.076      19.486      17.489      15.272      13.022      10.865    
  8.8921      7.1643      5.7138      4.5422      3.6263      2.9296      2.4133      2.0440      1.7969      1.6551    
  1.6088      1.6551      1.7969      2.0440      2.4133      2.9296      3.6263      4.5422      5.7138      7.1643    
  8.8921      10.865      13.022      15.272      18.721      20.264      21.359      21.930      21.929      21.359    
  20.264      18.721      16.830      14.720      12.563      10.504      8.6220      6.9745      5.5951      4.4867    
  3.6263      2.9774      2.5026      2.1710      1.9608      1.8588      1.8588      1.9608      2.1710      2.5026    
  2.9774      3.6263      4.4867      5.5951      6.9744      8.6220      10.505      12.563      14.720      16.830    
  18.769      19.597      20.087      20.250      20.087      19.597      18.770      17.584      16.036      14.189    
  12.200      10.266      8.4800      6.9098      5.5951      4.5422      3.7294      3.1216      2.6838      2.3886    
  2.2179      2.1620      2.2179      2.3886      2.6838      3.1216      3.7294      4.5422      5.5951      6.9098    
  8.4801      10.266      12.200      14.189      16.036      17.584      17.041      17.026      16.978      16.978    
  17.026      17.040      16.868      16.329      15.298      13.792      11.997      10.181      8.4800      6.9744    
  5.7138      4.7077      3.9358      3.3648      2.9631      2.7070      2.5821      2.5821      2.7070      2.9631    
  3.3648      3.9357      4.7077      5.7138      6.9744      8.4801      10.181      11.997      13.792      15.298    
  16.329      16.868      13.323      12.562      12.276      12.562      13.323      14.289      15.084      15.341    
  14.850      13.644      11.997      10.266      8.6220      7.1643      5.9476      4.9821      4.2477      3.7136    
  3.3513      3.1411      3.0721      3.1411      3.3513      3.7136      4.2477      4.9821      5.9476      7.1643    
  8.6220      10.266      11.997      13.644      14.849      15.341      15.084      14.289      7.9822      6.8411    