unknown system                          
   1.00000000000000     
     0.000000    2.788985    2.788985
     2.788985    0.000000    2.788985
     2.788985    2.788985    0.000000
   Si
     2
Direct
  0.000000  0.000000  0.000000
  0.250000  0.250000  0.250000
 
   36   36   36
 -.77854389010E+01 -.62518863874E+01 -.20830003988E+01 0.35929773356E+01 0.93671396321E+01
 0.14015411213E+02 0.16823855071E+02 0.17687555519E+02 0.17007504248E+02 0.15465437829E+02
 0.13704158629E+02 0.11993087590E+02 0.10460955036E+02 0.91760277382E+01 0.81576117711E+01
 0.73958825660E+01 0.68704378830E+01 0.65626967145E+01 0.64613154913E+01 0.65626898977E+01
 0.68704251180E+01 0.73958760621E+01 0.81576214366E+01 0.91760377642E+01 0.10460942471E+02
 0.11993066674E+02 0.13704170035E+02 0.15465477670E+02 0.17007502020E+02 0.17687458921E+02
 0.16823715143E+02 0.14015338121E+02 0.93671759992E+01 0.35930571111E+01 -.20829582157E+01
 -.62518860392E+01 -.62518863874E+01 -.32081630296E+01 0.20028870176E+01 0.79822023467E+01
 0.13322914180E+02 0.17040573747E+02 0.18769513410E+02 0.18721397961E+02 0.17489287736E+02
 0.15782360345E+02 0.14033026420E+02 0.12399543771E+02 0.10975567557E+02 0.98037787733E+01
 0.88907717465E+01 0.82247070824E+01 0.77898768301E+01 0.75749869143E+01 0.75749803798E+01
 0.77898595722E+01 0.82246922277E+01 0.88907771403E+01 0.98037984544E+01 0.10975568807E+02
 0.12399516197E+02 0.14033009172E+02 0.15782386250E+02 0.17489317951E+02 0.18721365358E+02
 0.18769429318E+02 0.17040531237E+02 0.13322954675E+02 0.79822337574E+01 0.20027971055E+01
 -.32083379867E+01 -.62519772691E+01 -.20830003988E+01 0.20028870176E+01 0.74726467339E+01
 0.12897308802E+02 0.17106287702E+02 0.19490377348E+02 0.20044628913E+02 0.19218831961E+02
 0.17679325352E+02 0.15979528388E+02 0.14326089913E+02 0.12828672299E+02 0.11548884443E+02
 0.10510433611E+02 0.97137666407E+01 0.91506393972E+01 0.88142319656E+01 0.87021536054E+01
 0.88142148491E+01 0.91506184201E+01 0.97137633853E+01 0.10510454348E+02 0.11548903349E+02
 0.12828660647E+02 0.14326060637E+02 0.15979522967E+02 0.17679351912E+02 0.19218849031E+02
 0.20044608674E+02 0.19490351551E+02 0.17106298635E+02 0.12897332712E+02 0.74726119809E+01
 0.20027762111E+01 -.20831050085E+01 -.35989788158E+01 0.35929773356E+01 0.79822023467E+01
 0.12897308802E+02 0.17117298573E+02 0.19851706778E+02 0.20882624589E+02 0.20483924907E+02
 0.19217153708E+02 0.17661878624E+02 0.16083269907E+02 0.14598347434E+02 0.13280237875E+02
 0.12166070118E+02 0.11268654683E+02 0.10589882150E+02 0.10131669646E+02 0.98997444989E+01
 0.98997318858E+01 0.10131641796E+02 0.10589863553E+02 0.11268664326E+02 0.12166097917E+02
 0.13280252629E+02 0.14598334766E+02 0.16083249643E+02 0.17661874976E+02 0.19217164221E+02
 0.20483929675E+02 0.20882613893E+02 0.19851687198E+02 0.17117284700E+02 0.12897318872E+02
 0.79822458121E+01 0.35930342899E+01 0.99388519021E+00 0.99385839637E+00 0.93671396321E+01
 0.13322914180E+02 0.17106287702E+02 0.19851706778E+02 0.21170012202E+02 0.21153119948E+02
 0.20223266078E+02 0.18907025175E+02 0.17501272305E+02 0.16125345209E+02 0.14856282317E+02
 0.13738160927E+02 0.12792201006E+02 0.12029299863E+02 0.11461796428E+02 0.11108249118E+02
 0.10987649052E+02 0.11108217777E+02 0.11461755644E+02 0.12029280562E+02 0.12792216436E+02
 0.13738192476E+02 0.14856300761E+02 0.16125342228E+02 0.17501260674E+02 0.18907015712E+02
 0.20223259759E+02 0.21153113770E+02 0.21169998047E+02 0.19851675274E+02 0.17106249950E+02
 0.13322906640E+02 0.93671793135E+01 0.63512441478E+01 0.52216706826E+01 0.63511966376E+01
 0.14015411213E+02 0.17040573747E+02 0.19490377348E+02 0.20882624589E+02 0.21153119948E+02
 0.20573479613E+02 0.19570903871E+02 0.18425464537E+02 0.17252131124E+02 0.16125346954E+02
 0.15089101134E+02 0.14166435905E+02 0.13372061825E+02 0.12725921318E+02 0.12260436191E+02
 0.12014167286E+02 0.12014148819E+02 0.12260388010E+02 0.12725868176E+02 0.13372036910E+02
 0.14166452393E+02 0.15089137333E+02 0.16125372332E+02 0.17252137181E+02 0.18425460477E+02
 0.19570895416E+02 0.20573470186E+02 0.21153118070E+02 0.20882627404E+02 0.19490353491E+02
 0.17040484480E+02 0.14015261044E+02 0.11228731443E+02 0.95524959614E+01 0.95525571427E+01
 0.11228878141E+02 0.16823855071E+02 0.18769513410E+02 0.20044628913E+02 0.20483924907E+02
 0.20223266078E+02 0.19570903871E+02 0.18746692223E+02 0.17851271748E+02 0.16950861692E+02
 0.16083270593E+02 0.15266411552E+02 0.14511243722E+02 0.13838039696E+02 0.13288314537E+02
 0.12921214715E+02 0.12791371627E+02 0.12921193351E+02 0.13288264035E+02 0.13837978418E+02
 0.14511213743E+02 0.15266430532E+02 0.16083310023E+02 0.16950886480E+02 0.17851279660E+02
 0.18746696927E+02 0.19570904230E+02 0.20223260141E+02 0.20483932716E+02 0.20044656902E+02
 0.18769507448E+02 0.16823737224E+02 0.14687529759E+02 0.13017325407E+02 0.12384972281E+02
 0.13017507228E+02 0.14687748517E+02 0.17687555519E+02 0.18721397961E+02 0.19218831961E+02
 0.19217153708E+02 0.18907025175E+02 0.18425464537E+02 0.17851271748E+02 0.17237459339E+02
 0.16611087958E+02 0.15979524313E+02 0.15342782890E+02 0.14712128217E+02 0.14127885242E+02
 0.13659935855E+02 0.13394352428E+02 0.13394364656E+02 0.13659942372E+02 0.14127846198E+02
 0.14712065031E+02 0.15342755071E+02 0.15979549023E+02 0.16611125948E+02 0.17237478036E+02
 0.17851281484E+02 0.18425479732E+02 0.18907030085E+02 0.19217136714E+02 0.19218824053E+02
 0.18721432330E+02 0.17687608348E+02 0.16315732058E+02 0.15003586499E+02 0.14199262081E+02
 0.14199285271E+02 0.15003618839E+02 0.16315717591E+02 0.17007504248E+02 0.17489287736E+02
 0.17679325352E+02 0.17661878624E+02 0.17501272305E+02 0.17252131124E+02 0.16950861692E+02
 0.16611087958E+02 0.16226736030E+02 0.15782358102E+02 0.15272309003E+02 0.14720370671E+02
 0.14188909981E+02 0.13791981408E+02 0.13643810764E+02 0.13792049016E+02 0.14188957538E+02
 0.14720340841E+02 0.15272244306E+02 0.15782334071E+02 0.16226764228E+02 0.16611124642E+02
 0.16950880621E+02 0.17252148201E+02 0.17501297174E+02 0.17661884815E+02 0.17679289050E+02
 0.17489241254E+02 0.17007521862E+02 0.16249232177E+02 0.15388534047E+02 0.14700622339E+02
 0.14437337053E+02 0.14700487174E+02 0.15388351899E+02 0.16249110051E+02 0.15465437829E+02
 0.15782360345E+02 0.15979528388E+02 0.16083269907E+02 0.16125345209E+02 0.16125346954E+02
 0.16083270593E+02 0.15979524313E+02 0.15782358102E+02 0.15465443195E+02 0.15025246127E+02
 0.14499071757E+02 0.14007300957E+02 0.13706784331E+02 0.13706851503E+02 0.14007431519E+02
 0.14499138086E+02 0.15025206882E+02 0.15465368470E+02 0.15782328868E+02 0.15979547867E+02
 0.16083305042E+02 0.16125366782E+02 0.16125364214E+02 0.16083302516E+02 0.15979550597E+02
 0.15782331759E+02 0.15465366371E+02 0.15025204817E+02 0.14499140869E+02 0.14007433470E+02
 0.13706846927E+02 0.13706778108E+02 0.14007298493E+02 0.14499068774E+02 0.15025238773E+02
 0.13704158629E+02 0.14033026420E+02 0.14326089913E+02 0.14598347434E+02 0.14856282317E+02
 0.15089101134E+02 0.15266411552E+02 0.15342782890E+02 0.15272309003E+02 0.15025246127E+02
 0.14600333922E+02 0.14094136156E+02 0.13679213036E+02 0.13518757557E+02 0.13679354856E+02
 0.14094293857E+02 0.14600388025E+02 0.15025188540E+02 0.15272220673E+02 0.15342738507E+02
 0.15266420452E+02 0.15089124816E+02 0.14856286728E+02 0.14598345075E+02 0.14326117559E+02
 0.14033080444E+02 0.13704180040E+02 0.13331612393E+02 0.12933019746E+02 0.12560470877E+02
 0.12288203012E+02 0.12187345943E+02 0.12288232124E+02 0.12560548069E+02 0.12933120918E+02
 0.13331668375E+02 0.11993087590E+02 0.12399543771E+02 0.12828672299E+02 0.13280237875E+02
 0.13738160927E+02 0.14166435905E+02 0.14511243722E+02 0.14712128217E+02 0.14720370671E+02
 0.14499071757E+02 0.14094136156E+02 0.13656846536E+02 0.13374449164E+02 0.13374529042E+02
 0.13657023884E+02 0.14094284075E+02 0.14499109288E+02 0.14720309373E+02 0.14712039234E+02
 0.14511192919E+02 0.14166437342E+02 0.13738172697E+02 0.13280213061E+02 0.12828626545E+02
 0.12399543012E+02 0.11993157295E+02 0.11603020655E+02 0.11229206427E+02 0.10889924535E+02
 0.10623253803E+02 0.10474473742E+02 0.10474528287E+02 0.10623378534E+02 0.10890027688E+02
 0.11229213579E+02 0.11602945184E+02 0.10460955036E+02 0.10975567557E+02 0.11548884443E+02
 0.12166070118E+02 0.12792201006E+02 0.13372061825E+02 0.13838039696E+02 0.14127885242E+02
 0.14188909981E+02 0.14007300957E+02 0.13679213036E+02 0.13374449164E+02 0.13251492515E+02
 0.13374568748E+02 0.13679377354E+02 0.14007421307E+02 0.14188941900E+02 0.14127842560E+02
 0.13837976261E+02 0.13372032288E+02 0.12792218215E+02 0.12166088470E+02 0.11548850875E+02
 0.10975492332E+02 0.10460909994E+02 0.10005592959E+02 0.96051277436E+01 0.92608021958E+01
 0.89863133187E+01 0.88056707703E+01 0.87422393388E+01 0.88057087497E+01 0.89863311189E+01
 0.92607559383E+01 0.96050486934E+01 0.10005558707E+02 0.91760277382E+01 0.98037787733E+01
 0.10510433611E+02 0.11268654683E+02 0.12029299863E+02 0.12725921318E+02 0.13288314537E+02
 0.13659935855E+02 0.13791981408E+02 0.13706784331E+02 0.13518757557E+02 0.13374529042E+02
 0.13374568748E+02 0.13518857625E+02 0.13706898945E+02 0.13792064560E+02 0.13659963310E+02
 0.13288296203E+02 0.12725892905E+02 0.12029300855E+02 0.11268695675E+02 0.10510480558E+02
 0.98037822968E+01 0.91759731740E+01 0.86354261196E+01 0.81788886971E+01 0.78008042739E+01
 0.75012989311E+01 0.72891661575E+01 0.71780130937E+01 0.71779950293E+01 0.72891164712E+01
 0.75012396175E+01 0.78007760316E+01 0.81789202023E+01 0.86354977912E+01 0.81576117711E+01
 0.88907717465E+01 0.97137666407E+01 0.10589882150E+02 0.11461796428E+02 0.12260436191E+02
 0.12921214715E+02 0.13394352428E+02 0.13643810764E+02 0.13706851503E+02 0.13679354856E+02
 0.13657023884E+02 0.13679377354E+02 0.13706898945E+02 0.13643870356E+02 0.13394396290E+02
 0.12921226609E+02 0.12260424248E+02 0.11461780318E+02 0.10589882166E+02 0.97137978167E+01
 0.88908331778E+01 0.81576717006E+01 0.75296868128E+01 0.70064163001E+01 0.65800410002E+01
 0.62436239891E+01 0.59962124578E+01 0.58429666019E+01 0.57908174800E+01 0.58429303861E+01
 0.59961870190E+01 0.62436507344E+01 0.65801066836E+01 0.70064638279E+01 0.75296742197E+01
 0.73958825660E+01 0.82247070824E+01 0.91506393972E+01 0.10131669646E+02 0.11108249118E+02
 0.12014167286E+02 0.12791371627E+02 0.13394364656E+02 0.13792049016E+02 0.14007431519E+02
 0.14094293857E+02 0.14094284075E+02 0.14007421307E+02 0.13792064560E+02 0.13394396290E+02
 0.12791389733E+02 0.12014162581E+02 0.11108231888E+02 0.10131642295E+02 0.91506004095E+01
 0.82246816301E+01 0.73959096005E+01 0.66849279232E+01 0.60941317028E+01 0.56151219332E+01
 0.52369896123E+01 0.49524387525E+01 0.47600085855E+01 0.46623484611E+01 0.46623442605E+01
 0.47600138474E+01 0.49524734335E+01 0.52370280045E+01 0.56151116017E+01 0.60940614189E+01
 0.66848503731E+01 0.68704378830E+01 0.77898768301E+01 0.88142319656E+01 0.98997444989E+01
 0.10987649052E+02 0.12014148819E+02 0.12921193351E+02 0.13659942372E+02 0.14188957538E+02
 0.14499138086E+02 0.14600388025E+02 0.14499109288E+02 0.14188941900E+02 0.13659963310E+02
 0.12921226609E+02 0.12014162581E+02 0.10987644419E+02 0.98997361563E+01 0.88142082512E+01
 0.77898162876E+01 0.68703581838E+01 0.60795053666E+01 0.54219149451E+01 0.48892513190E+01
 0.44680707057E+01 0.41464839205E+01 0.39176472939E+01 0.37797371139E+01 0.37335492205E+01
 0.37797436623E+01 0.39176536070E+01 0.41464695604E+01 0.44680198772E+01 0.48891863158E+01
 0.54218897534E+01 0.60795488028E+01 0.65626967145E+01 0.75749869143E+01 0.87021536054E+01
 0.98997318858E+01 0.11108217777E+02 0.12260388010E+02 0.13288264035E+02 0.14127846198E+02
 0.14720340841E+02 0.15025206882E+02 0.15025188540E+02 0.14720309373E+02 0.14127842560E+02
 0.13288296203E+02 0.12260424248E+02 0.11108231888E+02 0.98997361563E+01 0.87021726110E+01
 0.75750102854E+01 0.65626815674E+01 0.56901587150E+01 0.49634090921E+01 0.43743218716E+01
 0.39078400955E+01 0.35486091960E+01 0.32852052645E+01 0.31113228922E+01 0.30246083824E+01
 0.30246076707E+01 0.31113116933E+01 0.32851719185E+01 0.35485674505E+01 0.39078308281E+01
 0.43743746689E+01 0.49635020298E+01 0.56902317050E+01 0.64613154913E+01 0.75749803798E+01
 0.88142148491E+01 0.10131641796E+02 0.11461755644E+02 0.12725868176E+02 0.13837978418E+02
 0.14712065031E+02 0.15272244306E+02 0.15465368470E+02 0.15272220673E+02 0.14712039234E+02
 0.13837976261E+02 0.12725892905E+02 0.11461780318E+02 0.10131642295E+02 0.88142082512E+01
 0.75750102854E+01 0.64613907601E+01 0.54998290827E+01 0.46971086526E+01 0.40451844220E+01
 0.35279245164E+01 0.31274737625E+01 0.28286636123E+01 0.26209331469E+01 0.24981745617E+01
 0.24575216207E+01 0.24981687182E+01 0.26209198546E+01 0.28286610533E+01 0.31275137073E+01
 0.35280076756E+01 0.40452575514E+01 0.46971113475E+01 0.54997617278E+01 0.65626898977E+01
 0.77898595722E+01 0.91506184201E+01 0.10589863553E+02 0.12029280562E+02 0.13372036910E+02
 0.14511213743E+02 0.15342755071E+02 0.15782334071E+02 0.15782328868E+02 0.15342738507E+02
 0.14511192919E+02 0.13372032288E+02 0.12029300855E+02 0.10589882166E+02 0.91506004095E+01
 0.77898162876E+01 0.65626815674E+01 0.54998290827E+01 0.46098124570E+01 0.38848110198E+01
 0.33078026736E+01 0.28590311525E+01 0.25204150117E+01 0.22777021229E+01 0.21209265394E+01
 0.20439750013E+01 0.20439763016E+01 0.21209330141E+01 0.22777237558E+01 0.25204600401E+01
 0.28590799744E+01 0.33078059465E+01 0.38847396239E+01 0.46097045343E+01 0.54997617951E+01
 0.68704251180E+01 0.82246922277E+01 0.97137633853E+01 0.11268664326E+02 0.12792216436E+02
 0.14166452393E+02 0.15266430532E+02 0.15979549023E+02 0.16226764228E+02 0.15979547867E+02
 0.15266420452E+02 0.14166437342E+02 0.12792218215E+02 0.11268695675E+02 0.97137978167E+01
 0.82246816301E+01 0.68703581838E+01 0.56901587150E+01 0.46971086526E+01 0.38848110198E+01
 0.32356995151E+01 0.27283142745E+01 0.23421165944E+01 0.20597663275E+01 0.18677603420E+01
 0.17564461164E+01 0.17199946512E+01 0.17564529753E+01 0.18677776301E+01 0.20597871439E+01
 0.23421144510E+01 0.27282623870E+01 0.32356098681E+01 0.38847422950E+01 0.46971149650E+01
 0.56902292983E+01 0.73958760621E+01 0.88907771403E+01 0.10510454348E+02 0.12166097917E+02
 0.13738192476E+02 0.15089137333E+02 0.16083310023E+02 0.16611125948E+02 0.16611124642E+02
 0.16083305042E+02 0.15089124816E+02 0.13738172697E+02 0.12166088470E+02 0.10510480558E+02
 0.88908331778E+01 0.73959096005E+01 0.60795053666E+01 0.49634090921E+01 0.40451844220E+01
 0.33078026736E+01 0.27283142745E+01 0.22837381211E+01 0.19538748233E+01 0.17220556541E+01
 0.15752232985E+01 0.15042004073E+01 0.15042015744E+01 0.15752274066E+01 0.17220555885E+01
 0.19538510466E+01 0.22836835326E+01 0.27282627873E+01 0.33078092948E+01 0.40452633179E+01
 0.49635046227E+01 0.60795440706E+01 0.81576214366E+01 0.98037984544E+01 0.11548903349E+02
 0.13280252629E+02 0.14856300761E+02 0.16125372332E+02 0.16950886480E+02 0.17237478036E+02
 0.16950880621E+02 0.16125366782E+02 0.14856286728E+02 0.13280213061E+02 0.11548850875E+02
 0.98037822968E+01 0.81576717006E+01 0.66849279232E+01 0.54219149451E+01 0.43743218716E+01
 0.35279245164E+01 0.28590311525E+01 0.23421165944E+01 0.19538748233E+01 0.16744878715E+01
 0.14876996313E+01 0.13810118084E+01 0.13463809123E+01 0.13810117859E+01 0.14876947832E+01
 0.16744697963E+01 0.19538482390E+01 0.23421131996E+01 0.28590827135E+01 0.35280129664E+01
 0.43743782504E+01 0.54218898221E+01 0.66848513652E+01 0.91760377642E+01 0.10975568807E+02
 0.12828660647E+02 0.14598334766E+02 0.16125342228E+02 0.17252137181E+02 0.17851279660E+02
 0.17851281484E+02 0.17252148201E+02 0.16125364214E+02 0.14598345075E+02 0.12828626545E+02
 0.10975492332E+02 0.91759731740E+01 0.75296868128E+01 0.60941317028E+01 0.48892513190E+01
 0.39078400955E+01 0.31274737625E+01 0.25204150117E+01 0.20597663275E+01 0.17220556541E+01
 0.14876996313E+01 0.13410073191E+01 0.12706690307E+01 0.12706699791E+01 0.13410065424E+01
 0.14876927287E+01 0.17220504263E+01 0.20597832558E+01 0.25204612645E+01 0.31275176041E+01
 0.39078318662E+01 0.48891834739E+01 0.60940616603E+01 0.75296815539E+01 0.10460942471E+02
 0.12399516197E+02 0.14326060637E+02 0.16083249643E+02 0.17501260674E+02 0.18425460477E+02
 0.18746696927E+02 0.18425479732E+02 0.17501297174E+02 0.16083302516E+02 0.14326117559E+02
 0.12399543012E+02 0.10460909994E+02 0.86354261196E+01 0.70064163001E+01 0.56151219332E+01
 0.44680707057E+01 0.35486091960E+01 0.28286636123E+01 0.22777021229E+01 0.18677603420E+01
 0.15752232985E+01 0.13810118084E+01 0.12706690307E+01 0.12349575898E+01 0.12706700273E+01
 0.13810105943E+01 0.15752246547E+01 0.18677747003E+01 0.22777237719E+01 0.28286632068E+01
 0.35485662109E+01 0.44680118873E+01 0.56151047255E+01 0.70064646286E+01 0.86354981437E+01
 0.11993066674E+02 0.14033009172E+02 0.15979522967E+02 0.17661874976E+02 0.18907015712E+02
 0.19570895416E+02 0.19570904230E+02 0.18907030085E+02 0.17661884815E+02 0.15979550597E+02
 0.14033080444E+02 0.11993157295E+02 0.10005592959E+02 0.81788886971E+01 0.65800410002E+01
 0.52369896123E+01 0.41464839205E+01 0.32852052645E+01 0.26209331469E+01 0.21209265394E+01
 0.17564461164E+01 0.15042004073E+01 0.13463809123E+01 0.12706699791E+01 0.12706700273E+01
 0.13463804964E+01 0.15042018520E+01 0.17564539632E+01 0.21209337296E+01 0.26209205960E+01
 0.32851708574E+01 0.41464625336E+01 0.52370183448E+01 0.65801035859E+01 0.81789189471E+01
 0.10005547439E+02 0.13704170035E+02 0.15782386250E+02 0.17679351912E+02 0.19217164221E+02
 0.20223259759E+02 0.20573470186E+02 0.20223260141E+02 0.19217136714E+02 0.17679289050E+02
 0.15782331759E+02 0.13704180040E+02 0.11603020655E+02 0.96051277436E+01 0.78008042739E+01
 0.62436239891E+01 0.49524387525E+01 0.39176472939E+01 0.31113228922E+01 0.24981745617E+01
 0.20439750013E+01 0.17199946512E+01 0.15042015744E+01 0.13810117859E+01 0.13410065424E+01
 0.13810105943E+01 0.15042018520E+01 0.17199986508E+01 0.20439779513E+01 0.24981675737E+01
 0.31113105264E+01 0.39176524554E+01 0.49524716660E+01 0.62436523229E+01 0.78007787234E+01
 0.96050459297E+01 0.11602943828E+02 0.15465477670E+02 0.17489317951E+02 0.19218849031E+02
 0.20483929675E+02 0.21153113770E+02 0.21153118070E+02 0.20483932716E+02 0.19218824053E+02
 0.17489241254E+02 0.15465366371E+02 0.13331612393E+02 0.11229206427E+02 0.92608021958E+01
 0.75012989311E+01 0.59962124578E+01 0.47600085855E+01 0.37797371139E+01 0.30246083824E+01
 0.24575216207E+01 0.20439763016E+01 0.17564529753E+01 0.15752274066E+01 0.14876947832E+01
 0.14876927287E+01 0.15752246547E+01 0.17564539632E+01 0.20439779513E+01 0.24575184310E+01
 0.30246046972E+01 0.37797436403E+01 0.47600190921E+01 0.59961994226E+01 0.75012494840E+01
 0.92607532479E+01 0.11229217042E+02 0.13331697313E+02 0.17007502020E+02 0.18721365358E+02
 0.20044608674E+02 0.20882613893E+02 0.21169998047E+02 0.20882627404E+02 0.20044656902E+02
 0.18721432330E+02 0.17007521862E+02 0.15025204817E+02 0.12933019746E+02 0.10889924535E+02
 0.89863133187E+01 0.72891661575E+01 0.58429666019E+01 0.46623484611E+01 0.37335492205E+01
 0.30246076707E+01 0.24981687182E+01 0.21209330141E+01 0.18677776301E+01 0.17220555885E+01
 0.16744697963E+01 0.17220504263E+01 0.18677747003E+01 0.21209337296E+01 0.24981675737E+01
 0.30246046972E+01 0.37335492023E+01 0.46623439939E+01 0.58429433930E+01 0.72891364844E+01
 0.89863264216E+01 0.10890012253E+02 0.12933142370E+02 0.15025276722E+02 0.17687458921E+02
 0.18769429318E+02 0.19490351551E+02 0.19851687198E+02 0.19851675274E+02 0.19490353491E+02
 0.18769507448E+02 0.17687608348E+02 0.16249232177E+02 0.14499140869E+02 0.12560470877E+02
 0.10623253803E+02 0.88056707703E+01 0.71780130937E+01 0.57908174800E+01 0.46623442605E+01
 0.37797436623E+01 0.31113116933E+01 0.26209198546E+01 0.22777237558E+01 0.20597871439E+01
 0.19538510466E+01 0.19538482390E+01 0.20597832558E+01 0.22777237719E+01 0.26209205960E+01
 0.31113105264E+01 0.37797436403E+01 0.46623439939E+01 0.57908123649E+01 0.71780178767E+01
 0.88057180826E+01 0.10623344250E+02 0.12560540475E+02 0.14499110486E+02 0.16249099009E+02
 0.16823715143E+02 0.17040531237E+02 0.17106298635E+02 0.17117284700E+02 0.17106249950E+02
 0.17040484480E+02 0.16823737224E+02 0.16315732058E+02 0.15388534047E+02 0.14007433470E+02
 0.12288203012E+02 0.10474473742E+02 0.87422393388E+01 0.71779950293E+01 0.58429303861E+01
 0.47600138474E+01 0.39176536070E+01 0.32851719185E+01 0.28286610533E+01 0.25204600401E+01
 0.23421144510E+01 0.22836835326E+01 0.23421131996E+01 0.25204612645E+01 0.28286632068E+01
 0.32851708574E+01 0.39176524554E+01 0.47600190921E+01 0.58429433930E+01 0.71780178767E+01
 0.87422765089E+01 0.10474508429E+02 0.12288187459E+02 0.14007333348E+02 0.15388384957E+02
 0.16315619042E+02 0.14015338121E+02 0.13322954675E+02 0.12897332712E+02 0.12897318872E+02
 0.13322906640E+02 0.14015261044E+02 0.14687529759E+02 0.15003586499E+02 0.14700622339E+02
 0.13706846927E+02 0.12187345943E+02 0.10474528287E+02 0.88057087497E+01 0.72891164712E+01
 0.59961870190E+01 0.49524734335E+01 0.41464695604E+01 0.35485674505E+01 0.31275137073E+01
 0.28590799744E+01 0.27282623870E+01 0.27282627873E+01 0.28590827135E+01 0.31275176041E+01
 0.35485662109E+01 0.41464625336E+01 0.49524716660E+01 0.59961994226E+01 0.72891364844E+01
 0.88057180826E+01 0.10474508429E+02 0.12187287437E+02 0.13706764136E+02 0.14700559863E+02
 0.15003588042E+02 0.14687593255E+02 0.93671759992E+01 0.79822337574E+01 0.74726119809E+01
 0.79822458121E+01 0.93671793135E+01 0.11228731443E+02 0.13017325407E+02 0.14199262081E+02
 0.14437337053E+02 0.13706778108E+02 0.12288232124E+02 0.10623378534E+02 0.89863311189E+01
 0.75012396175E+01 0.62436507344E+01 0.52370280045E+01 0.44680198772E+01 0.39078308281E+01
 0.35280076756E+01 0.33078059465E+01 0.32356098681E+01 0.33078092948E+01 0.35280129664E+01
 0.39078318662E+01 0.44680118873E+01 0.52370183448E+01 0.62436523229E+01 0.75012494840E+01
 0.89863264216E+01 0.10623344250E+02 0.12288187459E+02 0.13706764136E+02 0.14437376299E+02
 0.14199335603E+02 0.13017391536E+02 0.11228761364E+02 0.35930571111E+01 0.20027971055E+01
 0.20027762111E+01 0.35930342899E+01 0.63512441478E+01 0.95524959614E+01 0.12384972281E+02
 0.14199285271E+02 0.14700487174E+02 0.14007298493E+02 0.12560548069E+02 0.10890027688E+02
 0.92607559383E+01 0.78007760316E+01 0.65801066836E+01 0.56151116017E+01 0.48891863158E+01
 0.43743746689E+01 0.40452575514E+01 0.38847396239E+01 0.38847422950E+01 0.40452633179E+01
 0.43743782504E+01 0.48891834739E+01 0.56151047255E+01 0.65801035859E+01 0.78007787234E+01
 0.92607532479E+01 0.10890012253E+02 0.12560540475E+02 0.14007333348E+02 0.14700559863E+02
 0.14199335603E+02 0.12384950418E+02 0.95524318957E+01 0.63512134604E+01 -.20829582157E+01
 -.32083379867E+01 -.20831050085E+01 0.99388519021E+00 0.52216706826E+01 0.95525571427E+01
 0.13017507228E+02 0.15003618839E+02 0.15388351899E+02 0.14499068774E+02 0.12933120918E+02
 0.11229213579E+02 0.96050486934E+01 0.81789202023E+01 0.70064638279E+01 0.60940614189E+01
 0.54218897534E+01 0.49635020298E+01 0.46971113475E+01 0.46097045343E+01 0.46971149650E+01
 0.49635046227E+01 0.54218898221E+01 0.60940616603E+01 0.70064646286E+01 0.81789189471E+01
 0.96050459297E+01 0.11229217042E+02 0.12933142370E+02 0.14499110486E+02 0.15388384957E+02
 0.15003588042E+02 0.13017391536E+02 0.95524318957E+01 0.52216608590E+01 0.99401959524E+00
 -.62518860392E+01 -.62519772691E+01 -.35989788158E+01 0.99385839637E+00 0.63511966376E+01
 0.11228878141E+02 0.14687748517E+02 0.16315717591E+02 0.16249110051E+02 0.15025238773E+02
 0.13331668375E+02 0.11602945184E+02 0.10005558707E+02 0.86354977912E+01 0.75296742197E+01
 0.66848503731E+01 0.60795488028E+01 0.56902317050E+01 0.54997617278E+01 0.54997617951E+01
 0.56902292983E+01 0.60795440706E+01 0.66848513652E+01 0.75296815539E+01 0.86354981437E+01
 0.10005547439E+02 0.11602943828E+02 0.13331697313E+02 0.15025276722E+02 0.16249099009E+02
 0.16315619042E+02 0.14687593255E+02 0.11228761364E+02 0.63512134604E+01 0.99401959524E+00
 -.35987770412E+01 -.62518842857E+01 -.32081657782E+01 0.20028833008E+01 0.79822011514E+01
 0.13322913725E+02 0.17040572360E+02 0.18769513446E+02 0.18721400156E+02 0.17489287894E+02
 0.15782356069E+02 0.14033021335E+02 0.12399541023E+02 0.10975565107E+02 0.98037750981E+01
 0.88907698879E+01 0.82247087299E+01 0.77898784508E+01 0.75749860492E+01 0.75749798594E+01
 0.77898614092E+01 0.82246934240E+01 0.88907757075E+01 0.98037974940E+01 0.10975570401E+02
 0.12399517283E+02 0.14033007652E+02 0.15782385144E+02 0.17489319364E+02 0.18721366422E+02
 0.18769428312E+02 0.17040531634E+02 0.13322958869E+02 0.79822387161E+01 0.20028002996E+01
 -.32083344532E+01 -.62519724885E+01 -.32081657782E+01 0.10865457093E+01 0.68411878649E+01
 0.12561784607E+02 0.17026166236E+02 0.19597259890E+02 0.20264150910E+02 0.19485543640E+02
 0.17945121285E+02 0.16226737973E+02 0.14551374346E+02 0.13031283615E+02 0.11730251844E+02
 0.10673593854E+02 0.98626647392E+01 0.92894971213E+01 0.89471800426E+01 0.88331561768E+01
 0.89471633311E+01 0.92894731266E+01 0.98626551557E+01 0.10673610441E+02 0.11730271902E+02
 0.13031274413E+02 0.14551345942E+02 0.16226737467E+02 0.17945163914E+02 0.19485585633E+02
 0.20264157399E+02 0.19597261094E+02 0.17026200291E+02 0.12561803013E+02 0.68410891975E+01
 0.10863235820E+01 -.32083610581E+01 -.48011621614E+01 0.20028833008E+01 0.68411878649E+01
 0.12276016389E+02 0.16978047617E+02 0.20087025168E+02 0.21359169247E+02 0.21075623069E+02
 0.19824776748E+02 0.18233555638E+02 0.16611090266E+02 0.15079547196E+02 0.13715733466E+02
 0.12560023153E+02 0.11627671532E+02 0.10922023061E+02 0.10445667232E+02 0.10204613033E+02
 0.10204607066E+02 0.10445650900E+02 0.10922006835E+02 0.11627673076E+02 0.12560043692E+02
 0.13715747671E+02 0.15079533543E+02 0.16611063515E+02 0.18233552526E+02 0.19824815282E+02
 0.21075688823E+02 0.21359235949E+02 0.20087070569E+02 0.16978053809E+02 0.12275974382E+02
 0.68411110613E+01 0.20028096796E+01 -.85884911882E+00 -.85881893566E+00 0.79822011514E+01
 0.12561784607E+02 0.16978047617E+02 0.20249624606E+02 0.21929434845E+02 0.22103000134E+02
 0.21219841065E+02 0.19860240168E+02 0.18393583123E+02 0.16950860695E+02 0.15613380895E+02
 0.14429373270E+02 0.13423905057E+02 0.12611045569E+02 0.12005635284E+02 0.11628297388E+02
 0.11499578559E+02 0.11628296769E+02 0.12005627795E+02 0.12611036072E+02 0.13423909701E+02
 0.14429395701E+02 0.15613401690E+02 0.16950856907E+02 0.18393555658E+02 0.19860219195E+02
 0.21219863368E+02 0.22103069363E+02 0.21929505571E+02 0.20249645104E+02 0.16978028756E+02
 0.12561796841E+02 0.79822801703E+01 0.45025163178E+01 0.32007636160E+01 0.45024321012E+01
 0.13322913725E+02 0.17026166236E+02 0.20087025168E+02 0.21929434845E+02 0.22458684707E+02
 0.21963911507E+02 0.20925055340E+02 0.19712872498E+02 0.18462244704E+02 0.17252130020E+02
 0.16130643822E+02 0.15125133069E+02 0.14254766503E+02 0.13544250598E+02 0.13031284124E+02
 0.12759602935E+02 0.12759611826E+02 0.13031295605E+02 0.13544243271E+02 0.14254747281E+02
 0.15125131157E+02 0.16130672256E+02 0.17252166999E+02 0.18462255282E+02 0.19712846948E+02
 0.20925024306E+02 0.21963919439E+02 0.22458737660E+02 0.21929485665E+02 0.20087027819E+02
 0.17026136776E+02 0.13322908447E+02 0.99409768209E+01 0.79136533818E+01 0.79136314585E+01
 0.99409447067E+01 0.17040572360E+02 0.19597259890E+02 0.21359169247E+02 0.22103000134E+02
 0.21963911507E+02 0.21296141090E+02 0.20415971794E+02 0.19447595190E+02 0.18462246177E+02
 0.17501274521E+02 0.16586090172E+02 0.15731930104E+02 0.14965140646E+02 0.14336030312E+02
 0.13913599776E+02 0.13763395046E+02 0.13913635703E+02 0.14336053260E+02 0.14965119957E+02
 0.15731892125E+02 0.16586081471E+02 0.17501306892E+02 0.18462289591E+02 0.19447614018E+02
 0.20415958664E+02 0.21296119988E+02 0.21963917499E+02 0.22103044320E+02 0.21359216111E+02
 0.19597248093E+02 0.17040470807E+02 0.14289274225E+02 0.12157056246E+02 0.11352453370E+02
 0.12157168216E+02 0.14289425716E+02 0.18769513446E+02 0.20264150910E+02 0.21075623069E+02
 0.21219841065E+02 0.20925055340E+02 0.20415971794E+02 0.19790098391E+02 0.19106017077E+02
 0.18393585700E+02 0.17661881005E+02 0.16913137475E+02 0.16163492906E+02 0.15456213175E+02
 0.14877636231E+02 0.14545884666E+02 0.14545929351E+02 0.14877720532E+02 0.15456250145E+02
 0.16163461062E+02 0.16913090895E+02 0.17661871408E+02 0.18393611996E+02 0.19106049983E+02
 0.19790118203E+02 0.20415975839E+02 0.20925050064E+02 0.21219845932E+02 0.21075657694E+02
 0.20264196262E+02 0.18769507579E+02 0.16868148162E+02 0.15083595813E+02 0.13998875021E+02
 0.13998940854E+02 0.15083733770E+02 0.16868245650E+02 0.18721400156E+02 0.19485543640E+02
 0.19824776748E+02 0.19860240168E+02 0.19712872498E+02 0.19447595190E+02 0.19106017077E+02
 0.18703551080E+02 0.18233556815E+02 0.17679324734E+02 0.17032868509E+02 0.16305070184E+02
 0.15587504097E+02 0.15047140930E+02 0.14844945831E+02 0.15047265332E+02 0.15587639473E+02
 0.16305117601E+02 0.17032835801E+02 0.17679285191E+02 0.18233552720E+02 0.18703570137E+02
 0.19106038893E+02 0.19447615580E+02 0.19712888322E+02 0.19860240706E+02 0.19824765014E+02
 0.19485548780E+02 0.18721446729E+02 0.17583736806E+02 0.16329072524E+02 0.15341028999E+02
 0.14965304702E+02 0.15340983952E+02 0.16328994899E+02 0.17583657447E+02 0.17489287894E+02
 0.17945121285E+02 0.18233555638E+02 0.18393583123E+02 0.18462244704E+02 0.18462246177E+02
 0.18393585700E+02 0.18233556815E+02 0.17945121289E+02 0.17489287541E+02 0.16830230658E+02
 0.16036350427E+02 0.15298259621E+02 0.14849442204E+02 0.14849527854E+02 0.15298445538E+02
 0.16036498405E+02 0.16830269654E+02 0.17489254346E+02 0.17945090680E+02 0.18233560333E+02
 0.18393607544E+02 0.18462268498E+02 0.18462267825E+02 0.18393606877E+02 0.18233561007E+02
 0.17945091288E+02 0.17489253521E+02 0.16830268858E+02 0.16036499220E+02 0.15298446898E+02
 0.14849528670E+02 0.14849443955E+02 0.15298263460E+02 0.16036354385E+02 0.16830232509E+02
 0.15782356069E+02 0.16226737973E+02 0.16611090266E+02 0.16950860695E+02 0.17252130020E+02
 0.17501274521E+02 0.17661881005E+02 0.17679324734E+02 0.17489287541E+02 0.17007507685E+02