   2   2   0   0
  0.2169395E+02  0.3944220E-09  0.3944220E-09  0.3944220E-09  0.5000000E-15
  1.000000000000000E-004
  CAR 
 unknown system                          
     16.01156226     -8.33552095  301      5.41589954      1.00000000
     -8.336  0.0000E+00  0.0000E+00
     -8.254  0.0000E+00  0.0000E+00
     -8.173  0.0000E+00  0.0000E+00
     -8.092  0.0000E+00  0.0000E+00
     -8.011  0.0000E+00  0.0000E+00
     -7.930  0.0000E+00  0.0000E+00
     -7.849  0.0000E+00  0.0000E+00
     -7.767  0.0000E+00  0.0000E+00
     -7.686  0.0000E+00  0.0000E+00
     -7.605  0.0000E+00  0.0000E+00
     -7.524  0.0000E+00  0.0000E+00
     -7.443  0.1567E-16  0.1272E-17
     -7.362  0.1269E-14  0.1043E-15
     -7.280  0.7474E-13  0.6170E-14
     -7.199  0.3185E-11  0.2646E-12
     -7.118  0.9831E-10  0.8243E-11
     -7.037  0.2202E-08  0.1870E-09
     -6.956  0.3589E-07  0.3100E-08
     -6.875  0.4271E-06  0.3776E-07
     -6.794  0.3731E-05  0.3406E-06
     -6.712  0.2413E-04  0.2299E-05
     -6.631  0.1168E-03  0.1178E-04
     -6.550  0.4303E-03  0.4670E-04
     -6.469  0.1229E-02  0.1464E-03
     -6.388  0.2782E-02  0.3722E-03
     -6.307  0.5116E-02  0.7874E-03
     -6.225  0.7876E-02  0.1427E-02
     -6.144  0.1057E-01  0.2285E-02
     -6.063  0.1302E-01  0.3341E-02
     -5.982  0.1533E-01  0.4586E-02
     -5.901  0.1743E-01  0.6001E-02
     -5.820  0.1894E-01  0.7538E-02
     -5.738  0.1994E-01  0.9156E-02
     -5.657  0.2134E-01  0.1089E-01
     -5.576  0.2367E-01  0.1281E-01
     -5.495  0.2602E-01  0.1492E-01
     -5.414  0.2705E-01  0.1712E-01
     -5.333  0.2709E-01  0.1931E-01
     -5.252  0.2767E-01  0.2156E-01
     -5.170  0.2946E-01  0.2395E-01
     -5.089  0.3184E-01  0.2653E-01
     -5.008  0.3424E-01  0.2931E-01
     -4.927  0.3652E-01  0.3228E-01
     -4.846  0.3814E-01  0.3537E-01
     -4.765  0.3847E-01  0.3850E-01
     -4.683  0.3785E-01  0.4157E-01
     -4.602  0.3825E-01  0.4467E-01
     -4.521  0.4198E-01  0.4808E-01
     -4.440  0.4877E-01  0.5203E-01
     -4.359  0.5515E-01  0.5651E-01
     -4.278  0.5830E-01  0.6124E-01
     -4.197  0.5891E-01  0.6602E-01
     -4.115  0.5893E-01  0.7081E-01
     -4.034  0.5833E-01  0.7554E-01
     -3.953  0.5566E-01  0.8006E-01
     -3.872  0.5145E-01  0.8423E-01
     -3.791  0.4931E-01  0.8823E-01
     -3.710  0.5207E-01  0.9246E-01
     -3.628  0.5720E-01  0.9710E-01
     -3.547  0.5869E-01  0.1019E+00
     -3.466  0.5325E-01  0.1062E+00
     -3.385  0.4333E-01  0.1097E+00
     -3.304  0.3382E-01  0.1124E+00
     -3.223  0.2799E-01  0.1147E+00
     -3.141  0.2679E-01  0.1169E+00
     -3.060  0.2995E-01  0.1193E+00
     -2.979  0.3553E-01  0.1222E+00
     -2.898  0.3942E-01  0.1254E+00
     -2.817  0.3751E-01  0.1285E+00
     -2.736  0.2917E-01  0.1308E+00
     -2.655  0.1802E-01  0.1323E+00
     -2.573  0.8676E-02  0.1330E+00
     -2.492  0.3277E-02  0.1333E+00
     -2.411  0.1409E-02  0.1334E+00
     -2.330  0.2470E-02  0.1336E+00
     -2.249  0.7346E-02  0.1342E+00
     -2.168  0.1723E-01  0.1356E+00
     -2.086  0.3004E-01  0.1380E+00
     -2.005  0.3942E-01  0.1412E+00
     -1.924  0.4029E-01  0.1445E+00
     -1.843  0.3484E-01  0.1473E+00
     -1.762  0.3050E-01  0.1498E+00
     -1.681  0.3342E-01  0.1525E+00
     -1.599  0.4503E-01  0.1561E+00
     -1.518  0.6180E-01  0.1612E+00
     -1.437  0.7696E-01  0.1674E+00
     -1.356  0.8500E-01  0.1743E+00
     -1.275  0.8436E-01  0.1811E+00
     -1.194  0.7572E-01  0.1873E+00
     -1.113  0.6200E-01  0.1923E+00
     -1.031  0.4974E-01  0.1964E+00
     -0.950  0.4423E-01  0.1999E+00
     -0.869  0.4320E-01  0.2035E+00
     -0.788  0.4012E-01  0.2067E+00
     -0.707  0.3336E-01  0.2094E+00
     -0.626  0.2755E-01  0.2117E+00
     -0.544  0.2698E-01  0.2138E+00
     -0.463  0.3148E-01  0.2164E+00
     -0.382  0.3722E-01  0.2194E+00
     -0.301  0.3897E-01  0.2226E+00
     -0.220  0.3398E-01  0.2253E+00
     -0.139  0.2513E-01  0.2274E+00
     -0.058  0.1842E-01  0.2289E+00
      0.024  0.1752E-01  0.2303E+00
      0.105  0.2138E-01  0.2320E+00
      0.186  0.2538E-01  0.2341E+00
      0.267  0.2513E-01  0.2361E+00
      0.348  0.2038E-01  0.2378E+00
      0.429  0.1491E-01  0.2390E+00
      0.511  0.1233E-01  0.2400E+00
      0.592  0.1298E-01  0.2410E+00
      0.673  0.1557E-01  0.2423E+00
      0.754  0.1941E-01  0.2439E+00
      0.835  0.2371E-01  0.2458E+00
      0.916  0.2727E-01  0.2480E+00
      0.998  0.3067E-01  0.2505E+00
      1.079  0.3628E-01  0.2535E+00
      1.160  0.4508E-01  0.2571E+00
      1.241  0.5619E-01  0.2617E+00
      1.322  0.6879E-01  0.2673E+00
      1.403  0.8068E-01  0.2738E+00
      1.484  0.8710E-01  0.2809E+00
      1.566  0.8518E-01  0.2878E+00
      1.647  0.7820E-01  0.2941E+00
      1.728  0.7256E-01  0.3000E+00
      1.809  0.7153E-01  0.3058E+00
      1.890  0.7316E-01  0.3118E+00
      1.971  0.7433E-01  0.3178E+00
      2.053  0.7573E-01  0.3239E+00
      2.134  0.8098E-01  0.3305E+00
      2.215  0.9081E-01  0.3379E+00
      2.296  0.1000E+00  0.3460E+00
      2.377  0.1023E+00  0.3543E+00
      2.458  0.9827E-01  0.3623E+00
      2.540  0.9565E-01  0.3700E+00
      2.621  0.9908E-01  0.3781E+00
      2.702  0.1042E+00  0.3865E+00
      2.783  0.1045E+00  0.3950E+00
      2.864  0.1006E+00  0.4032E+00
      2.945  0.9942E-01  0.4113E+00
      3.026  0.1040E+00  0.4197E+00
      3.108  0.1078E+00  0.4284E+00
      3.189  0.1027E+00  0.4368E+00
      3.270  0.8951E-01  0.4440E+00
      3.351  0.7800E-01  0.4504E+00
      3.432  0.7692E-01  0.4566E+00
      3.513  0.8566E-01  0.4636E+00
      3.595  0.9540E-01  0.4713E+00
      3.676  0.9741E-01  0.4792E+00
      3.757  0.8962E-01  0.4865E+00
      3.838  0.7674E-01  0.4927E+00
      3.919  0.6598E-01  0.4981E+00
      4.000  0.6139E-01  0.5031E+00
      4.081  0.6016E-01  0.5079E+00
      4.163  0.5577E-01  0.5125E+00
      4.244  0.4598E-01  0.5162E+00
      4.325  0.3556E-01  0.5191E+00
      4.406  0.2998E-01  0.5215E+00
      4.487  0.2914E-01  0.5239E+00
      4.568  0.2850E-01  0.5262E+00
      4.650  0.2491E-01  0.5282E+00
      4.731  0.1935E-01  0.5298E+00
      4.812  0.1437E-01  0.5310E+00
      4.893  0.1090E-01  0.5318E+00
      4.974  0.8143E-02  0.5325E+00
      5.055  0.5443E-02  0.5329E+00
      5.137  0.3002E-02  0.5332E+00
      5.218  0.1302E-02  0.5333E+00
      5.299  0.4327E-03  0.5333E+00
      5.380  0.1112E-03  0.5333E+00
      5.461  0.4715E-04  0.5333E+00
      5.542  0.1641E-03  0.5333E+00
      5.623  0.7018E-03  0.5334E+00
      5.705  0.2241E-02  0.5336E+00
      5.786  0.5310E-02  0.5340E+00
      5.867  0.9502E-02  0.5348E+00
      5.948  0.1338E-01  0.5359E+00
      6.029  0.1624E-01  0.5372E+00
      6.110  0.1960E-01  0.5388E+00
      6.192  0.2540E-01  0.5408E+00
      6.273  0.3280E-01  0.5435E+00
      6.354  0.3888E-01  0.5467E+00
      6.435  0.4309E-01  0.5502E+00
      6.516  0.4824E-01  0.5541E+00
      6.597  0.5535E-01  0.5586E+00
      6.679  0.6116E-01  0.5635E+00
      6.760  0.6291E-01  0.5686E+00
      6.841  0.6280E-01  0.5737E+00
      6.922  0.6650E-01  0.5791E+00
      7.003  0.7833E-01  0.5855E+00
      7.084  0.9700E-01  0.5934E+00
      7.165  0.1151E+00  0.6027E+00
      7.247  0.1236E+00  0.6127E+00
      7.328  0.1187E+00  0.6224E+00
      7.409  0.1046E+00  0.6309E+00
      7.490  0.9086E-01  0.6382E+00
      7.571  0.8431E-01  0.6451E+00
      7.652  0.8445E-01  0.6519E+00
      7.734  0.8537E-01  0.6589E+00
      7.815  0.8235E-01  0.6655E+00
      7.896  0.7615E-01  0.6717E+00
      7.977  0.7145E-01  0.6775E+00
      8.058  0.7326E-01  0.6835E+00
      8.139  0.8446E-01  0.6903E+00
      8.220  0.1038E+00  0.6987E+00
      8.302  0.1249E+00  0.7089E+00
      8.383  0.1394E+00  0.7202E+00
      8.464  0.1430E+00  0.7318E+00
      8.545  0.1378E+00  0.7430E+00
      8.626  0.1278E+00  0.7533E+00
      8.707  0.1160E+00  0.7628E+00
      8.789  0.1050E+00  0.7713E+00
      8.870  0.9692E-01  0.7791E+00
      8.951  0.9129E-01  0.7866E+00
      9.032  0.8668E-01  0.7936E+00
      9.113  0.8391E-01  0.8004E+00
      9.194  0.8438E-01  0.8072E+00
      9.276  0.8713E-01  0.8143E+00
      9.357  0.9019E-01  0.8216E+00
      9.438  0.9276E-01  0.8292E+00
      9.519  0.9439E-01  0.8368E+00
      9.600  0.9463E-01  0.8445E+00
      9.681  0.9519E-01  0.8522E+00
      9.762  0.9840E-01  0.8602E+00
      9.844  0.1017E+00  0.8685E+00
      9.925  0.9884E-01  0.8765E+00
     10.006  0.8804E-01  0.8836E+00
     10.087  0.7562E-01  0.8898E+00
     10.168  0.6820E-01  0.8953E+00
     10.249  0.6591E-01  0.9007E+00
     10.331  0.6551E-01  0.9060E+00
     10.412  0.6769E-01  0.9115E+00
     10.493  0.7590E-01  0.9176E+00
     10.574  0.8876E-01  0.9248E+00
     10.655  0.9933E-01  0.9329E+00
     10.736  0.1020E+00  0.9412E+00
     10.818  0.9584E-01  0.9490E+00
     10.899  0.8295E-01  0.9557E+00
     10.980  0.6769E-01  0.9612E+00
     11.061  0.5544E-01  0.9657E+00
     11.142  0.4978E-01  0.9697E+00
     11.223  0.4993E-01  0.9738E+00
     11.304  0.5091E-01  0.9779E+00
     11.386  0.4840E-01  0.9818E+00
     11.467  0.4414E-01  0.9854E+00
     11.548  0.4458E-01  0.9890E+00
     11.629  0.5446E-01  0.9935E+00
     11.710  0.7149E-01  0.9993E+00
     11.791  0.8603E-01  0.1006E+01
     11.873  0.8760E-01  0.1013E+01
     11.954  0.7415E-01  0.1019E+01
     12.035  0.5351E-01  0.1024E+01
     12.116  0.3607E-01  0.1027E+01
     12.197  0.2777E-01  0.1029E+01
     12.278  0.2785E-01  0.1031E+01
     12.359  0.3044E-01  0.1034E+01
     12.441  0.3030E-01  0.1036E+01
     12.522  0.2813E-01  0.1038E+01
     12.603  0.2826E-01  0.1041E+01
     12.684  0.3227E-01  0.1043E+01
     12.765  0.3774E-01  0.1046E+01
     12.846  0.4179E-01  0.1050E+01
     12.928  0.4234E-01  0.1053E+01
     13.009  0.3745E-01  0.1056E+01
     13.090  0.2719E-01  0.1058E+01
     13.171  0.1542E-01  0.1060E+01
     13.252  0.6702E-02  0.1060E+01
     13.333  0.2540E-02  0.1060E+01
     13.415  0.1962E-02  0.1061E+01
     13.496  0.3723E-02  0.1061E+01
     13.577  0.6602E-02  0.1061E+01
     13.658  0.8829E-02  0.1062E+01
     13.739  0.9167E-02  0.1063E+01
     13.820  0.8451E-02  0.1064E+01
     13.901  0.8433E-02  0.1064E+01
     13.983  0.9101E-02  0.1065E+01
     14.064  0.8723E-02  0.1066E+01
     14.145  0.6499E-02  0.1066E+01
     14.226  0.3592E-02  0.1067E+01
     14.307  0.1454E-02  0.1067E+01
     14.388  0.4294E-03  0.1067E+01
     14.470  0.9240E-04  0.1067E+01
     14.551  0.1448E-04  0.1067E+01
     14.632  0.1651E-05  0.1067E+01
     14.713  0.1368E-06  0.1067E+01
     14.794  0.8243E-08  0.1067E+01
     14.875  0.3605E-09  0.1067E+01
     14.957  0.1144E-10  0.1067E+01
     15.038  0.2633E-12  0.1067E+01
     15.119  0.4390E-14  0.1067E+01
     15.200  0.5344E-16  0.1067E+01
     15.281  0.0000E+00  0.1067E+01
     15.362  0.0000E+00  0.1067E+01
     15.443  0.0000E+00  0.1067E+01
     15.525  0.0000E+00  0.1067E+01
     15.606  0.0000E+00  0.1067E+01
     15.687  0.0000E+00  0.1067E+01
     15.768  0.0000E+00  0.1067E+01
     15.849  0.0000E+00  0.1067E+01
     15.930  0.0000E+00  0.1067E+01
     16.012  0.0000E+00  0.1067E+01
