 vasp.5.4.4.18Apr17-6-g9f103f2a35 (build Dec 09 2018 21:25:21) complex          
  
 executed on IFC18.0.1.163_CrayMP date 2019.04.01  16:00:36
 running on    8 total cores
 distrk:  each k-point on    8 cores,    1 groups
 distr:  one band on NCORES_PER_BAND=   1 cores,    8 groups


--------------------------------------------------------------------------------------------------------


 INCAR:
 POTCAR:   PAW_PBE Si 05Jan2001                   

 ----------------------------------------------------------------------------- 
|                                                                             |
|           W    W    AA    RRRRR   N    N  II  N    N   GGGG   !!!           |
|           W    W   A  A   R    R  NN   N  II  NN   N  G    G  !!!           |
|           W    W  A    A  R    R  N N  N  II  N N  N  G       !!!           |
|           W WW W  AAAAAA  RRRRR   N  N N  II  N  N N  G  GGG   !            |
|           WW  WW  A    A  R   R   N   NN  II  N   NN  G    G                |
|           W    W  A    A  R    R  N    N  II  N    N   GGGG   !!!           |
|                                                                             |
|      For optimal performance we recommend to set                            |
|        NCORE= 4 - approx SQRT( number of cores)                             |
|      NCORE specifies how many cores store one orbital (NPAR=cpu/NCORE).     |
|      This setting can  greatly improve the performance of VASP for DFT.     |
|      The default,   NCORE=1            might be grossly inefficient         |
|      on modern multi-core architectures or massively parallel machines.     |
|      Do your own testing !!!!                                               |
|      Unfortunately you need to use the default for GW and RPA calculations. |
|      (for HF NCORE is supported but not extensively tested yet)             |
|                                                                             |
 ----------------------------------------------------------------------------- 

 POTCAR:   PAW_PBE Si 05Jan2001                   
   VRHFIN =Si: s2p2                                                             
   LEXCH  = PE                                                                  
   EATOM  =   103.0669 eV,    7.5752 Ry                                         
                                                                                
   TITEL  = PAW_PBE Si 05Jan2001                                                
   LULTRA =        F    use ultrasoft PP ?                                      
   IUNSCR =        1    unscreen: 0-lin 1-nonlin 2-no                           
   RPACOR =    1.500    partial core radius                                     
   POMASS =   28.085; ZVAL   =    4.000    mass and valenz                      
   RCORE  =    1.900    outmost cutoff radius                                   
   RWIGS  =    2.480; RWIGS  =    1.312    wigner-seitz radius (au A)           
   ENMAX  =  245.345; ENMIN  =  184.009 eV                                      
   ICORE  =        2    local potential                                         
   LCOR   =        T    correct aug charges                                     
   LPAW   =        T    paw PP                                                  
   EAUG   =  322.069                                                            
   DEXC   =    -.007                                                            
   RMAX   =    2.944    core radius for proj-oper                               
   RAUG   =    1.300    factor for augmentation sphere                          
   RDEP   =    1.993    radius for radial grids                                 
   QCUT   =   -4.246; QGAM   =    8.493    optimization parameters              
                                                                                
   Description                                                                  
     l     E      TYP  RCUT    TYP  RCUT                                        
     0   .000     23  1.900                                                     
     0   .000     23  1.900                                                     
     1   .000     23  1.900                                                     
     1   .000     23  1.900                                                     
     2   .000      7  1.900                                                     
  local pseudopotential read in
  partial core-charges read in
  atomic valenz-charges read in
  non local Contribution for L=           0  read in
    real space projection operators read in
  non local Contribution for L=           0  read in
    real space projection operators read in
  non local Contribution for L=           1  read in
    real space projection operators read in
  non local Contribution for L=           1  read in
    real space projection operators read in
    PAW grid and wavefunctions read in
 
   number of l-projection  operators is LMAX  =           4
   number of lm-projection operators is LMMAX =           8
 
 PAW_PBE Si 05Jan2001                   :
 energy of atom  1       EATOM= -103.0669
 kinetic energy error for atom=    0.0013 (will be added to EATOM!!)
 
 
 POSCAR: Si2                                     
  positions in direct lattice
  No initial velocities read in
 exchange correlation table for  LEXCH =        8
   RHO(1)=    0.500       N(1)  =     2000
   RHO(2)=  100.500       N(2)  =     4000
 


--------------------------------------------------------------------------------------------------------


 ion  position               nearest neighbor table
   1  0.000  0.000  0.000-   2 2.42   2 2.42   2 2.42   2 2.42
   2  0.250  0.250  0.250-   1 2.42   1 2.42   1 2.42   1 2.42
 
  LATTYP: Found a face centered cubic cell.
 ALAT       =     5.5779700000
  
  Lattice vectors:
  
 A1 = (   0.0000000000,   2.7889850000,   2.7889850000)
 A2 = (   2.7889850000,   0.0000000000,   2.7889850000)
 A3 = (   2.7889850000,   2.7889850000,   0.0000000000)


Analysis of symmetry for initial positions (statically):
=====================================================================
 Subroutine PRICEL returns:
 Original cell was already a primitive cell.
 

 Routine SETGRP: Setting up the symmetry group for a 
 face centered cubic supercell.


 Subroutine GETGRP returns: Found 48 space group operations
 (whereof 24 operations were pure point group operations)
 out of a pool of 48 trial point group operations.


The static configuration has the point symmetry T_d .
 The point group associated with its full space group is O_h .


Analysis of symmetry for dynamics (positions and initial velocities):
=====================================================================
 Subroutine PRICEL returns:
 Original cell was already a primitive cell.
 

 Routine SETGRP: Setting up the symmetry group for a 
 face centered cubic supercell.


 Subroutine GETGRP returns: Found 48 space group operations
 (whereof 24 operations were pure point group operations)
 out of a pool of 48 trial point group operations.


The dynamic configuration has the point symmetry T_d .
 The point group associated with its full space group is O_h .


 Subroutine INISYM returns: Found 48 space group operations
 (whereof 24 operations are pure point group operations),
 and found     1 'primitive' translations

 
 
 KPOINTS: Automatic kpoint scheme                 

Automatic generation of k-mesh.
Space group operators:
 irot       det(A)        alpha          n_x          n_y          n_z        tau_x        tau_y        tau_z
    1     1.000000     0.000001     1.000000     0.000000     0.000000     0.000000     0.000000     0.000000
    2     1.000000   120.000000    -0.577350    -0.577350    -0.577350     0.000000     0.000000     0.000000
    3     1.000000   120.000000     0.577350     0.577350     0.577350     0.000000     0.000000     0.000000
    4    -1.000000    90.000000     0.000000     0.000000    -1.000000     0.000000     0.000000     0.000000
    5    -1.000000   180.000000    -0.000000     0.707107     0.707107     0.000000     0.000000     0.000000
    6    -1.000000    90.000000     0.000000     1.000000     0.000000     0.000000     0.000000     0.000000
    7     1.000000   180.000000    -0.000000     0.000000    -1.000000     0.000000     0.000000     0.000000
    8     1.000000   120.000000    -0.577350     0.577350     0.577350     0.000000     0.000000     0.000000
    9     1.000000   120.000000    -0.577350     0.577350    -0.577350     0.000000     0.000000     0.000000
   10    -1.000000    90.000000     0.000000     0.000000     1.000000     0.000000     0.000000     0.000000
   11    -1.000000    90.000000    -1.000000    -0.000000     0.000000     0.000000     0.000000     0.000000
   12    -1.000000   180.000000     0.707107     0.000000     0.707107     0.000000     0.000000     0.000000
   13     1.000000   120.000000     0.577350    -0.577350     0.577350     0.000000     0.000000     0.000000
   14     1.000000   120.000000    -0.577350    -0.577350     0.577350     0.000000     0.000000     0.000000
   15     1.000000   180.000000     1.000000     0.000000     0.000000     0.000000     0.000000     0.000000
   16    -1.000000    90.000000     0.000000    -1.000000     0.000000     0.000000     0.000000     0.000000
   17    -1.000000   180.000000     0.707107     0.707107     0.000000     0.000000     0.000000     0.000000
   18    -1.000000    90.000000     1.000000     0.000000    -0.000000     0.000000     0.000000     0.000000
   19     1.000000   120.000000     0.577350    -0.577350    -0.577350     0.000000     0.000000     0.000000
   20     1.000000   180.000000     0.000000    -1.000000    -0.000000     0.000000     0.000000     0.000000
   21     1.000000   120.000000     0.577350     0.577350    -0.577350     0.000000     0.000000     0.000000
   22    -1.000000   180.000000     0.000000    -0.707107     0.707107     0.000000     0.000000     0.000000
   23    -1.000000   180.000000     0.707107    -0.707107    -0.000000     0.000000     0.000000     0.000000
   24    -1.000000   180.000000     0.707107     0.000000    -0.707107     0.000000     0.000000     0.000000
   25    -1.000000     0.000001     1.000000     0.000000     0.000000     0.250000     0.250000     0.250000
   26    -1.000000   120.000000    -0.577350    -0.577350    -0.577350     0.250000     0.250000     0.250000
   27    -1.000000   120.000000     0.577350     0.577350     0.577350     0.250000     0.250000     0.250000
   28     1.000000    90.000000     0.000000     0.000000    -1.000000     0.250000     0.250000     0.250000
   29     1.000000   180.000000    -0.000000     0.707107     0.707107     0.250000     0.250000     0.250000
   30     1.000000    90.000000     0.000000     1.000000     0.000000     0.250000     0.250000     0.250000
   31    -1.000000   180.000000    -0.000000     0.000000    -1.000000     0.250000     0.250000     0.250000
   32    -1.000000   120.000000    -0.577350     0.577350     0.577350     0.250000     0.250000     0.250000
   33    -1.000000   120.000000    -0.577350     0.577350    -0.577350     0.250000     0.250000     0.250000
   34     1.000000    90.000000     0.000000     0.000000     1.000000     0.250000     0.250000     0.250000
   35     1.000000    90.000000    -1.000000    -0.000000     0.000000     0.250000     0.250000     0.250000
   36     1.000000   180.000000     0.707107     0.000000     0.707107     0.250000     0.250000     0.250000
   37    -1.000000   120.000000     0.577350    -0.577350     0.577350     0.250000     0.250000     0.250000
   38    -1.000000   120.000000    -0.577350    -0.577350     0.577350     0.250000     0.250000     0.250000
   39    -1.000000   180.000000     1.000000     0.000000     0.000000     0.250000     0.250000     0.250000
   40     1.000000    90.000000     0.000000    -1.000000     0.000000     0.250000     0.250000     0.250000
   41     1.000000   180.000000     0.707107     0.707107     0.000000     0.250000     0.250000     0.250000
   42     1.000000    90.000000     1.000000     0.000000    -0.000000     0.250000     0.250000     0.250000
   43    -1.000000   120.000000     0.577350    -0.577350    -0.577350     0.250000     0.250000     0.250000
   44    -1.000000   180.000000     0.000000    -1.000000    -0.000000     0.250000     0.250000     0.250000
   45    -1.000000   120.000000     0.577350     0.577350    -0.577350     0.250000     0.250000     0.250000
   46     1.000000   180.000000     0.000000    -0.707107     0.707107     0.250000     0.250000     0.250000
   47     1.000000   180.000000     0.707107    -0.707107    -0.000000     0.250000     0.250000     0.250000
   48     1.000000   180.000000     0.707107     0.000000    -0.707107     0.250000     0.250000     0.250000
 
 Subroutine IBZKPT returns following result:
 ===========================================
 
 Found     60 irreducible k-points:
 
 Following reciprocal coordinates:
            Coordinates               Weight
  0.062500  0.062500  0.062500     96.000000
  0.187500  0.062500  0.062500    288.000000
  0.312500  0.062500  0.062500    288.000000
  0.437500  0.062500  0.062500    288.000000
 -0.437500  0.062500  0.062500    288.000000
 -0.312500  0.062500  0.062500    288.000000
 -0.187500  0.062500  0.062500    288.000000
 -0.062500  0.062500  0.062500    288.000000
  0.187500  0.187500  0.062500    288.000000
  0.312500  0.187500  0.062500    576.000000
  0.437500  0.187500  0.062500    576.000000
 -0.437500  0.187500  0.062500    576.000000
 -0.312500  0.187500  0.062500    576.000000
 -0.187500  0.187500  0.062500    576.000000
 -0.062500  0.187500  0.062500    576.000000
  0.312500  0.312500  0.062500    288.000000
  0.437500  0.312500  0.062500    576.000000
 -0.437500  0.312500  0.062500    576.000000
 -0.312500  0.312500  0.062500    576.000000
 -0.187500  0.312500  0.062500    576.000000
 -0.062500  0.312500  0.062500    576.000000
  0.437500  0.437500  0.062500    288.000000
 -0.437500  0.437500  0.062500    576.000000
 -0.312500  0.437500  0.062500    576.000000
 -0.187500  0.437500  0.062500    576.000000
 -0.062500  0.437500  0.062500    576.000000
 -0.437500 -0.437500  0.062500    288.000000
 -0.312500 -0.437500  0.062500    576.000000
 -0.187500 -0.437500  0.062500    576.000000
 -0.312500 -0.312500  0.062500    288.000000
 -0.187500 -0.312500  0.062500    576.000000
 -0.187500 -0.187500  0.062500    288.000000
  0.187500  0.187500  0.187500     96.000000
  0.312500  0.187500  0.187500    288.000000
  0.437500  0.187500  0.187500    288.000000
 -0.437500  0.187500  0.187500    288.000000
 -0.312500  0.187500  0.187500    288.000000
 -0.187500  0.187500  0.187500    288.000000
  0.312500  0.312500  0.187500    288.000000
  0.437500  0.312500  0.187500    576.000000
 -0.437500  0.312500  0.187500    576.000000
 -0.312500  0.312500  0.187500    576.000000
 -0.187500  0.312500  0.187500    576.000000
  0.437500  0.437500  0.187500    288.000000
 -0.437500  0.437500  0.187500    576.000000
 -0.312500  0.437500  0.187500    576.000000
 -0.187500  0.437500  0.187500    576.000000
 -0.437500 -0.437500  0.187500    288.000000
 -0.312500 -0.437500  0.187500    576.000000
 -0.312500 -0.312500  0.187500    288.000000
  0.312500  0.312500  0.312500     96.000000
  0.437500  0.312500  0.312500    288.000000
 -0.437500  0.312500  0.312500    288.000000
 -0.312500  0.312500  0.312500    288.000000
  0.437500  0.437500  0.312500    288.000000
 -0.437500  0.437500  0.312500    576.000000
 -0.312500  0.437500  0.312500    576.000000
 -0.437500 -0.437500  0.312500    288.000000
  0.437500  0.437500  0.437500     96.000000
 -0.437500  0.437500  0.437500    288.000000
 
 Following cartesian coordinates:
            Coordinates               Weight
  0.011205  0.011205  0.011205     96.000000
 -0.011205  0.033614  0.033614    288.000000
 -0.033614  0.056024  0.056024    288.000000
 -0.056024  0.078434  0.078434    288.000000
  0.100843 -0.078434 -0.078434    288.000000
  0.078434 -0.056024 -0.056024    288.000000
  0.056024 -0.033614 -0.033614    288.000000
  0.033614 -0.011205 -0.011205    288.000000
  0.011205  0.011205  0.056024    288.000000
 -0.011205  0.033614  0.078434    576.000000
 -0.033614  0.056024  0.100843    576.000000
  0.123253 -0.100843 -0.056024    576.000000
  0.100843 -0.078434 -0.033614    576.000000
  0.078434 -0.056024 -0.011205    576.000000
  0.056024 -0.033614  0.011205    576.000000
  0.011205  0.011205  0.100843    288.000000
 -0.011205  0.033614  0.123253    576.000000
  0.145662 -0.123253 -0.033614    576.000000
  0.123253 -0.100843 -0.011205    576.000000
  0.100843 -0.078434  0.011205    576.000000
  0.078434 -0.056024  0.033614    576.000000
  0.011205  0.011205  0.145662    288.000000
  0.168072 -0.145662 -0.011205    576.000000
  0.145662 -0.123253  0.011205    576.000000
  0.123253 -0.100843  0.033614    576.000000
  0.100843 -0.078434  0.056024    576.000000
  0.011205  0.011205 -0.168072    288.000000
 -0.011205  0.033614 -0.145662    576.000000
 -0.033614  0.056024 -0.123253    576.000000
  0.011205  0.011205 -0.123253    288.000000
 -0.011205  0.033614 -0.100843    576.000000
  0.011205  0.011205 -0.078434    288.000000
  0.033614  0.033614  0.033614     96.000000
  0.011205  0.056024  0.056024    288.000000
 -0.011205  0.078434  0.078434    288.000000
  0.145662 -0.078434 -0.078434    288.000000
  0.123253 -0.056024 -0.056024    288.000000
  0.100843 -0.033614 -0.033614    288.000000
  0.033614  0.033614  0.078434    288.000000
  0.011205  0.056024  0.100843    576.000000
  0.168072 -0.100843 -0.056024    576.000000
  0.145662 -0.078434 -0.033614    576.000000
  0.123253 -0.056024 -0.011205    576.000000
  0.033614  0.033614  0.123253    288.000000
  0.190481 -0.123253 -0.033614    576.000000
  0.168072 -0.100843 -0.011205    576.000000
  0.145662 -0.078434  0.011205    576.000000
  0.033614  0.033614 -0.190481    288.000000
  0.011205  0.056024 -0.168072    576.000000
  0.033614  0.033614 -0.145662    288.000000
  0.056024  0.056024  0.056024     96.000000
  0.033614  0.078434  0.078434    288.000000
  0.190481 -0.078434 -0.078434    288.000000
  0.168072 -0.056024 -0.056024    288.000000
  0.056024  0.056024  0.100843    288.000000
  0.212891 -0.100843 -0.056024    576.000000
  0.190481 -0.078434 -0.033614    576.000000
  0.056024  0.056024 -0.212891    288.000000
  0.078434  0.078434  0.078434     96.000000
  0.235301 -0.078434 -0.078434    288.000000
 


--------------------------------------------------------------------------------------------------------




 Dimension of arrays:
   k-points           NKPTS =     60   k-points in BZ     NKDIM =     60   number of bands    NBANDS=      8
   number of dos      NEDOS =    301   number of ions     NIONS =      2
   non local maximal  LDIM  =      4   non local SUM 2l+1 LMDIM =      8
   total plane-waves  NPLWV =   5832
   max r-space proj   IRMAX =      1   max aug-charges    IRDMAX=   4693
   dimension x,y,z NGX =    18 NGY =   18 NGZ =   18
   dimension x,y,z NGXF=    36 NGYF=   36 NGZF=   36
   support grid    NGXF=    36 NGYF=   36 NGZF=   36
   ions per type =               2
   NGX,Y,Z   is equivalent  to a cutoff of   7.59,  7.59,  7.59 a.u.
   NGXF,Y,Z  is equivalent  to a cutoff of  15.17, 15.17, 15.17 a.u.

 SYSTEM =  unknown system                          
 POSCAR =  Si2                                     

 Startparameter for this run:
   NWRITE =      2    write-flag & timer
   PREC   = normal    normal or accurate (medium, high low for compatibility)
   ISTART =      0    job   : 0-new  1-cont  2-samecut
   ICHARG =      2    charge: 1-file 2-atom 10-const
   ISPIN  =      1    spin polarized calculation?
   LNONCOLLINEAR =      F non collinear calculations
   LSORBIT =      F    spin-orbit coupling
   INIWAV =      1    electr: 0-lowe 1-rand  2-diag
   LASPH  =      F    aspherical Exc in radial PAW
   METAGGA=      F    non-selfconsistent MetaGGA calc.

 Electronic Relaxation 1
   ENCUT  =  350.0 eV  25.72 Ry    5.07 a.u.   6.02  6.02  6.02*2*pi/ulx,y,z
   ENINI  =  350.0     initial cutoff
   ENAUG  =  322.1 eV  augmentation charge cutoff
   NELM   =     60;   NELMIN=  2; NELMDL= -5     # of ELM steps 
   EDIFF  = 0.4E-03   stopping-criterion for ELM
   LREAL  =      F    real-space projection
   NLSPLINE    = F    spline interpolate recip. space projectors
   LCOMPAT=      F    compatible to vasp.4.4
   GGA_COMPAT  = T    GGA compatible to vasp.4.4-vasp.4.6
   LMAXPAW     = -100 max onsite density
   LMAXMIX     =    2 max onsite mixed and CHGCAR
   VOSKOWN=      0    Vosko Wilk Nusair interpolation
   ROPT   =    0.00000
 Ionic relaxation
   EDIFFG = -.1E-01   stopping-criterion for IOM
   NSW    =     15    number of steps for IOM
   NBLOCK =      1;   KBLOCK =     15    inner block; outer block 
   IBRION =      2    ionic relax: 0-MD 1-quasi-New 2-CG
   NFREE  =      1    steps in history (QN), initial steepest desc. (CG)
   ISIF   =      2    stress and relaxation
   IWAVPR =     11    prediction:  0-non 1-charg 2-wave 3-comb
   ISYM   =      2    0-nonsym 1-usesym 2-fastsym
   LCORR  =      T    Harris-Foulkes like correction to forces

   POTIM  = 0.5000    time-step for ionic-motion
   TEIN   =    0.0    initial temperature
   TEBEG  =    0.0;   TEEND  =   0.0 temperature during run
   SMASS  =  -3.00    Nose mass-parameter (am)
   estimated Nose-frequenzy (Omega)   =  0.10E-29 period in steps =****** mass=  -0.356E-27a.u.
   SCALEE = 1.0000    scale energy and forces
   NPACO  =    256;   APACO  = 16.0  distance and # of slots for P.C.
   PSTRESS=    0.0 pullay stress

  Mass of Ions in am
   POMASS =  28.09
  Ionic Valenz
   ZVAL   =   4.00
  Atomic Wigner-Seitz radii
   RWIGS  =  -1.00
  virtual crystal weights 
   VCA    =   1.00
   NELECT =       8.0000    total number of electrons
   NUPDOWN=      -1.0000    fix difference up-down

 DOS related values:
   EMIN   =  10.00;   EMAX   =-10.00  energy-range for DOS
   EFERMI =   0.00
   ISMEAR =     0;   SIGMA  =   0.20  broadening in eV -4-tet -1-fermi 0-gaus

 Electronic relaxation 2 (details)
   IALGO  =     38    algorithm
   LDIAG  =      T    sub-space diagonalisation (order eigenvalues)
   LSUBROT=      F    optimize rotation matrix (better conditioning)
   TURBO    =      0    0=normal 1=particle mesh
   IRESTART =      0    0=no restart 2=restart with 2 vectors
   NREBOOT  =      0    no. of reboots
   NMIN     =      0    reboot dimension
   EREF     =   0.00    reference energy to select bands
   IMIX   =      4    mixing-type and parameters
     AMIX     =   0.40;   BMIX     =  1.00
     AMIX_MAG =   1.60;   BMIX_MAG =  1.00
     AMIN     =   0.10
     WC   =   100.;   INIMIX=   1;  MIXPRE=   1;  MAXMIX= -45

 Intra band minimization:
   WEIMIN = 0.0010     energy-eigenvalue tresh-hold
   EBREAK =  0.13E-04  absolut break condition
   DEPER  =   0.30     relativ break condition  

   TIME   =   0.40     timestep for ELM

  volume/ion in A,a.u.               =      21.69       146.40
  Fermi-wavevector in a.u.,A,eV,Ry     =   0.931784  1.760817 11.812873  0.868222
  Thomas-Fermi vector in A             =   2.058314
 
 Write flags
   LWAVE        =      T    write WAVECAR
   LDOWNSAMPLE  =      F    k-point downsampling of WAVECAR
   LCHARG       =      T    write CHGCAR
   LVTOT        =      F    write LOCPOT, total local potential
   LVHAR        =      F    write LOCPOT, Hartree potential only
   LELF         =      F    write electronic localiz. function (ELF)
   LORBIT       =      0    0 simple, 1 ext, 2 COOP (PROOUT), +10 PAW based schemes


 Dipole corrections
   LMONO  =      F    monopole corrections only (constant potential shift)
   LDIPOL =      F    correct potential (dipole corrections)
   IDIPOL =      0    1-x, 2-y, 3-z, 4-all directions 
   EPSILON=  1.0000000 bulk dielectric constant

 Exchange correlation treatment:
   GGA     =    --    GGA type
   LEXCH   =     8    internal setting for exchange type
   VOSKOWN=      0    Vosko Wilk Nusair interpolation
   LHFCALC =     F    Hartree Fock is set to
   LHFONE  =     F    Hartree Fock one center treatment
   AEXX    =    0.0000 exact exchange contribution

 Linear response parameters
   LEPSILON=     F    determine dielectric tensor
   LRPA    =     F    only Hartree local field effects (RPA)
   LNABLA  =     F    use nabla operator in PAW spheres
   LVEL    =     F    velocity operator in full k-point grid
   LINTERFAST=   F  fast interpolation
   KINTER  =     0    interpolate to denser k-point grid
   CSHIFT  =0.1000    complex shift for real part using Kramers Kronig
   OMEGAMAX=  -1.0    maximum frequency
   DEG_THRESHOLD= 0.2000000E-02 threshold for treating states as degnerate
   RTIME   =   -0.100 relaxation time in fs
  (WPLASMAI=    0.000 imaginary part of plasma frequency in eV, 0.658/RTIME)
   DFIELD  = 0.0000000 0.0000000 0.0000000 field for delta impulse in time
 
 Orbital magnetization related:
   ORBITALMAG=     F  switch on orbital magnetization
   LCHIMAG   =     F  perturbation theory with respect to B field
   DQ        =  0.001000  dq finite difference perturbation B field
   LLRAUG    =     F  two centre corrections for induced B field



--------------------------------------------------------------------------------------------------------


 conjugate gradient relaxation of ions
 charge density and potential will be updated during run
 non-spin polarized calculation
 Variant of blocked Davidson
 Davidson routine will perform the subspace rotation
 perform sub-space diagonalisation
    after iterative eigenvector-optimisation
 modified Broyden-mixing scheme, WC =      100.0
 initial mixing is a Kerker type mixing with AMIX =  0.4000 and BMIX =      1.0000
 Hartree-type preconditioning will be used
 using additional bands            4
 reciprocal scheme for non local part
 use partial core corrections
 calculate Harris-corrections to forces 
   (improved forces if not selfconsistent)
 use gradient corrections 
 use of overlap-Matrix (Vanderbilt PP)
 Gauss-broadening in eV      SIGMA  =   0.20


--------------------------------------------------------------------------------------------------------


  energy-cutoff  :      350.00
  volume of cell :       43.39
      direct lattice vectors                 reciprocal lattice vectors
     0.000000000  2.788985000  2.788985000    -0.179276690  0.179276690  0.179276690
     2.788985000  0.000000000  2.788985000     0.179276690 -0.179276690  0.179276690
     2.788985000  2.788985000  0.000000000     0.179276690  0.179276690 -0.179276690

  length of vectors
     3.944220412  3.944220412  3.944220412     0.310516336  0.310516336  0.310516336


 
 k-points in units of 2pi/SCALE and weight: Automatic kpoint scheme                 
   0.01120479  0.01120479  0.01120479       0.004
  -0.01120479  0.03361438  0.03361438       0.012
  -0.03361438  0.05602397  0.05602397       0.012
  -0.05602397  0.07843355  0.07843355       0.012
   0.10084314 -0.07843355 -0.07843355       0.012
   0.07843355 -0.05602397 -0.05602397       0.012
   0.05602397 -0.03361438 -0.03361438       0.012
   0.03361438 -0.01120479 -0.01120479       0.012
   0.01120479  0.01120479  0.05602397       0.012
  -0.01120479  0.03361438  0.07843355       0.023
  -0.03361438  0.05602397  0.10084314       0.023
   0.12325272 -0.10084314 -0.05602397       0.023
   0.10084314 -0.07843355 -0.03361438       0.023
   0.07843355 -0.05602397 -0.01120479       0.023
   0.05602397 -0.03361438  0.01120479       0.023
   0.01120479  0.01120479  0.10084314       0.012
  -0.01120479  0.03361438  0.12325272       0.023
   0.14566231 -0.12325272 -0.03361438       0.023
   0.12325272 -0.10084314 -0.01120479       0.023
   0.10084314 -0.07843355  0.01120479       0.023
   0.07843355 -0.05602397  0.03361438       0.023
   0.01120479  0.01120479  0.14566231       0.012
   0.16807190 -0.14566231 -0.01120479       0.023
   0.14566231 -0.12325272  0.01120479       0.023
   0.12325272 -0.10084314  0.03361438       0.023
   0.10084314 -0.07843355  0.05602397       0.023
   0.01120479  0.01120479 -0.16807190       0.012
  -0.01120479  0.03361438 -0.14566231       0.023
  -0.03361438  0.05602397 -0.12325272       0.023
   0.01120479  0.01120479 -0.12325272       0.012
  -0.01120479  0.03361438 -0.10084314       0.023
   0.01120479  0.01120479 -0.07843355       0.012
   0.03361438  0.03361438  0.03361438       0.004
   0.01120479  0.05602397  0.05602397       0.012
  -0.01120479  0.07843355  0.07843355       0.012
   0.14566231 -0.07843355 -0.07843355       0.012
   0.12325272 -0.05602397 -0.05602397       0.012
   0.10084314 -0.03361438 -0.03361438       0.012
   0.03361438  0.03361438  0.07843355       0.012
   0.01120479  0.05602397  0.10084314       0.023
   0.16807190 -0.10084314 -0.05602397       0.023
   0.14566231 -0.07843355 -0.03361438       0.023
   0.12325272 -0.05602397 -0.01120479       0.023
   0.03361438  0.03361438  0.12325272       0.012
   0.19048148 -0.12325272 -0.03361438       0.023
   0.16807190 -0.10084314 -0.01120479       0.023
   0.14566231 -0.07843355  0.01120479       0.023
   0.03361438  0.03361438 -0.19048148       0.012
   0.01120479  0.05602397 -0.16807190       0.023
   0.03361438  0.03361438 -0.14566231       0.012
   0.05602397  0.05602397  0.05602397       0.004
   0.03361438  0.07843355  0.07843355       0.012
   0.19048148 -0.07843355 -0.07843355       0.012
   0.16807190 -0.05602397 -0.05602397       0.012
   0.05602397  0.05602397  0.10084314       0.012
   0.21289107 -0.10084314 -0.05602397       0.023
   0.19048148 -0.07843355 -0.03361438       0.023
   0.05602397  0.05602397 -0.21289107       0.012
   0.07843355  0.07843355  0.07843355       0.004
   0.23530066 -0.07843355 -0.07843355       0.012
 
 k-points in reciprocal lattice and weights: Automatic kpoint scheme                 
   0.06250000  0.06250000  0.06250000       0.004
   0.18750000  0.06250000  0.06250000       0.012
   0.31250000  0.06250000  0.06250000       0.012
   0.43750000  0.06250000  0.06250000       0.012
  -0.43750000  0.06250000  0.06250000       0.012
  -0.31250000  0.06250000  0.06250000       0.012
  -0.18750000  0.06250000  0.06250000       0.012
  -0.06250000  0.06250000  0.06250000       0.012
   0.18750000  0.18750000  0.06250000       0.012
   0.31250000  0.18750000  0.06250000       0.023
   0.43750000  0.18750000  0.06250000       0.023
  -0.43750000  0.18750000  0.06250000       0.023
  -0.31250000  0.18750000  0.06250000       0.023
  -0.18750000  0.18750000  0.06250000       0.023
  -0.06250000  0.18750000  0.06250000       0.023
   0.31250000  0.31250000  0.06250000       0.012
   0.43750000  0.31250000  0.06250000       0.023
  -0.43750000  0.31250000  0.06250000       0.023
  -0.31250000  0.31250000  0.06250000       0.023
  -0.18750000  0.31250000  0.06250000       0.023
  -0.06250000  0.31250000  0.06250000       0.023
   0.43750000  0.43750000  0.06250000       0.012
  -0.43750000  0.43750000  0.06250000       0.023
  -0.31250000  0.43750000  0.06250000       0.023
  -0.18750000  0.43750000  0.06250000       0.023
  -0.06250000  0.43750000  0.06250000       0.023
  -0.43750000 -0.43750000  0.06250000       0.012
  -0.31250000 -0.43750000  0.06250000       0.023
  -0.18750000 -0.43750000  0.06250000       0.023
  -0.31250000 -0.31250000  0.06250000       0.012
  -0.18750000 -0.31250000  0.06250000       0.023
  -0.18750000 -0.18750000  0.06250000       0.012
   0.18750000  0.18750000  0.18750000       0.004
   0.31250000  0.18750000  0.18750000       0.012
   0.43750000  0.18750000  0.18750000       0.012
  -0.43750000  0.18750000  0.18750000       0.012
  -0.31250000  0.18750000  0.18750000       0.012
  -0.18750000  0.18750000  0.18750000       0.012
   0.31250000  0.31250000  0.18750000       0.012
   0.43750000  0.31250000  0.18750000       0.023
  -0.43750000  0.31250000  0.18750000       0.023
  -0.31250000  0.31250000  0.18750000       0.023
  -0.18750000  0.31250000  0.18750000       0.023
   0.43750000  0.43750000  0.18750000       0.012
  -0.43750000  0.43750000  0.18750000       0.023
  -0.31250000  0.43750000  0.18750000       0.023
  -0.18750000  0.43750000  0.18750000       0.023
  -0.43750000 -0.43750000  0.18750000       0.012
  -0.31250000 -0.43750000  0.18750000       0.023
  -0.31250000 -0.31250000  0.18750000       0.012
   0.31250000  0.31250000  0.31250000       0.004
   0.43750000  0.31250000  0.31250000       0.012
  -0.43750000  0.31250000  0.31250000       0.012
  -0.31250000  0.31250000  0.31250000       0.012
   0.43750000  0.43750000  0.31250000       0.012
  -0.43750000  0.43750000  0.31250000       0.023
  -0.31250000  0.43750000  0.31250000       0.023
  -0.43750000 -0.43750000  0.31250000       0.012
   0.43750000  0.43750000  0.43750000       0.004
  -0.43750000  0.43750000  0.43750000       0.012
 
 position of ions in fractional coordinates (direct lattice) 
   0.00000000  0.00000000  0.00000000
   0.25000000  0.25000000  0.25000000
 
 position of ions in cartesian coordinates  (Angst):
   0.00000000  0.00000000  0.00000000
   1.39449250  1.39449250  1.39449250
 


--------------------------------------------------------------------------------------------------------


 k-point  1 :   0.0625 0.0625 0.0625  plane waves:     630
 k-point  2 :   0.1875 0.0625 0.0625  plane waves:     644
 k-point  3 :   0.3125 0.0625 0.0625  plane waves:     634
 k-point  4 :   0.4375 0.0625 0.0625  plane waves:     638
 k-point  5 :  -0.4375 0.0625 0.0625  plane waves:     637
 k-point  6 :  -0.3125 0.0625 0.0625  plane waves:     635
 k-point  7 :  -0.1875 0.0625 0.0625  plane waves:     638
 k-point  8 :  -0.0625 0.0625 0.0625  plane waves:     637
 k-point  9 :   0.1875 0.1875 0.0625  plane waves:     644
 k-point 10 :   0.3125 0.1875 0.0625  plane waves:     639
 k-point 11 :   0.4375 0.1875 0.0625  plane waves:     638
 k-point 12 :  -0.4375 0.1875 0.0625  plane waves:     647
 k-point 13 :  -0.3125 0.1875 0.0625  plane waves:     642
 k-point 14 :  -0.1875 0.1875 0.0625  plane waves:     638
 k-point 15 :  -0.0625 0.1875 0.0625  plane waves:     639
 k-point 16 :   0.3125 0.3125 0.0625  plane waves:     641
 k-point 17 :   0.4375 0.3125 0.0625  plane waves:     652
 k-point 18 :  -0.4375 0.3125 0.0625  plane waves:     649
 k-point 19 :  -0.3125 0.3125 0.0625  plane waves:     652
 k-point 20 :  -0.1875 0.3125 0.0625  plane waves:     648
 k-point 21 :  -0.0625 0.3125 0.0625  plane waves:     636
 k-point 22 :   0.4375 0.4375 0.0625  plane waves:     646
 k-point 23 :  -0.4375 0.4375 0.0625  plane waves:     651
 k-point 24 :  -0.3125 0.4375 0.0625  plane waves:     650
 k-point 25 :  -0.1875 0.4375 0.0625  plane waves:     651
 k-point 26 :  -0.0625 0.4375 0.0625  plane waves:     643
 k-point 27 :  -0.4375-0.4375 0.0625  plane waves:     644
 k-point 28 :  -0.3125-0.4375 0.0625  plane waves:     650
 k-point 29 :  -0.1875-0.4375 0.0625  plane waves:     649
 k-point 30 :  -0.3125-0.3125 0.0625  plane waves:     640
 k-point 31 :  -0.1875-0.3125 0.0625  plane waves:     640
 k-point 32 :  -0.1875-0.1875 0.0625  plane waves:     642
 k-point 33 :   0.1875 0.1875 0.1875  plane waves:     646
 k-point 34 :   0.3125 0.1875 0.1875  plane waves:     638
 k-point 35 :   0.4375 0.1875 0.1875  plane waves:     639
 k-point 36 :  -0.4375 0.1875 0.1875  plane waves:     647
 k-point 37 :  -0.3125 0.1875 0.1875  plane waves:     642
 k-point 38 :  -0.1875 0.1875 0.1875  plane waves:     640
 k-point 39 :   0.3125 0.3125 0.1875  plane waves:     636
 k-point 40 :   0.4375 0.3125 0.1875  plane waves:     639
 k-point 41 :  -0.4375 0.3125 0.1875  plane waves:     649
 k-point 42 :  -0.3125 0.3125 0.1875  plane waves:     652
 k-point 43 :  -0.1875 0.3125 0.1875  plane waves:     651
 k-point 44 :   0.4375 0.4375 0.1875  plane waves:     645
 k-point 45 :  -0.4375 0.4375 0.1875  plane waves:     653
 k-point 46 :  -0.3125 0.4375 0.1875  plane waves:     652
 k-point 47 :  -0.1875 0.4375 0.1875  plane waves:     652
 k-point 48 :  -0.4375-0.4375 0.1875  plane waves:     648
 k-point 49 :  -0.3125-0.4375 0.1875  plane waves:     651
 k-point 50 :  -0.3125-0.3125 0.1875  plane waves:     648
 k-point 51 :   0.3125 0.3125 0.3125  plane waves:     640
 k-point 52 :   0.4375 0.3125 0.3125  plane waves:     637
 k-point 53 :  -0.4375 0.3125 0.3125  plane waves:     650
 k-point 54 :  -0.3125 0.3125 0.3125  plane waves:     653
 k-point 55 :   0.4375 0.4375 0.3125  plane waves:     641
 k-point 56 :  -0.4375 0.4375 0.3125  plane waves:     651
 k-point 57 :  -0.3125 0.4375 0.3125  plane waves:     651
 k-point 58 :  -0.4375-0.4375 0.3125  plane waves:     645
 k-point 59 :   0.4375 0.4375 0.4375  plane waves:     634
 k-point 60 :  -0.4375 0.4375 0.4375  plane waves:     642

 maximum and minimum number of plane-waves per node :       653      630

 maximum number of plane-waves:       653
 maximum index in each direction: 
   IXMAX=    6   IYMAX=    6   IZMAX=    5
   IXMIN=   -6   IYMIN=   -6   IZMIN=   -6


 serial   3D FFT for wavefunctions
 parallel 3D FFT for charge:
    minimum data exchange during FFTs selected (reduces bandwidth)


 total amount of memory used by VASP MPI-rank0    33999. kBytes
=======================================================================

   base      :      30000. kBytes
   nonl-proj :       2540. kBytes
   fftplans  :        247. kBytes
   grid      :        561. kBytes
   one-center:          6. kBytes
   wavefun   :        645. kBytes
 
     INWAV:  cpu time    0.0000: real time    0.0004
 Broyden mixing: mesh for mixing (old mesh)
   NGX = 13   NGY = 13   NGZ = 13
  (NGX  = 36   NGY  = 36   NGZ  = 36)
  gives a total of   2197 points

 initial charge density was supplied:
 charge density of overlapping atoms calculated
 number of electron       8.0000000 magnetization 
 keeping initial charge density in first step


--------------------------------------------------------------------------------------------------------


 Maximum index for augmentation-charges          700 (set IRDMAX)


--------------------------------------------------------------------------------------------------------


 First call to EWALD:  gamma=   0.504
 Maximum number of real-space cells 3x 3x 3
 Maximum number of reciprocal cells 3x 3x 3

    FEWALD:  cpu time    0.0080: real time    0.0069


--------------------------------------- Iteration      1(   1)  ---------------------------------------


    POTLOK:  cpu time    0.0320: real time    0.0378
    SETDIJ:  cpu time    0.0080: real time    0.0079
     EDDAV:  cpu time    0.6520: real time    0.6553
       DOS:  cpu time    0.0040: real time    0.0031
    --------------------------------------------
      LOOP:  cpu time    0.6960: real time    0.7048

 eigenvalue-minimisations  :   960
 total energy-change (2. order) : 0.2871263E+01  (-0.2614661E+03)
 number of electron       8.0000000 magnetization 
 augmentation part        8.0000000 magnetization 

 Free energy of the ion-electron system (eV)
  ---------------------------------------------------
  alpha Z        PSCENC =         3.10345383
  Ewald energy   TEWEN  =      -222.50028960
  -Hartree energ DENC   =       -12.24488298
  -exchange      EXHF   =         0.00000000
  -V(xc)+E(xc)   XCENC  =       -18.91120054
  PAW double counting   =        65.95520812      -30.76852678
  entropy T*S    EENTRO =        -0.00570622
  eigenvalues    EBANDS =        12.11195270
  atomic energy  EATOM  =       206.13125414
  Solvation  Ediel_sol  =         0.00000000
  ---------------------------------------------------
  free energy    TOTEN  =         2.87126268 eV

  energy without entropy =        2.87696890  energy(sigma->0) =        2.87411579


--------------------------------------------------------------------------------------------------------




--------------------------------------- Iteration      1(   2)  ---------------------------------------


     EDDAV:  cpu time    0.9840: real time    0.9957
       DOS:  cpu time    0.0040: real time    0.0028
    --------------------------------------------
      LOOP:  cpu time    0.9880: real time    0.9984

 eigenvalue-minimisations  :  1480
 total energy-change (2. order) :-0.1364175E+02  (-0.1314723E+02)
 number of electron       8.0000000 magnetization 
 augmentation part        8.0000000 magnetization 

 Free energy of the ion-electron system (eV)
  ---------------------------------------------------
  alpha Z        PSCENC =         3.10345383
  Ewald energy   TEWEN  =      -222.50028960
  -Hartree energ DENC   =       -12.24488298
  -exchange      EXHF   =         0.00000000
  -V(xc)+E(xc)   XCENC  =       -18.91120054
  PAW double counting   =        65.95520812      -30.76852678
  entropy T*S    EENTRO =        -0.00000047
  eigenvalues    EBANDS =        -1.53550680
  atomic energy  EATOM  =       206.13125414
  Solvation  Ediel_sol  =         0.00000000
  ---------------------------------------------------
  free energy    TOTEN  =       -10.77049107 eV

  energy without entropy =      -10.77049060  energy(sigma->0) =      -10.77049084


--------------------------------------------------------------------------------------------------------




--------------------------------------- Iteration      1(   3)  ---------------------------------------


     EDDAV:  cpu time    0.8160: real time    0.8196
       DOS:  cpu time    0.0000: real time    0.0030
    --------------------------------------------
      LOOP:  cpu time    0.8200: real time    0.8225

 eigenvalue-minimisations  :  1208
 total energy-change (2. order) :-0.1756242E+00  (-0.1756242E+00)
 number of electron       8.0000000 magnetization 
 augmentation part        8.0000000 magnetization 

 Free energy of the ion-electron system (eV)
  ---------------------------------------------------
  alpha Z        PSCENC =         3.10345383
  Ewald energy   TEWEN  =      -222.50028960
  -Hartree energ DENC   =       -12.24488298
  -exchange      EXHF   =         0.00000000
  -V(xc)+E(xc)   XCENC  =       -18.91120054
  PAW double counting   =        65.95520812      -30.76852678
  entropy T*S    EENTRO =        -0.00000044
  eigenvalues    EBANDS =        -1.71113102
  atomic energy  EATOM  =       206.13125414
  Solvation  Ediel_sol  =         0.00000000
  ---------------------------------------------------
  free energy    TOTEN  =       -10.94611526 eV

  energy without entropy =      -10.94611483  energy(sigma->0) =      -10.94611504


--------------------------------------------------------------------------------------------------------




--------------------------------------- Iteration      1(   4)  ---------------------------------------


     EDDAV:  cpu time    1.0720: real time    1.0727
       DOS:  cpu time    0.0000: real time    0.0029
    --------------------------------------------
      LOOP:  cpu time    1.0680: real time    1.0756

 eigenvalue-minimisations  :  1584
 total energy-change (2. order) :-0.7290259E-03  (-0.7290267E-03)
 number of electron       8.0000000 magnetization 
 augmentation part        8.0000000 magnetization 

 Free energy of the ion-electron system (eV)
  ---------------------------------------------------
  alpha Z        PSCENC =         3.10345383
  Ewald energy   TEWEN  =      -222.50028960
  -Hartree energ DENC   =       -12.24488298
  -exchange      EXHF   =         0.00000000
  -V(xc)+E(xc)   XCENC  =       -18.91120054
  PAW double counting   =        65.95520812      -30.76852678
  entropy T*S    EENTRO =        -0.00000044
  eigenvalues    EBANDS =        -1.71186004
  atomic energy  EATOM  =       206.13125414
  Solvation  Ediel_sol  =         0.00000000
  ---------------------------------------------------
  free energy    TOTEN  =       -10.94684429 eV

  energy without entropy =      -10.94684385  energy(sigma->0) =      -10.94684407


--------------------------------------------------------------------------------------------------------




--------------------------------------- Iteration      1(   5)  ---------------------------------------


     EDDAV:  cpu time    0.8240: real time    0.8256
       DOS:  cpu time    0.0000: real time    0.0029
    CHARGE:  cpu time    0.0480: real time    0.0492
    MIXING:  cpu time    0.0040: real time    0.0020
    --------------------------------------------
      LOOP:  cpu time    0.8760: real time    0.8798

 eigenvalue-minimisations  :  1216
 total energy-change (2. order) :-0.4494719E-06  (-0.4487981E-06)
 number of electron       7.9999999 magnetization 
 augmentation part       -0.4673131 magnetization 

 Broyden mixing:
  rms(total) = 0.28126E+00    rms(broyden)= 0.28126E+00
  rms(prec ) = 0.79777E+00
  weight for this iteration     100.00

 Free energy of the ion-electron system (eV)
  ---------------------------------------------------
  alpha Z        PSCENC =         3.10345383
  Ewald energy   TEWEN  =      -222.50028960
  -Hartree energ DENC   =       -12.24488298
  -exchange      EXHF   =         0.00000000
  -V(xc)+E(xc)   XCENC  =       -18.91120054
  PAW double counting   =        65.95520812      -30.76852678
  entropy T*S    EENTRO =        -0.00000044
  eigenvalues    EBANDS =        -1.71186049
  atomic energy  EATOM  =       206.13125414
  Solvation  Ediel_sol  =         0.00000000
  ---------------------------------------------------
  free energy    TOTEN  =       -10.94684474 eV

  energy without entropy =      -10.94684430  energy(sigma->0) =      -10.94684452


--------------------------------------------------------------------------------------------------------




--------------------------------------- Iteration      1(   6)  ---------------------------------------


    POTLOK:  cpu time    0.0240: real time    0.0284
    SETDIJ:  cpu time    0.0080: real time    0.0075
     EDDAV:  cpu time    0.8160: real time    0.8180
       DOS:  cpu time    0.0040: real time    0.0031
    CHARGE:  cpu time    0.0480: real time    0.0483
    MIXING:  cpu time    0.0000: real time    0.0018
    --------------------------------------------
      LOOP:  cpu time    0.9000: real time    0.9072

 eigenvalue-minimisations  :  1224
 total energy-change (2. order) : 0.9311402E-01  (-0.5790627E-02)
 number of electron       7.9999999 magnetization 
 augmentation part       -0.4625742 magnetization 

 Broyden mixing:
  rms(total) = 0.16863E+00    rms(broyden)= 0.16863E+00
  rms(prec ) = 0.47643E+00
  weight for this iteration     100.00

 eigenvalues of (default mixing * dielectric matrix)
  average eigenvalue GAMMA=   2.4776
  2.4776

 Free energy of the ion-electron system (eV)
  ---------------------------------------------------
  alpha Z        PSCENC =         3.10345383
  Ewald energy   TEWEN  =      -222.50028960
  -Hartree energ DENC   =       -13.60721881
  -exchange      EXHF   =         0.00000000
  -V(xc)+E(xc)   XCENC  =       -18.69802520
  PAW double counting   =        68.93517137      -33.82976283
  entropy T*S    EENTRO =        -0.00000228
  eigenvalues    EBANDS =        -0.38831133
  atomic energy  EATOM  =       206.13125414
  Solvation  Ediel_sol  =         0.00000000
  ---------------------------------------------------
  free energy    TOTEN  =       -10.85373071 eV

  energy without entropy =      -10.85372843  energy(sigma->0) =      -10.85372957


--------------------------------------------------------------------------------------------------------




--------------------------------------- Iteration      1(   7)  ---------------------------------------


    POTLOK:  cpu time    0.0240: real time    0.0296
    SETDIJ:  cpu time    0.0080: real time    0.0074
     EDDAV:  cpu time    0.7880: real time    0.7852
       DOS:  cpu time    0.0000: real time    0.0030
    CHARGE:  cpu time    0.0480: real time    0.0484
    MIXING:  cpu time    0.0040: real time    0.0017
    --------------------------------------------
      LOOP:  cpu time    0.8720: real time    0.8754

 eigenvalue-minimisations  :  1184
 total energy-change (2. order) : 0.4535006E-01  (-0.1156042E-01)
 number of electron       7.9999999 magnetization 
 augmentation part       -0.4568775 magnetization 

 Broyden mixing:
  rms(total) = 0.13664E-01    rms(broyden)= 0.13664E-01
  rms(prec ) = 0.35208E-01
  weight for this iteration     100.00

 eigenvalues of (default mixing * dielectric matrix)
  average eigenvalue GAMMA=   2.4793
  2.4793  2.4793

 Free energy of the ion-electron system (eV)
  ---------------------------------------------------
  alpha Z        PSCENC =         3.10345383
  Ewald energy   TEWEN  =      -222.50028960
  -Hartree energ DENC   =       -15.87441598
  -exchange      EXHF   =         0.00000000
  -V(xc)+E(xc)   XCENC  =       -18.33535182
  PAW double counting   =        72.81079284      -37.80816227
  entropy T*S    EENTRO =        -0.00001600
  eigenvalues    EBANDS =         1.66435421
  atomic energy  EATOM  =       206.13125414
  Solvation  Ediel_sol  =         0.00000000
  ---------------------------------------------------
  free energy    TOTEN  =       -10.80838065 eV

  energy without entropy =      -10.80836465  energy(sigma->0) =      -10.80837265


--------------------------------------------------------------------------------------------------------




--------------------------------------- Iteration      1(   8)  ---------------------------------------


    POTLOK:  cpu time    0.0240: real time    0.0283
    SETDIJ:  cpu time    0.0080: real time    0.0075
     EDDAV:  cpu time    0.7760: real time    0.7754
       DOS:  cpu time    0.0000: real time    0.0030
    CHARGE:  cpu time    0.0480: real time    0.0491
    MIXING:  cpu time    0.0040: real time    0.0018
    --------------------------------------------
      LOOP:  cpu time    0.8600: real time    0.8651

 eigenvalue-minimisations  :  1160
 total energy-change (2. order) :-0.1341495E-02  (-0.3594087E-03)
 number of electron       7.9999999 magnetization 
 augmentation part       -0.4577749 magnetization 

 Broyden mixing:
  rms(total) = 0.25277E-02    rms(broyden)= 0.25277E-02
  rms(prec ) = 0.82896E-02
  weight for this iteration     100.00

 eigenvalues of (default mixing * dielectric matrix)
  average eigenvalue GAMMA=   2.1310
  1.2990  2.8190  2.2750

 Free energy of the ion-electron system (eV)
  ---------------------------------------------------
  alpha Z        PSCENC =         3.10345383
  Ewald energy   TEWEN  =      -222.50028960
  -Hartree energ DENC   =       -15.83923875
  -exchange      EXHF   =         0.00000000
  -V(xc)+E(xc)   XCENC  =       -18.33160769
  PAW double counting   =        71.96874817      -36.94028166
  entropy T*S    EENTRO =        -0.00001236
  eigenvalues    EBANDS =         1.59825177
  atomic energy  EATOM  =       206.13125414
  Solvation  Ediel_sol  =         0.00000000
  ---------------------------------------------------
  free energy    TOTEN  =       -10.80972215 eV

  energy without entropy =      -10.80970979  energy(sigma->0) =      -10.80971597


--------------------------------------------------------------------------------------------------------




--------------------------------------- Iteration      1(   9)  ---------------------------------------


    POTLOK:  cpu time    0.0240: real time    0.0294
    SETDIJ:  cpu time    0.0080: real time    0.0076
     EDDAV:  cpu time    0.5440: real time    0.5467
       DOS:  cpu time    0.0040: real time    0.0030
    --------------------------------------------
      LOOP:  cpu time    0.5800: real time    0.5866

 eigenvalue-minimisations  :   752
 total energy-change (2. order) :-0.1145073E-03  (-0.1133405E-04)
 number of electron       7.9999999 magnetization 
 augmentation part       -0.4577749 magnetization 

 Free energy of the ion-electron system (eV)
  ---------------------------------------------------
  alpha Z        PSCENC =         3.10345383
  Ewald energy   TEWEN  =      -222.50028960
  -Hartree energ DENC   =       -15.87838943
  -exchange      EXHF   =         0.00000000
  -V(xc)+E(xc)   XCENC  =       -18.32532384
  PAW double counting   =        71.93317036      -36.90403404
  entropy T*S    EENTRO =        -0.00001215
  eigenvalues    EBANDS =         1.63033407
  atomic energy  EATOM  =       206.13125414
  Solvation  Ediel_sol  =         0.00000000
  ---------------------------------------------------
  free energy    TOTEN  =       -10.80983666 eV

  energy without entropy =      -10.80982450  energy(sigma->0) =      -10.80983058


--------------------------------------------------------------------------------------------------------




 average (electrostatic) potential at core
  the test charge radii are     0.9892
  (the norm of the test charge is              1.0000)
       1 -84.1321       2 -84.1321
 
 
 
 E-fermi :   5.4159     XC(G=0):  -9.1009     alpha+bet :-11.0559


 k-point     1 :       0.0625    0.0625    0.0625
  band No.  band energies     occupation 
      1      -6.3355      2.00000
      2       4.4990      2.00000
      3       4.9648      1.99858
      4       4.9648      1.99858
      5       7.4752      0.00000
      6       7.6866      0.00000
      7       7.6866      0.00000
      8       8.0741      0.00000

 k-point     2 :       0.1875    0.0625    0.0625
  band No.  band energies     occupation 
      1      -6.0828      2.00000
      2       3.0186      2.00000
      3       4.2123      2.00000
      4       4.8486      1.99994
      5       7.4838      0.00000
      6       7.9212      0.00000
      7       8.1626      0.00000
      8       9.6188      0.00000

 k-point     3 :       0.3125    0.0625    0.0625
  band No.  band energies     occupation 
      1      -5.4746      2.00000
      2       0.9043      2.00000
      3       3.7399      2.00000
      4       4.4112      2.00000
      5       7.0345      0.00000
      6       8.4130      0.00000
      7       8.6815      0.00000
      8      11.2767      0.00000

 k-point     4 :       0.4375    0.0625    0.0625
  band No.  band energies     occupation 
      1      -4.6347      2.00000
      2      -0.8717      2.00000
      3       3.5255      2.00000
      4       4.0263      2.00000
      5       6.7246      0.00000
      6       8.5153      0.00000
      7       8.5298      0.00000
      8      12.6344      0.00000

 k-point     5 :      -0.4375    0.0625    0.0625
  band No.  band energies     occupation 
      1      -4.2267      2.00000
      2      -1.5194      2.00000
      3       3.5661      2.00000
      4       3.8228      2.00000
      5       6.6481      0.00000
      6       8.3430      0.00000
      7       8.5972      0.00000
      8      12.7696      0.00000

 k-point     6 :      -0.3125    0.0625    0.0625
  band No.  band energies     occupation 
      1      -4.9205      2.00000
      2      -0.3492      2.00000
      3       3.8359      2.00000
      4       3.8478      2.00000
      5       6.8172      0.00000
      6       8.3243      0.00000
      7       8.8193      0.00000
      8      11.7942      0.00000

 k-point     7 :      -0.1875    0.0625    0.0625
  band No.  band energies     occupation 
      1      -5.7126      2.00000
      2       1.5962      2.00000
      3       4.1142      2.00000
      4       4.2785      2.00000
      5       7.1871      0.00000
      6       8.1220      0.00000
      7       8.8251      0.00000
      8      10.5506      0.00000

 k-point     8 :      -0.0625    0.0625    0.0625
  band No.  band energies     occupation 
      1      -6.2084      2.00000
      2       3.7430      2.00000
      3       4.5705      2.00000
      4       4.7024      2.00000
      5       7.4073      0.00000
      6       7.8100      0.00000
      7       8.2270      0.00000
      8       8.8636      0.00000

 k-point     9 :       0.1875    0.1875    0.0625
  band No.  band energies     occupation 
      1      -5.9555      2.00000
      2       2.8461      2.00000
      3       4.0486      2.00000
      4       4.1080      2.00000
      5       7.0186      0.00000
      6       8.5049      0.00000
      7       9.0361      0.00000
      8       9.4397      0.00000

 k-point    10 :       0.3125    0.1875    0.0625
  band No.  band energies     occupation 
      1      -5.4617      2.00000
      2       1.4076      2.00000
      3       3.1335      2.00000
      4       3.8660      2.00000
      5       7.1753      0.00000
      6       8.6112      0.00000
      7       9.4885      0.00000
      8       9.8009      0.00000

 k-point    11 :       0.4375    0.1875    0.0625
  band No.  band energies     occupation 
      1      -4.6710      2.00000
      2      -0.3308      2.00000
      3       2.6408      2.00000
      4       3.4880      2.00000
      5       7.3327      0.00000
      6       8.6645      0.00000
      7       9.8310      0.00000
      8      10.1753      0.00000

 k-point    12 :      -0.4375    0.1875    0.0625
  band No.  band energies     occupation 
      1      -3.9721      2.00000
      2      -1.4495      2.00000
      3       2.3601      2.00000
      4       3.4030      2.00000
      5       7.3642      0.00000
      6       8.4453      0.00000
      7       9.7117      0.00000
      8      12.0557      0.00000

 k-point    13 :      -0.3125    0.1875    0.0625
  band No.  band energies     occupation 
      1      -4.3903      2.00000
      2      -0.8137      2.00000
      3       2.3022      2.00000
      4       3.6661      2.00000
      5       7.5835      0.00000
      6       8.4009      0.00000
      7       9.6465      0.00000
      8      11.3532      0.00000

 k-point    14 :      -0.1875    0.1875    0.0625
  band No.  band energies     occupation 
      1      -5.2293      2.00000
      2       0.7981      2.00000
      3       2.6126      2.00000
      4       4.1378      2.00000
      5       7.8936      0.00000
      6       8.2486      0.00000
      7       9.5141      0.00000
      8      10.0305      0.00000

 k-point    15 :      -0.0625    0.1875    0.0625
  band No.  band energies     occupation 
      1      -5.8329      2.00000
      2       2.2200      2.00000
      3       3.6704      2.00000
      4       4.4854      2.00000
      5       7.5221      0.00000
      6       8.0295      0.00000
      7       8.8616      0.00000
      8       9.9832      0.00000

 k-point    16 :       0.3125    0.3125    0.0625
  band No.  band energies     occupation 
      1      -5.0835      2.00000
      2       0.8861      2.00000
      3       3.0010      2.00000
      4       3.1152      2.00000
      5       6.2606      0.00000
      6       7.8710      0.00000
      7      10.7783      0.00000
      8      10.9444      0.00000

 k-point    17 :       0.4375    0.3125    0.0625
  band No.  band energies     occupation 
      1      -4.3773      2.00000
      2      -0.2884      2.00000
      3       2.2679      2.00000
      4       2.7924      2.00000
      5       6.5641      0.00000
      6       7.7194      0.00000
      7      10.7472      0.00000
      8      11.8835      0.00000

 k-point    18 :      -0.4375    0.3125    0.0625
  band No.  band energies     occupation 
      1      -3.5443      2.00000
      2      -1.4030      2.00000
      3       1.4821      2.00000
      4       2.7619      2.00000
      5       6.7964      0.00000
      6       9.2992      0.00000
      7      10.3429      0.00000
      8      11.7976      0.00000

 k-point    19 :      -0.3125    0.3125    0.0625
  band No.  band energies     occupation 
      1      -3.6148      2.00000
      2      -1.3119      2.00000
      3       1.1590      2.00000
      4       3.0821      2.00000
      5       7.1635      0.00000
      6       9.9609      0.00000
      7      11.1466      0.00000
      8      11.5853      0.00000

 k-point    20 :      -0.1875    0.3125    0.0625
  band No.  band energies     occupation 
      1      -4.4483      2.00000
      2      -0.3957      2.00000
      3       1.7135      2.00000
      4       3.6263      2.00000
      5       7.7097      0.00000
      6       8.9059      0.00000
      7      10.2236      0.00000
      8      10.5645      0.00000

 k-point    21 :      -0.0625    0.3125    0.0625
  band No.  band energies     occupation 
      1      -5.1242      2.00000
      2       0.2571      2.00000
      3       3.2213      2.00000
      4       4.0426      2.00000
      5       7.3294      0.00000
      6       8.3097      0.00000
      7       9.1372      0.00000
      8      10.7741      0.00000

 k-point    22 :       0.4375    0.4375    0.0625
  band No.  band energies     occupation 
      1      -3.7601      2.00000
      2      -1.1113      2.00000
      3       2.3565      2.00000
      4       2.5536      2.00000
      5       5.9043      0.00055
      6       6.6057      0.00000
      7      12.9551      0.00000
      8      13.0020      0.00000

 k-point    23 :      -0.4375    0.4375    0.0625
  band No.  band energies     occupation 
      1      -2.9074      2.00000
      2      -2.0476      2.00000
      3       1.8455      2.00000
      4       2.3315      2.00000
      5       6.3214      0.00000
      6       7.0111      0.00000
      7      12.7444      0.00000
      8      13.6447      0.00000

 k-point    24 :      -0.3125    0.4375    0.0625
  band No.  band energies     occupation 
      1      -3.0142      2.00000
      2      -1.8804      2.00000
      3       1.1743      2.00000
      4       2.6266      2.00000
      5       6.6612      0.00000
      6       9.1435      0.00000
      7      11.2975      0.00000
      8      12.3516      0.00000

 k-point    25 :      -0.1875    0.4375    0.0625
  band No.  band energies     occupation 
      1      -3.7300      2.00000
      2      -1.4364      2.00000
      3       1.6485      2.00000
      4       3.1881      2.00000
      5       7.2631      0.00000
      6       9.1350      0.00000
      7      10.5933      0.00000
      8      11.8202      0.00000

 k-point    26 :      -0.0625    0.4375    0.0625
  band No.  band energies     occupation 
      1      -4.2992      2.00000
      2      -1.2537      2.00000
      3       3.0425      2.00000
      4       3.7313      2.00000
      5       7.1143      0.00000
      6       8.2791      0.00000
      7       8.9904      0.00000
      8      12.3778      0.00000

 k-point    27 :      -0.4375   -0.4375    0.0625
  band No.  band energies     occupation 
      1      -2.9517      2.00000
      2      -2.0614      2.00000
      3       2.2269      2.00000
      4       2.4387      2.00000
      5       5.9133      0.00044
      6       6.2573      0.00000
      7      13.9765      0.00000
      8      14.0116      0.00000

 k-point    28 :      -0.3125   -0.4375    0.0625
  band No.  band energies     occupation 
      1      -3.6823      2.00000
      2      -1.1727      2.00000
      3       1.9901      2.00000
      4       2.4826      2.00000
      5       6.3957      0.00000
      6       7.2577      0.00000
      7      11.7231      0.00000
      8      12.9729      0.00000

 k-point    29 :      -0.1875   -0.4375    0.0625
  band No.  band energies     occupation 
      1      -4.1327      2.00000
      2      -0.8748      2.00000
      3       2.0192      2.00000
      4       3.0428      2.00000
      5       7.0459      0.00000
      6       9.4441      0.00000
      7       9.6121      0.00000
      8      10.8086      0.00000

 k-point    30 :      -0.3125   -0.3125    0.0625
  band No.  band energies     occupation 
      1      -4.4744      2.00000
      2      -0.1206      2.00000
      3       2.6153      2.00000
      4       2.7809      2.00000
      5       6.0187      0.00002
      6       7.1587      0.00000
      7      11.8507      0.00000
      8      11.9625      0.00000

 k-point    31 :      -0.1875   -0.3125    0.0625
  band No.  band energies     occupation 
      1      -4.9740      2.00000
      2       0.5748      2.00000
      3       2.6572      2.00000
      4       3.2644      2.00000
      5       6.8308      0.00000
      6       8.3367      0.00000
      7       9.8551      0.00000
      8      10.8135      0.00000

 k-point    32 :      -0.1875   -0.1875    0.0625
  band No.  band energies     occupation 
      1      -5.5792      2.00000
      2       1.8836      2.00000
      3       3.5071      2.00000
      4       3.5454      2.00000
      5       6.6077      0.00000
      6       8.6000      0.00000
      7       9.8162      0.00000
      8       9.9613      0.00000

 k-point    33 :       0.1875    0.1875    0.1875
  band No.  band energies     occupation 
      1      -5.9588      2.00000
      2       2.3382      2.00000
      3       4.5495      2.00000
      4       4.5495      2.00000
      5       7.0331      0.00000
      6       8.2739      0.00000
      7       8.2739      0.00000
      8      10.2219      0.00000

 k-point    34 :       0.3125    0.1875    0.1875
  band No.  band energies     occupation 
      1      -5.5895      2.00000
      2       1.5046      2.00000
      3       3.1326      2.00000
      4       4.5580      2.00000
      5       7.6849      0.00000
      6       8.3968      0.00000
      7       8.6571      0.00000
      8      10.4793      0.00000

 k-point    35 :       0.4375    0.1875    0.1875
  band No.  band energies     occupation 
      1      -4.8881      2.00000
      2       0.1861      2.00000
      3       2.1171      2.00000
      4       4.0850      2.00000
      5       7.6264      0.00000
      6       9.1224      0.00000
      7       9.2921      0.00000
      8      10.7695      0.00000

 k-point    36 :      -0.4375    0.1875    0.1875
  band No.  band energies     occupation 
      1      -4.0588      2.00000
      2      -1.1965      2.00000
      3       1.9497      2.00000
      4       3.5883      2.00000
      5       7.2022      0.00000
      6       9.2391      0.00000
      7       9.5343      0.00000
      8      12.5789      0.00000

 k-point    37 :      -0.3125    0.1875    0.1875
  band No.  band energies     occupation 
      1      -4.0434      2.00000
      2      -1.2238      2.00000
      3       2.2238      2.00000
      4       3.2924      2.00000
      5       6.9673      0.00000
      6       9.2800      0.00000
      7       9.8671      0.00000
      8      10.7806      0.00000

 k-point    38 :      -0.1875    0.1875    0.1875
  band No.  band energies     occupation 
      1      -4.8708      2.00000
      2       0.1831      2.00000
      3       2.8057      2.00000
      4       3.2740      2.00000
      5       6.9125      0.00000
      6       8.9563      0.00000
      7       9.6064      0.00000
      8      10.1908      0.00000

 k-point    39 :       0.3125    0.3125    0.1875
  band No.  band energies     occupation 
      1      -5.3479      2.00000
      2       0.8792      2.00000
      3       3.5742      2.00000
      4       3.6683      2.00000
      5       7.2420      0.00000
      6       8.4594      0.00000
      7       9.4733      0.00000
      8       9.9037      0.00000

 k-point    40 :       0.4375    0.3125    0.1875
  band No.  band energies     occupation 
      1      -4.7592      2.00000
      2       0.1072      2.00000
      3       2.1710      2.00000
      4       3.4809      2.00000
      5       7.7454      0.00000
      6       8.6531      0.00000
      7       9.2837      0.00000
      8      10.6509      0.00000

 k-point    41 :      -0.4375    0.3125    0.1875
  band No.  band energies     occupation 
      1      -3.9269      2.00000
      2      -0.9496      2.00000
      3       1.4371      2.00000
      4       2.9575      2.00000
      5       8.1743      0.00000
      6       8.6557      0.00000
      7       9.8693      0.00000
      8      11.6999      0.00000

 k-point    42 :      -0.3125    0.3125    0.1875
  band No.  band energies     occupation 
      1      -3.4774      2.00000
      2      -1.5157      2.00000
      3       1.4294      2.00000
      4       2.6691      2.00000
      5       7.7462      0.00000
      6       8.9634      0.00000
      7      10.6180      0.00000
      8      11.7830      0.00000

 k-point    43 :      -0.1875    0.3125    0.1875
  band No.  band energies     occupation 
      1      -4.1897      2.00000
      2      -0.5869      2.00000
      3       1.8339      2.00000
      4       2.8339      2.00000
      5       7.4890      0.00000
      6       8.6731      0.00000
      7       9.4258      0.00000
      8      11.8060      0.00000

 k-point    44 :       0.4375    0.4375    0.1875
  band No.  band energies     occupation 
      1      -4.2917      2.00000
      2      -0.5225      2.00000
      3       2.1385      2.00000
      4       2.9618      2.00000
      5       6.5696      0.00000
      6       8.5114      0.00000
      7      10.5567      0.00000
      8      10.9816      0.00000

 k-point    45 :      -0.4375    0.4375    0.1875
  band No.  band energies     occupation 
      1      -3.5379      2.00000
      2      -1.3037      2.00000
      3       1.6135      2.00000
      4       2.3366      2.00000
      5       7.3047      0.00000
      6       8.2846      0.00000
      7      10.2838      0.00000
      8      12.9189      0.00000

 k-point    46 :      -0.3125    0.4375    0.1875
  band No.  band energies     occupation 
      1      -2.7856      2.00000
      2      -2.0243      2.00000
      3       1.3266      2.00000
      4       1.8738      2.00000
      5       8.3826      0.00000
      6       9.3032      0.00000
      7       9.8339      0.00000
      8      10.8264      0.00000

 k-point    47 :      -0.1875    0.4375    0.1875
  band No.  band energies     occupation 
      1      -3.3515      2.00000
      2      -1.4943      2.00000
      3       1.3104      2.00000
      4       2.3155      2.00000
      5       8.4758      0.00000
      6       8.8663      0.00000
      7       9.5605      0.00000
      8      11.9424      0.00000

 k-point    48 :      -0.4375   -0.4375    0.1875
  band No.  band energies     occupation 
      1      -2.9340      2.00000
      2      -1.9955      2.00000
      3       1.4219      2.00000
      4       2.6382      2.00000
      5       6.1736      0.00000
      6       7.9758      0.00000
      7      12.6866      0.00000
      8      12.8008      0.00000

 k-point    49 :      -0.3125   -0.4375    0.1875
  band No.  band energies     occupation 
      1      -2.8390      2.00000
      2      -2.0318      2.00000
      3       1.5093      2.00000
      4       2.0673      2.00000
      5       7.2108      0.00000
      6       8.0856      0.00000
      7      11.2491      0.00000
      8      12.3093      0.00000

 k-point    50 :      -0.3125   -0.3125    0.1875
  band No.  band energies     occupation 
      1      -3.6285      2.00000
      2      -1.2612      2.00000
      3       1.6634      2.00000
      4       2.7472      2.00000
      5       6.3109      0.00000
      6       8.1545      0.00000
      7      11.6622      0.00000
      8      11.8426      0.00000

 k-point    51 :       0.3125    0.3125    0.3125
  band No.  band energies     occupation 
      1      -5.2487      2.00000
      2       0.2436      2.00000
      3       4.1548      2.00000
      4       4.1548      2.00000
      5       6.5832      0.00000
      6       8.5357      0.00000
      7       8.5357      0.00000
      8      12.2940      0.00000

 k-point    52 :       0.4375    0.3125    0.3125
  band No.  band energies     occupation 
      1      -4.7993      2.00000
      2      -0.3200      2.00000
      3       2.7639      2.00000
      4       4.0698      2.00000
      5       7.3309      0.00000
      6       8.7431      0.00000
      7       8.7977      0.00000
      8      11.7695      0.00000

 k-point    53 :      -0.4375    0.3125    0.3125
  band No.  band energies     occupation 
      1      -4.0579      2.00000
      2      -0.8756      2.00000
      3       1.3608      2.00000
      4       3.5291      2.00000
      5       7.1568      0.00000
      6      10.0994      0.00000
      7      10.2209      0.00000
      8      11.4946      0.00000

 k-point    54 :      -0.3125    0.3125    0.3125
  band No.  band energies     occupation 
      1      -3.2934      2.00000
      2      -1.6308      2.00000
      3       1.0579      2.00000
      4       3.0174      2.00000
      5       6.6043      0.00000
      6      10.3469      0.00000
      7      11.3083      0.00000
      8      11.4544      0.00000

 k-point    55 :       0.4375    0.4375    0.3125
  band No.  band energies     occupation 
      1      -4.5075      2.00000
      2      -0.8423      2.00000
      3       3.0642      2.00000
      4       3.5465      2.00000
      5       7.1231      0.00000
      6       8.4756      0.00000
      7       9.2676      0.00000
      8      11.2078      0.00000

 k-point    56 :      -0.4375    0.4375    0.3125
  band No.  band energies     occupation 
      1      -3.9288      2.00000
      2      -1.2128      2.00000
      3       1.8515      2.00000
      4       3.1102      2.00000
      5       7.8975      0.00000
      6       8.3102      0.00000
      7      10.6378      0.00000
      8      10.9914      0.00000

 k-point    57 :      -0.3125    0.4375    0.3125
  band No.  band energies     occupation 
      1      -3.1619      2.00000
      2      -1.7033      2.00000
      3       1.1446      2.00000
      4       2.4480      2.00000
      5       7.6315      0.00000
      6       9.7919      0.00000
      7      10.5024      0.00000
      8      10.9808      0.00000

 k-point    58 :      -0.4375   -0.4375    0.3125
  band No.  band energies     occupation 
      1      -3.5957      2.00000
      2      -1.4890      2.00000
      3       1.4988      2.00000
      4       3.1112      2.00000
      5       6.7381      0.00000
      6      10.2884      0.00000
      7      10.5358      0.00000
      8      10.5871      0.00000

 k-point    59 :       0.4375    0.4375    0.4375
  band No.  band energies     occupation 
      1      -4.4255      2.00000
      2      -1.2997      2.00000
      3       3.9422      2.00000
      4       3.9422      2.00000
      5       6.3327      0.00000
      6       8.4360      0.00000
      7       8.4360      0.00000
      8      12.6889      0.00000

 k-point    60 :      -0.4375    0.4375    0.4375
  band No.  band energies     occupation 
      1      -4.1002      2.00000
      2      -1.4747      2.00000
      3       2.7698      2.00000
      4       3.6943      2.00000
      5       7.1166      0.00000
      6       8.5101      0.00000
      7       8.9813      0.00000
      8      12.9504      0.00000


--------------------------------------------------------------------------------------------------------


 soft charge-density along one line, spin component           1
         0         1         2         3         4         5         6         7         8         9
 total charge-density along one line
 
 pseudopotential strength for first ion, spin component:           1
 18.503  -0.000  -0.000  -0.000  -0.000   0.000   0.000   0.000
 -0.000   0.006   0.000   0.000   0.000  -0.000  -0.000  -0.000
 -0.000   0.000   4.187  -0.000  -0.000  -0.004   0.000   0.000
 -0.000   0.000  -0.000   4.187  -0.000   0.000  -0.004   0.000
 -0.000   0.000  -0.000  -0.000   4.187   0.000   0.000  -0.004
  0.000  -0.000  -0.004   0.000   0.000   0.005  -0.000  -0.000
  0.000  -0.000   0.000  -0.004   0.000  -0.000   0.005  -0.000
  0.000  -0.000   0.000   0.000  -0.004  -0.000  -0.000   0.005
 total augmentation occupancy for first ion, spin component:           1
  1.509  -0.678   0.000   0.000   0.000   0.000   0.000   0.000
 -0.678   0.645   0.000   0.000  -0.000  -0.000   0.000   0.000
 -0.000   0.000   0.977   0.000  -0.000  -0.510   0.000  -0.000
  0.000   0.000   0.000   0.977   0.000   0.000  -0.510   0.000
  0.000  -0.000   0.000  -0.000   0.977   0.000  -0.000  -0.510
 -0.000   0.000  -0.510   0.000   0.000   0.314   0.000   0.000
  0.000   0.000   0.000  -0.510   0.000   0.000   0.314  -0.000
  0.000   0.000   0.000  -0.000  -0.510   0.000  -0.000   0.314


------------------------ aborting loop because EDIFF is reached ----------------------------------------


    CHARGE:  cpu time    0.0480: real time    0.0479
    FORLOC:  cpu time    0.0000: real time    0.0008
    FORNL :  cpu time    0.0200: real time    0.0201
    STRESS:  cpu time    0.2400: real time    0.2407
    FORCOR:  cpu time    0.0200: real time    0.0177
    FORHAR:  cpu time    0.0040: real time    0.0042
    MIXING:  cpu time    0.0000: real time    0.0013
    OFIELD:  cpu time    0.0000: real time    0.0004

  FORCE on cell =-STRESS in cart. coord.  units (eV):
  Direction    XX          YY          ZZ          XY          YZ          ZX
  --------------------------------------------------------------------------------------
  Alpha Z     3.10345     3.10345     3.10345
  Ewald     -74.16680   -74.16680   -74.16680     0.00000     0.00000    -0.00000
  Hartree     5.29668     5.29668     5.29668     0.00000     0.00000     0.00000
  E(xc)     -24.91479   -24.91479   -24.91479    -0.00000    -0.00000    -0.00000
  Local     -30.39213   -30.39213   -30.39213     0.00004     0.00004     0.00004
  n-local    76.40412    78.94651    74.22871     0.98458    -1.07447     0.04538
  augment   -11.65375   -11.65375   -11.65375    -0.00003    -0.00003    -0.00003
  Kinetic    56.27855    54.91890    53.62976     0.86515    -0.96185     0.04821
  Fock        0.00000     0.00000     0.00000     0.00000     0.00000     0.00000
  -------------------------------------------------------------------------------------
  Total      -1.25849    -1.25849    -1.25849    -0.00000     0.00000     0.00000
  in kB     -46.47187   -46.47187   -46.47187    -0.00000     0.00000     0.00000
  external pressure =      -46.47 kB  Pullay stress =        0.00 kB


 VOLUME and BASIS-vectors are now :
 -----------------------------------------------------------------------------
  energy-cutoff  :      350.00
  volume of cell :       43.39
      direct lattice vectors                 reciprocal lattice vectors
     0.000000000  2.788985000  2.788985000    -0.179276690  0.179276690  0.179276690
     2.788985000  0.000000000  2.788985000     0.179276690 -0.179276690  0.179276690
     2.788985000  2.788985000  0.000000000     0.179276690  0.179276690 -0.179276690

  length of vectors
     3.944220412  3.944220412  3.944220412     0.310516336  0.310516336  0.310516336


 FORCES acting on ions
    electron-ion (+dipol)            ewald-force                    non-local-force                 convergence-correction
 -----------------------------------------------------------------------------------------------
   0.144E-05 0.144E-05 0.158E-05   -.288E-14 0.388E-15 -.479E-14   0.484E-16 0.484E-16 0.544E-16   -.826E-09 -.826E-09 -.821E-09
   -.144E-05 -.144E-05 -.158E-05   0.291E-14 -.348E-15 0.472E-14   -.524E-16 -.489E-16 -.509E-16   0.826E-09 0.826E-09 0.821E-09
 -----------------------------------------------------------------------------------------------
   -.206E-13 -.269E-13 -.329E-13   0.308E-16 0.397E-16 -.708E-16   -.394E-17 -.472E-18 0.343E-17   -.464E-14 -.466E-14 -.558E-15
 
 
 POSITION                                       TOTAL-FORCE (eV/Angst)
 -----------------------------------------------------------------------------------
      0.00000      0.00000      0.00000         0.000000      0.000000      0.000000
      1.39449      1.39449      1.39449        -0.000000     -0.000000     -0.000000
 -----------------------------------------------------------------------------------
    total drift:                               -0.000000     -0.000000     -0.000000


--------------------------------------------------------------------------------------------------------



  FREE ENERGIE OF THE ION-ELECTRON SYSTEM (eV)
  ---------------------------------------------------
  free  energy   TOTEN  =       -10.80983666 eV

  energy  without entropy=      -10.80982450  energy(sigma->0) =      -10.80983058
 


--------------------------------------------------------------------------------------------------------


    POTLOK:  cpu time    0.0360: real time    0.0419


--------------------------------------------------------------------------------------------------------




--------------------------------------------------------------------------------------------------------


  
 reached required accuracy - stopping structural energy minimisation
 writing wavefunctions
     LOOP+:  cpu time    9.0320: real time    9.6600
    4ORBIT:  cpu time    0.0000: real time    0.0000

 total amount of memory used by VASP MPI-rank0    33999. kBytes
=======================================================================

   base      :      30000. kBytes
   nonl-proj :       2540. kBytes
   fftplans  :        247. kBytes
   grid      :        561. kBytes
   one-center:          6. kBytes
   wavefun   :        645. kBytes
 
  
  
 General timing and accounting informations for this job:
 ========================================================
  
                  Total CPU time used (sec):       13.740
                            User time (sec):       11.660
                          System time (sec):        2.080
                         Elapsed time (sec):       15.344
  
                   Maximum memory used (kb):        9860.
                   Average memory used (kb):           0.
  
                          Minor page faults:        38171
                          Major page faults:           22
                 Voluntary context switches:        40075
