 running on    8 total cores
 distrk:  each k-point on    8 cores,    1 groups
 distr:  one band on    1 cores,    8 groups
 using from now: INCAR     
 vasp.5.4.4.18Apr17-6-g9f103f2a35 (build Dec 09 2018 21:25:21) complex          
  
 POSCAR found type information on POSCAR  Si
 POSCAR found :  1 types and       2 ions
 scaLAPACK will be used

 ----------------------------------------------------------------------------- 
|                                                                             |
|           W    W    AA    RRRRR   N    N  II  N    N   GGGG   !!!           |
|           W    W   A  A   R    R  NN   N  II  NN   N  G    G  !!!           |
|           W    W  A    A  R    R  N N  N  II  N N  N  G       !!!           |
|           W WW W  AAAAAA  RRRRR   N  N N  II  N  N N  G  GGG   !            |
|           WW  WW  A    A  R   R   N   NN  II  N   NN  G    G                |
|           W    W  A    A  R    R  N    N  II  N    N   GGGG   !!!           |
|                                                                             |
|      For optimal performance we recommend to set                            |
|        NCORE= 4 - approx SQRT( number of cores)                             |
|      NCORE specifies how many cores store one orbital (NPAR=cpu/NCORE).     |
|      This setting can  greatly improve the performance of VASP for DFT.     |
|      The default,   NCORE=1            might be grossly inefficient         |
|      on modern multi-core architectures or massively parallel machines.     |
|      Do your own testing !!!!                                               |
|      Unfortunately you need to use the default for GW and RPA calculations. |
|      (for HF NCORE is supported but not extensively tested yet)             |
|                                                                             |
 ----------------------------------------------------------------------------- 

 LDA part: xc-table for Pade appr. of Perdew
 POSCAR, INCAR and KPOINTS ok, starting setup
 FFT: planning ...
 WAVECAR not read
 entering main loop
       N       E                     dE             d eps       ncg     rms          rms(c)
DAV:   1     0.287126267806E+01    0.28713E+01   -0.26147E+03   960   0.555E+02
DAV:   2    -0.107704910704E+02   -0.13642E+02   -0.13147E+02  1480   0.692E+01
DAV:   3    -0.109461152631E+02   -0.17562E+00   -0.17562E+00  1208   0.993E+00
DAV:   4    -0.109468442889E+02   -0.72903E-03   -0.72903E-03  1584   0.688E-01
DAV:   5    -0.109468447384E+02   -0.44947E-06   -0.44880E-06  1216   0.145E-02    0.281E+00
DAV:   6    -0.108537307139E+02    0.93114E-01   -0.57906E-02  1224   0.125E+00    0.169E+00
DAV:   7    -0.108083806540E+02    0.45350E-01   -0.11560E-01  1184   0.190E+00    0.137E-01
DAV:   8    -0.108097221487E+02   -0.13415E-02   -0.35941E-03  1160   0.435E-01    0.253E-02
DAV:   9    -0.108098366560E+02   -0.11451E-03   -0.11334E-04   752   0.840E-02
   1 F= -.10809837E+02 E0= -.10809831E+02  d E =-.108098E+02
 curvature:   0.00 expect dE= 0.000E+00 dE for cont linesearch  0.000E+00
 trial: gam= 0.00000 g(F)=  0.827E-45 g(S)=  0.000E+00 ort = 0.000E+00 (trialstep = 0.100E+01)
 search vector abs. value=  0.100E-09
 reached required accuracy - stopping structural energy minimisation
 writing wavefunctions
