<?xml version="1.0" encoding="ISO-8859-1"?>
<modeling>
 <generator>
  <i name="program" type="string">vasp </i>
  <i name="version" type="string">5.4.4.18Apr17-6-g9f103f2a35  </i>
  <i name="subversion" type="string">(build Dec 09 2018 21:25:21) complex            parallel </i>
  <i name="platform" type="string">IFC18.0.1.163_CrayMPICH7.7.0_MKL18.0.1.163 </i>
  <i name="date" type="string">2019 04 01 </i>
  <i name="time" type="string">16:00:36 </i>
 </generator>
 <incar>
  <i type="string" name="PREC">normal</i>
  <i type="int" name="IBRION">     2</i>
  <i name="EDIFF">      0.00040000</i>
  <i name="EDIFFG">     -0.01000000</i>
  <i type="int" name="NSW">    15</i>
  <i type="int" name="ISIF">     2</i>
  <i name="ENCUT">    350.00000000</i>
  <i type="int" name="NBANDS">     8</i>
  <i type="logical" name="LREAL"> F  </i>
  <i type="int" name="ISMEAR">     0</i>
  <i name="SIGMA">      0.20000000</i>
  <v type="int" name="KPOINT_BSE">    -1     0     0     0</v>
 </incar>
 <structure name="primitive_cell" >
  <crystal>
   <varray name="basis" >
    <v>       0.00000000       2.78898500       2.78898500 </v>
    <v>       2.78898500       0.00000000       2.78898500 </v>
    <v>       2.78898500       2.78898500       0.00000000 </v>
   </varray>
   <i name="volume">     43.38789007 </i>
   <varray name="rec_basis" >
    <v>      -0.17927669       0.17927669       0.17927669 </v>
    <v>       0.17927669      -0.17927669       0.17927669 </v>
    <v>       0.17927669       0.17927669      -0.17927669 </v>
   </varray>
  </crystal>
  <varray name="positions" >
   <v>       0.00000000       0.00000000       0.00000000 </v>
   <v>       0.25000000       0.25000000       0.25000000 </v>
  </varray>
 </structure>
 <varray name="primitive_index" >
  <v type="int" >        1 </v>
  <v type="int" >        2 </v>
 </varray>
 <kpoints>
  <generation param="Monkhorst-Pack">
   <v type="int" name="divisions">       8        8        8 </v>
   <v name="usershift">      0.00000000       0.00000000       0.00000000 </v>
   <v name="genvec1">      0.12500000       0.00000000      -0.00000000 </v>
   <v name="genvec2">      0.00000000       0.12500000       0.00000000 </v>
   <v name="genvec3">     -0.00000000      -0.00000000       0.12500000 </v>
   <v name="shift">      0.50000000       0.50000000       0.50000000 </v>
  </generation>
  <varray name="kpointlist" >
   <v>       0.06250000       0.06250000       0.06250000 </v>
   <v>       0.18750000       0.06250000       0.06250000 </v>
   <v>       0.31250000       0.06250000       0.06250000 </v>
   <v>       0.43750000       0.06250000       0.06250000 </v>
   <v>      -0.43750000       0.06250000       0.06250000 </v>
   <v>      -0.31250000       0.06250000       0.06250000 </v>
   <v>      -0.18750000       0.06250000       0.06250000 </v>
   <v>      -0.06250000       0.06250000       0.06250000 </v>
   <v>       0.18750000       0.18750000       0.06250000 </v>
   <v>       0.31250000       0.18750000       0.06250000 </v>
   <v>       0.43750000       0.18750000       0.06250000 </v>
   <v>      -0.43750000       0.18750000       0.06250000 </v>
   <v>      -0.31250000       0.18750000       0.06250000 </v>
   <v>      -0.18750000       0.18750000       0.06250000 </v>
   <v>      -0.06250000       0.18750000       0.06250000 </v>
   <v>       0.31250000       0.31250000       0.06250000 </v>
   <v>       0.43750000       0.31250000       0.06250000 </v>
   <v>      -0.43750000       0.31250000       0.06250000 </v>
   <v>      -0.31250000       0.31250000       0.06250000 </v>
   <v>      -0.18750000       0.31250000       0.06250000 </v>
   <v>      -0.06250000       0.31250000       0.06250000 </v>
   <v>       0.43750000       0.43750000       0.06250000 </v>
   <v>      -0.43750000       0.43750000       0.06250000 </v>
   <v>      -0.31250000       0.43750000       0.06250000 </v>
   <v>      -0.18750000       0.43750000       0.06250000 </v>
   <v>      -0.06250000       0.43750000       0.06250000 </v>
   <v>      -0.43750000      -0.43750000       0.06250000 </v>
   <v>      -0.31250000      -0.43750000       0.06250000 </v>
   <v>      -0.18750000      -0.43750000       0.06250000 </v>
   <v>      -0.31250000      -0.31250000       0.06250000 </v>
   <v>      -0.18750000      -0.31250000       0.06250000 </v>
   <v>      -0.18750000      -0.18750000       0.06250000 </v>
   <v>       0.18750000       0.18750000       0.18750000 </v>
   <v>       0.31250000       0.18750000       0.18750000 </v>
   <v>       0.43750000       0.18750000       0.18750000 </v>
   <v>      -0.43750000       0.18750000       0.18750000 </v>
   <v>      -0.31250000       0.18750000       0.18750000 </v>
   <v>      -0.18750000       0.18750000       0.18750000 </v>
   <v>       0.31250000       0.31250000       0.18750000 </v>
   <v>       0.43750000       0.31250000       0.18750000 </v>
   <v>      -0.43750000       0.31250000       0.18750000 </v>
   <v>      -0.31250000       0.31250000       0.18750000 </v>
   <v>      -0.18750000       0.31250000       0.18750000 </v>
   <v>       0.43750000       0.43750000       0.18750000 </v>
   <v>      -0.43750000       0.43750000       0.18750000 </v>
   <v>      -0.31250000       0.43750000       0.18750000 </v>
   <v>      -0.18750000       0.43750000       0.18750000 </v>
   <v>      -0.43750000      -0.43750000       0.18750000 </v>
   <v>      -0.31250000      -0.43750000       0.18750000 </v>
   <v>      -0.31250000      -0.31250000       0.18750000 </v>
   <v>       0.31250000       0.31250000       0.31250000 </v>
   <v>       0.43750000       0.31250000       0.31250000 </v>
   <v>      -0.43750000       0.31250000       0.31250000 </v>
   <v>      -0.31250000       0.31250000       0.31250000 </v>
   <v>       0.43750000       0.43750000       0.31250000 </v>
   <v>      -0.43750000       0.43750000       0.31250000 </v>
   <v>      -0.31250000       0.43750000       0.31250000 </v>
   <v>      -0.43750000      -0.43750000       0.31250000 </v>
   <v>       0.43750000       0.43750000       0.43750000 </v>
   <v>      -0.43750000       0.43750000       0.43750000 </v>
  </varray>
  <varray name="weights" >
   <v>       0.00390625 </v>
   <v>       0.01171875 </v>
   <v>       0.01171875 </v>
   <v>       0.01171875 </v>
   <v>       0.01171875 </v>
   <v>       0.01171875 </v>
   <v>       0.01171875 </v>
   <v>       0.01171875 </v>
   <v>       0.01171875 </v>
   <v>       0.02343750 </v>
   <v>       0.02343750 </v>
   <v>       0.02343750 </v>
   <v>       0.02343750 </v>
   <v>       0.02343750 </v>
   <v>       0.02343750 </v>
   <v>       0.01171875 </v>
   <v>       0.02343750 </v>
   <v>       0.02343750 </v>
   <v>       0.02343750 </v>
   <v>       0.02343750 </v>
   <v>       0.02343750 </v>
   <v>       0.01171875 </v>
   <v>       0.02343750 </v>
   <v>       0.02343750 </v>
   <v>       0.02343750 </v>
   <v>       0.02343750 </v>
   <v>       0.01171875 </v>
   <v>       0.02343750 </v>
   <v>       0.02343750 </v>
   <v>       0.01171875 </v>
   <v>       0.02343750 </v>
   <v>       0.01171875 </v>
   <v>       0.00390625 </v>
   <v>       0.01171875 </v>
   <v>       0.01171875 </v>
   <v>       0.01171875 </v>
   <v>       0.01171875 </v>
   <v>       0.01171875 </v>
   <v>       0.01171875 </v>
   <v>       0.02343750 </v>
   <v>       0.02343750 </v>
   <v>       0.02343750 </v>
   <v>       0.02343750 </v>
   <v>       0.01171875 </v>
   <v>       0.02343750 </v>
   <v>       0.02343750 </v>
   <v>       0.02343750 </v>
   <v>       0.01171875 </v>
   <v>       0.02343750 </v>
   <v>       0.01171875 </v>
   <v>       0.00390625 </v>
   <v>       0.01171875 </v>
   <v>       0.01171875 </v>
   <v>       0.01171875 </v>
   <v>       0.01171875 </v>
   <v>       0.02343750 </v>
   <v>       0.02343750 </v>
   <v>       0.01171875 </v>
   <v>       0.00390625 </v>
   <v>       0.01171875 </v>
  </varray>
 </kpoints>
 <parameters>
  <separator name="general" >
   <i type="string" name="SYSTEM">unknown system</i>
   <i type="logical" name="LCOMPAT"> F  </i>
  </separator>
  <separator name="electronic" >
   <i type="string" name="PREC">normal</i>
   <i name="ENMAX">    350.00000000</i>
   <i name="ENAUG">    322.06900000</i>
   <i name="EDIFF">      0.00040000</i>
   <i type="int" name="IALGO">    38</i>
   <i type="int" name="IWAVPR">    11</i>
   <i type="int" name="NBANDS">     8</i>
   <i name="NELECT">      8.00000000</i>
   <i type="int" name="TURBO">     0</i>
   <i type="int" name="IRESTART">     0</i>
   <i type="int" name="NREBOOT">     0</i>
   <i type="int" name="NMIN">     0</i>
   <i name="EREF">      0.00000000</i>
   <separator name="electronic smearing" >
    <i type="int" name="ISMEAR">     0</i>
    <i name="SIGMA">      0.20000000</i>
    <i name="KSPACING">      0.50000000</i>
    <i type="logical" name="KGAMMA"> T  </i>
   </separator>
   <separator name="electronic projectors" >
    <i type="logical" name="LREAL"> F  </i>
    <v name="ROPT">      0.00000000</v>
    <i type="int" name="LMAXPAW">  -100</i>
    <i type="int" name="LMAXMIX">     2</i>
    <i type="logical" name="NLSPLINE"> F  </i>
   </separator>
   <separator name="electronic startup" >
    <i type="int" name="ISTART">     0</i>
    <i type="int" name="ICHARG">     2</i>
    <i type="int" name="INIWAV">     1</i>
   </separator>
   <separator name="electronic spin" >
    <i type="int" name="ISPIN">     1</i>
    <i type="logical" name="LNONCOLLINEAR"> F  </i>
    <v name="MAGMOM">      1.00000000      1.00000000</v>
    <i name="NUPDOWN">     -1.00000000</i>
    <i type="logical" name="LSORBIT"> F  </i>
    <v name="SAXIS">      0.00000000      0.00000000      1.00000000</v>
    <i type="logical" name="LSPIRAL"> F  </i>
    <v name="QSPIRAL">      0.00000000      0.00000000      0.00000000</v>
    <i type="logical" name="LZEROZ"> F  </i>
   </separator>
   <separator name="electronic exchange-correlation" >
    <i type="logical" name="LASPH"> F  </i>
    <i type="logical" name="LMETAGGA"> F  </i>
   </separator>
   <separator name="electronic convergence" >
    <i type="int" name="NELM">    60</i>
    <i type="int" name="NELMDL">    -5</i>
    <i type="int" name="NELMIN">     2</i>
    <i name="ENINI">    350.00000000</i>
    <separator name="electronic convergence detail" >
     <i type="logical" name="LDIAG"> T  </i>
     <i type="logical" name="LSUBROT"> F  </i>
     <i name="WEIMIN">      0.00100000</i>
     <i name="EBREAK">      0.00001250</i>
     <i name="DEPER">      0.30000000</i>
     <i type="int" name="NRMM">     4</i>
     <i name="TIME">      0.40000000</i>
    </separator>
   </separator>
   <separator name="electronic mixer" >
    <i name="AMIX">      0.40000000</i>
    <i name="BMIX">      1.00000000</i>
    <i name="AMIN">      0.10000000</i>
    <i name="AMIX_MAG">      1.60000000</i>
    <i name="BMIX_MAG">      1.00000000</i>
    <separator name="electronic mixer details" >
     <i type="int" name="IMIX">     4</i>
     <i type="logical" name="MIXFIRST"> F  </i>
     <i type="int" name="MAXMIX">   -45</i>
     <i name="WC">    100.00000000</i>
     <i type="int" name="INIMIX">     1</i>
     <i type="int" name="MIXPRE">     1</i>
     <i type="int" name="MREMOVE">     5</i>
    </separator>
   </separator>
   <separator name="electronic dipolcorrection" >
    <i type="logical" name="LDIPOL"> F  </i>
    <i type="logical" name="LMONO"> F  </i>
    <i type="int" name="IDIPOL">     0</i>
    <i name="EPSILON">      1.00000000</i>
    <v name="DIPOL">   -100.00000000   -100.00000000   -100.00000000</v>
    <i name="EFIELD">      0.00000000</i>
   </separator>
  </separator>
  <separator name="grids" >
   <i type="int" name="NGX">    18</i>
   <i type="int" name="NGY">    18</i>
   <i type="int" name="NGZ">    18</i>
   <i type="int" name="NGXF">    36</i>
   <i type="int" name="NGYF">    36</i>
   <i type="int" name="NGZF">    36</i>
   <i type="logical" name="ADDGRID"> F  </i>
  </separator>
  <separator name="ionic" >
   <i type="int" name="NSW">    15</i>
   <i type="int" name="IBRION">     2</i>
   <i type="int" name="MDALGO">     0</i>
   <i type="int" name="ISIF">     2</i>
   <i name="PSTRESS">      0.00000000</i>
   <i name="EDIFFG">     -0.01000000</i>
   <i type="int" name="NFREE">     1</i>
   <i name="POTIM">      0.50000000</i>
   <i name="SMASS">     -3.00000000</i>
   <i name="SCALEE">      1.00000000</i>
  </separator>
  <separator name="ionic md" >
   <i name="TEBEG">      0.00010000</i>
   <i name="TEEND">      0.00010000</i>
   <i type="int" name="NBLOCK">     1</i>
   <i type="int" name="KBLOCK">    15</i>
   <i type="int" name="NPACO">   256</i>
   <i name="APACO">     16.00000000</i>
  </separator>
  <separator name="symmetry" >
   <i type="int" name="ISYM">     2</i>
   <i name="SYMPREC">      0.00001000</i>
  </separator>
  <separator name="dos" >
   <i type="int" name="LORBIT">     0</i>
   <v name="RWIGS">     -1.00000000</v>
   <i type="int" name="NEDOS">   301</i>
   <i name="EMIN">     10.00000000</i>
   <i name="EMAX">    -10.00000000</i>
   <i name="EFERMI">      0.00000000</i>
  </separator>
  <separator name="writing" >
   <i type="int" name="NWRITE">     2</i>
   <i type="logical" name="LWAVE"> T  </i>
   <i type="logical" name="LDOWNSAMPLE"> F  </i>
   <i type="logical" name="LCHARG"> T  </i>
   <i type="logical" name="LPARD"> F  </i>
   <i type="logical" name="LVTOT"> F  </i>
   <i type="logical" name="LVHAR"> F  </i>
   <i type="logical" name="LELF"> F  </i>
   <i type="logical" name="LOPTICS"> F  </i>
   <v name="STM">      0.00000000      0.00000000      0.00000000      0.00000000      0.00000000      0.00000000      0.00000000</v>
  </separator>
  <separator name="performance" >
   <i type="int" name="NPAR">     8</i>
   <i type="int" name="NSIM">     4</i>
   <i type="int" name="NBLK">    -1</i>
   <i type="logical" name="LPLANE"> T  </i>
   <i type="logical" name="LSCALAPACK"> T  </i>
   <i type="logical" name="LSCAAWARE"> F  </i>
   <i type="logical" name="LSCALU"> F  </i>
   <i type="logical" name="LASYNC"> F  </i>
   <i type="logical" name="LORBITALREAL"> F  </i>
  </separator>
  <separator name="miscellaneous" >
   <i type="int" name="IDIOT">     3</i>
   <i type="int" name="ISPECIAL">     0</i>
   <i type="logical" name="LMUSIC"> F  </i>
   <v name="POMASS">     28.08500000</v>
   <v name="DARWINR">      0.00000000</v>
   <v name="DARWINV">      1.00000000</v>
   <i type="logical" name="LCORR"> T  </i>
  </separator>
  <i type="logical" name="GGA_COMPAT"> T  </i>
  <i type="logical" name="LBERRY"> F  </i>
  <i type="int" name="ICORELEVEL">     0</i>
  <i type="logical" name="LDAU"> F  </i>
  <i type="int" name="I_CONSTRAINED_M">     0</i>
  <separator name="electronic exchange-correlation" >
   <i type="string" name="GGA">--</i>
   <i type="int" name="VOSKOWN">     0</i>
   <i type="logical" name="LHFCALC"> F  </i>
   <i type="string" name="PRECFOCK"></i>
   <i type="logical" name="LSYMGRAD"> F  </i>
   <i type="logical" name="LHFONE"> F  </i>
   <i type="logical" name="LRHFCALC"> F  </i>
   <i type="logical" name="LTHOMAS"> F  </i>
   <i type="logical" name="LMODELHF"> F  </i>
   <i name="ENCUT4O">     -1.00000000</i>
   <i type="int" name="EXXOEP">     0</i>
   <i type="int" name="FOURORBIT">     0</i>
   <i name="AEXX">      0.00000000</i>
   <i name="HFALPHA">      0.00000000</i>
   <i name="MCALPHA">      0.00000000</i>
   <i name="ALDAX">      1.00000000</i>
   <i name="AGGAX">      1.00000000</i>
   <i name="ALDAC">      1.00000000</i>
   <i name="AGGAC">      1.00000000</i>
   <i type="int" name="NKREDX">     1</i>
   <i type="int" name="NKREDY">     1</i>
   <i type="int" name="NKREDZ">     1</i>
   <i type="logical" name="SHIFTRED"> F  </i>
   <i type="logical" name="ODDONLY"> F  </i>
   <i type="logical" name="EVENONLY"> F  </i>
   <i type="int" name="LMAXFOCK">     0</i>
   <i type="int" name="NMAXFOCKAE">     0</i>
   <i type="logical" name="LFOCKAEDFT"> F  </i>
   <i name="HFSCREEN">      0.00000000</i>
   <i name="HFSCREENC">      0.00000000</i>
   <i type="int" name="NBANDSGWLOW">     0</i>
  </separator>
  <separator name="vdW DFT" >
   <i type="logical" name="LUSE_VDW"> F  </i>
   <i name="Zab_VDW">     -0.84910000</i>
   <i name="PARAM1">      0.12340000</i>
   <i name="PARAM2">      1.00000000</i>
   <i name="PARAM3">      0.00000000</i>
  </separator>
  <separator name="model GW" >
   <i type="int" name="MODEL_GW">     0</i>
   <i name="MODEL_EPS0">     13.01636702</i>
   <i name="MODEL_ALPHA">      1.00000000</i>
  </separator>
  <separator name="linear response parameters" >
   <i type="logical" name="LEPSILON"> F  </i>
   <i type="logical" name="LRPA"> F  </i>
   <i type="logical" name="LNABLA"> F  </i>
   <i type="logical" name="LVEL"> F  </i>
   <i type="int" name="KINTER">     0</i>
   <i name="CSHIFT">      0.10000000</i>
   <i name="OMEGAMAX">     -1.00000000</i>
   <i name="DEG_THRESHOLD">      0.00200000</i>
   <i name="RTIME">     -0.10000000</i>
   <i name="WPLASMAI">      0.00000000</i>
   <v name="DFIELD">      0.00000000      0.00000000      0.00000000</v>
   <v name="WPLASMA">      0.00000000      0.00000000      0.00000000      0.00000000      0.00000000      0.00000000      0.00000000      0.00000000      0.00000000</v>
  </separator>
  <separator name="orbital magnetization" >
   <i type="logical" name="NUCIND"> F  </i>
   <v name="MAGPOS">      0.00000000      0.00000000      0.00000000</v>
   <i type="logical" name="LNICSALL"> T  </i>
   <i type="logical" name="ORBITALMAG"> F  </i>
   <i type="logical" name="LMAGBLOCH"> F  </i>
   <i type="logical" name="LCHIMAG"> F  </i>
   <i type="logical" name="LGAUGE"> T  </i>
   <i type="int" name="MAGATOM">     0</i>
   <v name="MAGDIPOL">      0.00000000      0.00000000      0.00000000</v>
   <v name="AVECCONST">      0.00000000      0.00000000      0.00000000</v>
  </separator>
  <separator name="response functions" >
   <i type="logical" name="LADDER"> F  </i>
   <i type="logical" name="LRPAFORCE"> F  </i>
   <i type="logical" name="LFXC"> F  </i>
   <i type="logical" name="LHARTREE"> T  </i>
   <i type="int" name="IBSE">     0</i>
   <v type="int" name="KPOINT">    -1     0     0     0</v>
   <i type="logical" name="LTCTE"> F  </i>
   <i type="logical" name="LTETE"> F  </i>
   <i type="logical" name="LTRIPLET"> F  </i>
   <i type="logical" name="LFXCEPS"> F  </i>
   <i type="logical" name="LFXHEG"> F  </i>
   <i type="int" name="NATURALO">     2</i>
   <i type="logical" name="L2ORDER"> F  </i>
   <i type="logical" name="LMP2LT"> F  </i>
   <i type="logical" name="LUSEW"> F  </i>
   <i name="ENCUTGW">     -2.00000000</i>
   <i name="ENCUTGWSOFT">     -2.00000000</i>
   <i name="ENCUTLF">     -1.00000000</i>
   <i type="int" name="LMAXMP2">    -1</i>
   <i name="SCISSOR">      0.00000000</i>
   <i type="int" name="NOMEGA">     0</i>
   <i type="int" name="NOMEGAR">     0</i>
   <i type="int" name="NBANDSGW">    -1</i>
   <i type="int" name="NBANDSO">    -1</i>
   <i type="int" name="NBANDSV">    -1</i>
   <i type="int" name="NELM">     1</i>
   <i type="int" name="NELMHF">     1</i>
   <i type="int" name="DIM">     3</i>
   <i type="int" name="ANTIRES">     0</i>
   <i name="OMEGAMAX">    -30.00000000</i>
   <i name="OMEGAMIN">    -30.00000000</i>
   <i name="OMEGATL">   -200.00000000</i>
   <i type="int" name="OMEGAGRID">   140</i>
   <i name="CSHIFT">     -0.10000000</i>
   <i type="logical" name="SELFENERGY"> F  </i>
   <i type="logical" name="LSPECTRAL"> F  </i>
   <i type="logical" name="LSPECTRALGW"> F  </i>
   <i type="logical" name="LSINGLES"> F  </i>
   <i type="logical" name="LFERMIGW"> F  </i>
   <i type="logical" name="ODDONLYGW"> F  </i>
   <i type="logical" name="EVENONLYGW"> F  </i>
   <i type="int" name="NKREDLFX">     1</i>
   <i type="int" name="NKREDLFY">     1</i>
   <i type="int" name="NKREDLFZ">     1</i>
   <i type="int" name="MAXMEM">  2800</i>
   <i type="int" name="TELESCOPE">     0</i>
   <i type="int" name="TAUPAR">     1</i>
   <i type="int" name="OMEGAPAR">    -1</i>
   <i name="LAMBDA">      1.00000000</i>
  </separator>
  <separator name="External order field" >
   <i name="OFIELD_KAPPA">      0.00000000</i>
   <v name="OFIELD_K">      0.00000000      0.00000000      0.00000000</v>
   <i name="OFIELD_Q6_NEAR">      0.00000000</i>
   <i name="OFIELD_Q6_FAR">      0.00000000</i>
   <i name="OFIELD_A">      0.00000000</i>
  </separator>
 </parameters>
 <atominfo>
  <atoms>       2 </atoms>
  <types>       1 </types>
  <array name="atoms" >
   <dimension dim="1">ion</dimension>
   <field type="string">element</field>
   <field type="int">atomtype</field>
   <set>
    <rc><c>Si</c><c>   1</c></rc>
    <rc><c>Si</c><c>   1</c></rc>
   </set>
  </array>
  <array name="atomtypes" >
   <dimension dim="1">type</dimension>
   <field type="int">atomspertype</field>
   <field type="string">element</field>
   <field>mass</field>
   <field>valence</field>
   <field type="string">pseudopotential</field>
   <set>
    <rc><c>   2</c><c>Si</c><c>     28.08500000</c><c>      4.00000000</c><c> PAW_PBE Si 05Jan2001                   </c></rc>
   </set>
  </array>
 </atominfo>
 <structure name="initialpos" >
  <crystal>
   <varray name="basis" >
    <v>       0.00000000       2.78898500       2.78898500 </v>
    <v>       2.78898500       0.00000000       2.78898500 </v>
    <v>       2.78898500       2.78898500       0.00000000 </v>
   </varray>
   <i name="volume">     43.38789007 </i>
   <varray name="rec_basis" >
    <v>      -0.17927669       0.17927669       0.17927669 </v>
    <v>       0.17927669      -0.17927669       0.17927669 </v>
    <v>       0.17927669       0.17927669      -0.17927669 </v>
   </varray>
  </crystal>
  <varray name="positions" >
   <v>       0.00000000       0.00000000       0.00000000 </v>
   <v>       0.25000000       0.25000000       0.25000000 </v>
  </varray>
 </structure>
 <calculation>
  <scstep>
   <time name="dav">    0.65    0.66</time>
   <time name="total">    0.70    0.70</time>
   <energy>
    <i name="alphaZ">      3.10345383 </i>
    <i name="ewald">   -222.50028960 </i>
    <i name="hartreedc">    -12.24488298 </i>
    <i name="XCdc">    -18.91120054 </i>
    <i name="pawpsdc">     65.95520812 </i>
    <i name="pawaedc">    -30.76852678 </i>
    <i name="eentropy">     -0.00570622 </i>
    <i name="bandstr">     12.11195270 </i>
    <i name="atom">    206.13125414 </i>
    <i name="e_fr_energy">      2.87126268 </i>
    <i name="e_wo_entrp">      2.87696890 </i>
    <i name="e_0_energy">      2.87411579 </i>
   </energy>
  </scstep>
  <scstep>
   <time name="dav">    0.98    1.00</time>
   <time name="total">    0.99    1.00</time>
   <energy>
    <i name="e_fr_energy">    -10.77049107 </i>
    <i name="e_wo_entrp">    -10.77049060 </i>
    <i name="e_0_energy">    -10.77049084 </i>
   </energy>
  </scstep>
  <scstep>
   <time name="dav">    0.82    0.82</time>
   <time name="total">    0.82    0.82</time>
   <energy>
    <i name="e_fr_energy">    -10.94611526 </i>
    <i name="e_wo_entrp">    -10.94611483 </i>
    <i name="e_0_energy">    -10.94611504 </i>
   </energy>
  </scstep>
  <scstep>
   <time name="dav">    1.07    1.07</time>
   <time name="total">    1.07    1.08</time>
   <energy>
    <i name="e_fr_energy">    -10.94684429 </i>
    <i name="e_wo_entrp">    -10.94684385 </i>
    <i name="e_0_energy">    -10.94684407 </i>
   </energy>
  </scstep>
  <scstep>
   <time name="dav">    0.82    0.83</time>
   <time name="total">    0.88    0.88</time>
   <energy>
    <i name="e_fr_energy">    -10.94684474 </i>
    <i name="e_wo_entrp">    -10.94684430 </i>
    <i name="e_0_energy">    -10.94684452 </i>
   </energy>
  </scstep>
  <scstep>
   <time name="dav">    0.82    0.82</time>
   <time name="total">    0.90    0.91</time>
   <energy>
    <i name="e_fr_energy">    -10.85373071 </i>
    <i name="e_wo_entrp">    -10.85372843 </i>
    <i name="e_0_energy">    -10.85372957 </i>
   </energy>
  </scstep>
  <scstep>
   <time name="dav">    0.79    0.79</time>
   <time name="total">    0.87    0.88</time>
   <energy>
    <i name="e_fr_energy">    -10.80838065 </i>
    <i name="e_wo_entrp">    -10.80836465 </i>
    <i name="e_0_energy">    -10.80837265 </i>
   </energy>
  </scstep>
  <scstep>
   <time name="dav">    0.78    0.78</time>
   <time name="total">    0.86    0.87</time>
   <energy>
    <i name="e_fr_energy">    -10.80972215 </i>
    <i name="e_wo_entrp">    -10.80970979 </i>
    <i name="e_0_energy">    -10.80971597 </i>
   </energy>
  </scstep>
  <scstep>
   <time name="dav">    0.54    0.55</time>
   <time name="total">    0.58    0.59</time>
   <energy>
    <i name="alphaZ">      3.10345383 </i>
    <i name="ewald">   -222.50028960 </i>
    <i name="hartreedc">    -15.87838943 </i>
    <i name="XCdc">    -18.32532384 </i>
    <i name="pawpsdc">     71.93317036 </i>
    <i name="pawaedc">    -36.90403404 </i>
    <i name="eentropy">     -0.00001215 </i>
    <i name="bandstr">      1.63033407 </i>
    <i name="atom">    206.13125414 </i>
    <i name="e_fr_energy">    -10.80983666 </i>
    <i name="e_wo_entrp">    -10.80982450 </i>
    <i name="e_0_energy">    -10.80983058 </i>
   </energy>
  </scstep>
  <structure>
   <crystal>
    <varray name="basis" >
     <v>       0.00000000       2.78898500       2.78898500 </v>
     <v>       2.78898500       0.00000000       2.78898500 </v>
     <v>       2.78898500       2.78898500       0.00000000 </v>
    </varray>
    <i name="volume">     43.38789007 </i>
    <varray name="rec_basis" >
     <v>      -0.17927669       0.17927669       0.17927669 </v>
     <v>       0.17927669      -0.17927669       0.17927669 </v>
     <v>       0.17927669       0.17927669      -0.17927669 </v>
    </varray>
   </crystal>
   <varray name="positions" >
    <v>       0.00000000       0.00000000       0.00000000 </v>
    <v>       0.25000000       0.25000000       0.25000000 </v>
   </varray>
  </structure>
  <varray name="forces" >
   <v>       0.00000000       0.00000000       0.00000000 </v>
   <v>      -0.00000000      -0.00000000      -0.00000000 </v>
  </varray>
  <varray name="stress" >
   <v>     -46.47186767      -0.00000000       0.00000000 </v>
   <v>      -0.00000000     -46.47186767      -0.00000000 </v>
   <v>       0.00000000       0.00000000     -46.47186767 </v>
  </varray>
  <energy>
   <i name="e_fr_energy">    -10.80983666 </i>
   <i name="e_wo_entrp">    -10.80983058 </i>
   <i name="e_0_energy">     -0.00001215 </i>
  </energy>
  <time name="totalsc">    9.03    9.66</time>
  <eigenvalues>
   <array>
    <dimension dim="1">band</dimension>
    <dimension dim="2">kpoint</dimension>
    <dimension dim="3">spin</dimension>
    <field>eigene</field>
    <field>occ</field>
    <set>
     <set comment="spin 1">
      <set comment="kpoint 1">
       <r>   -6.3355    1.0000 </r>
       <r>    4.4990    1.0000 </r>
       <r>    4.9648    0.9993 </r>
       <r>    4.9648    0.9993 </r>
       <r>    7.4752    0.0000 </r>
       <r>    7.6866    0.0000 </r>
       <r>    7.6866    0.0000 </r>
       <r>    8.0741    0.0000 </r>
      </set>
      <set comment="kpoint 2">
       <r>   -6.0828    1.0000 </r>
       <r>    3.0186    1.0000 </r>
       <r>    4.2123    1.0000 </r>
       <r>    4.8486    1.0000 </r>
       <r>    7.4838    0.0000 </r>
       <r>    7.9212    0.0000 </r>
       <r>    8.1626    0.0000 </r>
       <r>    9.6188    0.0000 </r>
      </set>
      <set comment="kpoint 3">
       <r>   -5.4746    1.0000 </r>
       <r>    0.9043    1.0000 </r>
       <r>    3.7399    1.0000 </r>
       <r>    4.4112    1.0000 </r>
       <r>    7.0345    0.0000 </r>
       <r>    8.4130    0.0000 </r>
       <r>    8.6815    0.0000 </r>
       <r>   11.2767    0.0000 </r>
      </set>
      <set comment="kpoint 4">
       <r>   -4.6347    1.0000 </r>
       <r>   -0.8717    1.0000 </r>
       <r>    3.5255    1.0000 </r>
       <r>    4.0263    1.0000 </r>
       <r>    6.7246    0.0000 </r>
       <r>    8.5153    0.0000 </r>
       <r>    8.5298    0.0000 </r>
       <r>   12.6344    0.0000 </r>
      </set>
      <set comment="kpoint 5">
       <r>   -4.2267    1.0000 </r>
       <r>   -1.5194    1.0000 </r>
       <r>    3.5661    1.0000 </r>
       <r>    3.8228    1.0000 </r>
       <r>    6.6481    0.0000 </r>
       <r>    8.3430    0.0000 </r>
       <r>    8.5972    0.0000 </r>
       <r>   12.7696    0.0000 </r>
      </set>
      <set comment="kpoint 6">
       <r>   -4.9205    1.0000 </r>
       <r>   -0.3492    1.0000 </r>
       <r>    3.8359    1.0000 </r>
       <r>    3.8478    1.0000 </r>
       <r>    6.8172    0.0000 </r>
       <r>    8.3243    0.0000 </r>
       <r>    8.8193    0.0000 </r>
       <r>   11.7942    0.0000 </r>
      </set>
      <set comment="kpoint 7">
       <r>   -5.7126    1.0000 </r>
       <r>    1.5962    1.0000 </r>
       <r>    4.1142    1.0000 </r>
       <r>    4.2785    1.0000 </r>
       <r>    7.1871    0.0000 </r>
       <r>    8.1220    0.0000 </r>
       <r>    8.8251    0.0000 </r>
       <r>   10.5506    0.0000 </r>
      </set>
      <set comment="kpoint 8">
       <r>   -6.2084    1.0000 </r>
       <r>    3.7430    1.0000 </r>
       <r>    4.5705    1.0000 </r>
       <r>    4.7024    1.0000 </r>
       <r>    7.4073    0.0000 </r>
       <r>    7.8100    0.0000 </r>
       <r>    8.2270    0.0000 </r>
       <r>    8.8636    0.0000 </r>
      </set>
      <set comment="kpoint 9">
       <r>   -5.9555    1.0000 </r>
       <r>    2.8461    1.0000 </r>
       <r>    4.0486    1.0000 </r>
       <r>    4.1080    1.0000 </r>
       <r>    7.0186    0.0000 </r>
       <r>    8.5049    0.0000 </r>
       <r>    9.0361    0.0000 </r>
       <r>    9.4397    0.0000 </r>
      </set>
      <set comment="kpoint 10">
       <r>   -5.4617    1.0000 </r>
       <r>    1.4076    1.0000 </r>
       <r>    3.1335    1.0000 </r>
       <r>    3.8660    1.0000 </r>
       <r>    7.1753    0.0000 </r>
       <r>    8.6112    0.0000 </r>
       <r>    9.4885    0.0000 </r>
       <r>    9.8009    0.0000 </r>
      </set>
      <set comment="kpoint 11">
       <r>   -4.6710    1.0000 </r>
       <r>   -0.3308    1.0000 </r>
       <r>    2.6408    1.0000 </r>
       <r>    3.4880    1.0000 </r>
       <r>    7.3327    0.0000 </r>
       <r>    8.6645    0.0000 </r>
       <r>    9.8310    0.0000 </r>
       <r>   10.1753    0.0000 </r>
      </set>
      <set comment="kpoint 12">
       <r>   -3.9721    1.0000 </r>
       <r>   -1.4495    1.0000 </r>
       <r>    2.3601    1.0000 </r>
       <r>    3.4030    1.0000 </r>
       <r>    7.3642    0.0000 </r>
       <r>    8.4453    0.0000 </r>
       <r>    9.7117    0.0000 </r>
       <r>   12.0557    0.0000 </r>
      </set>
      <set comment="kpoint 13">
       <r>   -4.3903    1.0000 </r>
       <r>   -0.8137    1.0000 </r>
       <r>    2.3022    1.0000 </r>
       <r>    3.6661    1.0000 </r>
       <r>    7.5835    0.0000 </r>
       <r>    8.4009    0.0000 </r>
       <r>    9.6465    0.0000 </r>
       <r>   11.3532    0.0000 </r>
      </set>
      <set comment="kpoint 14">
       <r>   -5.2293    1.0000 </r>
       <r>    0.7981    1.0000 </r>
       <r>    2.6126    1.0000 </r>
       <r>    4.1378    1.0000 </r>
       <r>    7.8936    0.0000 </r>
       <r>    8.2486    0.0000 </r>
       <r>    9.5141    0.0000 </r>
       <r>   10.0305    0.0000 </r>
      </set>
      <set comment="kpoint 15">
       <r>   -5.8329    1.0000 </r>
       <r>    2.2200    1.0000 </r>
       <r>    3.6704    1.0000 </r>
       <r>    4.4854    1.0000 </r>
       <r>    7.5221    0.0000 </r>
       <r>    8.0295    0.0000 </r>
       <r>    8.8616    0.0000 </r>
       <r>    9.9832    0.0000 </r>
      </set>
      <set comment="kpoint 16">
       <r>   -5.0835    1.0000 </r>
       <r>    0.8861    1.0000 </r>
       <r>    3.0010    1.0000 </r>
       <r>    3.1152    1.0000 </r>
       <r>    6.2606    0.0000 </r>
       <r>    7.8710    0.0000 </r>
       <r>   10.7783    0.0000 </r>
       <r>   10.9444    0.0000 </r>
      </set>
      <set comment="kpoint 17">
       <r>   -4.3773    1.0000 </r>
       <r>   -0.2884    1.0000 </r>
       <r>    2.2679    1.0000 </r>
       <r>    2.7924    1.0000 </r>
       <r>    6.5641    0.0000 </r>
       <r>    7.7194    0.0000 </r>
       <r>   10.7472    0.0000 </r>
       <r>   11.8835    0.0000 </r>
      </set>
      <set comment="kpoint 18">
       <r>   -3.5443    1.0000 </r>
       <r>   -1.4030    1.0000 </r>
       <r>    1.4821    1.0000 </r>
       <r>    2.7619    1.0000 </r>
       <r>    6.7964    0.0000 </r>
       <r>    9.2992    0.0000 </r>
       <r>   10.3429    0.0000 </r>
       <r>   11.7976    0.0000 </r>
      </set>
      <set comment="kpoint 19">
       <r>   -3.6148    1.0000 </r>
       <r>   -1.3119    1.0000 </r>
       <r>    1.1590    1.0000 </r>
       <r>    3.0821    1.0000 </r>
       <r>    7.1635    0.0000 </r>
       <r>    9.9609    0.0000 </r>
       <r>   11.1466    0.0000 </r>
       <r>   11.5853    0.0000 </r>
      </set>
      <set comment="kpoint 20">
       <r>   -4.4483    1.0000 </r>
       <r>   -0.3957    1.0000 </r>
       <r>    1.7135    1.0000 </r>
       <r>    3.6263    1.0000 </r>
       <r>    7.7097    0.0000 </r>
       <r>    8.9059    0.0000 </r>
       <r>   10.2236    0.0000 </r>
       <r>   10.5645    0.0000 </r>
      </set>
      <set comment="kpoint 21">
       <r>   -5.1242    1.0000 </r>
       <r>    0.2571    1.0000 </r>
       <r>    3.2213    1.0000 </r>
       <r>    4.0426    1.0000 </r>
       <r>    7.3294    0.0000 </r>
       <r>    8.3097    0.0000 </r>
       <r>    9.1372    0.0000 </r>
       <r>   10.7741    0.0000 </r>
      </set>
      <set comment="kpoint 22">
       <r>   -3.7601    1.0000 </r>
       <r>   -1.1113    1.0000 </r>
       <r>    2.3565    1.0000 </r>
       <r>    2.5536    1.0000 </r>
       <r>    5.9043    0.0003 </r>
       <r>    6.6057    0.0000 </r>
       <r>   12.9551    0.0000 </r>
       <r>   13.0020    0.0000 </r>
      </set>
      <set comment="kpoint 23">
       <r>   -2.9074    1.0000 </r>
       <r>   -2.0476    1.0000 </r>
       <r>    1.8455    1.0000 </r>
       <r>    2.3315    1.0000 </r>
       <r>    6.3214    0.0000 </r>
       <r>    7.0111    0.0000 </r>
       <r>   12.7444    0.0000 </r>
       <r>   13.6447    0.0000 </r>
      </set>
      <set comment="kpoint 24">
       <r>   -3.0142    1.0000 </r>
       <r>   -1.8804    1.0000 </r>
       <r>    1.1743    1.0000 </r>
       <r>    2.6266    1.0000 </r>
       <r>    6.6612    0.0000 </r>
       <r>    9.1435    0.0000 </r>
       <r>   11.2975    0.0000 </r>
       <r>   12.3516    0.0000 </r>
      </set>
      <set comment="kpoint 25">
       <r>   -3.7300    1.0000 </r>
       <r>   -1.4364    1.0000 </r>
       <r>    1.6485    1.0000 </r>
       <r>    3.1881    1.0000 </r>
       <r>    7.2631    0.0000 </r>
       <r>    9.1350    0.0000 </r>
       <r>   10.5933    0.0000 </r>
       <r>   11.8202    0.0000 </r>
      </set>
      <set comment="kpoint 26">
       <r>   -4.2992    1.0000 </r>
       <r>   -1.2537    1.0000 </r>
       <r>    3.0425    1.0000 </r>
       <r>    3.7313    1.0000 </r>
       <r>    7.1143    0.0000 </r>
       <r>    8.2791    0.0000 </r>
       <r>    8.9904    0.0000 </r>
       <r>   12.3778    0.0000 </r>
      </set>
      <set comment="kpoint 27">
       <r>   -2.9517    1.0000 </r>
       <r>   -2.0614    1.0000 </r>
       <r>    2.2269    1.0000 </r>
       <r>    2.4387    1.0000 </r>
       <r>    5.9133    0.0002 </r>
       <r>    6.2573    0.0000 </r>
       <r>   13.9765    0.0000 </r>
       <r>   14.0116    0.0000 </r>
      </set>
      <set comment="kpoint 28">
       <r>   -3.6823    1.0000 </r>
       <r>   -1.1727    1.0000 </r>
       <r>    1.9901    1.0000 </r>
       <r>    2.4826    1.0000 </r>
       <r>    6.3957    0.0000 </r>
       <r>    7.2577    0.0000 </r>
       <r>   11.7231    0.0000 </r>
       <r>   12.9729    0.0000 </r>
      </set>
      <set comment="kpoint 29">
       <r>   -4.1327    1.0000 </r>
       <r>   -0.8748    1.0000 </r>
       <r>    2.0192    1.0000 </r>
       <r>    3.0428    1.0000 </r>
       <r>    7.0459    0.0000 </r>
       <r>    9.4441    0.0000 </r>
       <r>    9.6121    0.0000 </r>
       <r>   10.8086    0.0000 </r>
      </set>
      <set comment="kpoint 30">
       <r>   -4.4744    1.0000 </r>
       <r>   -0.1206    1.0000 </r>
       <r>    2.6153    1.0000 </r>
       <r>    2.7809    1.0000 </r>
       <r>    6.0187    0.0000 </r>
       <r>    7.1587    0.0000 </r>
       <r>   11.8507    0.0000 </r>
       <r>   11.9625    0.0000 </r>
      </set>
      <set comment="kpoint 31">
       <r>   -4.9740    1.0000 </r>
       <r>    0.5748    1.0000 </r>
       <r>    2.6572    1.0000 </r>
       <r>    3.2644    1.0000 </r>
       <r>    6.8308    0.0000 </r>
       <r>    8.3367    0.0000 </r>
       <r>    9.8551    0.0000 </r>
       <r>   10.8135    0.0000 </r>
      </set>
      <set comment="kpoint 32">
       <r>   -5.5792    1.0000 </r>
       <r>    1.8836    1.0000 </r>
       <r>    3.5071    1.0000 </r>
       <r>    3.5454    1.0000 </r>
       <r>    6.6077    0.0000 </r>
       <r>    8.6000    0.0000 </r>
       <r>    9.8162    0.0000 </r>
       <r>    9.9613    0.0000 </r>
      </set>
      <set comment="kpoint 33">
       <r>   -5.9588    1.0000 </r>
       <r>    2.3382    1.0000 </r>
       <r>    4.5495    1.0000 </r>
       <r>    4.5495    1.0000 </r>
       <r>    7.0331    0.0000 </r>
       <r>    8.2739    0.0000 </r>
       <r>    8.2739    0.0000 </r>
       <r>   10.2219    0.0000 </r>
      </set>
      <set comment="kpoint 34">
       <r>   -5.5895    1.0000 </r>
       <r>    1.5046    1.0000 </r>
       <r>    3.1326    1.0000 </r>
       <r>    4.5580    1.0000 </r>
       <r>    7.6849    0.0000 </r>
       <r>    8.3968    0.0000 </r>
       <r>    8.6571    0.0000 </r>
       <r>   10.4793    0.0000 </r>
      </set>
      <set comment="kpoint 35">
       <r>   -4.8881    1.0000 </r>
       <r>    0.1861    1.0000 </r>
       <r>    2.1171    1.0000 </r>
       <r>    4.0850    1.0000 </r>
       <r>    7.6264    0.0000 </r>
       <r>    9.1224    0.0000 </r>
       <r>    9.2921    0.0000 </r>
       <r>   10.7695    0.0000 </r>
      </set>
      <set comment="kpoint 36">
       <r>   -4.0588    1.0000 </r>
       <r>   -1.1965    1.0000 </r>
       <r>    1.9497    1.0000 </r>
       <r>    3.5883    1.0000 </r>
       <r>    7.2022    0.0000 </r>
       <r>    9.2391    0.0000 </r>
       <r>    9.5343    0.0000 </r>
       <r>   12.5789    0.0000 </r>
      </set>
      <set comment="kpoint 37">
       <r>   -4.0434    1.0000 </r>
       <r>   -1.2238    1.0000 </r>
       <r>    2.2238    1.0000 </r>
       <r>    3.2924    1.0000 </r>
       <r>    6.9673    0.0000 </r>
       <r>    9.2800    0.0000 </r>
       <r>    9.8671    0.0000 </r>
       <r>   10.7806    0.0000 </r>
      </set>
      <set comment="kpoint 38">
       <r>   -4.8708    1.0000 </r>
       <r>    0.1831    1.0000 </r>
       <r>    2.8057    1.0000 </r>
       <r>    3.2740    1.0000 </r>
       <r>    6.9125    0.0000 </r>
       <r>    8.9563    0.0000 </r>
       <r>    9.6064    0.0000 </r>
       <r>   10.1908    0.0000 </r>
      </set>
      <set comment="kpoint 39">
       <r>   -5.3479    1.0000 </r>
       <r>    0.8792    1.0000 </r>
       <r>    3.5742    1.0000 </r>
       <r>    3.6683    1.0000 </r>
       <r>    7.2420    0.0000 </r>
       <r>    8.4594    0.0000 </r>
       <r>    9.4733    0.0000 </r>
       <r>    9.9037    0.0000 </r>
      </set>
      <set comment="kpoint 40">
       <r>   -4.7592    1.0000 </r>
       <r>    0.1072    1.0000 </r>
       <r>    2.1710    1.0000 </r>
       <r>    3.4809    1.0000 </r>
       <r>    7.7454    0.0000 </r>
       <r>    8.6531    0.0000 </r>
       <r>    9.2837    0.0000 </r>
       <r>   10.6509    0.0000 </r>
      </set>
      <set comment="kpoint 41">
       <r>   -3.9269    1.0000 </r>
       <r>   -0.9496    1.0000 </r>
       <r>    1.4371    1.0000 </r>
       <r>    2.9575    1.0000 </r>
       <r>    8.1743    0.0000 </r>
       <r>    8.6557    0.0000 </r>
       <r>    9.8693    0.0000 </r>
       <r>   11.6999    0.0000 </r>
      </set>
      <set comment="kpoint 42">
       <r>   -3.4774    1.0000 </r>
       <r>   -1.5157    1.0000 </r>
       <r>    1.4294    1.0000 </r>
       <r>    2.6691    1.0000 </r>
       <r>    7.7462    0.0000 </r>
       <r>    8.9634    0.0000 </r>
       <r>   10.6180    0.0000 </r>
       <r>   11.7830    0.0000 </r>
      </set>
      <set comment="kpoint 43">
       <r>   -4.1897    1.0000 </r>
       <r>   -0.5869    1.0000 </r>
       <r>    1.8339    1.0000 </r>
       <r>    2.8339    1.0000 </r>
       <r>    7.4890    0.0000 </r>
       <r>    8.6731    0.0000 </r>
       <r>    9.4258    0.0000 </r>
       <r>   11.8060    0.0000 </r>
      </set>
      <set comment="kpoint 44">
       <r>   -4.2917    1.0000 </r>
       <r>   -0.5225    1.0000 </r>
       <r>    2.1385    1.0000 </r>
       <r>    2.9618    1.0000 </r>
       <r>    6.5696    0.0000 </r>
       <r>    8.5114    0.0000 </r>
       <r>   10.5567    0.0000 </r>
       <r>   10.9816    0.0000 </r>
      </set>
      <set comment="kpoint 45">
       <r>   -3.5379    1.0000 </r>
       <r>   -1.3037    1.0000 </r>
       <r>    1.6135    1.0000 </r>
       <r>    2.3366    1.0000 </r>
       <r>    7.3047    0.0000 </r>
       <r>    8.2846    0.0000 </r>
       <r>   10.2838    0.0000 </r>
       <r>   12.9189    0.0000 </r>
      </set>
      <set comment="kpoint 46">
       <r>   -2.7856    1.0000 </r>
       <r>   -2.0243    1.0000 </r>
       <r>    1.3266    1.0000 </r>
       <r>    1.8738    1.0000 </r>
       <r>    8.3826    0.0000 </r>
       <r>    9.3032    0.0000 </r>
       <r>    9.8339    0.0000 </r>
       <r>   10.8264    0.0000 </r>
      </set>
      <set comment="kpoint 47">
       <r>   -3.3515    1.0000 </r>
       <r>   -1.4943    1.0000 </r>
       <r>    1.3104    1.0000 </r>
       <r>    2.3155    1.0000 </r>
       <r>    8.4758    0.0000 </r>
       <r>    8.8663    0.0000 </r>
       <r>    9.5605    0.0000 </r>
       <r>   11.9424    0.0000 </r>
      </set>
      <set comment="kpoint 48">
       <r>   -2.9340    1.0000 </r>
       <r>   -1.9955    1.0000 </r>
       <r>    1.4219    1.0000 </r>
       <r>    2.6382    1.0000 </r>
       <r>    6.1736    0.0000 </r>
       <r>    7.9758    0.0000 </r>
       <r>   12.6866    0.0000 </r>
       <r>   12.8008    0.0000 </r>
      </set>
      <set comment="kpoint 49">
       <r>   -2.8390    1.0000 </r>
       <r>   -2.0318    1.0000 </r>
       <r>    1.5093    1.0000 </r>
       <r>    2.0673    1.0000 </r>
       <r>    7.2108    0.0000 </r>
       <r>    8.0856    0.0000 </r>
       <r>   11.2491    0.0000 </r>
       <r>   12.3093    0.0000 </r>
      </set>
      <set comment="kpoint 50">
       <r>   -3.6285    1.0000 </r>
       <r>   -1.2612    1.0000 </r>
       <r>    1.6634    1.0000 </r>
       <r>    2.7472    1.0000 </r>
       <r>    6.3109    0.0000 </r>
       <r>    8.1545    0.0000 </r>
       <r>   11.6622    0.0000 </r>
       <r>   11.8426    0.0000 </r>
      </set>
      <set comment="kpoint 51">
       <r>   -5.2487    1.0000 </r>
       <r>    0.2436    1.0000 </r>
       <r>    4.1548    1.0000 </r>
       <r>    4.1548    1.0000 </r>
       <r>    6.5832    0.0000 </r>
       <r>    8.5357    0.0000 </r>
       <r>    8.5357    0.0000 </r>
       <r>   12.2940    0.0000 </r>
      </set>
      <set comment="kpoint 52">
       <r>   -4.7993    1.0000 </r>
       <r>   -0.3200    1.0000 </r>
       <r>    2.7639    1.0000 </r>
       <r>    4.0698    1.0000 </r>
       <r>    7.3309    0.0000 </r>
       <r>    8.7431    0.0000 </r>
       <r>    8.7977    0.0000 </r>
       <r>   11.7695    0.0000 </r>
      </set>
      <set comment="kpoint 53">
       <r>   -4.0579    1.0000 </r>
       <r>   -0.8756    1.0000 </r>
       <r>    1.3608    1.0000 </r>
       <r>    3.5291    1.0000 </r>
       <r>    7.1568    0.0000 </r>
       <r>   10.0994    0.0000 </r>
       <r>   10.2209    0.0000 </r>
       <r>   11.4946    0.0000 </r>
      </set>
      <set comment="kpoint 54">
       <r>   -3.2934    1.0000 </r>
       <r>   -1.6308    1.0000 </r>
       <r>    1.0579    1.0000 </r>
       <r>    3.0174    1.0000 </r>
       <r>    6.6043    0.0000 </r>
       <r>   10.3469    0.0000 </r>
       <r>   11.3083    0.0000 </r>
       <r>   11.4544    0.0000 </r>
      </set>
      <set comment="kpoint 55">
       <r>   -4.5075    1.0000 </r>
       <r>   -0.8423    1.0000 </r>
       <r>    3.0642    1.0000 </r>
       <r>    3.5465    1.0000 </r>
       <r>    7.1231    0.0000 </r>
       <r>    8.4756    0.0000 </r>
       <r>    9.2676    0.0000 </r>
       <r>   11.2078    0.0000 </r>
      </set>
      <set comment="kpoint 56">
       <r>   -3.9288    1.0000 </r>
       <r>   -1.2128    1.0000 </r>
       <r>    1.8515    1.0000 </r>
       <r>    3.1102    1.0000 </r>
       <r>    7.8975    0.0000 </r>
       <r>    8.3102    0.0000 </r>
       <r>   10.6378    0.0000 </r>
       <r>   10.9914    0.0000 </r>
      </set>
      <set comment="kpoint 57">
       <r>   -3.1619    1.0000 </r>
       <r>   -1.7033    1.0000 </r>
       <r>    1.1446    1.0000 </r>
       <r>    2.4480    1.0000 </r>
       <r>    7.6315    0.0000 </r>
       <r>    9.7919    0.0000 </r>
       <r>   10.5024    0.0000 </r>
       <r>   10.9808    0.0000 </r>
      </set>
      <set comment="kpoint 58">
       <r>   -3.5957    1.0000 </r>
       <r>   -1.4890    1.0000 </r>
       <r>    1.4988    1.0000 </r>
       <r>    3.1112    1.0000 </r>
       <r>    6.7381    0.0000 </r>
       <r>   10.2884    0.0000 </r>
       <r>   10.5358    0.0000 </r>
       <r>   10.5871    0.0000 </r>
      </set>
      <set comment="kpoint 59">
       <r>   -4.4255    1.0000 </r>
       <r>   -1.2997    1.0000 </r>
       <r>    3.9422    1.0000 </r>
       <r>    3.9422    1.0000 </r>
       <r>    6.3327    0.0000 </r>
       <r>    8.4360    0.0000 </r>
       <r>    8.4360    0.0000 </r>
       <r>   12.6889    0.0000 </r>
      </set>
      <set comment="kpoint 60">
       <r>   -4.1002    1.0000 </r>
       <r>   -1.4747    1.0000 </r>
       <r>    2.7698    1.0000 </r>
       <r>    3.6943    1.0000 </r>
       <r>    7.1166    0.0000 </r>
       <r>    8.5101    0.0000 </r>
       <r>    8.9813    0.0000 </r>
       <r>   12.9504    0.0000 </r>
      </set>
     </set>
    </set>
   </array>
  </eigenvalues>
  <separator name="orbital magnetization" >
   <v name="MAGDIPOLOUT">      0.00000000      0.00000000      0.00000000</v>
  </separator>
  <dos>
   <i name="efermi">      5.41589954 </i>
   <total>
    <array>
     <dimension dim="1">gridpoints</dimension>
     <dimension dim="2">spin</dimension>
     <field>energy</field>
     <field>total</field>
     <field>integrated</field>
     <set>
      <set comment="spin 1">
       <r>    -8.3355     0.0000     0.0000 </r>
       <r>    -8.2544     0.0000     0.0000 </r>
       <r>    -8.1732     0.0000     0.0000 </r>
       <r>    -8.0921     0.0000     0.0000 </r>
       <r>    -8.0109     0.0000     0.0000 </r>
       <r>    -7.9297     0.0000     0.0000 </r>
       <r>    -7.8486     0.0000     0.0000 </r>
       <r>    -7.7674     0.0000     0.0000 </r>
       <r>    -7.6863     0.0000     0.0000 </r>
       <r>    -7.6051     0.0000     0.0000 </r>
       <r>    -7.5240     0.0000     0.0000 </r>
       <r>    -7.4428     0.0000     0.0000 </r>
       <r>    -7.3616     0.0000     0.0000 </r>
       <r>    -7.2805     0.0000     0.0000 </r>
       <r>    -7.1993     0.0000     0.0000 </r>
       <r>    -7.1182     0.0000     0.0000 </r>
       <r>    -7.0370     0.0000     0.0000 </r>
       <r>    -6.9559     0.0000     0.0000 </r>
       <r>    -6.8747     0.0000     0.0000 </r>
       <r>    -6.7935     0.0001     0.0000 </r>
       <r>    -6.7124     0.0004     0.0000 </r>
       <r>    -6.6312     0.0018     0.0002 </r>
       <r>    -6.5501     0.0065     0.0007 </r>
       <r>    -6.4689     0.0184     0.0022 </r>
       <r>    -6.3878     0.0417     0.0056 </r>
       <r>    -6.3066     0.0767     0.0118 </r>
       <r>    -6.2254     0.1181     0.0214 </r>
       <r>    -6.1443     0.1586     0.0343 </r>
       <r>    -6.0631     0.1953     0.0501 </r>
       <r>    -5.9820     0.2300     0.0688 </r>
       <r>    -5.9008     0.2615     0.0900 </r>
       <r>    -5.8197     0.2841     0.1131 </r>
       <r>    -5.7385     0.2991     0.1373 </r>
       <r>    -5.6573     0.3200     0.1633 </r>
       <r>    -5.5762     0.3551     0.1921 </r>
       <r>    -5.4950     0.3902     0.2238 </r>
       <r>    -5.4139     0.4058     0.2567 </r>
       <r>    -5.3327     0.4063     0.2897 </r>
       <r>    -5.2516     0.4151     0.3234 </r>
       <r>    -5.1704     0.4419     0.3593 </r>
       <r>    -5.0892     0.4775     0.3980 </r>
       <r>    -5.0081     0.5137     0.4397 </r>
       <r>    -4.9269     0.5478     0.4842 </r>
       <r>    -4.8458     0.5722     0.5306 </r>
       <r>    -4.7646     0.5770     0.5774 </r>
       <r>    -4.6835     0.5677     0.6235 </r>
       <r>    -4.6023     0.5737     0.6701 </r>
       <r>    -4.5211     0.6297     0.7212 </r>
       <r>    -4.4400     0.7315     0.7805 </r>
       <r>    -4.3588     0.8272     0.8477 </r>
       <r>    -4.2777     0.8745     0.9186 </r>
       <r>    -4.1965     0.8836     0.9903 </r>
       <r>    -4.1154     0.8839     1.0621 </r>
       <r>    -4.0342     0.8749     1.1331 </r>
       <r>    -3.9530     0.8349     1.2008 </r>
       <r>    -3.8719     0.7717     1.2635 </r>
       <r>    -3.7907     0.7397     1.3235 </r>
       <r>    -3.7096     0.7810     1.3869 </r>
       <r>    -3.6284     0.8581     1.4565 </r>
       <r>    -3.5473     0.8803     1.5280 </r>
       <r>    -3.4661     0.7988     1.5928 </r>
       <r>    -3.3849     0.6500     1.6455 </r>
       <r>    -3.3038     0.5073     1.6867 </r>
       <r>    -3.2226     0.4198     1.7208 </r>
       <r>    -3.1415     0.4019     1.7534 </r>
       <r>    -3.0603     0.4493     1.7899 </r>
       <r>    -2.9792     0.5329     1.8331 </r>
       <r>    -2.8980     0.5914     1.8811 </r>
       <r>    -2.8168     0.5627     1.9268 </r>
       <r>    -2.7357     0.4376     1.9623 </r>
       <r>    -2.6545     0.2703     1.9842 </r>
       <r>    -2.5734     0.1301     1.9948 </r>
       <r>    -2.4922     0.0491     1.9988 </r>
       <r>    -2.4111     0.0211     2.0005 </r>
       <r>    -2.3299     0.0370     2.0035 </r>
       <r>    -2.2488     0.1102     2.0124 </r>
       <r>    -2.1676     0.2584     2.0334 </r>
       <r>    -2.0864     0.4506     2.0700 </r>
       <r>    -2.0053     0.5913     2.1180 </r>
       <r>    -1.9241     0.6044     2.1670 </r>
       <r>    -1.8430     0.5226     2.2094 </r>
       <r>    -1.7618     0.4576     2.2466 </r>
       <r>    -1.6807     0.5013     2.2873 </r>
       <r>    -1.5995     0.6754     2.3421 </r>
       <r>    -1.5183     0.9269     2.4173 </r>
       <r>    -1.4372     1.1544     2.5110 </r>
       <r>    -1.3560     1.2750     2.6145 </r>
       <r>    -1.2749     1.2654     2.7171 </r>
       <r>    -1.1937     1.1358     2.8093 </r>
       <r>    -1.1126     0.9301     2.8848 </r>
       <r>    -1.0314     0.7460     2.9454 </r>
       <r>    -0.9502     0.6634     2.9992 </r>
       <r>    -0.8691     0.6480     3.0518 </r>
       <r>    -0.7879     0.6018     3.1006 </r>
       <r>    -0.7068     0.5004     3.1412 </r>
       <r>    -0.6256     0.4132     3.1748 </r>
       <r>    -0.5445     0.4047     3.2076 </r>
       <r>    -0.4633     0.4721     3.2459 </r>
       <r>    -0.3821     0.5583     3.2912 </r>
       <r>    -0.3010     0.5845     3.3387 </r>
       <r>    -0.2198     0.5097     3.3800 </r>
       <r>    -0.1387     0.3770     3.4106 </r>
       <r>    -0.0575     0.2763     3.4331 </r>
       <r>     0.0236     0.2628     3.4544 </r>
       <r>     0.1048     0.3206     3.4804 </r>
       <r>     0.1860     0.3806     3.5113 </r>
       <r>     0.2671     0.3770     3.5419 </r>
       <r>     0.3483     0.3057     3.5667 </r>
       <r>     0.4294     0.2237     3.5849 </r>
       <r>     0.5106     0.1849     3.5999 </r>
       <r>     0.5917     0.1947     3.6157 </r>
       <r>     0.6729     0.2336     3.6346 </r>
       <r>     0.7541     0.2912     3.6583 </r>
       <r>     0.8352     0.3557     3.6871 </r>
       <r>     0.9164     0.4091     3.7203 </r>
       <r>     0.9975     0.4601     3.7577 </r>
       <r>     1.0787     0.5443     3.8018 </r>
       <r>     1.1598     0.6763     3.8567 </r>
       <r>     1.2410     0.8429     3.9251 </r>
       <r>     1.3222     1.0318     4.0089 </r>
       <r>     1.4033     1.2102     4.1071 </r>
       <r>     1.4845     1.3064     4.2131 </r>
       <r>     1.5656     1.2776     4.3168 </r>
       <r>     1.6468     1.1731     4.4120 </r>
       <r>     1.7279     1.0884     4.5003 </r>
       <r>     1.8091     1.0729     4.5874 </r>
       <r>     1.8903     1.0974     4.6765 </r>
       <r>     1.9714     1.1150     4.7670 </r>
       <r>     2.0526     1.1360     4.8592 </r>
       <r>     2.1337     1.2147     4.9577 </r>
       <r>     2.2149     1.3621     5.0683 </r>
       <r>     2.2960     1.5002     5.1900 </r>
       <r>     2.3772     1.5342     5.3146 </r>
       <r>     2.4584     1.4741     5.4342 </r>
       <r>     2.5395     1.4347     5.5506 </r>
       <r>     2.6207     1.4861     5.6712 </r>
       <r>     2.7018     1.5635     5.7981 </r>
       <r>     2.7830     1.5681     5.9254 </r>
       <r>     2.8641     1.5095     6.0479 </r>
       <r>     2.9453     1.4913     6.1689 </r>
       <r>     3.0265     1.5594     6.2955 </r>
       <r>     3.1076     1.6170     6.4267 </r>
       <r>     3.1888     1.5405     6.5517 </r>
       <r>     3.2699     1.3427     6.6607 </r>
       <r>     3.3511     1.1700     6.7556 </r>
       <r>     3.4322     1.1538     6.8493 </r>
       <r>     3.5134     1.2850     6.9536 </r>
       <r>     3.5945     1.4310     7.0697 </r>
       <r>     3.6757     1.4611     7.1883 </r>
       <r>     3.7569     1.3443     7.2974 </r>
       <r>     3.8380     1.1511     7.3908 </r>
       <r>     3.9192     0.9897     7.4711 </r>
       <r>     4.0003     0.9208     7.5459 </r>
       <r>     4.0815     0.9023     7.6191 </r>
       <r>     4.1626     0.8365     7.6870 </r>
       <r>     4.2438     0.6897     7.7430 </r>
       <r>     4.3250     0.5334     7.7862 </r>
       <r>     4.4061     0.4497     7.8227 </r>
       <r>     4.4873     0.4370     7.8582 </r>
       <r>     4.5684     0.4275     7.8929 </r>
       <r>     4.6496     0.3737     7.9232 </r>
       <r>     4.7307     0.2902     7.9468 </r>
       <r>     4.8119     0.2156     7.9643 </r>
       <r>     4.8931     0.1634     7.9775 </r>
       <r>     4.9742     0.1222     7.9874 </r>
       <r>     5.0554     0.0816     7.9941 </r>
       <r>     5.1365     0.0450     7.9977 </r>
       <r>     5.2177     0.0195     7.9993 </r>
       <r>     5.2988     0.0065     7.9998 </r>
       <r>     5.3800     0.0017     8.0000 </r>
       <r>     5.4612     0.0007     8.0000 </r>
       <r>     5.5423     0.0025     8.0002 </r>
       <r>     5.6235     0.0105     8.0011 </r>
       <r>     5.7046     0.0336     8.0038 </r>
       <r>     5.7858     0.0797     8.0103 </r>
       <r>     5.8669     0.1425     8.0218 </r>
       <r>     5.9481     0.2007     8.0381 </r>
       <r>     6.0293     0.2435     8.0579 </r>
       <r>     6.1104     0.2939     8.0818 </r>
       <r>     6.1916     0.3810     8.1127 </r>
       <r>     6.2727     0.4921     8.1526 </r>
       <r>     6.3539     0.5831     8.1999 </r>
       <r>     6.4350     0.6464     8.2524 </r>
       <r>     6.5162     0.7236     8.3111 </r>
       <r>     6.5974     0.8303     8.3785 </r>
       <r>     6.6785     0.9175     8.4530 </r>
       <r>     6.7597     0.9437     8.5295 </r>
       <r>     6.8408     0.9420     8.6060 </r>
       <r>     6.9220     0.9974     8.6869 </r>
       <r>     7.0031     1.1750     8.7823 </r>
       <r>     7.0843     1.4550     8.9004 </r>
       <r>     7.1655     1.7263     9.0405 </r>
       <r>     7.2466     1.8545     9.1910 </r>
       <r>     7.3278     1.7805     9.3355 </r>
       <r>     7.4089     1.5695     9.4629 </r>
       <r>     7.4901     1.3629     9.5735 </r>
       <r>     7.5712     1.2647     9.6761 </r>
       <r>     7.6524     1.2668     9.7789 </r>
       <r>     7.7336     1.2805     9.8828 </r>
       <r>     7.8147     1.2353     9.9831 </r>
       <r>     7.8959     1.1423    10.0758 </r>
       <r>     7.9770     1.0718    10.1628 </r>
       <r>     8.0582     1.0990    10.2520 </r>
       <r>     8.1393     1.2669    10.3548 </r>
       <r>     8.2205     1.5567    10.4811 </r>
       <r>     8.3017     1.8730    10.6331 </r>
       <r>     8.3828     2.0906    10.8028 </r>
       <r>     8.4640     2.1456    10.9769 </r>
       <r>     8.5451     2.0668    11.1447 </r>
       <r>     8.6263     1.9168    11.3002 </r>
       <r>     8.7074     1.7399    11.4414 </r>
       <r>     8.7886     1.5748    11.5692 </r>
       <r>     8.8698     1.4538    11.6872 </r>
       <r>     8.9509     1.3694    11.7984 </r>
       <r>     9.0321     1.3002    11.9039 </r>
       <r>     9.1132     1.2587    12.0060 </r>
       <r>     9.1944     1.2657    12.1087 </r>
       <r>     9.2755     1.3070    12.2148 </r>
       <r>     9.3567     1.3528    12.3246 </r>
       <r>     9.4378     1.3913    12.4375 </r>
       <r>     9.5190     1.4158    12.5524 </r>
       <r>     9.6002     1.4195    12.6676 </r>
       <r>     9.6813     1.4279    12.7835 </r>
       <r>     9.7625     1.4759    12.9033 </r>
       <r>     9.8436     1.5262    13.0272 </r>
       <r>     9.9248     1.4826    13.1475 </r>
       <r>    10.0059     1.3206    13.2547 </r>
       <r>    10.0871     1.1343    13.3467 </r>
       <r>    10.1683     1.0231    13.4297 </r>
       <r>    10.2494     0.9886    13.5100 </r>
       <r>    10.3306     0.9827    13.5897 </r>
       <r>    10.4117     1.0154    13.6721 </r>
       <r>    10.4929     1.1384    13.7645 </r>
       <r>    10.5740     1.3314    13.8726 </r>
       <r>    10.6552     1.4899    13.9935 </r>
       <r>    10.7364     1.5301    14.1177 </r>
       <r>    10.8175     1.4376    14.2343 </r>
       <r>    10.8987     1.2443    14.3353 </r>
       <r>    10.9798     1.0154    14.4177 </r>
       <r>    11.0610     0.8316    14.4852 </r>
       <r>    11.1421     0.7467    14.5458 </r>
       <r>    11.2233     0.7490    14.6066 </r>
       <r>    11.3045     0.7636    14.6686 </r>
       <r>    11.3856     0.7260    14.7275 </r>
       <r>    11.4668     0.6622    14.7812 </r>
       <r>    11.5479     0.6687    14.8355 </r>
       <r>    11.6291     0.8168    14.9018 </r>
       <r>    11.7102     1.0724    14.9888 </r>
       <r>    11.7914     1.2905    15.0936 </r>
       <r>    11.8726     1.3140    15.2002 </r>
       <r>    11.9537     1.1122    15.2905 </r>
       <r>    12.0349     0.8026    15.3556 </r>
       <r>    12.1160     0.5411    15.3995 </r>
       <r>    12.1972     0.4165    15.4333 </r>
       <r>    12.2783     0.4177    15.4672 </r>
       <r>    12.3595     0.4566    15.5043 </r>
       <r>    12.4407     0.4545    15.5412 </r>
       <r>    12.5218     0.4219    15.5754 </r>
       <r>    12.6030     0.4239    15.6098 </r>
       <r>    12.6841     0.4840    15.6491 </r>
       <r>    12.7653     0.5661    15.6950 </r>
       <r>    12.8464     0.6269    15.7459 </r>
       <r>    12.9276     0.6352    15.7975 </r>
       <r>    13.0088     0.5617    15.8430 </r>
       <r>    13.0899     0.4078    15.8761 </r>
       <r>    13.1711     0.2313    15.8949 </r>
       <r>    13.2522     0.1005    15.9031 </r>
       <r>    13.3334     0.0381    15.9062 </r>
       <r>    13.4145     0.0294    15.9086 </r>
       <r>    13.4957     0.0558    15.9131 </r>
       <r>    13.5769     0.0990    15.9211 </r>
       <r>    13.6580     0.1324    15.9319 </r>
       <r>    13.7392     0.1375    15.9430 </r>
       <r>    13.8203     0.1268    15.9533 </r>
       <r>    13.9015     0.1265    15.9636 </r>
       <r>    13.9826     0.1365    15.9747 </r>
       <r>    14.0638     0.1308    15.9853 </r>
       <r>    14.1450     0.0975    15.9932 </r>
       <r>    14.2261     0.0539    15.9976 </r>
       <r>    14.3073     0.0218    15.9993 </r>
       <r>    14.3884     0.0064    15.9999 </r>
       <r>    14.4696     0.0014    16.0000 </r>
       <r>    14.5507     0.0002    16.0000 </r>
       <r>    14.6319     0.0000    16.0000 </r>
       <r>    14.7131     0.0000    16.0000 </r>
       <r>    14.7942     0.0000    16.0000 </r>
       <r>    14.8754     0.0000    16.0000 </r>
       <r>    14.9565     0.0000    16.0000 </r>
       <r>    15.0377     0.0000    16.0000 </r>
       <r>    15.1188     0.0000    16.0000 </r>
       <r>    15.2000     0.0000    16.0000 </r>
       <r>    15.2811     0.0000    16.0000 </r>
       <r>    15.3623     0.0000    16.0000 </r>
       <r>    15.4435     0.0000    16.0000 </r>
       <r>    15.5246     0.0000    16.0000 </r>
       <r>    15.6058     0.0000    16.0000 </r>
       <r>    15.6869     0.0000    16.0000 </r>
       <r>    15.7681     0.0000    16.0000 </r>
       <r>    15.8492     0.0000    16.0000 </r>
       <r>    15.9304     0.0000    16.0000 </r>
       <r>    16.0116     0.0000    16.0000 </r>
      </set>
     </set>
    </array>
   </total>
  </dos>
 </calculation>
 <structure name="finalpos" >
  <crystal>
   <varray name="basis" >
    <v>       0.00000000       2.78898500       2.78898500 </v>
    <v>       2.78898500       0.00000000       2.78898500 </v>
    <v>       2.78898500       2.78898500       0.00000000 </v>
   </varray>
   <i name="volume">     43.38789007 </i>
   <varray name="rec_basis" >
    <v>      -0.17927669       0.17927669       0.17927669 </v>
    <v>       0.17927669      -0.17927669       0.17927669 </v>
    <v>       0.17927669       0.17927669      -0.17927669 </v>
   </varray>
  </crystal>
  <varray name="positions" >
   <v>       0.00000000       0.00000000       0.00000000 </v>
   <v>       0.25000000       0.25000000       0.25000000 </v>
  </varray>
 </structure>
</modeling>
