    2    2   15    1
  0.2001288E+02  0.3839590E-09  0.3839590E-09  0.3839590E-09  0.5000000E-15
  1.000000000000000E-004
  CAR 
 unknown system                          
      8     28      8
 
  0.8333333E-01  0.8333333E-01  0.8333333E-01  0.9259259E-02
    1       -6.109334   1.000000
    2        4.759552   1.000000
    3        5.476954   0.999535
    4        5.476954   0.999535
    5        8.182653   0.000000
    6        8.381915   0.000000
    7        8.381915   0.000000
    8        9.454358   0.000000
 
  0.2500000E+00  0.8333333E-01  0.8333333E-01  0.2777778E-01
    1       -5.639730   1.000000
    2        2.694032   1.000000
    3        4.260687   1.000000
    4        5.268071   0.999999
    5        8.268269   0.000000
    6        8.774156   0.000000
    7        9.120156   0.000000
    8       11.234758   0.000000
 
  0.4166667E+00  0.8333333E-01  0.8333333E-01  0.2777778E-01
    1       -4.565479   1.000000
    2       -0.030298   1.000000
    3        3.798300   1.000000
    4        4.640173   1.000000
    5        7.758819   0.000000
    6        9.168895   0.000000
    7        9.208807   0.000000
    8       13.024058   0.000000
 
 -0.4166667E+00  0.8333333E-01  0.8333333E-01  0.2777778E-01
    1       -3.882179   1.000000
    2       -1.153846   1.000000
    3        3.861233   1.000000
    4        4.266059   1.000000
    5        7.604555   0.000000
    6        8.890964   0.000000
    7        9.315252   0.000000
    8       13.488862   0.000000
 
 -0.2500000E+00  0.8333333E-01  0.8333333E-01  0.2777778E-01
    1       -4.970007   1.000000
    2        0.803815   1.000000
    3        4.326868   1.000000
    4        4.353294   1.000000
    5        7.859283   0.000000
    6        8.898605   0.000000
    7        9.689594   0.000000
    8       11.556077   0.000000
 
 -0.8333333E-01  0.8333333E-01  0.8333333E-01  0.2777778E-01
    1       -5.872212   1.000000
    2        3.694037   1.000000
    3        4.842401   1.000000
    4        5.020666   1.000000
    5        7.924479   0.000000
    6        8.779462   0.000000
    7        9.269363   0.000000
    8       10.383127   0.000000
 
  0.2500000E+00  0.2500000E+00  0.8333333E-01  0.2777778E-01
    1       -5.402029   1.000000
    2        2.497553   1.000000
    3        4.104599   1.000000
    4        4.123563   1.000000
    5        7.351730   0.000000
    6        9.465070   0.000000
    7       10.268512   0.000000
    8       10.477207   0.000000
 
  0.4166667E+00  0.2500000E+00  0.8333333E-01  0.5555556E-01
    1       -4.505762   1.000000
    2        0.678347   1.000000
    3        2.808957   1.000000
    4        3.741442   1.000000
    5        7.746187   0.000000
    6        9.356005   0.000000
    7       10.128350   0.000000
    8       11.577245   0.000000
 
 -0.4166667E+00  0.2500000E+00  0.8333333E-01  0.5555556E-01
    1       -3.411264   1.000000
    2       -1.039429   1.000000
    3        2.211498   1.000000
    4        3.519184   1.000000
    5        7.991345   0.000000
    6        9.527483   0.000000
    7       11.457047   0.000000
    8       11.840884   0.000000
 
 -0.2500000E+00  0.2500000E+00  0.8333333E-01  0.5555556E-01
    1       -4.118431   1.000000
    2       -0.002456   1.000000
    3        2.175774   1.000000
    4        3.996408   1.000000
    5        8.575055   0.000000
    6        9.208283   0.000000
    7       10.861916   0.000000
    8       11.339701   0.000000
 
 -0.8333333E-01  0.2500000E+00  0.8333333E-01  0.5555556E-01
    1       -5.180187   1.000000
    2        1.676329   1.000000
    3        3.495017   1.000000
    4        4.651697   1.000000
    5        8.222040   0.000000
    6        9.068492   0.000000
    7       10.142173   0.000000
    8       10.502207   0.000000
 
  0.4166667E+00  0.4166667E+00  0.8333333E-01  0.2777778E-01
    1       -3.804223   1.000000
    2       -0.146424   1.000000
    3        2.776293   1.000000
    4        3.109033   1.000000
    5        6.539149   0.000013
    6        7.508983   0.000000
    7       13.102379   0.000000
    8       13.168200   0.000000
 
 -0.4166667E+00  0.4166667E+00  0.8333333E-01  0.5555556E-01
    1       -2.628049   1.000000
    2       -1.468948   1.000000
    3        1.950904   1.000000
    4        2.711008   1.000000
    5        7.156615   0.000000
    6        8.265509   0.000000
    7       12.656982   0.000000
    8       14.106637   0.000000
 
 -0.2500000E+00  0.4166667E+00  0.8333333E-01  0.5555556E-01
    1       -2.997234   1.000000
    2       -1.130933   1.000000
    3        1.473962   1.000000
    4        3.247561   1.000000
    5        7.765730   0.000000
    6       10.644381   0.000000
    7       11.618783   0.000000
    8       12.273444   0.000000
 
 -0.8333333E-01  0.4166667E+00  0.8333333E-01  0.5555556E-01
    1       -4.009981   1.000000
    2       -0.665835   1.000000
    3        3.095524   1.000000
    4        4.091995   1.000000
    5        8.175278   0.000000
    6        8.826106   0.000000
    7       10.128363   0.000000
    8       12.326942   0.000000
 
 -0.4166667E+00 -0.4166667E+00  0.8333333E-01  0.2777778E-01
    1       -2.716585   1.000000
    2       -1.476025   1.000000
    3        2.511079   1.000000
    4        2.896579   1.000000
    5        6.430894   0.000297
    6        6.990861   0.000000
    7       14.578703   0.000000
    8       14.659137   0.000000
 
 -0.2500000E+00 -0.4166667E+00  0.8333333E-01  0.5555556E-01
    1       -3.639268   1.000000
    2       -0.365320   1.000000
    3        2.264549   1.000000
    4        3.046411   1.000000
    5        7.362582   0.000000
    6        8.632113   0.000000
    7       11.313608   0.000000
    8       13.109011   0.000000
 
 -0.2500000E+00 -0.2500000E+00  0.8333333E-01  0.2777778E-01
    1       -4.707646   1.000000
    2        1.204325   1.000000
    3        3.311284   1.000000
    4        3.525586   1.000000
    5        6.853363   0.000000
    6        8.411570   0.000000
    7       11.582105   0.000000
    8       11.790985   0.000000
 
  0.2500000E+00  0.2500000E+00  0.2500000E+00  0.9259259E-02
    1       -5.413813   1.000000
    2        1.730408   1.000000
    3        4.871784   1.000000
    4        4.871784   1.000000
    5        7.577943   0.000000
    6        9.109217   0.000000
    7        9.109217   0.000000
    8       12.369636   0.000000
 
  0.4166667E+00  0.2500000E+00  0.2500000E+00  0.2777778E-01
    1       -4.745307   1.000000
    2        0.798926   1.000000
    3        2.772979   1.000000
    4        4.703798   1.000000
    5        8.359366   0.000000
    6        9.597839   0.000000
    7        9.761295   0.000000
    8       11.664245   0.000000
 
 -0.4166667E+00  0.2500000E+00  0.2500000E+00  0.2777778E-01
    1       -3.586812   1.000000
    2       -0.628527   1.000000
    3        1.685532   1.000000
    4        3.930717   1.000000
    5        7.648612   0.000000
    6       10.901937   0.000000
    7       10.997074   0.000000
    8       12.700657   0.000000
 
 -0.2500000E+00  0.2500000E+00  0.2500000E+00  0.2777778E-01
    1       -3.534558   1.000000
    2       -0.707100   1.000000
    3        2.154178   1.000000
    4        3.456722   1.000000
    5        7.161195   0.000000
    6       10.052285   0.000000
    7       11.265707   0.000000
    8       11.497513   0.000000
 
  0.4166667E+00  0.4166667E+00  0.2500000E+00  0.2777778E-01
    1       -4.328346   1.000000
    2        0.004504   1.000000
    3        3.223581   1.000000
    4        3.824393   1.000000
    5        7.631802   0.000000
    6        9.811034   0.000000
    7       10.487295   0.000000
    8       10.644169   0.000000
 
 -0.4166667E+00  0.4166667E+00  0.2500000E+00  0.5555556E-01
    1       -3.342946   1.000000
    2       -0.745998   1.000000
    3        1.785038   1.000000
    4        3.045612   1.000000
    5        8.840906   0.000000
    6        9.365498   0.000000
    7       10.331404   0.000000
    8       13.030646   0.000000
 
 -0.2500000E+00  0.4166667E+00  0.2500000E+00  0.5555556E-01
    1       -2.525601   1.000000
    2       -1.476631   1.000000
    3        1.627729   1.000000
    4        2.390335   1.000000
    5        8.641630   0.000000
    6        9.897826   0.000000
    7       10.666060   0.000000
    8       12.045457   0.000000
 
 -0.4166667E+00 -0.4166667E+00  0.2500000E+00  0.2777778E-01
    1       -2.733515   1.000000
    2       -1.379631   1.000000
    3        1.503318   1.000000
    4        3.265036   1.000000
    5        6.888730   0.000000
    6        9.767459   0.000000
    7       12.651818   0.000000
    8       12.821132   0.000000
 
  0.4166667E+00  0.4166667E+00  0.4166667E+00  0.9259259E-02
    1       -4.243352   1.000000
    2       -0.759986   1.000000
    3        4.487422   1.000000
    4        4.487422   1.000000
    5        7.142552   0.000000
    6        9.020254   0.000000
    7        9.020254   0.000000
    8       13.398665   0.000000
 
 -0.4166667E+00  0.4166667E+00  0.4166667E+00  0.2777778E-01
    1       -3.649697   1.000000
    2       -1.062453   1.000000
    3        2.677125   1.000000
    4        4.055307   1.000000
    5        7.794249   0.000000
    6        9.640699   0.000000
    7       10.002617   0.000000
    8       13.517658   0.000000
