unknown system                          
   1.00000000000000     
    -2.480022    2.480022    1.250828
     2.480022   -2.480022    1.250828
     2.480022    2.480022   -1.250828
   Si
     2
Direct
  0.250000  0.750000  0.500000
  0.000000  0.000000  0.000000
 
   28   28   28
 -5.4712     -3.9373     0.52734E-01  4.9777      9.1508      11.457      11.708      10.515      8.8160      7.1994    
  5.8396      4.8018      4.0875      3.6732      3.5376      3.6731      4.0875      4.8019      5.8397      7.1993    
  8.8160      10.515      11.708      11.457      9.1509      4.9778     0.52618E-01 -3.9375     -3.9375     -4.7248    
 -2.5717      1.6587      6.3704      10.003      11.682      11.451      10.037      8.3397      6.7875      5.5160    
  4.5698      3.9402      3.6023      3.5376      3.7426      4.2286      5.0185      6.1327      7.5585      9.2124    
  10.874      11.843      11.213      8.5322      4.1969     -.52090     0.52618E-01 -2.5718     -2.6268     -.99712E-01
  3.9831      8.0818      10.872      11.773      11.040      9.4654      7.8085      6.3456      5.1794      4.3343    
  3.7938      3.5331      3.5375      3.8072      4.3562      5.2083      6.3792      7.8456      9.5091      11.109    
  11.897      11.059      8.3063      4.1969      4.9778      1.6587     -.99778E-01 0.43500      3.0248      6.5918    
  9.7714      11.550      11.646      10.481      8.8380      7.2520      5.8981      4.8475      4.1072      3.6553    
  3.4691      3.5376      3.8637      4.4638      5.3608      6.5656      8.0456      9.6923      11.224      11.911    
  11.059      8.5322      9.1509      6.3705      3.9831      3.0248      3.9213      6.2646      9.0371      11.136    
  11.887      11.272      9.8171      8.1908      6.7012      5.4689      4.5372      3.8995      3.5315      3.4135    
  3.5377      3.9093      4.5454      5.4676      6.6817      8.1481      9.7543      11.224      11.897      11.213    
  11.457      10.003      8.0818      6.5918      6.2647      7.2700      9.1244      10.960      11.981      11.830    
  10.693      9.1209      7.5608      6.1860      5.0801      4.2635      3.7209      3.4284      3.3692      3.5380    
  3.9413      4.5964      5.5226      6.7211      8.1481      9.6923      11.109      11.843      11.708      11.682    
  10.872      9.7714      9.0372      9.1245      10.021      11.254      12.162      12.251      11.429      10.008    
  8.4479      6.9831      5.7325      4.7496      4.0385      3.5797      3.3511      3.3384      3.5382      3.9578    
  4.6138      5.5226      6.6817      8.0456      9.5091      10.874      10.515      11.451      11.773      11.550    
  11.136      10.961      11.254      11.901      12.505      12.626      12.031      10.817      9.3298      7.8389    
  6.4877      5.3614      4.4912      3.8715      3.4821      3.3031      3.3227      3.5383      3.9578      4.5964    
  5.4676      6.5656      7.8456      9.2124      8.8160      10.037      11.040      11.646      11.887      11.981    
  12.163      12.505      12.858      12.933      12.493      11.502      10.164      8.7215      7.3294      6.0981    
  5.0874      4.3143      3.7689      3.4322      3.2869      3.3227      3.5382      3.9413      4.5454      5.3608    
  6.3792      7.5585      7.1993      8.3396      9.4654      10.481      11.272      11.830      12.251      12.626    
  12.933      13.032      12.749      12.004      10.890      9.5820      8.2259      6.9468      5.8304      4.9198    
  4.2245      3.7343      3.4322      3.3031      3.3384      3.5380      3.9093      4.4638      5.2083      6.1327    
  5.8397      6.7875      7.8085      8.8380      9.8172      10.693      11.429      12.031      12.493      12.749    
  12.692      12.245      11.433      10.353      9.1256      7.8767      6.7100      5.6943      4.8634      4.2245    
  3.7689      3.4821      3.3511      3.3692      3.5377      3.8637      4.3562      5.0185      4.8019      5.5161    
  6.3456      7.2519      8.1908      9.1210      10.008      10.817      11.502      12.004      12.245      12.156    
  11.714      10.953      9.9570      8.8349      7.6964      6.6299      5.6943      4.9198      4.3143      3.8715    
  3.5797      3.4284      3.4135      3.5376      3.8072      4.2286      4.0875      4.5699      5.1795      5.8981    
  6.7011      7.5608      8.4479      9.3299      10.164      10.890      11.433      11.714      11.676      11.306    
  10.637      9.7475      8.7352      7.6964      6.7100      5.8304      5.0874      4.4912      4.0385      3.7209    
  3.5315      3.4691      3.5375      3.7426      3.6731      3.9401      4.3343      4.8475      5.4689      6.1859    
  6.9830      7.8389      8.7215      9.5820      10.353      10.953      11.306      11.354      11.085      10.527    
  9.7475      8.8349      7.8767      6.9468      6.0981      5.3614      4.7496      4.2635      3.8995      3.6553    
  3.5331      3.5376      3.5376      3.6021      3.7937      4.1071      4.5372      5.0801      5.7325      6.4876    
  7.3294      8.2259      9.1256      9.9570      10.637      11.085      11.241      11.085      10.637      9.9570    
  9.1256      8.2259      7.3294      6.4877      5.7325      5.0801      4.5372      4.1072      3.7938      3.6023    
  3.6732      3.5376      3.5330      3.6552      3.8993      4.2634      4.7496      5.3614      6.0980      6.9468    
  7.8767      8.8349      9.7475      10.526      11.085      11.354      11.306      10.953      10.353      9.5820    
  8.7215      7.8389      6.9831      6.1860      5.4689      4.8475      4.3343      3.9402      4.0875      3.7426    
  3.5375      3.4690      3.5314      3.7208      4.0384      4.4912      5.0874      5.8304      6.7100      7.6964    
  8.7352      9.7475      10.637      11.306      11.676      11.714      11.433      10.890      10.164      9.3298    
  8.4479      7.5608      6.7012      5.8981      5.1794      4.5698      4.8018      4.2284      3.8071      3.5375    
  3.4135      3.4283      3.5796      3.8715      4.3142      4.9198      5.6943      6.6299      7.6964      8.8349    
  9.9570      10.953      11.714      12.156      12.245      12.004      11.502      10.817      10.008      9.1209    
  8.1908      7.2520      6.3456      5.5160      5.8396      5.0184      4.3561      3.8636      3.5377      3.3692    
  3.3510      3.4820      3.7688      4.2245      4.8634      5.6943      6.7100      7.8767      9.1256      10.353    
  11.433      12.245      12.692      12.749      12.493      12.031      11.429      10.693      9.8171      8.8380    
  7.8085      6.7875      7.1994      6.1327      5.2082      4.4637      3.9092      3.5380      3.3385      3.3031    
  3.4322      3.7342      4.2245      4.9198      5.8304      6.9468      8.2259      9.5820      10.890      12.004    
  12.749      13.032      12.933      12.626      12.251      11.830      11.272      10.481      9.4654      8.3397    
  8.8160      7.5586      6.3792      5.3608      4.5453      3.9412      3.5382      3.3228      3.2869      3.4322    
  3.7688      4.3142      5.0874      6.0980      7.3294      8.7215      10.164      11.502      12.493      12.933    
  12.858      12.505      12.162      11.981      11.887      11.646      11.040      10.037      10.515      9.2123    
  7.8456      6.5656      5.4676      4.5963      3.9577      3.5383      3.3228      3.3031      3.4820      3.8715    
  4.4912      5.3614      6.4876      7.8389      9.3299      10.817      12.031      12.626      12.505      11.901    
  11.254      10.960      11.136      11.550      11.773      11.451      11.708      10.874      9.5089      8.0455    
  6.6817      5.5227      4.6137      3.9577      3.5382      3.3385      3.3510      3.5796      4.0384      4.7496    
  5.7325      6.9830      8.4479      10.008      11.429      12.251      12.163      11.254      10.021      9.1244    
  9.0371      9.7714      10.872      11.682      11.457      11.843      11.109      9.6922      8.1480      6.7211    
  5.5227      4.5963      3.9412      3.5380      3.3692      3.4283      3.7208      4.2634      5.0801      6.1859    
  7.5608      9.1210      10.693      11.830      11.981      10.961      9.1245      7.2700      6.2646      6.5918    
  8.0818      10.003      9.1508      11.213      11.897      11.224      9.7541      8.1480      6.6817      5.4676    
  4.5453      3.9092      3.5377      3.4135      3.5314      3.8993      4.5372      5.4689      6.7011      8.1908    
  9.8172      11.272      11.887      11.136      9.0372      6.2647      3.9213      3.0248      3.9831      6.3704    
  4.9777      8.5321      11.059      11.911      11.224      9.6922      8.0455      6.5656      5.3608      4.4637    
  3.8636      3.5375      3.4690      3.6552      4.1071      4.8475      5.8981      7.2519      8.8380      10.481    
  11.646      11.550      9.7714      6.5918      3.0248     0.43500     -.99712E-01  1.6587     0.52734E-01  4.1969    
  8.3062      11.059      11.897      11.109      9.5089      7.8456      6.3792      5.2082      4.3561      3.8071    
  3.5375      3.5330      3.7937      4.3343      5.1795      6.3456      7.8085      9.4654      11.040      11.773    
  10.872      8.0818      3.9831     -.99778E-01 -2.6268     -2.5717     -3.9373     -.52077      4.1969      8.5321    
  11.213      11.843      10.874      9.2123      7.5586      6.1327      5.0184      4.2284      3.7426      3.5376    
  3.6021      3.9401      4.5699      5.5161      6.7875      8.3396      10.037      11.451      11.682      10.003    
  6.3705      1.6587     -2.5718     -4.7248     -3.9370     -2.8279     0.65085      5.1498      9.0766      11.309    
  11.585      10.431      8.7408      7.1139      5.7345      4.6729      3.9335      3.4916      3.3224      3.4153    
  3.7764      4.4274      5.3949      6.6857      8.2484      9.9367      11.284      11.405      9.6441      6.0593    
  1.5876     -2.2348     -2.8281     -3.9371     -2.2348      1.5876      6.0593      9.6443      11.405      11.284    
  9.9367      8.2484      6.6858      5.3949      4.4273      3.7764      3.4153      3.3224      3.4915      3.9336    
  4.6730      5.7344      7.1138      8.7407      10.431      11.585      11.309      9.0765      5.1499     0.65076    
 0.76421     -2.1106     -2.5715     -.44869      3.3795      7.4364      10.356      11.452      10.875      9.3647    
  7.7140      6.2392      5.0545      4.1912      3.6339      3.3555      3.3383      3.5810      4.0985      4.9165    
  6.0558      7.5015      9.1667      10.829      11.807      11.265      8.8243      4.9192      5.4303      1.9110    
 -.21885     -.99593E-01  2.1878      5.6694      8.9793      11.010      11.355      10.347      8.7479      7.1637    
  5.7966      4.7295      3.9752      3.5119      3.3143      3.3692      3.6797      4.2632      5.1453      6.3419    
  7.8282      9.5049      11.122      11.980      11.342      8.9762      9.5118      6.5806      3.8668      2.4912    
  3.0248      5.1934      8.0293      10.374      11.430      11.059      9.7218      8.1182      6.6252      5.3795    
  4.4348      3.7885      3.4154      3.2933      3.4137      3.7826      4.4189      5.3468      6.5769      8.0757    
  9.7372      11.303      12.116      11.554      11.853      10.307      8.1301      6.2574      5.5326      6.2647    
  8.0647      10.065      11.376      11.514      10.567      9.0567      7.5068      6.1248      5.0075      4.1833    
  3.6386      3.3480      3.2934      3.4695      3.8843      4.5571      5.5096      6.7469      8.2295      9.8494    
  11.365      12.199      12.192      12.142      11.169      9.7643      8.6523      8.4049      9.1243      10.390    
  11.502      11.859      11.259      9.9456      8.4088      6.9449      5.6864      4.6967      3.9849      3.5314    
  3.3128      3.3144      3.5335      3.9792      4.6696      5.6237      6.8412      8.2791      9.8318      11.293    
  11.073      12.047      12.306      11.889      11.174      10.667      10.705      11.254      11.931      12.236    
  11.838      10.751      9.2996      7.8159      6.4608      5.3295      4.4595      3.8473      3.4715      3.3115    
  3.3556      3.6027      4.0619      4.7500      5.6820      6.8534      8.2196      9.6813      9.4024      10.703    
  11.727      12.253      12.303      12.131      12.046      12.205      12.505      12.648      12.332      11.444    
  10.141      8.7058      7.3120      6.0776      5.0686      4.3047      3.7758      3.4617      3.3447      3.4154    
  3.6735      4.1280      4.7934      5.6806      6.7816      8.0520      7.7844      9.0081      10.198      11.224    
  11.936      12.326      12.530      12.701      12.875      12.933      12.679      11.981      10.880      9.5686    
  8.2079      6.9259      5.8125      4.9133      4.2376      3.7736      3.5034      3.4119      3.4915      3.7428    
  4.1740      4.7972      5.6193      6.6290      6.4041      7.4316      8.5205      9.5922      10.571      11.377    
  11.975      12.407      12.711      12.859      12.748      12.279      11.441      10.339      9.0977      7.8424    
  6.6788      5.6767      4.8691      4.2609      3.8416      3.5958      3.5109      3.5808      3.8071      4.1976    
  4.7614      5.5013      5.3333      6.1196      7.0143      7.9690      8.9273      9.8373      10.659      11.357    
  11.906      12.278      12.415      12.245      11.740      10.936      9.9106      8.7742      7.6361      6.5845    
  5.6762      4.9380      4.3748      3.9785      3.7363      3.6379      3.6793      3.8634      4.1975      4.6878    
  4.5805      5.1248      5.7921      6.5575      7.3874      8.2445      9.0932      9.9005      10.631      11.238    
  11.663      11.838      11.714      11.277      10.563      9.6478      8.6302      7.6054      6.6495      5.8123    
  5.1192      4.5769      4.1803      3.9195      3.7872      3.7821      3.9088      4.1739      4.1277      4.4454    
  4.8874      5.4409      6.0887      6.8108      7.5852      8.3875      9.1875      9.9440      10.601      11.089    
  11.340      11.306      10.974      10.377      9.5843      8.6825      7.7559      6.8735      6.0822      5.4085    
  4.8616      4.4398      4.1375      3.9515      3.8838      3.9407      3.9572      4.0615      4.2898      4.6345    
  5.0858      5.6345      6.2716      6.9865      7.7618      8.5687      9.3626      10.082      10.653      11.004    
  11.085      10.877      10.407      9.7324      8.9318      8.0825      7.2493      6.4784      5.7974      5.2189    
  4.7464      4.3800      4.1221      3.9788      4.0616      3.9572      3.9787      4.1220      4.3800      4.7464    
  5.2189      5.7973      6.4783      7.2492      8.0824      8.9318      9.7324      10.407      10.877      11.085    
  11.004      10.653      10.082      9.3626      8.5688      7.7619      6.9866      6.2717      5.6345      5.0858    
  4.6345      4.2899      4.4455      4.1279      3.9408      3.8838      3.9515      4.1375      4.4398      4.8615    
  5.4084      6.0822      6.8734      7.7559      8.6825      9.5844      10.377      10.974      11.306      11.340    
  11.089      10.601      9.9441      9.1876      8.3876      7.5853      6.8109      6.0887      5.4408      4.8873    
  5.1247      4.5806      4.1740      3.9090      3.7822      3.7872      3.9195      4.1802      4.5769      5.1192    
  5.8123      6.6495      7.6054      8.6302      9.6478      10.563      11.277      11.714      11.838      11.663    
  11.238      10.631      9.9006      9.0933      8.2446      7.3875      6.5576      5.7921      6.1195      5.3332    
  4.6878      4.1976      3.8636      3.6794      3.6380      3.7363      3.9784      4.3748      4.9380      5.6762    
  6.5845      7.6361      8.7742      9.9107      10.936      11.740      12.245      12.415      12.278      11.906    
  11.357      10.659      9.8373      8.9274      7.9691      7.0143      7.4317      6.4040      5.5013      4.7614    
  4.1977      3.8072      3.5809      3.5110      3.5958      3.8415      4.2609      4.8691      5.6767      6.6788    
  7.8424      9.0978      10.339      11.441      12.279      12.748      12.859      12.711      12.407      11.976    
  11.377      10.571      9.5922      8.5206      9.0081      7.7844      6.6290      5.6193      4.7972      4.1740    
  3.7428      3.4916      3.4119      3.5033      3.7735      4.2376      4.9134      5.8125      6.9259      8.2080    
  9.5687      10.880      11.981      12.679      12.933      12.875      12.701      12.530      12.326      11.936    
  11.224      10.197      10.703      9.4023      8.0519      6.7816      5.6806      4.7933      4.1280      3.6735    
  3.4154      3.3447      3.4616      3.7758      4.3047      5.0687      6.0776      7.3120      8.7059      10.142    
  11.444      12.332      12.648      12.505      12.205      12.045      12.131      12.303      12.252      11.727    
  12.047      11.073      9.6812      8.2194      6.8534      5.6820      4.7499      4.0618      3.6026      3.3555    
  3.3113      3.4713      3.8473      4.4596      5.3296      6.4608      7.8159      9.2997      10.751      11.838    
  12.236      11.931      11.254      10.705      10.667      11.174      11.889      12.306      12.141      12.192    
  11.292      9.8316      8.2790      6.8412      5.6237      4.6695      3.9790      3.5334      3.3143      3.3126    
  3.5313      3.9849      4.6968      5.6864      6.9449      8.4089      9.9457      11.259      11.859      11.502    
  10.390      9.1242      8.4047      8.6521      9.7641      11.169      10.307      11.853      12.199      11.365    
  9.8492      8.2294      6.7469      5.5096      4.5569      3.8841      3.4693      3.2932      3.3479      3.6385    
  4.1833      5.0076      6.1248      7.5068      9.0568      10.567      11.514      11.376      10.065      8.0647    
  6.2646      5.5326      6.2573      8.1300      6.5805      9.5116      11.554      12.116      11.303      9.7371    
  8.0757      6.5769      5.3468      4.4187      3.7825      3.4137      3.2932      3.4152      3.7885      4.4349    
  5.3796      6.6251      8.1182      9.7218      11.059      11.430      10.374      8.0293      5.1935      3.0249    
  2.4913      3.8668      1.9111      5.4301      8.9760      11.342      11.980      11.122      9.5048      7.8282    
  6.3420      5.1452      4.2630      3.6796      3.3692      3.3142      3.5119      3.9752      4.7296      5.7966    
  7.1637      8.7479      10.347      11.355      11.010      8.9791      5.6694      2.1879     -.99440E-01 -.21864    
 -2.1104     0.76433      4.9191      8.8242      11.265      11.808      10.829      9.1667      7.5016      6.0558    
  4.9164      4.0984      3.5810      3.3383      3.3554      3.6339      4.1912      5.0545      6.2391      7.7139    
  9.3647      10.875      11.452      10.356      7.4364      3.3795     -.44866     -2.5714     0.53538E-01 0.76484    
  3.4429      7.0020      10.099      11.757      11.735      10.487      8.8012      7.1869      5.8104      4.7403    
  3.9819      3.5113      3.3031      3.3448      3.6394      4.2056      5.0705      6.2481      7.7046      9.3264    
  10.819      11.458      10.586      8.1104      4.6973      1.5881     0.65132     -.51989     0.65142      3.6721    
  7.3190      10.250      11.609      11.314      9.9361      8.2678      6.7207      5.4345      4.4613      3.7961    
  3.4122      3.2869      3.4121      3.7961      4.4614      5.4345      6.7207      8.2678      9.9361      11.314    
  11.609      10.250      7.3190      3.6720      3.4428     0.76478     0.53573E-01  1.5882      4.6974      8.1104    
  10.586      11.458      10.819      9.3263      7.7046      6.2481      5.0705      4.2056      3.6394      3.3449    
  3.3031      3.5112      3.9820      4.7404      5.8104      7.1868      8.8012      10.487      11.735      11.757    
  10.099      7.0020      7.2619      4.0731      1.9115      1.6594      3.3799      6.2882      9.1650      10.958    
  11.231      10.243      8.6884      7.1381      5.7914      4.7346      3.9835      3.5177      3.3115      3.3511    
  3.6382      4.1893      5.0298      6.1794      7.6228      9.2778      10.955      12.092      11.960      10.229    
  10.650      8.0624      5.4422      3.8671      3.9835      5.6696      8.1079      10.222      11.210      10.874    
  9.6020      8.0506      6.5937      5.3709      4.4404      3.8031      3.4346      3.3127      3.4285      3.7875    
  4.4080      5.3147      6.5216      8.0043      9.6709      11.319      12.388      12.236      12.553      11.282    
  9.2384      7.2772      6.2574      6.5919      8.0293      9.8019      11.045      11.229      10.371      8.9365    
  7.4399      6.0951      5.0037      4.1990      3.6702      3.3925      3.3479      3.5316      3.9517      4.6268    
  5.5792      6.8171      8.3083      9.9557      11.559      12.604      12.707      12.834      11.976      10.540    
  9.2239      8.6522      9.0370      10.064      11.084      11.478      10.977      9.7624      8.2946      6.8829    
  5.6631      4.7039      4.0183      3.5888      3.3924      3.4151      3.6554      4.1222      4.8333      5.8075    
  7.0472      8.5144      10.111      11.653      11.581      12.649      12.983      12.556      11.701      10.935    
  10.667      10.960      11.501      11.801      11.484      10.500      9.1285      7.7081      6.4042      5.3151    
  4.4821      3.9044      3.5618      3.4343      3.5117      3.7938      4.2898      5.0154      5.9854      7.1966    
  8.6071      10.121      9.9812      11.331      12.396      12.916      12.871      12.500      12.148      12.045    
  12.162      12.236      11.949      11.140      9.9129      8.5416      7.2069      6.0251      5.0642      4.3458    
  3.8611      3.5905      3.5173      3.6336      3.9402      4.4454      5.1624      6.1015      7.2545      8.5778    
  8.4256      9.6951      10.913      11.937      12.587      12.832      12.819      12.741      12.700      12.626    
  12.331      11.658      10.605      9.3449      8.0417      6.8179      5.7622      4.9198      4.2998      3.8907    
  3.6750      3.6389      3.7761      4.0875      4.5805      5.2655      6.1482      7.2161      7.0828      8.1585    
  9.2794      10.356      11.298      12.006      12.439      12.656      12.741      12.711      12.492      11.981    
  11.141      10.062      8.8637      7.6636      6.5624      5.6269      4.8872      4.3466      3.9939      3.8141    
  3.7956      3.9332      4.2284      4.6878      5.3187      6.1223      6.0252      6.8624      7.7931      8.7606    
  9.6980      10.542      11.245      11.772      12.120      12.298      12.278      12.004      11.441      10.618    
  9.6096      8.5141      7.4351      6.4553      5.6259      4.9690      4.4865      4.1689      4.0038      3.9814    
  4.0980      4.3560      4.7614      5.3189      5.2659      5.8625      6.5686      7.3528      8.1734      8.9839    
  9.7416      10.413      10.971      11.391      11.636      11.663      11.433      10.936      10.202      9.3027    
  8.3307      7.3753      6.5050      5.7618      5.1649      4.7170      4.4114      4.2379      4.1888      4.2627    
  4.4636      4.7974      4.7935      5.1629      5.6441      6.2197      6.8661      7.5560      8.2606      8.9520    
  9.6033      10.185      10.659      10.978      11.089      10.953      10.563      9.9497      9.1799      8.3356    
  7.4938      6.7138      6.0333      5.4712      5.0326      4.7136      4.5067      4.4078      4.4185      4.5452    
  4.5963      4.7502      5.0159      5.3832      5.8374      6.3634      6.9465      7.5716      8.2207      8.8704    
  9.4881      10.029      10.436      10.653      10.637      10.377      9.8995      9.2622      8.5365      7.7906    
  7.0779      6.4344      5.8803      5.4233      5.0633      4.7976      4.6269      4.5569      4.6697      4.6137    
  4.6697      4.8337      5.0955      5.4446      5.8738      6.3788      6.9536      7.5865      8.2560      8.9274    
  9.5511      10.065      10.407      10.526      10.407      10.065      9.5510      8.9274      8.2560      7.5865    
  6.9535      6.3787      5.8738      5.4445      5.0954      4.8336      5.0160      4.7503      4.5964      4.5570    
  4.6270      4.7978      5.0634      5.4233      5.8803      6.4345      7.0779      7.7905      8.5365      9.2622    
  9.8995      10.377      10.637      10.653      10.436      10.029      9.4882      8.8705      8.2207      7.5716    
  6.9465      6.3633      5.8373      5.3831      5.6441      5.1630      4.7937      4.5454      4.4187      4.4080    
  4.5069      4.7136      5.0327      5.4713      6.0333      6.7138      7.4938      8.3356      9.1799      9.9497    
  10.563      10.953      11.089      10.978      10.659      10.185      9.6033      8.9520      8.2606      7.5560    
  6.8662      6.2197      6.5686      5.8626      5.2661      4.7976      4.4637      4.2628      4.1890      4.2380    
  4.4114      4.7170      5.1649      5.7619      6.5050      7.3753      8.3308      9.3027      10.202      10.936    
  11.433      11.663      11.636      11.391      10.971      10.413      9.7416      8.9839      8.1735      7.3529    
  7.7932      6.8625      6.0253      5.3191      4.7616      4.3561      4.0981      3.9815      4.0039      4.1689    
  4.4865      4.9691      5.6259      6.4553      7.4351      8.5141      9.6096      10.618      11.441      12.004    
  12.278      12.298      12.120      11.772      11.245      10.542      9.6980      8.7607      9.2795      8.1586    
  7.0829      6.1225      5.3189      4.6878      4.2284      3.9332      3.7956      3.8140      3.9938      4.3466    
  4.8872      5.6268      6.5624      7.6636      8.8638      10.062      11.141      11.981      12.492      12.711    
  12.741      12.656      12.439      12.006      11.298      10.356      10.913      9.6952      8.4256      7.2162    
  6.1484      5.2656      4.5804      4.0874      3.7761      3.6390      3.6750      3.8907      4.2999      4.9198    
  5.7622      6.8179      8.0417      9.3449      10.605      11.658      12.331      12.626      12.700      12.741    
  12.819      12.832      12.586      11.937      12.396      11.331      9.9812      8.5778      7.2546      6.1016    
  5.1624      4.4453      3.9401      3.6336      3.5173      3.5904      3.8611      4.3459      5.0642      6.0251    
  7.2069      8.5417      9.9129      11.140      11.949      12.236      12.162      12.045      12.148      12.500    
  12.871      12.916      12.983      12.649      11.581      10.121      8.6071      7.1966      5.9855      5.0154    
  4.2897      3.7938      3.5117      3.4343      3.5617      3.9044      4.4822      5.3151      6.4041      7.7081    
  9.1286      10.500      11.484      11.801      11.501      10.960      10.667      10.934      11.701      12.556    
  11.976      12.834      12.707      11.653      10.111      8.5143      7.0472      5.8075      4.8332      4.1221    
  3.6554      3.4152      3.3924      3.5888      4.0184      4.7039      5.6631      6.8828      8.2946      9.7624    
  10.977      11.478      11.084      10.064      9.0368      8.6520      9.2238      10.540      9.2383      11.282    
  12.553      12.605      11.559      9.9556      8.3082      6.8171      5.5792      4.6267      3.9517      3.5316    
  3.3479      3.3925      3.6701      4.1990      5.0037      6.0950      7.4399      8.9365      10.371      11.229    
  11.045      9.8019      8.0292      6.5918      6.2573      7.2771      5.4422      8.0623      10.650      12.236    
  12.388      11.319      9.6709      8.0043      6.5216      5.3146      4.4080      3.7875      3.4285      3.3127    
  3.4346      3.8031      4.4405      5.3709      6.5937      8.0506      9.6020      10.873      11.210      10.222    
  8.1079      5.6695      3.9834      3.8671      1.9115      4.0732      7.2618      10.229      11.960      12.092    
  10.955      9.2778      7.6228      6.1794      5.0297      4.1892      3.6383      3.3511      3.3115      3.5176    
  3.9835      4.7346      5.7914      7.1381      8.6885      10.243      11.231      10.958      9.1649      6.2881    
  3.3798      1.6593      4.9784      5.4305      7.2617      9.6792      11.671      12.504      12.026      10.641    
  8.9875      7.4180      6.0714      5.0094      4.2380      3.7364      3.4819      3.4616      3.6752      4.1363    
  4.8684      5.8900      7.1851      8.6736      10.187      11.273      11.338      10.160      8.1104      6.0596    
  5.1503      4.1978      4.9197      7.0019      9.5268      11.453      12.115      11.474      10.022      8.3982    
  6.8967      5.6406      4.6776      4.0041      3.5960      3.4321      3.5034      3.8143      4.3829      5.2338    
  6.3792      7.7876      9.3556      10.857      11.715      11.368      9.7225      7.3190      7.0019      4.9197    
  4.1979      5.1504      7.3189      9.7225      11.368      11.715      10.857      9.3554      7.7875      6.3793    
  5.2337      4.3828      3.8144      3.5034      3.4321      3.5959      4.0041      4.6778      5.6407      6.8966    
  8.3983      10.023      11.474      12.115      11.453      9.5269      9.6792      7.2617      5.4307      4.9787    
  6.0598      8.1104      10.160      11.338      11.273      10.187      8.6734      7.1851      5.8901      4.8684    