   2   2   0   0
  0.1529437E+02  0.3691622E-09  0.3691622E-09  0.3691622E-09  0.5000000E-15
  1.000000000000000E-004
  CAR 
 unknown system                          
     22.29342666     -6.61630037  301      9.15564562      1.00000000
     -6.616  0.0000E+00  0.0000E+00
     -6.520  0.0000E+00  0.0000E+00
     -6.424  0.0000E+00  0.0000E+00
     -6.327  0.0000E+00  0.0000E+00
     -6.231  0.0000E+00  0.0000E+00
     -6.134  0.0000E+00  0.0000E+00
     -6.038  0.0000E+00  0.0000E+00
     -5.942  0.0000E+00  0.0000E+00
     -5.845  0.0000E+00  0.0000E+00
     -5.749  0.6144E-17  0.5921E-18
     -5.653  0.1286E-14  0.1245E-15
     -5.556  0.1647E-12  0.1599E-13
     -5.460  0.1335E-10  0.1303E-11
     -5.364  0.6867E-09  0.6748E-10
     -5.267  0.2241E-07  0.2227E-08
     -5.171  0.4649E-06  0.4703E-07
     -5.074  0.6137E-05  0.6384E-06
     -4.978  0.5161E-04  0.5612E-05
     -4.882  0.2769E-03  0.3229E-04
     -4.785  0.9487E-03  0.1237E-03
     -4.689  0.2080E-02  0.3241E-03
     -4.593  0.2938E-02  0.6072E-03
     -4.496  0.2840E-02  0.8809E-03
     -4.400  0.2709E-02  0.1142E-02
     -4.304  0.4591E-02  0.1584E-02
     -4.207  0.8735E-02  0.2426E-02
     -4.111  0.1177E-01  0.3560E-02
     -4.014  0.1049E-01  0.4571E-02
     -3.918  0.7163E-02  0.5261E-02
     -3.822  0.7166E-02  0.5951E-02
     -3.725  0.1288E-01  0.7192E-02
     -3.629  0.2199E-01  0.9311E-02
     -3.533  0.2919E-01  0.1212E-01
     -3.436  0.2886E-01  0.1491E-01
     -3.340  0.2022E-01  0.1685E-01
     -3.243  0.9598E-02  0.1778E-01
     -3.147  0.3047E-02  0.1807E-01
     -3.051  0.1022E-02  0.1817E-01
     -2.954  0.2174E-02  0.1838E-01
     -2.858  0.7322E-02  0.1909E-01
     -2.762  0.1869E-01  0.2089E-01
     -2.665  0.3602E-01  0.2436E-01
     -2.569  0.5201E-01  0.2937E-01
     -2.473  0.5567E-01  0.3474E-01
     -2.376  0.4700E-01  0.3927E-01
     -2.280  0.3660E-01  0.4279E-01
     -2.183  0.2751E-01  0.4544E-01
     -2.087  0.1690E-01  0.4707E-01
     -1.991  0.7558E-02  0.4780E-01
     -1.894  0.3899E-02  0.4818E-01
     -1.798  0.7100E-02  0.4886E-01
     -1.702  0.1557E-01  0.5036E-01
     -1.605  0.2291E-01  0.5257E-01
     -1.509  0.2164E-01  0.5465E-01
     -1.413  0.1326E-01  0.5593E-01
     -1.316  0.6070E-02  0.5652E-01
     -1.220  0.4583E-02  0.5696E-01
     -1.123  0.7889E-02  0.5772E-01
     -1.027  0.1377E-01  0.5905E-01
     -0.931  0.2198E-01  0.6116E-01
     -0.834  0.3599E-01  0.6463E-01
     -0.738  0.5717E-01  0.7014E-01
     -0.642  0.7318E-01  0.7719E-01
     -0.545  0.6823E-01  0.8377E-01
     -0.449  0.4813E-01  0.8841E-01
     -0.353  0.3241E-01  0.9153E-01
     -0.256  0.2958E-01  0.9438E-01
     -0.160  0.3591E-01  0.9784E-01
     -0.063  0.4530E-01  0.1022E+00
      0.033  0.5519E-01  0.1075E+00
      0.129  0.6328E-01  0.1136E+00
      0.226  0.6150E-01  0.1195E+00
      0.322  0.4500E-01  0.1239E+00
      0.418  0.2410E-01  0.1262E+00
      0.515  0.1390E-01  0.1275E+00
      0.611  0.1855E-01  0.1293E+00
      0.707  0.2988E-01  0.1322E+00
      0.804  0.3451E-01  0.1355E+00
      0.900  0.2809E-01  0.1382E+00
      0.997  0.2228E-01  0.1404E+00
      1.093  0.3037E-01  0.1433E+00
      1.189  0.4827E-01  0.1480E+00
      1.286  0.5644E-01  0.1534E+00
      1.382  0.4453E-01  0.1577E+00
      1.478  0.2374E-01  0.1600E+00
      1.575  0.8725E-02  0.1608E+00
      1.671  0.2971E-02  0.1611E+00
      1.768  0.4793E-02  0.1616E+00
      1.864  0.1536E-01  0.1631E+00
      1.960  0.3442E-01  0.1664E+00
      2.057  0.5171E-01  0.1714E+00
      2.153  0.5603E-01  0.1768E+00
      2.249  0.5149E-01  0.1817E+00
      2.346  0.4962E-01  0.1865E+00
      2.442  0.5316E-01  0.1916E+00
      2.538  0.5474E-01  0.1969E+00
      2.635  0.4741E-01  0.2015E+00
      2.731  0.3485E-01  0.2048E+00
      2.828  0.2613E-01  0.2073E+00
      2.924  0.2638E-01  0.2099E+00
      3.020  0.3331E-01  0.2131E+00
      3.117  0.3940E-01  0.2169E+00
      3.213  0.4459E-01  0.2212E+00
      3.309  0.5739E-01  0.2267E+00
      3.406  0.7188E-01  0.2336E+00
      3.502  0.6741E-01  0.2401E+00
      3.598  0.4256E-01  0.2442E+00
      3.695  0.1886E-01  0.2461E+00
      3.791  0.1104E-01  0.2471E+00
      3.888  0.1826E-01  0.2489E+00
      3.984  0.3248E-01  0.2520E+00
      4.080  0.4447E-01  0.2563E+00
      4.177  0.5142E-01  0.2613E+00
      4.273  0.5744E-01  0.2668E+00
      4.369  0.6425E-01  0.2730E+00
      4.466  0.6567E-01  0.2793E+00
      4.562  0.5386E-01  0.2845E+00
      4.658  0.3332E-01  0.2877E+00
      4.755  0.2088E-01  0.2897E+00
      4.851  0.2888E-01  0.2925E+00
      4.948  0.5586E-01  0.2979E+00
      5.044  0.8725E-01  0.3063E+00
      5.140  0.1014E+00  0.3161E+00
      5.237  0.8546E-01  0.3243E+00
      5.333  0.5048E-01  0.3292E+00
      5.429  0.2065E-01  0.3312E+00
      5.526  0.7776E-02  0.3319E+00
      5.622  0.9411E-02  0.3328E+00
      5.719  0.2070E-01  0.3348E+00
      5.815  0.3783E-01  0.3385E+00
      5.911  0.5920E-01  0.3442E+00
      6.008  0.8304E-01  0.3522E+00
      6.104  0.9977E-01  0.3618E+00
      6.200  0.9778E-01  0.3712E+00
      6.297  0.7689E-01  0.3786E+00
      6.393  0.4851E-01  0.3833E+00
      6.489  0.2856E-01  0.3860E+00
      6.586  0.2998E-01  0.3889E+00
      6.682  0.5311E-01  0.3940E+00
      6.779  0.8064E-01  0.4018E+00
      6.875  0.9162E-01  0.4106E+00
      6.971  0.8293E-01  0.4186E+00
      7.068  0.7013E-01  0.4254E+00
      7.164  0.6767E-01  0.4319E+00
      7.260  0.7010E-01  0.4387E+00
      7.357  0.6171E-01  0.4446E+00
      7.453  0.4484E-01  0.4489E+00
      7.549  0.4075E-01  0.4529E+00
      7.646  0.5849E-01  0.4585E+00
      7.742  0.7656E-01  0.4659E+00
      7.839  0.7005E-01  0.4726E+00
      7.935  0.4650E-01  0.4771E+00
      8.031  0.2951E-01  0.4800E+00
      8.128  0.2528E-01  0.4824E+00
      8.224  0.3001E-01  0.4853E+00
      8.320  0.4502E-01  0.4896E+00
      8.417  0.6378E-01  0.4958E+00
      8.513  0.6703E-01  0.5022E+00
      8.609  0.4858E-01  0.5069E+00
      8.706  0.2687E-01  0.5095E+00
      8.802  0.2242E-01  0.5117E+00
      8.899  0.3937E-01  0.5155E+00
      8.995  0.6403E-01  0.5216E+00
      9.091  0.7524E-01  0.5289E+00
      9.188  0.6673E-01  0.5353E+00
      9.284  0.5096E-01  0.5402E+00
      9.380  0.3857E-01  0.5439E+00
      9.477  0.3320E-01  0.5471E+00
      9.573  0.3668E-01  0.5507E+00
      9.670  0.4402E-01  0.5549E+00
      9.766  0.4744E-01  0.5595E+00
      9.862  0.4769E-01  0.5641E+00
      9.959  0.4954E-01  0.5689E+00
     10.055  0.5098E-01  0.5738E+00
     10.151  0.4963E-01  0.5785E+00
     10.248  0.5064E-01  0.5834E+00
     10.344  0.5766E-01  0.5890E+00
     10.440  0.6473E-01  0.5952E+00
     10.537  0.6274E-01  0.6013E+00
     10.633  0.5196E-01  0.6063E+00
     10.730  0.4041E-01  0.6102E+00
     10.826  0.3692E-01  0.6137E+00
     10.922  0.5145E-01  0.6187E+00
     11.019  0.8054E-01  0.6264E+00
     11.115  0.9837E-01  0.6359E+00
     11.211  0.9113E-01  0.6447E+00
     11.308  0.7804E-01  0.6522E+00
     11.404  0.7285E-01  0.6592E+00
     11.500  0.6413E-01  0.6654E+00
     11.597  0.4621E-01  0.6699E+00
     11.693  0.3058E-01  0.6728E+00
     11.790  0.2628E-01  0.6754E+00
     11.886  0.2989E-01  0.6782E+00
     11.982  0.3585E-01  0.6817E+00
     12.079  0.4737E-01  0.6863E+00
     12.175  0.6703E-01  0.6927E+00
     12.271  0.8479E-01  0.7009E+00
     12.368  0.8726E-01  0.7093E+00
     12.464  0.7536E-01  0.7166E+00
     12.560  0.6513E-01  0.7228E+00
     12.657  0.6524E-01  0.7291E+00
     12.753  0.6571E-01  0.7355E+00
     12.850  0.5774E-01  0.7410E+00
     12.946  0.4891E-01  0.7457E+00
     13.042  0.5119E-01  0.7507E+00
     13.139  0.6314E-01  0.7568E+00
     13.235  0.7282E-01  0.7638E+00
     13.331  0.7738E-01  0.7712E+00
     13.428  0.8603E-01  0.7795E+00
     13.524  0.1006E+00  0.7892E+00
     13.621  0.1091E+00  0.7997E+00
     13.717  0.1062E+00  0.8100E+00
     13.813  0.1075E+00  0.8203E+00
     13.910  0.1231E+00  0.8322E+00
     14.006  0.1336E+00  0.8451E+00
     14.102  0.1161E+00  0.8562E+00
     14.199  0.8200E-01  0.8641E+00
     14.295  0.5949E-01  0.8699E+00
     14.391  0.5427E-01  0.8751E+00
     14.488  0.5076E-01  0.8800E+00
     14.584  0.3777E-01  0.8836E+00
     14.681  0.2016E-01  0.8856E+00
     14.777  0.8581E-02  0.8864E+00
     14.873  0.6440E-02  0.8870E+00
     14.970  0.9693E-02  0.8880E+00
     15.066  0.1205E-01  0.8891E+00
     15.162  0.1103E-01  0.8902E+00
     15.259  0.1216E-01  0.8914E+00
     15.355  0.2391E-01  0.8937E+00
     15.451  0.4576E-01  0.8981E+00
     15.548  0.6354E-01  0.9042E+00
     15.644  0.6512E-01  0.9105E+00
     15.741  0.5800E-01  0.9161E+00
     15.837  0.5753E-01  0.9216E+00
     15.933  0.6542E-01  0.9279E+00
     16.030  0.7851E-01  0.9355E+00
     16.126  0.1010E+00  0.9452E+00
     16.222  0.1232E+00  0.9571E+00
     16.319  0.1199E+00  0.9686E+00
     16.415  0.8692E-01  0.9770E+00
     16.511  0.4778E-01  0.9816E+00
     16.608  0.2106E-01  0.9836E+00
     16.704  0.8252E-02  0.9844E+00
     16.801  0.4159E-02  0.9848E+00
     16.897  0.4066E-02  0.9852E+00
     16.993  0.6256E-02  0.9858E+00
     17.090  0.1235E-01  0.9870E+00
     17.186  0.2189E-01  0.9891E+00
     17.282  0.2847E-01  0.9919E+00
     17.379  0.2851E-01  0.9946E+00
     17.475  0.2901E-01  0.9974E+00
     17.572  0.3665E-01  0.1001E+01
     17.668  0.4588E-01  0.1005E+01
     17.764  0.4825E-01  0.1010E+01
     17.861  0.4538E-01  0.1014E+01
     17.957  0.4504E-01  0.1019E+01
     18.053  0.4997E-01  0.1024E+01
     18.150  0.5200E-01  0.1029E+01
     18.246  0.4468E-01  0.1033E+01
     18.342  0.3607E-01  0.1036E+01
     18.439  0.3329E-01  0.1040E+01
     18.535  0.3013E-01  0.1042E+01
     18.632  0.2246E-01  0.1045E+01
     18.728  0.1681E-01  0.1046E+01
     18.824  0.1755E-01  0.1048E+01
     18.921  0.2034E-01  0.1050E+01
     19.017  0.2023E-01  0.1052E+01
     19.113  0.1758E-01  0.1054E+01
     19.210  0.1569E-01  0.1055E+01
     19.306  0.1506E-01  0.1056E+01
     19.402  0.1413E-01  0.1058E+01
     19.499  0.1362E-01  0.1059E+01
     19.595  0.1347E-01  0.1060E+01
     19.692  0.1097E-01  0.1062E+01
     19.788  0.6213E-02  0.1062E+01
     19.884  0.2372E-02  0.1062E+01
     19.981  0.1058E-02  0.1062E+01
     20.077  0.2274E-02  0.1063E+01
     20.173  0.5985E-02  0.1063E+01
     20.270  0.1043E-01  0.1064E+01
     20.366  0.1164E-01  0.1065E+01
     20.462  0.8309E-02  0.1066E+01
     20.559  0.3794E-02  0.1067E+01
     20.655  0.1107E-02  0.1067E+01
     20.752  0.2064E-03  0.1067E+01
     20.848  0.2455E-04  0.1067E+01
     20.944  0.1860E-05  0.1067E+01
     21.041  0.8965E-07  0.1067E+01
     21.137  0.2747E-08  0.1067E+01
     21.233  0.5342E-10  0.1067E+01
     21.330  0.6587E-12  0.1067E+01
     21.426  0.5147E-14  0.1067E+01
     21.523  0.2458E-16  0.1067E+01
     21.619  0.0000E+00  0.1067E+01
     21.715  0.0000E+00  0.1067E+01
     21.812  0.0000E+00  0.1067E+01
     21.908  0.0000E+00  0.1067E+01
     22.004  0.0000E+00  0.1067E+01
     22.101  0.0000E+00  0.1067E+01
     22.197  0.0000E+00  0.1067E+01
     22.293  0.0000E+00  0.1067E+01
