<?xml version="1.0" encoding="ISO-8859-1"?>
<modeling>
 <generator>
  <i name="program" type="string">vasp </i>
  <i name="version" type="string">5.4.4.18Apr17-6-g9f103f2a35  </i>
  <i name="subversion" type="string">(build Dec 09 2018 21:25:21) complex            parallel </i>
  <i name="platform" type="string">IFC18.0.1.163_CrayMPICH7.7.0_MKL18.0.1.163 </i>
  <i name="date" type="string">2019 03 18 </i>
  <i name="time" type="string">04:36:43 </i>
 </generator>
 <incar>
  <i type="string" name="PREC">normal</i>
  <i type="int" name="IBRION">     2</i>
  <i name="EDIFF">      0.00040000</i>
  <i name="EDIFFG">     -0.01000000</i>
  <i type="int" name="NSW">    15</i>
  <i type="int" name="ISIF">     2</i>
  <i name="ENCUT">    250.00000000</i>
  <i type="int" name="NBANDS">     8</i>
  <i type="logical" name="LREAL"> F  </i>
  <i type="int" name="ISMEAR">     0</i>
  <i name="SIGMA">      0.20000000</i>
  <v type="int" name="KPOINT_BSE">    -1     0     0     0</v>
 </incar>
 <structure name="primitive_cell" >
  <crystal>
   <varray name="basis" >
    <v>      -2.45000000       2.45000000       1.27400000 </v>
    <v>       2.45000000      -2.45000000       1.27400000 </v>
    <v>       2.45000000       2.45000000      -1.27400000 </v>
   </varray>
   <i name="volume">     30.58874000 </i>
   <varray name="rec_basis" >
    <v>       0.00000000       0.20408163       0.39246468 </v>
    <v>       0.20408163       0.00000000       0.39246468 </v>
    <v>       0.20408163       0.20408163      -0.00000000 </v>
   </varray>
  </crystal>
  <varray name="positions" >
   <v>       0.25000000      -0.25000000      -0.50000000 </v>
   <v>       0.00000000       0.00000000       0.00000000 </v>
  </varray>
 </structure>
 <varray name="primitive_index" >
  <v type="int" >        1 </v>
  <v type="int" >        2 </v>
 </varray>
 <kpoints>
  <generation param="Monkhorst-Pack">
   <v type="int" name="divisions">       5        5        5 </v>
   <v name="usershift">      0.00000000       0.00000000       0.00000000 </v>
   <v name="genvec1">      0.20000000       0.00000000      -0.00000000 </v>
   <v name="genvec2">      0.00000000       0.20000000      -0.00000000 </v>
   <v name="genvec3">      0.00000000      -0.00000000       0.20000000 </v>
   <v name="shift">      0.00000000       0.00000000       0.00000000 </v>
  </generation>
  <varray name="kpointlist" >
   <v>       0.00000000       0.00000000       0.00000000 </v>
   <v>       0.20000000       0.00000000      -0.00000000 </v>
   <v>       0.40000000       0.00000000      -0.00000000 </v>
   <v>       0.20000000       0.20000000      -0.00000000 </v>
   <v>       0.40000000       0.20000000      -0.00000000 </v>
   <v>      -0.40000000       0.20000000       0.00000000 </v>
   <v>      -0.20000000       0.20000000       0.00000000 </v>
   <v>       0.40000000       0.40000000      -0.00000000 </v>
   <v>      -0.40000000       0.40000000       0.00000000 </v>
   <v>       0.20000000       0.20000000       0.20000000 </v>
   <v>      -0.20000000       0.20000000       0.20000000 </v>
   <v>      -0.40000000       0.40000000       0.20000000 </v>
   <v>      -0.20000000       0.40000000       0.20000000 </v>
   <v>      -0.40000000      -0.40000000       0.20000000 </v>
   <v>      -0.20000000      -0.40000000       0.20000000 </v>
   <v>      -0.20000000      -0.20000000       0.20000000 </v>
   <v>      -0.40000000       0.40000000       0.40000000 </v>
   <v>      -0.40000000      -0.40000000       0.40000000 </v>
  </varray>
  <varray name="weights" >
   <v>       0.00800000 </v>
   <v>       0.06400000 </v>
   <v>       0.06400000 </v>
   <v>       0.06400000 </v>
   <v>       0.12800000 </v>
   <v>       0.12800000 </v>
   <v>       0.03200000 </v>
   <v>       0.06400000 </v>
   <v>       0.03200000 </v>
   <v>       0.06400000 </v>
   <v>       0.03200000 </v>
   <v>       0.06400000 </v>
   <v>       0.06400000 </v>
   <v>       0.06400000 </v>
   <v>       0.06400000 </v>
   <v>       0.01600000 </v>
   <v>       0.03200000 </v>
   <v>       0.01600000 </v>
  </varray>
 </kpoints>
 <parameters>
  <separator name="general" >
   <i type="string" name="SYSTEM">unknown system</i>
   <i type="logical" name="LCOMPAT"> F  </i>
  </separator>
  <separator name="electronic" >
   <i type="string" name="PREC">normal</i>
   <i name="ENMAX">    250.00000000</i>
   <i name="ENAUG">    322.06900000</i>
   <i name="EDIFF">      0.00040000</i>
   <i type="int" name="IALGO">    38</i>
   <i type="int" name="IWAVPR">    11</i>
   <i type="int" name="NBANDS">     8</i>
   <i name="NELECT">      8.00000000</i>
   <i type="int" name="TURBO">     0</i>
   <i type="int" name="IRESTART">     0</i>
   <i type="int" name="NREBOOT">     0</i>
   <i type="int" name="NMIN">     0</i>
   <i name="EREF">      0.00000000</i>
   <separator name="electronic smearing" >
    <i type="int" name="ISMEAR">     0</i>
    <i name="SIGMA">      0.20000000</i>
    <i name="KSPACING">      0.50000000</i>
    <i type="logical" name="KGAMMA"> T  </i>
   </separator>
   <separator name="electronic projectors" >
    <i type="logical" name="LREAL"> F  </i>
    <v name="ROPT">      0.00000000</v>
    <i type="int" name="LMAXPAW">  -100</i>
    <i type="int" name="LMAXMIX">     2</i>
    <i type="logical" name="NLSPLINE"> F  </i>
   </separator>
   <separator name="electronic startup" >
    <i type="int" name="ISTART">     1</i>
    <i type="int" name="ICHARG">     0</i>
    <i type="int" name="INIWAV">     1</i>
   </separator>
   <separator name="electronic spin" >
    <i type="int" name="ISPIN">     1</i>
    <i type="logical" name="LNONCOLLINEAR"> F  </i>
    <v name="MAGMOM">      1.00000000      1.00000000</v>
    <i name="NUPDOWN">     -1.00000000</i>
    <i type="logical" name="LSORBIT"> F  </i>
    <v name="SAXIS">      0.00000000      0.00000000      1.00000000</v>
    <i type="logical" name="LSPIRAL"> F  </i>
    <v name="QSPIRAL">      0.00000000      0.00000000      0.00000000</v>
    <i type="logical" name="LZEROZ"> F  </i>
   </separator>
   <separator name="electronic exchange-correlation" >
    <i type="logical" name="LASPH"> F  </i>
    <i type="logical" name="LMETAGGA"> F  </i>
   </separator>
   <separator name="electronic convergence" >
    <i type="int" name="NELM">    60</i>
    <i type="int" name="NELMDL">     0</i>
    <i type="int" name="NELMIN">     2</i>
    <i name="ENINI">    250.00000000</i>
    <separator name="electronic convergence detail" >
     <i type="logical" name="LDIAG"> T  </i>
     <i type="logical" name="LSUBROT"> F  </i>
     <i name="WEIMIN">      0.00100000</i>
     <i name="EBREAK">      0.00001250</i>
     <i name="DEPER">      0.30000000</i>
     <i type="int" name="NRMM">     4</i>
     <i name="TIME">      0.40000000</i>
    </separator>
   </separator>
   <separator name="electronic mixer" >
    <i name="AMIX">      0.40000000</i>
    <i name="BMIX">      1.00000000</i>
    <i name="AMIN">      0.10000000</i>
    <i name="AMIX_MAG">      1.60000000</i>
    <i name="BMIX_MAG">      1.00000000</i>
    <separator name="electronic mixer details" >
     <i type="int" name="IMIX">     4</i>
     <i type="logical" name="MIXFIRST"> F  </i>
     <i type="int" name="MAXMIX">   -45</i>
     <i name="WC">    100.00000000</i>
     <i type="int" name="INIMIX">     1</i>
     <i type="int" name="MIXPRE">     1</i>
     <i type="int" name="MREMOVE">     5</i>
    </separator>
   </separator>
   <separator name="electronic dipolcorrection" >
    <i type="logical" name="LDIPOL"> F  </i>
    <i type="logical" name="LMONO"> F  </i>
    <i type="int" name="IDIPOL">     0</i>
    <i name="EPSILON">      1.00000000</i>
    <v name="DIPOL">   -100.00000000   -100.00000000   -100.00000000</v>
    <i name="EFIELD">      0.00000000</i>
   </separator>
  </separator>
  <separator name="grids" >
   <i type="int" name="NGX">    14</i>
   <i type="int" name="NGY">    14</i>
   <i type="int" name="NGZ">    14</i>
   <i type="int" name="NGXF">    28</i>
   <i type="int" name="NGYF">    28</i>
   <i type="int" name="NGZF">    28</i>
   <i type="logical" name="ADDGRID"> F  </i>
  </separator>
  <separator name="ionic" >
   <i type="int" name="NSW">    15</i>
   <i type="int" name="IBRION">     2</i>
   <i type="int" name="MDALGO">     0</i>
   <i type="int" name="ISIF">     2</i>
   <i name="PSTRESS">      0.00000000</i>
   <i name="EDIFFG">     -0.01000000</i>
   <i type="int" name="NFREE">     1</i>
   <i name="POTIM">      0.50000000</i>
   <i name="SMASS">     -3.00000000</i>
   <i name="SCALEE">      1.00000000</i>
  </separator>
  <separator name="ionic md" >
   <i name="TEBEG">      0.00010000</i>
   <i name="TEEND">      0.00010000</i>
   <i type="int" name="NBLOCK">     1</i>
   <i type="int" name="KBLOCK">    15</i>
   <i type="int" name="NPACO">   256</i>
   <i name="APACO">     16.00000000</i>
  </separator>
  <separator name="symmetry" >
   <i type="int" name="ISYM">     2</i>
   <i name="SYMPREC">      0.00001000</i>
  </separator>
  <separator name="dos" >
   <i type="int" name="LORBIT">     0</i>
   <v name="RWIGS">     -1.00000000</v>
   <i type="int" name="NEDOS">   301</i>
   <i name="EMIN">     10.00000000</i>
   <i name="EMAX">    -10.00000000</i>
   <i name="EFERMI">      0.00000000</i>
  </separator>
  <separator name="writing" >
   <i type="int" name="NWRITE">     2</i>
   <i type="logical" name="LWAVE"> T  </i>
   <i type="logical" name="LDOWNSAMPLE"> F  </i>
   <i type="logical" name="LCHARG"> T  </i>
   <i type="logical" name="LPARD"> F  </i>
   <i type="logical" name="LVTOT"> F  </i>
   <i type="logical" name="LVHAR"> F  </i>
   <i type="logical" name="LELF"> F  </i>
   <i type="logical" name="LOPTICS"> F  </i>
   <v name="STM">      0.00000000      0.00000000      0.00000000      0.00000000      0.00000000      0.00000000      0.00000000</v>
  </separator>
  <separator name="performance" >
   <i type="int" name="NPAR">     8</i>
   <i type="int" name="NSIM">     4</i>
   <i type="int" name="NBLK">    -1</i>
   <i type="logical" name="LPLANE"> T  </i>
   <i type="logical" name="LSCALAPACK"> T  </i>
   <i type="logical" name="LSCAAWARE"> F  </i>
   <i type="logical" name="LSCALU"> F  </i>
   <i type="logical" name="LASYNC"> F  </i>
   <i type="logical" name="LORBITALREAL"> F  </i>
  </separator>
  <separator name="miscellaneous" >
   <i type="int" name="IDIOT">     3</i>
   <i type="int" name="ISPECIAL">     0</i>
   <i type="logical" name="LMUSIC"> F  </i>
   <v name="POMASS">     28.08500000</v>
   <v name="DARWINR">      0.00000000</v>
   <v name="DARWINV">      1.00000000</v>
   <i type="logical" name="LCORR"> T  </i>
  </separator>
  <i type="logical" name="GGA_COMPAT"> T  </i>
  <i type="logical" name="LBERRY"> F  </i>
  <i type="int" name="ICORELEVEL">     0</i>
  <i type="logical" name="LDAU"> F  </i>
  <i type="int" name="I_CONSTRAINED_M">     0</i>
  <separator name="electronic exchange-correlation" >
   <i type="string" name="GGA">--</i>
   <i type="int" name="VOSKOWN">     0</i>
   <i type="logical" name="LHFCALC"> F  </i>
   <i type="string" name="PRECFOCK"></i>
   <i type="logical" name="LSYMGRAD"> F  </i>
   <i type="logical" name="LHFONE"> F  </i>
   <i type="logical" name="LRHFCALC"> F  </i>
   <i type="logical" name="LTHOMAS"> F  </i>
   <i type="logical" name="LMODELHF"> F  </i>
   <i name="ENCUT4O">     -1.00000000</i>
   <i type="int" name="EXXOEP">     0</i>
   <i type="int" name="FOURORBIT">     0</i>
   <i name="AEXX">      0.00000000</i>
   <i name="HFALPHA">      0.00000000</i>
   <i name="MCALPHA">      0.00000000</i>
   <i name="ALDAX">      1.00000000</i>
   <i name="AGGAX">      1.00000000</i>
   <i name="ALDAC">      1.00000000</i>
   <i name="AGGAC">      1.00000000</i>
   <i type="int" name="NKREDX">     1</i>
   <i type="int" name="NKREDY">     1</i>
   <i type="int" name="NKREDZ">     1</i>
   <i type="logical" name="SHIFTRED"> F  </i>
   <i type="logical" name="ODDONLY"> F  </i>
   <i type="logical" name="EVENONLY"> F  </i>
   <i type="int" name="LMAXFOCK">     0</i>
   <i type="int" name="NMAXFOCKAE">     0</i>
   <i type="logical" name="LFOCKAEDFT"> F  </i>
   <i name="HFSCREEN">      0.00000000</i>
   <i name="HFSCREENC">      0.00000000</i>
   <i type="int" name="NBANDSGWLOW">     0</i>
  </separator>
  <separator name="vdW DFT" >
   <i type="logical" name="LUSE_VDW"> F  </i>
   <i name="Zab_VDW">     -0.84910000</i>
   <i name="PARAM1">      0.12340000</i>
   <i name="PARAM2">      1.00000000</i>
   <i name="PARAM3">      0.00000000</i>
  </separator>
  <separator name="model GW" >
   <i type="int" name="MODEL_GW">     0</i>
   <i name="MODEL_EPS0">      9.17662200</i>
   <i name="MODEL_ALPHA">      1.00000000</i>
  </separator>
  <separator name="linear response parameters" >
   <i type="logical" name="LEPSILON"> F  </i>
   <i type="logical" name="LRPA"> F  </i>
   <i type="logical" name="LNABLA"> F  </i>
   <i type="logical" name="LVEL"> F  </i>
   <i type="int" name="KINTER">     0</i>
   <i name="CSHIFT">      0.10000000</i>
   <i name="OMEGAMAX">     -1.00000000</i>
   <i name="DEG_THRESHOLD">      0.00200000</i>
   <i name="RTIME">     -0.10000000</i>
   <i name="WPLASMAI">      0.00000000</i>
   <v name="DFIELD">      0.00000000      0.00000000      0.00000000</v>
   <v name="WPLASMA">      0.00000000      0.00000000      0.00000000      0.00000000      0.00000000      0.00000000      0.00000000      0.00000000      0.00000000</v>
  </separator>
  <separator name="orbital magnetization" >
   <i type="logical" name="NUCIND"> F  </i>
   <v name="MAGPOS">      0.00000000      0.00000000      0.00000000</v>
   <i type="logical" name="LNICSALL"> T  </i>
   <i type="logical" name="ORBITALMAG"> F  </i>
   <i type="logical" name="LMAGBLOCH"> F  </i>
   <i type="logical" name="LCHIMAG"> F  </i>
   <i type="logical" name="LGAUGE"> T  </i>
   <i type="int" name="MAGATOM">     0</i>
   <v name="MAGDIPOL">      0.00000000      0.00000000      0.00000000</v>
   <v name="AVECCONST">      0.00000000      0.00000000      0.00000000</v>
  </separator>
  <separator name="response functions" >
   <i type="logical" name="LADDER"> F  </i>
   <i type="logical" name="LRPAFORCE"> F  </i>
   <i type="logical" name="LFXC"> F  </i>
   <i type="logical" name="LHARTREE"> T  </i>
   <i type="int" name="IBSE">     0</i>
   <v type="int" name="KPOINT">    -1     0     0     0</v>
   <i type="logical" name="LTCTE"> F  </i>
   <i type="logical" name="LTETE"> F  </i>
   <i type="logical" name="LTRIPLET"> F  </i>
   <i type="logical" name="LFXCEPS"> F  </i>
   <i type="logical" name="LFXHEG"> F  </i>
   <i type="int" name="NATURALO">     2</i>
   <i type="logical" name="L2ORDER"> F  </i>
   <i type="logical" name="LMP2LT"> F  </i>
   <i type="logical" name="LUSEW"> F  </i>
   <i name="ENCUTGW">     -2.00000000</i>
   <i name="ENCUTGWSOFT">     -2.00000000</i>
   <i name="ENCUTLF">     -1.00000000</i>
   <i type="int" name="LMAXMP2">    -1</i>
   <i name="SCISSOR">      0.00000000</i>
   <i type="int" name="NOMEGA">     0</i>
   <i type="int" name="NOMEGAR">     0</i>
   <i type="int" name="NBANDSGW">    -1</i>
   <i type="int" name="NBANDSO">    -1</i>
   <i type="int" name="NBANDSV">    -1</i>
   <i type="int" name="NELM">     1</i>
   <i type="int" name="NELMHF">     1</i>
   <i type="int" name="DIM">     3</i>
   <i type="int" name="ANTIRES">     0</i>
   <i name="OMEGAMAX">    -30.00000000</i>
   <i name="OMEGAMIN">    -30.00000000</i>
   <i name="OMEGATL">   -200.00000000</i>
   <i type="int" name="OMEGAGRID">   140</i>
   <i name="CSHIFT">     -0.10000000</i>
   <i type="logical" name="SELFENERGY"> F  </i>
   <i type="logical" name="LSPECTRAL"> F  </i>
   <i type="logical" name="LSPECTRALGW"> F  </i>
   <i type="logical" name="LSINGLES"> F  </i>
   <i type="logical" name="LFERMIGW"> F  </i>
   <i type="logical" name="ODDONLYGW"> F  </i>
   <i type="logical" name="EVENONLYGW"> F  </i>
   <i type="int" name="NKREDLFX">     1</i>
   <i type="int" name="NKREDLFY">     1</i>
   <i type="int" name="NKREDLFZ">     1</i>
   <i type="int" name="MAXMEM">  2800</i>
   <i type="int" name="TELESCOPE">     0</i>
   <i type="int" name="TAUPAR">     1</i>
   <i type="int" name="OMEGAPAR">    -1</i>
   <i name="LAMBDA">      1.00000000</i>
  </separator>
  <separator name="External order field" >
   <i name="OFIELD_KAPPA">      0.00000000</i>
   <v name="OFIELD_K">      0.00000000      0.00000000      0.00000000</v>
   <i name="OFIELD_Q6_NEAR">      0.00000000</i>
   <i name="OFIELD_Q6_FAR">      0.00000000</i>
   <i name="OFIELD_A">      0.00000000</i>
  </separator>
 </parameters>
 <atominfo>
  <atoms>       2 </atoms>
  <types>       1 </types>
  <array name="atoms" >
   <dimension dim="1">ion</dimension>
   <field type="string">element</field>
   <field type="int">atomtype</field>
   <set>
    <rc><c>Si</c><c>   1</c></rc>
    <rc><c>Si</c><c>   1</c></rc>
   </set>
  </array>
  <array name="atomtypes" >
   <dimension dim="1">type</dimension>
   <field type="int">atomspertype</field>
   <field type="string">element</field>
   <field>mass</field>
   <field>valence</field>
   <field type="string">pseudopotential</field>
   <set>
    <rc><c>   2</c><c>Si</c><c>     28.08500000</c><c>      4.00000000</c><c> PAW_PBE Si 05Jan2001                   </c></rc>
   </set>
  </array>
 </atominfo>
 <structure name="initialpos" >
  <crystal>
   <varray name="basis" >
    <v>      -2.45000000       2.45000000       1.27400000 </v>
    <v>       2.45000000      -2.45000000       1.27400000 </v>
    <v>       2.45000000       2.45000000      -1.27400000 </v>
   </varray>
   <i name="volume">     30.58874000 </i>
   <varray name="rec_basis" >
    <v>       0.00000000       0.20408163       0.39246468 </v>
    <v>       0.20408163       0.00000000       0.39246468 </v>
    <v>       0.20408163       0.20408163      -0.00000000 </v>
   </varray>
  </crystal>
  <varray name="positions" >
   <v>       0.25000000       0.75000000       0.50000000 </v>
   <v>       0.00000000       0.00000000       0.00000000 </v>
  </varray>
 </structure>
 <calculation>
  <scstep>
   <time name="dav">    0.22    0.23</time>
   <time name="total">    0.28    0.29</time>
   <energy>
    <i name="alphaZ">      4.40202223 </i>
    <i name="ewald">   -265.18101312 </i>
    <i name="hartreedc">     -2.64163627 </i>
    <i name="XCdc">    -17.56654573 </i>
    <i name="pawpsdc">     71.01783993 </i>
    <i name="pawaedc">    -35.94649676 </i>
    <i name="eentropy">     -0.01800161 </i>
    <i name="bandstr">     29.55594168 </i>
    <i name="atom">    206.12349923 </i>
    <i name="e_fr_energy">    -10.25439042 </i>
    <i name="e_wo_entrp">    -10.23638881 </i>
    <i name="e_0_energy">    -10.24538962 </i>
   </energy>
  </scstep>
  <scstep>
   <time name="dav">    0.17    0.17</time>
   <time name="total">    0.21    0.22</time>
   <energy>
    <i name="e_fr_energy">    -10.23848351 </i>
    <i name="e_wo_entrp">    -10.21987207 </i>
    <i name="e_0_energy">    -10.22917779 </i>
   </energy>
  </scstep>
  <scstep>
   <time name="dav">    0.19    0.19</time>
   <time name="total">    0.23    0.24</time>
   <energy>
    <i name="e_fr_energy">    -10.23124282 </i>
    <i name="e_wo_entrp">    -10.21190256 </i>
    <i name="e_0_energy">    -10.22157269 </i>
   </energy>
  </scstep>
  <scstep>
   <time name="dav">    0.13    0.13</time>
   <time name="total">    0.15    0.16</time>
   <energy>
    <i name="alphaZ">      4.40202223 </i>
    <i name="ewald">   -265.18101312 </i>
    <i name="hartreedc">     -2.48519517 </i>
    <i name="XCdc">    -17.57912430 </i>
    <i name="pawpsdc">     70.71771233 </i>
    <i name="pawaedc">    -35.63390115 </i>
    <i name="eentropy">     -0.01932077 </i>
    <i name="bandstr">     29.42401972 </i>
    <i name="atom">    206.12349923 </i>
    <i name="e_fr_energy">    -10.23130100 </i>
    <i name="e_wo_entrp">    -10.21198023 </i>
    <i name="e_0_energy">    -10.22164062 </i>
   </energy>
  </scstep>
  <structure>
   <crystal>
    <varray name="basis" >
     <v>      -2.45000000       2.45000000       1.27400000 </v>
     <v>       2.45000000      -2.45000000       1.27400000 </v>
     <v>       2.45000000       2.45000000      -1.27400000 </v>
    </varray>
    <i name="volume">     30.58874000 </i>
    <varray name="rec_basis" >
     <v>       0.00000000       0.20408163       0.39246468 </v>
     <v>       0.20408163       0.00000000       0.39246468 </v>
     <v>       0.20408163       0.20408163      -0.00000000 </v>
    </varray>
   </crystal>
   <varray name="positions" >
    <v>       0.25000000       0.75000000       0.50000000 </v>
    <v>       0.00000000       0.00000000       0.00000000 </v>
   </varray>
  </structure>
  <varray name="forces" >
   <v>      -0.00000000       0.00000000      -0.00000000 </v>
   <v>       0.00000000      -0.00000000       0.00000000 </v>
  </varray>
  <varray name="stress" >
   <v>      27.10758627       0.00000000       0.00000000 </v>
   <v>      -0.00000000      27.10758627       0.00000000 </v>
   <v>       0.00000000       0.00000000     -40.83198724 </v>
  </varray>
  <energy>
   <i name="e_fr_energy">    -10.23130100 </i>
   <i name="e_wo_entrp">    -10.22164062 </i>
   <i name="e_0_energy">     -0.01932077 </i>
  </energy>
  <time name="totalsc">    1.54    2.08</time>
  <eigenvalues>
   <array>
    <dimension dim="1">band</dimension>
    <dimension dim="2">kpoint</dimension>
    <dimension dim="3">spin</dimension>
    <field>eigene</field>
    <field>occ</field>
    <set>
     <set comment="spin 1">
      <set comment="kpoint 1">
       <r>   -4.6161    1.0000 </r>
       <r>    6.1819    1.0000 </r>
       <r>    6.2991    1.0000 </r>
       <r>    6.2991    1.0000 </r>
       <r>   10.5443    0.0000 </r>
       <r>   16.8730    0.0000 </r>
       <r>   17.3691    0.0000 </r>
       <r>   17.3692    0.0000 </r>
      </set>
      <set comment="kpoint 2">
       <r>   -3.4894    1.0000 </r>
       <r>    5.0231    1.0000 </r>
       <r>    6.2778    1.0000 </r>
       <r>    9.3010    0.1521 </r>
       <r>   12.6333    0.0000 </r>
       <r>   12.8216    0.0000 </r>
       <r>   13.4161    0.0000 </r>
       <r>   15.5140    0.0000 </r>
      </set>
      <set comment="kpoint 3">
       <r>   -0.1586    1.0000 </r>
       <r>    5.1749    1.0000 </r>
       <r>    6.0041    1.0000 </r>
       <r>    7.2558    1.0000 </r>
       <r>    8.9539    0.9231 </r>
       <r>   11.3945    0.0000 </r>
       <r>   13.6674    0.0000 </r>
       <r>   14.2994    0.0000 </r>
      </set>
      <set comment="kpoint 4">
       <r>   -0.6210    1.0000 </r>
       <r>    5.9991    1.0000 </r>
       <r>    6.8943    1.0000 </r>
       <r>    6.9311    1.0000 </r>
       <r>    9.7392    0.0000 </r>
       <r>   11.8657    0.0000 </r>
       <r>   12.4050    0.0000 </r>
       <r>   12.6843    0.0000 </r>
      </set>
      <set comment="kpoint 5">
       <r>    1.2110    1.0000 </r>
       <r>    3.3923    1.0000 </r>
       <r>    4.4679    1.0000 </r>
       <r>    7.7085    1.0000 </r>
       <r>    9.0447    0.7836 </r>
       <r>   11.0323    0.0000 </r>
       <r>   13.8706    0.0000 </r>
       <r>   16.2528    0.0000 </r>
      </set>
      <set comment="kpoint 6">
       <r>   -2.5458    1.0000 </r>
       <r>    2.0333    1.0000 </r>
       <r>    6.7462    1.0000 </r>
       <r>   10.4387    0.0000 </r>
       <r>   11.0916    0.0000 </r>
       <r>   12.2935    0.0000 </r>
       <r>   13.9894    0.0000 </r>
       <r>   15.8956    0.0000 </r>
      </set>
      <set comment="kpoint 7">
       <r>   -4.1404    1.0000 </r>
       <r>    2.7424    1.0000 </r>
       <r>    6.7407    1.0000 </r>
       <r>    8.3572    1.0000 </r>
       <r>   13.1706    0.0000 </r>
       <r>   13.2924    0.0000 </r>
       <r>   15.0181    0.0000 </r>
       <r>   19.2705    0.0000 </r>
      </set>
      <set comment="kpoint 8">
       <r>   -0.6828    1.0000 </r>
       <r>   -0.6791    1.0000 </r>
       <r>    8.4183    1.0000 </r>
       <r>    8.4848    1.0000 </r>
       <r>   10.6793    0.0000 </r>
       <r>   13.1976    0.0000 </r>
       <r>   13.6004    0.0000 </r>
       <r>   14.0579    0.0000 </r>
      </set>
      <set comment="kpoint 9">
       <r>   -2.7221    1.0000 </r>
       <r>   -0.3956    1.0000 </r>
       <r>    8.0637    1.0000 </r>
       <r>    9.9510    0.0000 </r>
       <r>   10.2586    0.0000 </r>
       <r>   12.1836    0.0000 </r>
       <r>   18.1057    0.0000 </r>
       <r>   18.8250    0.0000 </r>
      </set>
      <set comment="kpoint 10">
       <r>    0.7653    1.0000 </r>
       <r>    3.0261    1.0000 </r>
       <r>    6.1225    1.0000 </r>
       <r>    6.1437    1.0000 </r>
       <r>   11.3585    0.0000 </r>
       <r>   13.0755    0.0000 </r>
       <r>   13.9950    0.0000 </r>
       <r>   14.4652    0.0000 </r>
      </set>
      <set comment="kpoint 11">
       <r>   -3.6674    1.0000 </r>
       <r>    2.5737    1.0000 </r>
       <r>    4.1988    1.0000 </r>
       <r>   10.2242    0.0000 </r>
       <r>   11.4399    0.0000 </r>
       <r>   14.4697    0.0000 </r>
       <r>   17.6365    0.0000 </r>
       <r>   18.1487    0.0000 </r>
      </set>
      <set comment="kpoint 12">
       <r>   -2.2619    1.0000 </r>
       <r>    0.0186    1.0000 </r>
       <r>    4.9521    1.0000 </r>
       <r>    7.1570    1.0000 </r>
       <r>   13.5865    0.0000 </r>
       <r>   15.6306    0.0000 </r>
       <r>   17.8267    0.0000 </r>
       <r>   18.0736    0.0000 </r>
      </set>
      <set comment="kpoint 13">
       <r>   -1.6176    1.0000 </r>
       <r>    2.2622    1.0000 </r>
       <r>    3.9867    1.0000 </r>
       <r>    7.7279    1.0000 </r>
       <r>    9.9947    0.0000 </r>
       <r>   15.4740    0.0000 </r>
       <r>   16.3061    0.0000 </r>
       <r>   17.2274    0.0000 </r>
      </set>
      <set comment="kpoint 14">
       <r>    0.1824    1.0000 </r>
       <r>    0.1941    1.0000 </r>
       <r>    5.1303    1.0000 </r>
       <r>    5.1322    1.0000 </r>
       <r>    9.5962    0.0009 </r>
       <r>   16.1858    0.0000 </r>
       <r>   17.6161    0.0000 </r>
       <r>   18.4657    0.0000 </r>
      </set>
      <set comment="kpoint 15">
       <r>    2.4690    1.0000 </r>
       <r>    3.4267    1.0000 </r>
       <r>    4.2934    1.0000 </r>
       <r>    5.7888    1.0000 </r>
       <r>    7.3023    1.0000 </r>
       <r>   12.1296    0.0000 </r>
       <r>   13.4981    0.0000 </r>
       <r>   16.1497    0.0000 </r>
      </set>
      <set comment="kpoint 16">
       <r>   -1.0871    1.0000 </r>
       <r>    7.7660    1.0000 </r>
       <r>    8.1042    1.0000 </r>
       <r>    8.4477    1.0000 </r>
       <r>    8.4477    1.0000 </r>
       <r>   10.0919    0.0000 </r>
       <r>   11.5705    0.0000 </r>
       <r>   11.5706    0.0000 </r>
      </set>
      <set comment="kpoint 17">
       <r>   -0.9194    1.0000 </r>
       <r>    0.6883    1.0000 </r>
       <r>    2.5055    1.0000 </r>
       <r>    4.0882    1.0000 </r>
       <r>   16.1283    0.0000 </r>
       <r>   16.4656    0.0000 </r>
       <r>   18.9904    0.0000 </r>
       <r>   20.2937    0.0000 </r>
      </set>
      <set comment="kpoint 18">
       <r>    1.3108    1.0000 </r>
       <r>    1.3336    1.0000 </r>
       <r>    3.1258    1.0000 </r>
       <r>    3.1258    1.0000 </r>
       <r>    9.1819    0.4265 </r>
       <r>   18.3806    0.0000 </r>
       <r>   19.5756    0.0000 </r>
       <r>   19.5757    0.0000 </r>
      </set>
     </set>
    </set>
   </array>
  </eigenvalues>
  <separator name="orbital magnetization" >
   <v name="MAGDIPOLOUT">      0.00000000      0.00000000      0.00000000</v>
  </separator>
  <dos>
   <i name="efermi">      9.15566793 </i>
   <total>
    <array>
     <dimension dim="1">gridpoints</dimension>
     <dimension dim="2">spin</dimension>
     <field>energy</field>
     <field>total</field>
     <field>integrated</field>
     <set>
      <set comment="spin 1">
       <r>    -6.6161     0.0000     0.0000 </r>
       <r>    -6.5197     0.0000     0.0000 </r>
       <r>    -6.4233     0.0000     0.0000 </r>
       <r>    -6.3270     0.0000     0.0000 </r>
       <r>    -6.2306     0.0000     0.0000 </r>
       <r>    -6.1342     0.0000     0.0000 </r>
       <r>    -6.0379     0.0000     0.0000 </r>
       <r>    -5.9415     0.0000     0.0000 </r>
       <r>    -5.8451     0.0000     0.0000 </r>
       <r>    -5.7488     0.0000     0.0000 </r>
       <r>    -5.6524     0.0000     0.0000 </r>
       <r>    -5.5560     0.0000     0.0000 </r>
       <r>    -5.4597     0.0000     0.0000 </r>
       <r>    -5.3633     0.0000     0.0000 </r>
       <r>    -5.2670     0.0000     0.0000 </r>
       <r>    -5.1706     0.0000     0.0000 </r>
       <r>    -5.0742     0.0001     0.0000 </r>
       <r>    -4.9779     0.0008     0.0001 </r>
       <r>    -4.8815     0.0042     0.0005 </r>
       <r>    -4.7851     0.0142     0.0019 </r>
       <r>    -4.6888     0.0312     0.0049 </r>
       <r>    -4.5924     0.0441     0.0091 </r>
       <r>    -4.4960     0.0426     0.0132 </r>
       <r>    -4.3997     0.0406     0.0171 </r>
       <r>    -4.3033     0.0689     0.0238 </r>
       <r>    -4.2069     0.1310     0.0364 </r>
       <r>    -4.1106     0.1765     0.0534 </r>
       <r>    -4.0142     0.1573     0.0686 </r>
       <r>    -3.9178     0.1074     0.0789 </r>
       <r>    -3.8215     0.1075     0.0893 </r>
       <r>    -3.7251     0.1931     0.1079 </r>
       <r>    -3.6287     0.3298     0.1397 </r>
       <r>    -3.5324     0.4379     0.1819 </r>
       <r>    -3.4360     0.4329     0.2236 </r>
       <r>    -3.3396     0.3034     0.2528 </r>
       <r>    -3.2433     0.1440     0.2667 </r>
       <r>    -3.1469     0.0457     0.2711 </r>
       <r>    -3.0505     0.0153     0.2726 </r>
       <r>    -2.9542     0.0326     0.2757 </r>
       <r>    -2.8578     0.1099     0.2863 </r>
       <r>    -2.7614     0.2804     0.3133 </r>
       <r>    -2.6651     0.5404     0.3654 </r>
       <r>    -2.5687     0.7802     0.4406 </r>
       <r>    -2.4723     0.8350     0.5211 </r>
       <r>    -2.3760     0.7051     0.5890 </r>
       <r>    -2.2796     0.5490     0.6419 </r>
       <r>    -2.1832     0.4126     0.6817 </r>
       <r>    -2.0869     0.2534     0.7061 </r>
       <r>    -1.9905     0.1133     0.7170 </r>
       <r>    -1.8941     0.0585     0.7226 </r>
       <r>    -1.7978     0.1065     0.7329 </r>
       <r>    -1.7014     0.2336     0.7554 </r>
       <r>    -1.6050     0.3437     0.7885 </r>
       <r>    -1.5087     0.3246     0.8198 </r>
       <r>    -1.4123     0.1989     0.8390 </r>
       <r>    -1.3159     0.0910     0.8477 </r>
       <r>    -1.2196     0.0687     0.8544 </r>
       <r>    -1.1232     0.1184     0.8658 </r>
       <r>    -1.0269     0.2068     0.8857 </r>
       <r>    -0.9305     0.3298     0.9175 </r>
       <r>    -0.8341     0.5399     0.9695 </r>
       <r>    -0.7378     0.8575     1.0521 </r>
       <r>    -0.6414     1.0976     1.1579 </r>
       <r>    -0.5450     1.0233     1.2565 </r>
       <r>    -0.4487     0.7220     1.3261 </r>
       <r>    -0.3523     0.4861     1.3729 </r>
       <r>    -0.2559     0.4436     1.4157 </r>
       <r>    -0.1596     0.5387     1.4676 </r>
       <r>    -0.0632     0.6800     1.5331 </r>
       <r>     0.0332     0.8284     1.6130 </r>
       <r>     0.1295     0.9496     1.7045 </r>
       <r>     0.2259     0.9223     1.7934 </r>
       <r>     0.3223     0.6745     1.8584 </r>
       <r>     0.4186     0.3612     1.8932 </r>
       <r>     0.5150     0.2085     1.9133 </r>
       <r>     0.6114     0.2786     1.9401 </r>
       <r>     0.7077     0.4482     1.9833 </r>
       <r>     0.8041     0.5173     2.0331 </r>
       <r>     0.9005     0.4209     2.0737 </r>
       <r>     0.9968     0.3339     2.1059 </r>
       <r>     1.0932     0.4554     2.1498 </r>
       <r>     1.1896     0.7243     2.2196 </r>
       <r>     1.2859     0.8470     2.3012 </r>
       <r>     1.3823     0.6682     2.3656 </r>
       <r>     1.4787     0.3559     2.3999 </r>
       <r>     1.5750     0.1306     2.4125 </r>
       <r>     1.6714     0.0445     2.4168 </r>
       <r>     1.7678     0.0720     2.4237 </r>
       <r>     1.8641     0.2309     2.4460 </r>
       <r>     1.9605     0.5171     2.4958 </r>
       <r>     2.0569     0.7763     2.5706 </r>
       <r>     2.1532     0.8408     2.6516 </r>
       <r>     2.2496     0.7720     2.7260 </r>
       <r>     2.3460     0.7429     2.7976 </r>
       <r>     2.4423     0.7961     2.8743 </r>
       <r>     2.5387     0.8209     2.9534 </r>
       <r>     2.6351     0.7120     3.0220 </r>
       <r>     2.7314     0.5233     3.0725 </r>
       <r>     2.8278     0.3917     3.1102 </r>
       <r>     2.9242     0.3950     3.1483 </r>
       <r>     3.0205     0.4988     3.1963 </r>
       <r>     3.1169     0.5904     3.2532 </r>
       <r>     3.2132     0.6686     3.3176 </r>
       <r>     3.3096     0.8605     3.4006 </r>
       <r>     3.4060     1.0781     3.5045 </r>
       <r>     3.5023     1.0118     3.6020 </r>
       <r>     3.5987     0.6393     3.6636 </r>
       <r>     3.6951     0.2832     3.6909 </r>
       <r>     3.7914     0.1650     3.7068 </r>
       <r>     3.8878     0.2726     3.7330 </r>
       <r>     3.9842     0.4864     3.7799 </r>
       <r>     4.0805     0.6683     3.8443 </r>
       <r>     4.1769     0.7746     3.9190 </r>
       <r>     4.2733     0.8654     4.0024 </r>
       <r>     4.3696     0.9657     4.0954 </r>
       <r>     4.4660     0.9844     4.1903 </r>
       <r>     4.5624     0.8057     4.2679 </r>
       <r>     4.6587     0.4974     4.3158 </r>
       <r>     4.7551     0.3118     4.3459 </r>
       <r>     4.8515     0.4326     4.3876 </r>
       <r>     4.9478     0.8372     4.4683 </r>
       <r>     5.0442     1.3075     4.5943 </r>
       <r>     5.1406     1.5203     4.7408 </r>
       <r>     5.2369     1.2821     4.8643 </r>
       <r>     5.3333     0.7586     4.9374 </r>
       <r>     5.4297     0.3108     4.9674 </r>
       <r>     5.5260     0.1167     4.9786 </r>
       <r>     5.6224     0.1403     4.9921 </r>
       <r>     5.7188     0.3097     5.0220 </r>
       <r>     5.8151     0.5686     5.0768 </r>
       <r>     5.9115     0.8912     5.1626 </r>
       <r>     6.0079     1.2485     5.2830 </r>
       <r>     6.1042     1.4963     5.4271 </r>
       <r>     6.2006     1.4640     5.5682 </r>
       <r>     6.2970     1.1509     5.6791 </r>
       <r>     6.3933     0.7270     5.7492 </r>
       <r>     6.4897     0.4284     5.7905 </r>
       <r>     6.5861     0.4492     5.8338 </r>
       <r>     6.6824     0.7961     5.9105 </r>
       <r>     6.7788     1.2104     6.0271 </r>
       <r>     6.8752     1.3762     6.1597 </r>
       <r>     6.9715     1.2446     6.2797 </r>
       <r>     7.0679     1.0500     6.3809 </r>
       <r>     7.1643     1.0121     6.4784 </r>
       <r>     7.2606     1.0501     6.5796 </r>
       <r>     7.3570     0.9267     6.6689 </r>
       <r>     7.4533     0.6746     6.7339 </r>
       <r>     7.5497     0.6123     6.7929 </r>
       <r>     7.6461     0.8775     6.8775 </r>
       <r>     7.7424     1.1487     6.9882 </r>
       <r>     7.8388     1.0512     7.0895 </r>
       <r>     7.9352     0.6977     7.1567 </r>
       <r>     8.0315     0.4428     7.1994 </r>
       <r>     8.1279     0.3791     7.2359 </r>
       <r>     8.2243     0.4496     7.2792 </r>
       <r>     8.3206     0.6735     7.3441 </r>
       <r>     8.4170     0.9548     7.4362 </r>
       <r>     8.5134     1.0054     7.5330 </r>
       <r>     8.6097     0.7304     7.6034 </r>
       <r>     8.7061     0.4050     7.6424 </r>
       <r>     8.8025     0.3377     7.6750 </r>
       <r>     8.8988     0.5915     7.7320 </r>
       <r>     8.9952     0.9607     7.8246 </r>
       <r>     9.0916     1.1287     7.9333 </r>
       <r>     9.1879     1.0013     8.0298 </r>
       <r>     9.2843     0.7647     8.1035 </r>
       <r>     9.3807     0.5782     8.1592 </r>
       <r>     9.4770     0.4973     8.2072 </r>
       <r>     9.5734     0.5493     8.2601 </r>
       <r>     9.6698     0.6595     8.3236 </r>
       <r>     9.7661     0.7114     8.3922 </r>
       <r>     9.8625     0.7162     8.4612 </r>
       <r>     9.9589     0.7440     8.5329 </r>
       <r>    10.0552     0.7644     8.6066 </r>
       <r>    10.1516     0.7432     8.6782 </r>
       <r>    10.2480     0.7587     8.7513 </r>
       <r>    10.3443     0.8650     8.8347 </r>
       <r>    10.4407     0.9716     8.9283 </r>
       <r>    10.5371     0.9422     9.0191 </r>
       <r>    10.6334     0.7804     9.0943 </r>
       <r>    10.7298     0.6063     9.1527 </r>
       <r>    10.8262     0.5530     9.2060 </r>
       <r>    10.9225     0.7707     9.2803 </r>
       <r>    11.0189     1.2075     9.3967 </r>
       <r>    11.1153     1.4753     9.5388 </r>
       <r>    11.2116     1.3666     9.6705 </r>
       <r>    11.3080     1.1704     9.7833 </r>
       <r>    11.4043     1.0932     9.8887 </r>
       <r>    11.5007     0.9629     9.9814 </r>
       <r>    11.5971     0.6935    10.0483 </r>
       <r>    11.6934     0.4581    10.0924 </r>
       <r>    11.7898     0.3934    10.1303 </r>
       <r>    11.8862     0.4485    10.1736 </r>
       <r>    11.9825     0.5393    10.2255 </r>
       <r>    12.0789     0.7128    10.2942 </r>
       <r>    12.1753     1.0068    10.3912 </r>
       <r>    12.2716     1.2716    10.5138 </r>
       <r>    12.3680     1.3070    10.6397 </r>
       <r>    12.4644     1.1276    10.7484 </r>
       <r>    12.5607     0.9745    10.8423 </r>
       <r>    12.6571     0.9781    10.9365 </r>
       <r>    12.7535     0.9870    11.0317 </r>
       <r>    12.8498     0.8676    11.1153 </r>
       <r>    12.9462     0.7340    11.1860 </r>
       <r>    13.0426     0.7674    11.2599 </r>
       <r>    13.1389     0.9469    11.3512 </r>
       <r>    13.2353     1.0924    11.4565 </r>
       <r>    13.3317     1.1609    11.5683 </r>
       <r>    13.4280     1.2905    11.6927 </r>
       <r>    13.5244     1.5088    11.8381 </r>
       <r>    13.6208     1.6358    11.9957 </r>
       <r>    13.7171     1.5938    12.1493 </r>
       <r>    13.8135     1.6123    12.3047 </r>
       <r>    13.9099     1.8470    12.4827 </r>
       <r>    14.0062     2.0033    12.6757 </r>
       <r>    14.1026     1.7405    12.8434 </r>
       <r>    14.1990     1.2293    12.9619 </r>
       <r>    14.2953     0.8915    13.0478 </r>
       <r>    14.3917     0.8136    13.1262 </r>
       <r>    14.4881     0.7618    13.1996 </r>
       <r>    14.5844     0.5677    13.2544 </r>
       <r>    14.6808     0.3036    13.2836 </r>
       <r>    14.7772     0.1294    13.2961 </r>
       <r>    14.8735     0.0970    13.3054 </r>
       <r>    14.9699     0.1456    13.3195 </r>
       <r>    15.0663     0.1808    13.3369 </r>
       <r>    15.1626     0.1656    13.3528 </r>
       <r>    15.2590     0.1832    13.3705 </r>
       <r>    15.3554     0.3604    13.4052 </r>
       <r>    15.4517     0.6879    13.4715 </r>
       <r>    15.5481     0.9529    13.5634 </r>
       <r>    15.6444     0.9751    13.6573 </r>
       <r>    15.7408     0.8680    13.7410 </r>
       <r>    15.8372     0.8618    13.8240 </r>
       <r>    15.9335     0.9815    13.9186 </r>
       <r>    16.0299     1.1787    14.0322 </r>
       <r>    16.1263     1.5151    14.1782 </r>
       <r>    16.2226     1.8475    14.3562 </r>
       <r>    16.3190     1.7969    14.5294 </r>
       <r>    16.4154     1.3037    14.6550 </r>
       <r>    16.5117     0.7170    14.7241 </r>
       <r>    16.6081     0.3160    14.7545 </r>
       <r>    16.7045     0.1235    14.7664 </r>
       <r>    16.8008     0.0621    14.7724 </r>
       <r>    16.8972     0.0607    14.7783 </r>
       <r>    16.9936     0.0932    14.7873 </r>
       <r>    17.0899     0.1839    14.8050 </r>
       <r>    17.1863     0.3270    14.8365 </r>
       <r>    17.2827     0.4273    14.8777 </r>
       <r>    17.3790     0.4292    14.9190 </r>
       <r>    17.4754     0.4367    14.9611 </r>
       <r>    17.5718     0.5505    15.0142 </r>
       <r>    17.6681     0.6882    15.0805 </r>
       <r>    17.7645     0.7235    15.1502 </r>
       <r>    17.8609     0.6803    15.2158 </r>
       <r>    17.9572     0.6753    15.2808 </r>
       <r>    18.0536     0.7493    15.3530 </r>
       <r>    18.1500     0.7803    15.4282 </r>
       <r>    18.2463     0.6711    15.4929 </r>
       <r>    18.3427     0.5419    15.5451 </r>
       <r>    18.4391     0.4996    15.5933 </r>
       <r>    18.5354     0.4517    15.6368 </r>
       <r>    18.6318     0.3366    15.6692 </r>
       <r>    18.7282     0.2522    15.6935 </r>
       <r>    18.8245     0.2634    15.7189 </r>
       <r>    18.9209     0.3053    15.7483 </r>
       <r>    19.0173     0.3034    15.7776 </r>
       <r>    19.1136     0.2636    15.8030 </r>
       <r>    19.2100     0.2351    15.8256 </r>
       <r>    19.3064     0.2256    15.8474 </r>
       <r>    19.4027     0.2116    15.8678 </r>
       <r>    19.4991     0.2039    15.8874 </r>
       <r>    19.5955     0.2019    15.9069 </r>
       <r>    19.6918     0.1647    15.9227 </r>
       <r>    19.7882     0.0935    15.9318 </r>
       <r>    19.8845     0.0357    15.9352 </r>
       <r>    19.9809     0.0159    15.9367 </r>
       <r>    20.0773     0.0341    15.9400 </r>
       <r>    20.1736     0.0898    15.9487 </r>
       <r>    20.2700     0.1564    15.9637 </r>
       <r>    20.3664     0.1746    15.9806 </r>
       <r>    20.4627     0.1246    15.9926 </r>
       <r>    20.5591     0.0569    15.9981 </r>
       <r>    20.6555     0.0166    15.9997 </r>
       <r>    20.7518     0.0031    16.0000 </r>
       <r>    20.8482     0.0004    16.0000 </r>
       <r>    20.9446     0.0000    16.0000 </r>
       <r>    21.0409     0.0000    16.0000 </r>
       <r>    21.1373     0.0000    16.0000 </r>
       <r>    21.2337     0.0000    16.0000 </r>
       <r>    21.3300     0.0000    16.0000 </r>
       <r>    21.4264     0.0000    16.0000 </r>
       <r>    21.5228     0.0000    16.0000 </r>
       <r>    21.6191     0.0000    16.0000 </r>
       <r>    21.7155     0.0000    16.0000 </r>
       <r>    21.8119     0.0000    16.0000 </r>
       <r>    21.9082     0.0000    16.0000 </r>
       <r>    22.0046     0.0000    16.0000 </r>
       <r>    22.1010     0.0000    16.0000 </r>
       <r>    22.1973     0.0000    16.0000 </r>
       <r>    22.2937     0.0000    16.0000 </r>
      </set>
     </set>
    </array>
   </total>
  </dos>
 </calculation>
 <structure name="finalpos" >
  <crystal>
   <varray name="basis" >
    <v>      -2.45000000       2.45000000       1.27400000 </v>
    <v>       2.45000000      -2.45000000       1.27400000 </v>
    <v>       2.45000000       2.45000000      -1.27400000 </v>
   </varray>
   <i name="volume">     30.58874000 </i>
   <varray name="rec_basis" >
    <v>       0.00000000       0.20408163       0.39246468 </v>
    <v>       0.20408163       0.00000000       0.39246468 </v>
    <v>       0.20408163       0.20408163      -0.00000000 </v>
   </varray>
  </crystal>
  <varray name="positions" >
   <v>       0.25000000       0.75000000       0.50000000 </v>
   <v>       0.00000000       0.00000000       0.00000000 </v>
  </varray>
 </structure>
</modeling>
