<?xml version="1.0" encoding="ISO-8859-1"?>
<modeling>
 <generator>
  <i name="program" type="string">vasp </i>
  <i name="version" type="string">5.4.4.18Apr17-6-g9f103f2a35  </i>
  <i name="subversion" type="string">(build Dec 09 2018 21:25:21) complex            parallel </i>
  <i name="platform" type="string">IFC18.0.1.163_CrayMPICH7.7.0_MKL18.0.1.163 </i>
  <i name="date" type="string">2019 03 19 </i>
  <i name="time" type="string">13:12:55 </i>
 </generator>
 <incar>
  <i type="string" name="PREC">normal</i>
  <i type="int" name="IBRION">     2</i>
  <i name="EDIFF">      0.00040000</i>
  <i name="EDIFFG">     -0.01000000</i>
  <i type="int" name="NSW">    15</i>
  <i type="int" name="ISIF">     2</i>
  <i name="ENCUT">    250.00000000</i>
  <i type="int" name="NBANDS">     8</i>
  <i type="logical" name="LREAL"> F  </i>
  <i type="int" name="ISMEAR">     0</i>
  <i name="SIGMA">      0.20000000</i>
  <v type="int" name="KPOINT_BSE">    -1     0     0     0</v>
 </incar>
 <structure name="primitive_cell" >
  <crystal>
   <varray name="basis" >
    <v>      -2.45000000       2.45000000       1.27400000 </v>
    <v>       2.45000000      -2.45000000       1.27400000 </v>
    <v>       2.45000000       2.45000000      -1.27400000 </v>
   </varray>
   <i name="volume">     30.58874000 </i>
   <varray name="rec_basis" >
    <v>       0.00000000       0.20408163       0.39246468 </v>
    <v>       0.20408163       0.00000000       0.39246468 </v>
    <v>       0.20408163       0.20408163      -0.00000000 </v>
   </varray>
  </crystal>
  <varray name="positions" >
   <v>       0.25000000      -0.25000000      -0.50000000 </v>
   <v>       0.00000000       0.00000000       0.00000000 </v>
  </varray>
 </structure>
 <varray name="primitive_index" >
  <v type="int" >        1 </v>
  <v type="int" >        2 </v>
 </varray>
 <kpoints>
  <generation param="Monkhorst-Pack">
   <v type="int" name="divisions">       5        5        5 </v>
   <v name="usershift">      0.00000000       0.00000000       0.00000000 </v>
   <v name="genvec1">      0.20000000       0.00000000      -0.00000000 </v>
   <v name="genvec2">      0.00000000       0.20000000      -0.00000000 </v>
   <v name="genvec3">      0.00000000      -0.00000000       0.20000000 </v>
   <v name="shift">      0.00000000       0.00000000       0.00000000 </v>
  </generation>
  <varray name="kpointlist" >
   <v>       0.00000000       0.00000000       0.00000000 </v>
   <v>       0.20000000       0.00000000      -0.00000000 </v>
   <v>       0.40000000       0.00000000      -0.00000000 </v>
   <v>       0.20000000       0.20000000      -0.00000000 </v>
   <v>       0.40000000       0.20000000      -0.00000000 </v>
   <v>      -0.40000000       0.20000000       0.00000000 </v>
   <v>      -0.20000000       0.20000000       0.00000000 </v>
   <v>       0.40000000       0.40000000      -0.00000000 </v>
   <v>      -0.40000000       0.40000000       0.00000000 </v>
   <v>       0.20000000       0.20000000       0.20000000 </v>
   <v>      -0.20000000       0.20000000       0.20000000 </v>
   <v>      -0.40000000       0.40000000       0.20000000 </v>
   <v>      -0.20000000       0.40000000       0.20000000 </v>
   <v>      -0.40000000      -0.40000000       0.20000000 </v>
   <v>      -0.20000000      -0.40000000       0.20000000 </v>
   <v>      -0.20000000      -0.20000000       0.20000000 </v>
   <v>      -0.40000000       0.40000000       0.40000000 </v>
   <v>      -0.40000000      -0.40000000       0.40000000 </v>
  </varray>
  <varray name="weights" >
   <v>       0.00800000 </v>
   <v>       0.06400000 </v>
   <v>       0.06400000 </v>
   <v>       0.06400000 </v>
   <v>       0.12800000 </v>
   <v>       0.12800000 </v>
   <v>       0.03200000 </v>
   <v>       0.06400000 </v>
   <v>       0.03200000 </v>
   <v>       0.06400000 </v>
   <v>       0.03200000 </v>
   <v>       0.06400000 </v>
   <v>       0.06400000 </v>
   <v>       0.06400000 </v>
   <v>       0.06400000 </v>
   <v>       0.01600000 </v>
   <v>       0.03200000 </v>
   <v>       0.01600000 </v>
  </varray>
 </kpoints>
 <parameters>
  <separator name="general" >
   <i type="string" name="SYSTEM">unknown system</i>
   <i type="logical" name="LCOMPAT"> F  </i>
  </separator>
  <separator name="electronic" >
   <i type="string" name="PREC">normal</i>
   <i name="ENMAX">    250.00000000</i>
   <i name="ENAUG">    322.06900000</i>
   <i name="EDIFF">      0.00040000</i>
   <i type="int" name="IALGO">    38</i>
   <i type="int" name="IWAVPR">    11</i>
   <i type="int" name="NBANDS">     8</i>
   <i name="NELECT">      8.00000000</i>
   <i type="int" name="TURBO">     0</i>
   <i type="int" name="IRESTART">     0</i>
   <i type="int" name="NREBOOT">     0</i>
   <i type="int" name="NMIN">     0</i>
   <i name="EREF">      0.00000000</i>
   <separator name="electronic smearing" >
    <i type="int" name="ISMEAR">     0</i>
    <i name="SIGMA">      0.20000000</i>
    <i name="KSPACING">      0.50000000</i>
    <i type="logical" name="KGAMMA"> T  </i>
   </separator>
   <separator name="electronic projectors" >
    <i type="logical" name="LREAL"> F  </i>
    <v name="ROPT">      0.00000000</v>
    <i type="int" name="LMAXPAW">  -100</i>
    <i type="int" name="LMAXMIX">     2</i>
    <i type="logical" name="NLSPLINE"> F  </i>
   </separator>
   <separator name="electronic startup" >
    <i type="int" name="ISTART">     1</i>
    <i type="int" name="ICHARG">     0</i>
    <i type="int" name="INIWAV">     1</i>
   </separator>
   <separator name="electronic spin" >
    <i type="int" name="ISPIN">     1</i>
    <i type="logical" name="LNONCOLLINEAR"> F  </i>
    <v name="MAGMOM">      1.00000000      1.00000000</v>
    <i name="NUPDOWN">     -1.00000000</i>
    <i type="logical" name="LSORBIT"> F  </i>
    <v name="SAXIS">      0.00000000      0.00000000      1.00000000</v>
    <i type="logical" name="LSPIRAL"> F  </i>
    <v name="QSPIRAL">      0.00000000      0.00000000      0.00000000</v>
    <i type="logical" name="LZEROZ"> F  </i>
   </separator>
   <separator name="electronic exchange-correlation" >
    <i type="logical" name="LASPH"> F  </i>
    <i type="logical" name="LMETAGGA"> F  </i>
   </separator>
   <separator name="electronic convergence" >
    <i type="int" name="NELM">    60</i>
    <i type="int" name="NELMDL">     0</i>
    <i type="int" name="NELMIN">     2</i>
    <i name="ENINI">    250.00000000</i>
    <separator name="electronic convergence detail" >
     <i type="logical" name="LDIAG"> T  </i>
     <i type="logical" name="LSUBROT"> F  </i>
     <i name="WEIMIN">      0.00100000</i>
     <i name="EBREAK">      0.00001250</i>
     <i name="DEPER">      0.30000000</i>
     <i type="int" name="NRMM">     4</i>
     <i name="TIME">      0.40000000</i>
    </separator>
   </separator>
   <separator name="electronic mixer" >
    <i name="AMIX">      0.40000000</i>
    <i name="BMIX">      1.00000000</i>
    <i name="AMIN">      0.10000000</i>
    <i name="AMIX_MAG">      1.60000000</i>
    <i name="BMIX_MAG">      1.00000000</i>
    <separator name="electronic mixer details" >
     <i type="int" name="IMIX">     4</i>
     <i type="logical" name="MIXFIRST"> F  </i>
     <i type="int" name="MAXMIX">   -45</i>
     <i name="WC">    100.00000000</i>
     <i type="int" name="INIMIX">     1</i>
     <i type="int" name="MIXPRE">     1</i>
     <i type="int" name="MREMOVE">     5</i>
    </separator>
   </separator>
   <separator name="electronic dipolcorrection" >
    <i type="logical" name="LDIPOL"> F  </i>
    <i type="logical" name="LMONO"> F  </i>
    <i type="int" name="IDIPOL">     0</i>
    <i name="EPSILON">      1.00000000</i>
    <v name="DIPOL">   -100.00000000   -100.00000000   -100.00000000</v>
    <i name="EFIELD">      0.00000000</i>
   </separator>
  </separator>
  <separator name="grids" >
   <i type="int" name="NGX">    14</i>
   <i type="int" name="NGY">    14</i>
   <i type="int" name="NGZ">    14</i>
   <i type="int" name="NGXF">    28</i>
   <i type="int" name="NGYF">    28</i>
   <i type="int" name="NGZF">    28</i>
   <i type="logical" name="ADDGRID"> F  </i>
  </separator>
  <separator name="ionic" >
   <i type="int" name="NSW">    15</i>
   <i type="int" name="IBRION">     2</i>
   <i type="int" name="MDALGO">     0</i>
   <i type="int" name="ISIF">     2</i>
   <i name="PSTRESS">      0.00000000</i>
   <i name="EDIFFG">     -0.01000000</i>
   <i type="int" name="NFREE">     1</i>
   <i name="POTIM">      0.50000000</i>
   <i name="SMASS">     -3.00000000</i>
   <i name="SCALEE">      1.00000000</i>
  </separator>
  <separator name="ionic md" >
   <i name="TEBEG">      0.00010000</i>
   <i name="TEEND">      0.00010000</i>
   <i type="int" name="NBLOCK">     1</i>
   <i type="int" name="KBLOCK">    15</i>
   <i type="int" name="NPACO">   256</i>
   <i name="APACO">     16.00000000</i>
  </separator>
  <separator name="symmetry" >
   <i type="int" name="ISYM">     2</i>
   <i name="SYMPREC">      0.00001000</i>
  </separator>
  <separator name="dos" >
   <i type="int" name="LORBIT">     0</i>
   <v name="RWIGS">     -1.00000000</v>
   <i type="int" name="NEDOS">   301</i>
   <i name="EMIN">     10.00000000</i>
   <i name="EMAX">    -10.00000000</i>
   <i name="EFERMI">      0.00000000</i>
  </separator>
  <separator name="writing" >
   <i type="int" name="NWRITE">     2</i>
   <i type="logical" name="LWAVE"> T  </i>
   <i type="logical" name="LDOWNSAMPLE"> F  </i>
   <i type="logical" name="LCHARG"> T  </i>
   <i type="logical" name="LPARD"> F  </i>
   <i type="logical" name="LVTOT"> F  </i>
   <i type="logical" name="LVHAR"> F  </i>
   <i type="logical" name="LELF"> F  </i>
   <i type="logical" name="LOPTICS"> F  </i>
   <v name="STM">      0.00000000      0.00000000      0.00000000      0.00000000      0.00000000      0.00000000      0.00000000</v>
  </separator>
  <separator name="performance" >
   <i type="int" name="NPAR">     8</i>
   <i type="int" name="NSIM">     4</i>
   <i type="int" name="NBLK">    -1</i>
   <i type="logical" name="LPLANE"> T  </i>
   <i type="logical" name="LSCALAPACK"> T  </i>
   <i type="logical" name="LSCAAWARE"> F  </i>
   <i type="logical" name="LSCALU"> F  </i>
   <i type="logical" name="LASYNC"> F  </i>
   <i type="logical" name="LORBITALREAL"> F  </i>
  </separator>
  <separator name="miscellaneous" >
   <i type="int" name="IDIOT">     3</i>
   <i type="int" name="ISPECIAL">     0</i>
   <i type="logical" name="LMUSIC"> F  </i>
   <v name="POMASS">     28.08500000</v>
   <v name="DARWINR">      0.00000000</v>
   <v name="DARWINV">      1.00000000</v>
   <i type="logical" name="LCORR"> T  </i>
  </separator>
  <i type="logical" name="GGA_COMPAT"> T  </i>
  <i type="logical" name="LBERRY"> F  </i>
  <i type="int" name="ICORELEVEL">     0</i>
  <i type="logical" name="LDAU"> F  </i>
  <i type="int" name="I_CONSTRAINED_M">     0</i>
  <separator name="electronic exchange-correlation" >
   <i type="string" name="GGA">--</i>
   <i type="int" name="VOSKOWN">     0</i>
   <i type="logical" name="LHFCALC"> F  </i>
   <i type="string" name="PRECFOCK"></i>
   <i type="logical" name="LSYMGRAD"> F  </i>
   <i type="logical" name="LHFONE"> F  </i>
   <i type="logical" name="LRHFCALC"> F  </i>
   <i type="logical" name="LTHOMAS"> F  </i>
   <i type="logical" name="LMODELHF"> F  </i>
   <i name="ENCUT4O">     -1.00000000</i>
   <i type="int" name="EXXOEP">     0</i>
   <i type="int" name="FOURORBIT">     0</i>
   <i name="AEXX">      0.00000000</i>
   <i name="HFALPHA">      0.00000000</i>
   <i name="MCALPHA">      0.00000000</i>
   <i name="ALDAX">      1.00000000</i>
   <i name="AGGAX">      1.00000000</i>
   <i name="ALDAC">      1.00000000</i>
   <i name="AGGAC">      1.00000000</i>
   <i type="int" name="NKREDX">     1</i>
   <i type="int" name="NKREDY">     1</i>
   <i type="int" name="NKREDZ">     1</i>
   <i type="logical" name="SHIFTRED"> F  </i>
   <i type="logical" name="ODDONLY"> F  </i>
   <i type="logical" name="EVENONLY"> F  </i>
   <i type="int" name="LMAXFOCK">     0</i>
   <i type="int" name="NMAXFOCKAE">     0</i>
   <i type="logical" name="LFOCKAEDFT"> F  </i>
   <i name="HFSCREEN">      0.00000000</i>
   <i name="HFSCREENC">      0.00000000</i>
   <i type="int" name="NBANDSGWLOW">     0</i>
  </separator>
  <separator name="vdW DFT" >
   <i type="logical" name="LUSE_VDW"> F  </i>
   <i name="Zab_VDW">     -0.84910000</i>
   <i name="PARAM1">      0.12340000</i>
   <i name="PARAM2">      1.00000000</i>
   <i name="PARAM3">      0.00000000</i>
  </separator>
  <separator name="model GW" >
   <i type="int" name="MODEL_GW">     0</i>
   <i name="MODEL_EPS0">      9.17662200</i>
   <i name="MODEL_ALPHA">      1.00000000</i>
  </separator>
  <separator name="linear response parameters" >
   <i type="logical" name="LEPSILON"> F  </i>
   <i type="logical" name="LRPA"> F  </i>
   <i type="logical" name="LNABLA"> F  </i>
   <i type="logical" name="LVEL"> F  </i>
   <i type="int" name="KINTER">     0</i>
   <i name="CSHIFT">      0.10000000</i>
   <i name="OMEGAMAX">     -1.00000000</i>
   <i name="DEG_THRESHOLD">      0.00200000</i>
   <i name="RTIME">     -0.10000000</i>
   <i name="WPLASMAI">      0.00000000</i>
   <v name="DFIELD">      0.00000000      0.00000000      0.00000000</v>
   <v name="WPLASMA">      0.00000000      0.00000000      0.00000000      0.00000000      0.00000000      0.00000000      0.00000000      0.00000000      0.00000000</v>
  </separator>
  <separator name="orbital magnetization" >
   <i type="logical" name="NUCIND"> F  </i>
   <v name="MAGPOS">      0.00000000      0.00000000      0.00000000</v>
   <i type="logical" name="LNICSALL"> T  </i>
   <i type="logical" name="ORBITALMAG"> F  </i>
   <i type="logical" name="LMAGBLOCH"> F  </i>
   <i type="logical" name="LCHIMAG"> F  </i>
   <i type="logical" name="LGAUGE"> T  </i>
   <i type="int" name="MAGATOM">     0</i>
   <v name="MAGDIPOL">      0.00000000      0.00000000      0.00000000</v>
   <v name="AVECCONST">      0.00000000      0.00000000      0.00000000</v>
  </separator>
  <separator name="response functions" >
   <i type="logical" name="LADDER"> F  </i>
   <i type="logical" name="LRPAFORCE"> F  </i>
   <i type="logical" name="LFXC"> F  </i>
   <i type="logical" name="LHARTREE"> T  </i>
   <i type="int" name="IBSE">     0</i>
   <v type="int" name="KPOINT">    -1     0     0     0</v>
   <i type="logical" name="LTCTE"> F  </i>
   <i type="logical" name="LTETE"> F  </i>
   <i type="logical" name="LTRIPLET"> F  </i>
   <i type="logical" name="LFXCEPS"> F  </i>
   <i type="logical" name="LFXHEG"> F  </i>
   <i type="int" name="NATURALO">     2</i>
   <i type="logical" name="L2ORDER"> F  </i>
   <i type="logical" name="LMP2LT"> F  </i>
   <i type="logical" name="LUSEW"> F  </i>
   <i name="ENCUTGW">     -2.00000000</i>
   <i name="ENCUTGWSOFT">     -2.00000000</i>
   <i name="ENCUTLF">     -1.00000000</i>
   <i type="int" name="LMAXMP2">    -1</i>
   <i name="SCISSOR">      0.00000000</i>
   <i type="int" name="NOMEGA">     0</i>
   <i type="int" name="NOMEGAR">     0</i>
   <i type="int" name="NBANDSGW">    -1</i>
   <i type="int" name="NBANDSO">    -1</i>
   <i type="int" name="NBANDSV">    -1</i>
   <i type="int" name="NELM">     1</i>
   <i type="int" name="NELMHF">     1</i>
   <i type="int" name="DIM">     3</i>
   <i type="int" name="ANTIRES">     0</i>
   <i name="OMEGAMAX">    -30.00000000</i>
   <i name="OMEGAMIN">    -30.00000000</i>
   <i name="OMEGATL">   -200.00000000</i>
   <i type="int" name="OMEGAGRID">   140</i>
   <i name="CSHIFT">     -0.10000000</i>
   <i type="logical" name="SELFENERGY"> F  </i>
   <i type="logical" name="LSPECTRAL"> F  </i>
   <i type="logical" name="LSPECTRALGW"> F  </i>
   <i type="logical" name="LSINGLES"> F  </i>
   <i type="logical" name="LFERMIGW"> F  </i>
   <i type="logical" name="ODDONLYGW"> F  </i>
   <i type="logical" name="EVENONLYGW"> F  </i>
   <i type="int" name="NKREDLFX">     1</i>
   <i type="int" name="NKREDLFY">     1</i>
   <i type="int" name="NKREDLFZ">     1</i>
   <i type="int" name="MAXMEM">  2800</i>
   <i type="int" name="TELESCOPE">     0</i>
   <i type="int" name="TAUPAR">     1</i>
   <i type="int" name="OMEGAPAR">    -1</i>
   <i name="LAMBDA">      1.00000000</i>
  </separator>
  <separator name="External order field" >
   <i name="OFIELD_KAPPA">      0.00000000</i>
   <v name="OFIELD_K">      0.00000000      0.00000000      0.00000000</v>
   <i name="OFIELD_Q6_NEAR">      0.00000000</i>
   <i name="OFIELD_Q6_FAR">      0.00000000</i>
   <i name="OFIELD_A">      0.00000000</i>
  </separator>
 </parameters>
 <atominfo>
  <atoms>       2 </atoms>
  <types>       1 </types>
  <array name="atoms" >
   <dimension dim="1">ion</dimension>
   <field type="string">element</field>
   <field type="int">atomtype</field>
   <set>
    <rc><c>Si</c><c>   1</c></rc>
    <rc><c>Si</c><c>   1</c></rc>
   </set>
  </array>
  <array name="atomtypes" >
   <dimension dim="1">type</dimension>
   <field type="int">atomspertype</field>
   <field type="string">element</field>
   <field>mass</field>
   <field>valence</field>
   <field type="string">pseudopotential</field>
   <set>
    <rc><c>   2</c><c>Si</c><c>     28.08500000</c><c>      4.00000000</c><c> PAW_PBE Si 05Jan2001                   </c></rc>
   </set>
  </array>
 </atominfo>
 <structure name="initialpos" >
  <crystal>
   <varray name="basis" >
    <v>      -2.45000000       2.45000000       1.27400000 </v>
    <v>       2.45000000      -2.45000000       1.27400000 </v>
    <v>       2.45000000       2.45000000      -1.27400000 </v>
   </varray>
   <i name="volume">     30.58874000 </i>
   <varray name="rec_basis" >
    <v>       0.00000000       0.20408163       0.39246468 </v>
    <v>       0.20408163       0.00000000       0.39246468 </v>
    <v>       0.20408163       0.20408163      -0.00000000 </v>
   </varray>
  </crystal>
  <varray name="positions" >
   <v>       0.25000000       0.75000000       0.50000000 </v>
   <v>       0.00000000       0.00000000       0.00000000 </v>
  </varray>
 </structure>
 <calculation>
  <scstep>
   <time name="dav">    0.08    0.09</time>
   <time name="total">    0.14    0.15</time>
   <energy>
    <i name="alphaZ">      4.40202223 </i>
    <i name="ewald">   -265.18101312 </i>
    <i name="hartreedc">     -2.48208299 </i>
    <i name="XCdc">    -17.57948065 </i>
    <i name="pawpsdc">     70.73330578 </i>
    <i name="pawaedc">    -35.65020097 </i>
    <i name="eentropy">     -0.01929804 </i>
    <i name="bandstr">     29.42194465 </i>
    <i name="atom">    206.12349923 </i>
    <i name="e_fr_energy">    -10.23130390 </i>
    <i name="e_wo_entrp">    -10.21200586 </i>
    <i name="e_0_energy">    -10.22165488 </i>
   </energy>
  </scstep>
  <scstep>
   <time name="dav">    0.08    0.08</time>
   <time name="total">    0.10    0.13</time>
   <energy>
    <i name="alphaZ">      4.40202223 </i>
    <i name="ewald">   -265.18101312 </i>
    <i name="hartreedc">     -2.48199389 </i>
    <i name="XCdc">    -17.57949374 </i>
    <i name="pawpsdc">     70.73359357 </i>
    <i name="pawaedc">    -35.65050585 </i>
    <i name="eentropy">     -0.01930047 </i>
    <i name="bandstr">     29.42188835 </i>
    <i name="atom">    206.12349923 </i>
    <i name="e_fr_energy">    -10.23130368 </i>
    <i name="e_wo_entrp">    -10.21200321 </i>
    <i name="e_0_energy">    -10.22165345 </i>
   </energy>
  </scstep>
  <structure>
   <crystal>
    <varray name="basis" >
     <v>      -2.45000000       2.45000000       1.27400000 </v>
     <v>       2.45000000      -2.45000000       1.27400000 </v>
     <v>       2.45000000       2.45000000      -1.27400000 </v>
    </varray>
    <i name="volume">     30.58874000 </i>
    <varray name="rec_basis" >
     <v>       0.00000000       0.20408163       0.39246468 </v>
     <v>       0.20408163       0.00000000       0.39246468 </v>
     <v>       0.20408163       0.20408163      -0.00000000 </v>
    </varray>
   </crystal>
   <varray name="positions" >
    <v>       0.25000000       0.75000000       0.50000000 </v>
    <v>       0.00000000       0.00000000       0.00000000 </v>
   </varray>
  </structure>
  <varray name="forces" >
   <v>       0.00000000      -0.00000000       0.00000000 </v>
   <v>      -0.00000000       0.00000000      -0.00000000 </v>
  </varray>
  <varray name="stress" >
   <v>      26.59856308       0.00000000       0.00000000 </v>
   <v>      -0.00000000      26.59856308       0.00000000 </v>
   <v>       0.00000000       0.00000000     -39.43539372 </v>
  </varray>
  <energy>
   <i name="e_fr_energy">    -10.23130368 </i>
   <i name="e_wo_entrp">    -10.22165345 </i>
   <i name="e_0_energy">     -0.01930047 </i>
  </energy>
  <time name="totalsc">    0.91    1.31</time>
  <eigenvalues>
   <array>
    <dimension dim="1">band</dimension>
    <dimension dim="2">kpoint</dimension>
    <dimension dim="3">spin</dimension>
    <field>eigene</field>
    <field>occ</field>
    <set>
     <set comment="spin 1">
      <set comment="kpoint 1">
       <r>   -4.6163    1.0000 </r>
       <r>    6.1834    1.0000 </r>
       <r>    6.2985    1.0000 </r>
       <r>    6.2985    1.0000 </r>
       <r>   10.5426    0.0000 </r>
       <r>   16.8714    0.0000 </r>
       <r>   17.3688    0.0000 </r>
       <r>   17.3688    0.0000 </r>
      </set>
      <set comment="kpoint 2">
       <r>   -3.4896    1.0000 </r>
       <r>    5.0235    1.0000 </r>
       <r>    6.2769    1.0000 </r>
       <r>    9.3014    0.1514 </r>
       <r>   12.6317    0.0000 </r>
       <r>   12.8214    0.0000 </r>
       <r>   13.4159    0.0000 </r>
       <r>   15.5139    0.0000 </r>
      </set>
      <set comment="kpoint 3">
       <r>   -0.1589    1.0000 </r>
       <r>    5.1742    1.0000 </r>
       <r>    6.0053    1.0000 </r>
       <r>    7.2545    1.0000 </r>
       <r>    8.9542    0.9229 </r>
       <r>   11.3940    0.0000 </r>
       <r>   13.6670    0.0000 </r>
       <r>   14.2987    0.0000 </r>
      </set>
      <set comment="kpoint 4">
       <r>   -0.6213    1.0000 </r>
       <r>    5.9987    1.0000 </r>
       <r>    6.8941    1.0000 </r>
       <r>    6.9315    1.0000 </r>
       <r>    9.7386    0.0000 </r>
       <r>   11.8651    0.0000 </r>
       <r>   12.4048    0.0000 </r>
       <r>   12.6844    0.0000 </r>
      </set>
      <set comment="kpoint 5">
       <r>    1.2107    1.0000 </r>
       <r>    3.3918    1.0000 </r>
       <r>    4.4682    1.0000 </r>
       <r>    7.7081    1.0000 </r>
       <r>    9.0445    0.7841 </r>
       <r>   11.0319    0.0000 </r>
       <r>   13.8704    0.0000 </r>
       <r>   16.2523    0.0000 </r>
      </set>
      <set comment="kpoint 6">
       <r>   -2.5461    1.0000 </r>
       <r>    2.0333    1.0000 </r>
       <r>    6.7456    1.0000 </r>
       <r>   10.4385    0.0000 </r>
       <r>   11.0914    0.0000 </r>
       <r>   12.2936    0.0000 </r>
       <r>   13.9891    0.0000 </r>
       <r>   15.8952    0.0000 </r>
      </set>
      <set comment="kpoint 7">
       <r>   -4.1406    1.0000 </r>
       <r>    2.7424    1.0000 </r>
       <r>    6.7400    1.0000 </r>
       <r>    8.3574    1.0000 </r>
       <r>   13.1693    0.0000 </r>
       <r>   13.2915    0.0000 </r>
       <r>   15.0181    0.0000 </r>
       <r>   19.2703    0.0000 </r>
      </set>
      <set comment="kpoint 8">
       <r>   -0.6830    1.0000 </r>
       <r>   -0.6793    1.0000 </r>
       <r>    8.4178    1.0000 </r>
       <r>    8.4839    1.0000 </r>
       <r>   10.6797    0.0000 </r>
       <r>   13.1979    0.0000 </r>
       <r>   13.5998    0.0000 </r>
       <r>   14.0575    0.0000 </r>
      </set>
      <set comment="kpoint 9">
       <r>   -2.7223    1.0000 </r>
       <r>   -0.3957    1.0000 </r>
       <r>    8.0630    1.0000 </r>
       <r>    9.9511    0.0000 </r>
       <r>   10.2579    0.0000 </r>
       <r>   12.1836    0.0000 </r>
       <r>   18.1048    0.0000 </r>
       <r>   18.8249    0.0000 </r>
      </set>
      <set comment="kpoint 10">
       <r>    0.7650    1.0000 </r>
       <r>    3.0257    1.0000 </r>
       <r>    6.1224    1.0000 </r>
       <r>    6.1438    1.0000 </r>
       <r>   11.3580    0.0000 </r>
       <r>   13.0751    0.0000 </r>
       <r>   13.9946    0.0000 </r>
       <r>   14.4649    0.0000 </r>
      </set>
      <set comment="kpoint 11">
       <r>   -3.6677    1.0000 </r>
       <r>    2.5741    1.0000 </r>
       <r>    4.1979    1.0000 </r>
       <r>   10.2237    0.0000 </r>
       <r>   11.4403    0.0000 </r>
       <r>   14.4682    0.0000 </r>
       <r>   17.6366    0.0000 </r>
       <r>   18.1484    0.0000 </r>
      </set>
      <set comment="kpoint 12">
       <r>   -2.2620    1.0000 </r>
       <r>    0.0185    1.0000 </r>
       <r>    4.9516    1.0000 </r>
       <r>    7.1565    1.0000 </r>
       <r>   13.5865    0.0000 </r>
       <r>   15.6305    0.0000 </r>
       <r>   17.8262    0.0000 </r>
       <r>   18.0733    0.0000 </r>
      </set>
      <set comment="kpoint 13">
       <r>   -1.6178    1.0000 </r>
       <r>    2.2626    1.0000 </r>
       <r>    3.9857    1.0000 </r>
       <r>    7.7273    1.0000 </r>
       <r>    9.9948    0.0000 </r>
       <r>   15.4748    0.0000 </r>
       <r>   16.3058    0.0000 </r>
       <r>   17.2260    0.0000 </r>
      </set>
      <set comment="kpoint 14">
       <r>    0.1823    1.0000 </r>
       <r>    0.1940    1.0000 </r>
       <r>    5.1296    1.0000 </r>
       <r>    5.1316    1.0000 </r>
       <r>    9.5962    0.0009 </r>
       <r>   16.1859    0.0000 </r>
       <r>   17.6158    0.0000 </r>
       <r>   18.4655    0.0000 </r>
      </set>
      <set comment="kpoint 15">
       <r>    2.4684    1.0000 </r>
       <r>    3.4262    1.0000 </r>
       <r>    4.2946    1.0000 </r>
       <r>    5.7877    1.0000 </r>
       <r>    7.3017    1.0000 </r>
       <r>   12.1300    0.0000 </r>
       <r>   13.4976    0.0000 </r>
       <r>   16.1498    0.0000 </r>
      </set>
      <set comment="kpoint 16">
       <r>   -1.0874    1.0000 </r>
       <r>    7.7673    1.0000 </r>
       <r>    8.1048    1.0000 </r>
       <r>    8.4462    1.0000 </r>
       <r>    8.4462    1.0000 </r>
       <r>   10.0918    0.0000 </r>
       <r>   11.5707    0.0000 </r>
       <r>   11.5707    0.0000 </r>
      </set>
      <set comment="kpoint 17">
       <r>   -0.9194    1.0000 </r>
       <r>    0.6886    1.0000 </r>
       <r>    2.5045    1.0000 </r>
       <r>    4.0877    1.0000 </r>
       <r>   16.1283    0.0000 </r>
       <r>   16.4655    0.0000 </r>
       <r>   18.9905    0.0000 </r>
       <r>   20.2934    0.0000 </r>
      </set>
      <set comment="kpoint 18">
       <r>    1.3111    1.0000 </r>
       <r>    1.3341    1.0000 </r>
       <r>    3.1247    1.0000 </r>
       <r>    3.1248    1.0000 </r>
       <r>    9.1819    0.4264 </r>
       <r>   18.3814    0.0000 </r>
       <r>   19.5750    0.0000 </r>
       <r>   19.5750    0.0000 </r>
      </set>
     </set>
    </set>
   </array>
  </eigenvalues>
  <separator name="orbital magnetization" >
   <v name="MAGDIPOLOUT">      0.00000000      0.00000000      0.00000000</v>
  </separator>
  <dos>
   <i name="efermi">      9.15564562 </i>
   <total>
    <array>
     <dimension dim="1">gridpoints</dimension>
     <dimension dim="2">spin</dimension>
     <field>energy</field>
     <field>total</field>
     <field>integrated</field>
     <set>
      <set comment="spin 1">
       <r>    -6.6163     0.0000     0.0000 </r>
       <r>    -6.5199     0.0000     0.0000 </r>
       <r>    -6.4236     0.0000     0.0000 </r>
       <r>    -6.3272     0.0000     0.0000 </r>
       <r>    -6.2308     0.0000     0.0000 </r>
       <r>    -6.1345     0.0000     0.0000 </r>
       <r>    -6.0381     0.0000     0.0000 </r>
       <r>    -5.9417     0.0000     0.0000 </r>
       <r>    -5.8454     0.0000     0.0000 </r>
       <r>    -5.7490     0.0000     0.0000 </r>
       <r>    -5.6526     0.0000     0.0000 </r>
       <r>    -5.5563     0.0000     0.0000 </r>
       <r>    -5.4599     0.0000     0.0000 </r>
       <r>    -5.3635     0.0000     0.0000 </r>
       <r>    -5.2672     0.0000     0.0000 </r>
       <r>    -5.1708     0.0000     0.0000 </r>
       <r>    -5.0744     0.0001     0.0000 </r>
       <r>    -4.9781     0.0008     0.0001 </r>
       <r>    -4.8817     0.0042     0.0005 </r>
       <r>    -4.7854     0.0142     0.0019 </r>
       <r>    -4.6890     0.0312     0.0049 </r>
       <r>    -4.5926     0.0441     0.0091 </r>
       <r>    -4.4963     0.0426     0.0132 </r>
       <r>    -4.3999     0.0406     0.0171 </r>
       <r>    -4.3035     0.0689     0.0238 </r>
       <r>    -4.2072     0.1310     0.0364 </r>
       <r>    -4.1108     0.1765     0.0534 </r>
       <r>    -4.0144     0.1573     0.0686 </r>
       <r>    -3.9181     0.1074     0.0789 </r>
       <r>    -3.8217     0.1075     0.0893 </r>
       <r>    -3.7253     0.1931     0.1079 </r>
       <r>    -3.6290     0.3298     0.1397 </r>
       <r>    -3.5326     0.4379     0.1819 </r>
       <r>    -3.4362     0.4330     0.2236 </r>
       <r>    -3.3399     0.3034     0.2528 </r>
       <r>    -3.2435     0.1440     0.2667 </r>
       <r>    -3.1471     0.0457     0.2711 </r>
       <r>    -3.0508     0.0153     0.2726 </r>
       <r>    -2.9544     0.0326     0.2757 </r>
       <r>    -2.8580     0.1098     0.2863 </r>
       <r>    -2.7617     0.2803     0.3133 </r>
       <r>    -2.6653     0.5404     0.3654 </r>
       <r>    -2.5689     0.7802     0.4406 </r>
       <r>    -2.4726     0.8350     0.5210 </r>
       <r>    -2.3762     0.7050     0.5890 </r>
       <r>    -2.2798     0.5489     0.6419 </r>
       <r>    -2.1835     0.4127     0.6816 </r>
       <r>    -2.0871     0.2535     0.7061 </r>
       <r>    -1.9907     0.1134     0.7170 </r>
       <r>    -1.8944     0.0585     0.7226 </r>
       <r>    -1.7980     0.1065     0.7329 </r>
       <r>    -1.7016     0.2335     0.7554 </r>
       <r>    -1.6053     0.3436     0.7885 </r>
       <r>    -1.5089     0.3246     0.8198 </r>
       <r>    -1.4125     0.1989     0.8390 </r>
       <r>    -1.3162     0.0910     0.8477 </r>
       <r>    -1.2198     0.0688     0.8544 </r>
       <r>    -1.1235     0.1183     0.8658 </r>
       <r>    -1.0271     0.2066     0.8857 </r>
       <r>    -0.9307     0.3297     0.9175 </r>
       <r>    -0.8344     0.5398     0.9695 </r>
       <r>    -0.7380     0.8575     1.0521 </r>
       <r>    -0.6416     1.0978     1.1579 </r>
       <r>    -0.5453     1.0234     1.2565 </r>
       <r>    -0.4489     0.7220     1.3261 </r>
       <r>    -0.3525     0.4861     1.3729 </r>
       <r>    -0.2562     0.4437     1.4157 </r>
       <r>    -0.1598     0.5386     1.4676 </r>
       <r>    -0.0634     0.6795     1.5331 </r>
       <r>     0.0329     0.8278     1.6128 </r>
       <r>     0.1293     0.9493     1.7043 </r>
       <r>     0.2257     0.9225     1.7932 </r>
       <r>     0.3220     0.6750     1.8583 </r>
       <r>     0.4184     0.3616     1.8931 </r>
       <r>     0.5148     0.2084     1.9132 </r>
       <r>     0.6111     0.2783     1.9400 </r>
       <r>     0.7075     0.4482     1.9832 </r>
       <r>     0.8039     0.5177     2.0331 </r>
       <r>     0.9002     0.4213     2.0737 </r>
       <r>     0.9966     0.3342     2.1059 </r>
       <r>     1.0930     0.4555     2.1498 </r>
       <r>     1.1893     0.7241     2.2196 </r>
       <r>     1.2857     0.8466     2.3012 </r>
       <r>     1.3821     0.6680     2.3655 </r>
       <r>     1.4784     0.3561     2.3998 </r>
       <r>     1.5748     0.1309     2.4125 </r>
       <r>     1.6712     0.0446     2.4167 </r>
       <r>     1.7675     0.0719     2.4237 </r>
       <r>     1.8639     0.2304     2.4459 </r>
       <r>     1.9603     0.5163     2.4956 </r>
       <r>     2.0566     0.7756     2.5704 </r>
       <r>     2.1530     0.8404     2.6514 </r>
       <r>     2.2493     0.7724     2.7258 </r>
       <r>     2.3457     0.7443     2.7975 </r>
       <r>     2.4421     0.7975     2.8744 </r>
       <r>     2.5384     0.8211     2.9535 </r>
       <r>     2.6348     0.7112     3.0220 </r>
       <r>     2.7312     0.5228     3.0724 </r>
       <r>     2.8275     0.3919     3.1102 </r>
       <r>     2.9239     0.3957     3.1483 </r>
       <r>     3.0203     0.4997     3.1965 </r>
       <r>     3.1166     0.5910     3.2534 </r>
       <r>     3.2130     0.6689     3.3179 </r>
       <r>     3.3094     0.8608     3.4008 </r>
       <r>     3.4057     1.0781     3.5047 </r>
       <r>     3.5021     1.0111     3.6022 </r>
       <r>     3.5985     0.6384     3.6637 </r>
       <r>     3.6948     0.2829     3.6909 </r>
       <r>     3.7912     0.1656     3.7069 </r>
       <r>     3.8876     0.2739     3.7333 </r>
       <r>     3.9839     0.4872     3.7802 </r>
       <r>     4.0803     0.6671     3.8445 </r>
       <r>     4.1767     0.7712     3.9188 </r>
       <r>     4.2730     0.8617     4.0019 </r>
       <r>     4.3694     0.9638     4.0947 </r>
       <r>     4.4658     0.9851     4.1897 </r>
       <r>     4.5621     0.8079     4.2675 </r>
       <r>     4.6585     0.4997     4.3157 </r>
       <r>     4.7549     0.3131     4.3459 </r>
       <r>     4.8512     0.4332     4.3876 </r>
       <r>     4.9476     0.8378     4.4683 </r>
       <r>     5.0440     1.3088     4.5945 </r>
       <r>     5.1403     1.5215     4.7411 </r>
       <r>     5.2367     1.2819     4.8646 </r>
       <r>     5.3331     0.7572     4.9376 </r>
       <r>     5.4294     0.3097     4.9674 </r>
       <r>     5.5258     0.1166     4.9787 </r>
       <r>     5.6222     0.1412     4.9923 </r>
       <r>     5.7185     0.3105     5.0222 </r>
       <r>     5.8149     0.5675     5.0769 </r>
       <r>     5.9112     0.8879     5.1625 </r>
       <r>     6.0076     1.2456     5.2825 </r>
       <r>     6.1040     1.4965     5.4267 </r>
       <r>     6.2003     1.4668     5.5681 </r>
       <r>     6.2967     1.1534     5.6792 </r>
       <r>     6.3931     0.7277     5.7493 </r>
       <r>     6.4894     0.4284     5.7906 </r>
       <r>     6.5858     0.4498     5.8339 </r>
       <r>     6.6822     0.7967     5.9107 </r>
       <r>     6.7785     1.2096     6.0273 </r>
       <r>     6.8749     1.3743     6.1597 </r>
       <r>     6.9713     1.2440     6.2796 </r>
       <r>     7.0676     1.0520     6.3810 </r>
       <r>     7.1640     1.0151     6.4788 </r>
       <r>     7.2604     1.0515     6.5801 </r>
       <r>     7.3567     0.9257     6.6693 </r>
       <r>     7.4531     0.6726     6.7341 </r>
       <r>     7.5495     0.6112     6.7930 </r>
       <r>     7.6458     0.8773     6.8776 </r>
       <r>     7.7422     1.1484     6.9883 </r>
       <r>     7.8386     1.0507     7.0895 </r>
       <r>     7.9349     0.6974     7.1567 </r>
       <r>     8.0313     0.4427     7.1994 </r>
       <r>     8.1277     0.3792     7.2359 </r>
       <r>     8.2240     0.4502     7.2793 </r>
       <r>     8.3204     0.6752     7.3444 </r>
       <r>     8.4168     0.9566     7.4366 </r>
       <r>     8.5131     1.0055     7.5335 </r>
       <r>     8.6095     0.7287     7.6037 </r>
       <r>     8.7059     0.4030     7.6425 </r>
       <r>     8.8022     0.3362     7.6749 </r>
       <r>     8.8986     0.5905     7.7318 </r>
       <r>     8.9950     0.9604     7.8244 </r>
       <r>     9.0913     1.1286     7.9331 </r>
       <r>     9.1877     1.0010     8.0296 </r>
       <r>     9.2840     0.7644     8.1033 </r>
       <r>     9.3804     0.5785     8.1590 </r>
       <r>     9.4768     0.4981     8.2070 </r>
       <r>     9.5731     0.5502     8.2600 </r>
       <r>     9.6695     0.6603     8.3236 </r>
       <r>     9.7659     0.7116     8.3922 </r>
       <r>     9.8622     0.7153     8.4612 </r>
       <r>     9.9586     0.7431     8.5328 </r>
       <r>    10.0550     0.7647     8.6065 </r>
       <r>    10.1513     0.7444     8.6782 </r>
       <r>    10.2477     0.7597     8.7514 </r>
       <r>    10.3441     0.8650     8.8348 </r>
       <r>    10.4404     0.9710     8.9283 </r>
       <r>    10.5368     0.9412     9.0190 </r>
       <r>    10.6332     0.7795     9.0941 </r>
       <r>    10.7295     0.6062     9.1525 </r>
       <r>    10.8259     0.5538     9.2059 </r>
       <r>    10.9223     0.7718     9.2803 </r>
       <r>    11.0186     1.2081     9.3967 </r>
       <r>    11.1150     1.4755     9.5389 </r>
       <r>    11.2114     1.3669     9.6706 </r>
       <r>    11.3077     1.1706     9.7834 </r>
       <r>    11.4041     1.0928     9.8887 </r>
       <r>    11.5005     0.9620     9.9814 </r>
       <r>    11.5968     0.6932    10.0482 </r>
       <r>    11.6932     0.4587    10.0924 </r>
       <r>    11.7896     0.3941    10.1304 </r>
       <r>    11.8859     0.4484    10.1736 </r>
       <r>    11.9823     0.5378    10.2255 </r>
       <r>    12.0787     0.7106    10.2939 </r>
       <r>    12.1750     1.0054    10.3908 </r>
       <r>    12.2714     1.2719    10.5134 </r>
       <r>    12.3678     1.3089    10.6395 </r>
       <r>    12.4641     1.1305    10.7485 </r>
       <r>    12.5605     0.9770    10.8426 </r>
       <r>    12.6569     0.9786    10.9369 </r>
       <r>    12.7532     0.9856    11.0319 </r>
       <r>    12.8496     0.8662    11.1154 </r>
       <r>    12.9459     0.7337    11.1861 </r>
       <r>    13.0423     0.7678    11.2601 </r>
       <r>    13.1387     0.9471    11.3513 </r>
       <r>    13.2350     1.0923    11.4566 </r>
       <r>    13.3314     1.1608    11.5684 </r>
       <r>    13.4278     1.2904    11.6928 </r>
       <r>    13.5241     1.5089    11.8382 </r>
       <r>    13.6205     1.6359    11.9958 </r>
       <r>    13.7169     1.5937    12.1494 </r>
       <r>    13.8132     1.6122    12.3048 </r>
       <r>    13.9096     1.8471    12.4828 </r>
       <r>    14.0060     2.0036    12.6759 </r>
       <r>    14.1023     1.7408    12.8436 </r>
       <r>    14.1987     1.2300    12.9621 </r>
       <r>    14.2951     0.8924    13.0481 </r>
       <r>    14.3914     0.8141    13.1266 </r>
       <r>    14.4878     0.7614    13.1999 </r>
       <r>    14.5842     0.5666    13.2545 </r>
       <r>    14.6805     0.3025    13.2837 </r>
       <r>    14.7769     0.1287    13.2961 </r>
       <r>    14.8733     0.0966    13.3054 </r>
       <r>    14.9696     0.1454    13.3194 </r>
       <r>    15.0660     0.1808    13.3368 </r>
       <r>    15.1624     0.1655    13.3528 </r>
       <r>    15.2587     0.1825    13.3704 </r>
       <r>    15.3551     0.3587    13.4049 </r>
       <r>    15.4515     0.6865    13.4711 </r>
       <r>    15.5478     0.9531    13.5629 </r>
       <r>    15.6442     0.9769    13.6571 </r>
       <r>    15.7406     0.8700    13.7409 </r>
       <r>    15.8369     0.8629    13.8241 </r>
       <r>    15.9333     0.9813    13.9186 </r>
       <r>    16.0297     1.1776    14.0321 </r>
       <r>    16.1260     1.5145    14.1780 </r>
       <r>    16.2224     1.8482    14.3561 </r>
       <r>    16.3187     1.7979    14.5294 </r>
       <r>    16.4151     1.3038    14.6550 </r>
       <r>    16.5115     0.7167    14.7241 </r>
       <r>    16.6078     0.3159    14.7545 </r>
       <r>    16.7042     0.1238    14.7665 </r>
       <r>    16.8006     0.0624    14.7725 </r>
       <r>    16.8969     0.0610    14.7784 </r>
       <r>    16.9933     0.0938    14.7874 </r>
       <r>    17.0897     0.1852    14.8053 </r>
       <r>    17.1860     0.3283    14.8369 </r>
       <r>    17.2824     0.4271    14.8781 </r>
       <r>    17.3788     0.4277    14.9193 </r>
       <r>    17.4751     0.4352    14.9612 </r>
       <r>    17.5715     0.5498    15.0142 </r>
       <r>    17.6679     0.6882    15.0805 </r>
       <r>    17.7642     0.7238    15.1502 </r>
       <r>    17.8606     0.6807    15.2158 </r>
       <r>    17.9570     0.6756    15.2809 </r>
       <r>    18.0533     0.7495    15.3532 </r>
       <r>    18.1497     0.7800    15.4283 </r>
       <r>    18.2461     0.6702    15.4929 </r>
       <r>    18.3424     0.5411    15.5451 </r>
       <r>    18.4388     0.4994    15.5932 </r>
       <r>    18.5352     0.4520    15.6367 </r>
       <r>    18.6315     0.3368    15.6692 </r>
       <r>    18.7279     0.2522    15.6935 </r>
       <r>    18.8243     0.2632    15.7189 </r>
       <r>    18.9206     0.3052    15.7483 </r>
       <r>    19.0170     0.3034    15.7775 </r>
       <r>    19.1134     0.2638    15.8029 </r>
       <r>    19.2097     0.2353    15.8256 </r>
       <r>    19.3061     0.2258    15.8474 </r>
       <r>    19.4025     0.2119    15.8678 </r>
       <r>    19.4988     0.2042    15.8875 </r>
       <r>    19.5952     0.2020    15.9069 </r>
       <r>    19.6916     0.1645    15.9228 </r>
       <r>    19.7879     0.0932    15.9318 </r>
       <r>    19.8843     0.0356    15.9352 </r>
       <r>    19.9806     0.0159    15.9367 </r>
       <r>    20.0770     0.0341    15.9400 </r>
       <r>    20.1734     0.0898    15.9487 </r>
       <r>    20.2697     0.1564    15.9637 </r>
       <r>    20.3661     0.1746    15.9806 </r>
       <r>    20.4625     0.1246    15.9926 </r>
       <r>    20.5588     0.0569    15.9981 </r>
       <r>    20.6552     0.0166    15.9997 </r>
       <r>    20.7516     0.0031    16.0000 </r>
       <r>    20.8479     0.0004    16.0000 </r>
       <r>    20.9443     0.0000    16.0000 </r>
       <r>    21.0407     0.0000    16.0000 </r>
       <r>    21.1370     0.0000    16.0000 </r>
       <r>    21.2334     0.0000    16.0000 </r>
       <r>    21.3298     0.0000    16.0000 </r>
       <r>    21.4261     0.0000    16.0000 </r>
       <r>    21.5225     0.0000    16.0000 </r>
       <r>    21.6189     0.0000    16.0000 </r>
       <r>    21.7152     0.0000    16.0000 </r>
       <r>    21.8116     0.0000    16.0000 </r>
       <r>    21.9080     0.0000    16.0000 </r>
       <r>    22.0043     0.0000    16.0000 </r>
       <r>    22.1007     0.0000    16.0000 </r>
       <r>    22.1971     0.0000    16.0000 </r>
       <r>    22.2934     0.0000    16.0000 </r>
      </set>
     </set>
    </array>
   </total>
  </dos>
 </calculation>
 <structure name="finalpos" >
  <crystal>
   <varray name="basis" >
    <v>      -2.45000000       2.45000000       1.27400000 </v>
    <v>       2.45000000      -2.45000000       1.27400000 </v>
    <v>       2.45000000       2.45000000      -1.27400000 </v>
   </varray>
   <i name="volume">     30.58874000 </i>
   <varray name="rec_basis" >
    <v>       0.00000000       0.20408163       0.39246468 </v>
    <v>       0.20408163       0.00000000       0.39246468 </v>
    <v>       0.20408163       0.20408163      -0.00000000 </v>
   </varray>
  </crystal>
  <varray name="positions" >
   <v>       0.25000000       0.75000000       0.50000000 </v>
   <v>       0.00000000       0.00000000       0.00000000 </v>
  </varray>
 </structure>
</modeling>
