unknown system                          
   1.00000000000000     
     0.000000    2.715000    2.715000
     2.715000    0.000000    2.715000
     2.715000    2.715000    0.000000
   Si
     2
Direct
  0.500000  0.500000  0.500000
  0.750000  0.750000  0.750000
 
   32   32   32
 0.85158130444E+00 0.87203778792E+00 0.93528124182E+00 0.10465265575E+01 0.12134037999E+01
 0.14448887121E+01 0.17503041869E+01 0.21380656776E+01 0.26134307865E+01 0.31747846441E+01
 0.38090440985E+01 0.44879152367E+01 0.51670688402E+01 0.57895458076E+01 0.62934000384E+01
 0.66222954632E+01 0.67366544104E+01 0.66222362532E+01 0.62933447673E+01 0.57895536863E+01
 0.51671400421E+01 0.44880027068E+01 0.38091029358E+01 0.31748013129E+01 0.26134168790E+01
 0.21380391890E+01 0.17502779591E+01 0.14448685529E+01 0.12133918726E+01 0.10465240277E+01
 0.93528645373E+00 0.87204400124E+00 0.87203778792E+00 0.90704462383E+00 0.98024193160E+00
 0.10972667692E+01 0.12650909520E+01 0.14908990494E+01 0.17810813805E+01 0.21400262699E+01
 0.25681705498E+01 0.30590866630E+01 0.35962177403E+01 0.41507052032E+01 0.46819390442E+01
 0.51417491746E+01 0.54818652452E+01 0.56629842457E+01 0.56629904980E+01 0.54818684651E+01
 0.51417294713E+01 0.46819105788E+01 0.41507044368E+01 0.35962533174E+01 0.30591219877E+01
 0.25681657946E+01 0.21399845810E+01 0.17810410129E+01 0.14908880284E+01 0.12651039782E+01
 0.10972836024E+01 0.98025219419E+00 0.90704941400E+00 0.87203931117E+00 0.93528124182E+00
 0.98024193160E+00 0.10595188477E+01 0.11785172955E+01 0.13430166726E+01 0.15581573805E+01
 0.18275751594E+01 0.21523416049E+01 0.25293291485E+01 0.29489937663E+01 0.33932112546E+01
 0.38343603111E+01 0.42368813321E+01 0.45618140544E+01 0.47735777448E+01 0.48471664118E+01
 0.47735812757E+01 0.45618328217E+01 0.42369158454E+01 0.38343883984E+01 0.33932087512E+01
 0.29489623220E+01 0.25292921772E+01 0.21523143660E+01 0.18275535815E+01 0.15581390094E+01
 0.13430135633E+01 0.11785355768E+01 0.10595407627E+01 0.98024652743E+00 0.93527364826E+00
 0.92075922903E+00 0.10465265575E+01 0.10972667692E+01 0.11785172955E+01 0.12949618047E+01
 0.14509811810E+01 0.16498549648E+01 0.18930491630E+01 0.21792751056E+01 0.25030990580E+01
 0.28532764586E+01 0.32114944167E+01 0.35525107739E+01 0.38464637523E+01 0.40633488418E+01
 0.41786762203E+01 0.41786646921E+01 0.40633300538E+01 0.38464676678E+01 0.35525447682E+01
 0.32115260772E+01 0.28532632290E+01 0.25030367852E+01 0.21792057749E+01 0.18930162522E+01
 0.16498633199E+01 0.14510061118E+01 0.12949819585E+01 0.11785265383E+01 0.10972660083E+01
 0.10465201950E+01 0.10223029310E+01 0.10223066496E+01 0.12134037999E+01 0.12650909520E+01
 0.13430166726E+01 0.14509811810E+01 0.15921537655E+01 0.17684871774E+01 0.19800521392E+01
 0.22240946229E+01 0.24938305901E+01 0.27773216482E+01 0.30570740824E+01 0.33110416430E+01
 0.35153268174E+01 0.36481874068E+01 0.36943285907E+01 0.36482126016E+01 0.35153333316E+01
 0.33110029356E+01 0.30570148053E+01 0.27772808487E+01 0.24938142003E+01 0.22240825648E+01
 0.19800377829E+01 0.17684869914E+01 0.15921795234E+01 0.14510198860E+01 0.13430435340E+01
 0.12650937941E+01 0.12133904724E+01 0.11842305400E+01 0.11748578877E+01 0.11842432018E+01
 0.14448887121E+01 0.14908990494E+01 0.15581573805E+01 0.16498549648E+01 0.17684871774E+01
 0.19153496384E+01 0.20897889179E+01 0.22882044986E+01 0.25030982108E+01 0.27226133903E+01
 0.29309630961E+01 0.31099783257E+01 0.32417173396E+01 0.33116653122E+01 0.33116777151E+01
 0.32417448117E+01 0.31099936483E+01 0.29309383946E+01 0.27225521041E+01 0.25030441402E+01
 0.22882025343E+01 0.20898374341E+01 0.19154051216E+01 0.17685147179E+01 0.16498586790E+01
 0.15581585764E+01 0.14909024084E+01 0.14448835601E+01 0.14167184809E+01 0.14034973298E+01
 0.14035055076E+01 0.14167328894E+01 0.17503041869E+01 0.17810813805E+01 0.18275751594E+01
 0.18930491630E+01 0.19800521392E+01 0.20897889179E+01 0.22212498249E+01 0.23703233611E+01
 0.25293284185E+01 0.26872848121E+01 0.28309504501E+01 0.29464865717E+01 0.30215697169E+01
 0.30476206657E+01 0.30215641416E+01 0.29464918028E+01 0.28309744493E+01 0.26873163362E+01
 0.25293528959E+01 0.23703377630E+01 0.22212598621E+01 0.20898009428E+01 0.19800671372E+01
 0.18930569391E+01 0.18275600562E+01 0.17810444414E+01 0.17502716246E+01 0.17317359967E+01
 0.17221837065E+01 0.17192763947E+01 0.17221733909E+01 0.17317416714E+01 0.21380656776E+01
 0.21400262699E+01 0.21523416049E+01 0.21792751056E+01 0.22240946229E+01 0.22882044986E+01
 0.23703233611E+01 0.24660637269E+01 0.25681697572E+01 0.26673727930E+01 0.27536173219E+01
 0.28174451561E+01 0.28514228440E+01 0.28514282261E+01 0.28174548161E+01 0.27536234106E+01
 0.26673836875E+01 0.25682027619E+01 0.24661136596E+01 0.23703517385E+01 0.22881779833E+01
 0.22240276378E+01 0.21792134940E+01 0.21523075443E+01 0.21400044449E+01 0.21380436328E+01
 0.21419064676E+01 0.21473548800E+01 0.21510164778E+01 0.21510089161E+01 0.21473469043E+01
 0.21419168264E+01 0.26134307865E+01 0.25681705498E+01 0.25293291485E+01 0.25030990580E+01
 0.24938305901E+01 0.25030982108E+01 0.25293284185E+01 0.25681697572E+01 0.26134287181E+01
 0.26581887358E+01 0.26958236382E+01 0.27208450964E+01 0.27296146582E+01 0.27208591151E+01
 0.26958530176E+01 0.26582181755E+01 0.26134296437E+01 0.25681315674E+01 0.25292727588E+01
 0.25030509294E+01 0.24937901584E+01 0.25030473816E+01 0.25292673159E+01 0.25681252800E+01
 0.26134227573E+01 0.26582119856E+01 0.26958495338E+01 0.27208586578E+01 0.27296158213E+01
 0.27208470978E+01 0.26958266455E+01 0.26581920121E+01 0.31747846441E+01 0.30590866630E+01
 0.29489937663E+01 0.28532764586E+01 0.27773216482E+01 0.27226133903E+01 0.26872848121E+01
 0.26673727930E+01 0.26581887358E+01 0.26553668470E+01 0.26554456527E+01 0.26560815570E+01
 0.26560927945E+01 0.26554727258E+01 0.26553963389E+01 0.26582034659E+01 0.26673461673E+01
 0.26871984032E+01 0.27224944140E+01 0.27772361197E+01 0.28532629276E+01 0.29490224026E+01
 0.30591043321E+01 0.31747805989E+01 0.32853655223E+01 0.33799305917E+01 0.34488940158E+01
 0.34852219017E+01 0.34852074017E+01 0.34488612632E+01 0.33799049763E+01 0.32853629680E+01
 0.38090440985E+01 0.35962177403E+01 0.33932112546E+01 0.32114944167E+01 0.30570740824E+01
 0.29309630961E+01 0.28309504501E+01 0.27536173219E+01 0.26958236382E+01 0.26554456527E+01
 0.26314438048E+01 0.26234823285E+01 0.26314808955E+01 0.26554661774E+01 0.26957994113E+01
 0.27535707084E+01 0.28309005185E+01 0.29309040693E+01 0.30570148119E+01 0.32114666057E+01
 0.33932264066E+01 0.35962574751E+01 0.38090955684E+01 0.40161278967E+01 0.42000848483E+01
 0.43447580698E+01 0.44371614034E+01 0.44689388119E+01 0.44371835005E+01 0.43447579460E+01
 0.42000425743E+01 0.40160689508E+01 0.44879152367E+01 0.41507052032E+01 0.38343603111E+01
 0.35525107739E+01 0.33110416430E+01 0.31099783257E+01 0.29464865717E+01 0.28174451561E+01
 0.27208450964E+01 0.26560815570E+01 0.26234823285E+01 0.26234980837E+01 0.26561036134E+01
 0.27208306694E+01 0.28173830125E+01 0.29464013522E+01 0.31099081692E+01 0.33110198461E+01
 0.35525406784E+01 0.38344006885E+01 0.41507155854E+01 0.44879164972E+01 0.48251647473E+01
 0.51371384434E+01 0.53980885930E+01 0.55856872452E+01 0.56837504522E+01 0.56837882390E+01
 0.55857418878E+01 0.53980758267E+01 0.51370732314E+01 0.48251232506E+01 0.51670688402E+01
 0.46819390442E+01 0.42368813321E+01 0.38464637523E+01 0.35153268174E+01 0.32417173396E+01
 0.30215697169E+01 0.28514228440E+01 0.27296146582E+01 0.26560927945E+01 0.26314808955E+01
 0.26561036134E+01 0.27296013948E+01 0.28513671354E+01 0.30214941696E+01 0.32416522273E+01
 0.35152801992E+01 0.38464386398E+01 0.42368956615E+01 0.46820005274E+01 0.51671412489E+01
 0.56668157961E+01 0.61470992426E+01 0.65705792896E+01 0.69019769455E+01 0.71129466110E+01
 0.71853461350E+01 0.71129669203E+01 0.69020300775E+01 0.65706519990E+01 0.61471422106E+01
 0.56667910118E+01 0.57895458076E+01 0.51417491746E+01 0.45618140544E+01 0.40633488418E+01
 0.36481874068E+01 0.33116653122E+01 0.30476206657E+01 0.28514282261E+01 0.27208591151E+01
 0.26554727258E+01 0.26554661774E+01 0.27208306694E+01 0.28513671354E+01 0.30475413437E+01
 0.33116032873E+01 0.36481586732E+01 0.40633322138E+01 0.45617959229E+01 0.51417625678E+01
 0.57896196391E+01 0.64769539930E+01 0.71618907549E+01 0.77944024127E+01 0.83235070022E+01
 0.87042625122E+01 0.89034386384E+01 0.89034475652E+01 0.87043146454E+01 0.83236148995E+01
 0.77944966065E+01 0.71618880511E+01 0.64768696890E+01 0.62934000384E+01 0.54818652452E+01
 0.47735777448E+01 0.41786762203E+01 0.36943285907E+01 0.33116777151E+01 0.30215641416E+01
 0.28174548161E+01 0.26958530176E+01 0.26553963389E+01 0.26957994113E+01 0.28173830125E+01
 0.30214941696E+01 0.33116032873E+01 0.36942607010E+01 0.41786545123E+01 0.47736192207E+01
 0.54819330408E+01 0.62934421106E+01 0.71799441141E+01 0.80945011839E+01 0.89758089018E+01
 0.97560076947E+01 0.10369620079E+02 0.10762091800E+02 0.10897154873E+02 0.10762079177E+02
 0.10369609917E+02 0.97560130451E+01 0.89758296535E+01 0.80945236657E+01 0.71799439868E+01
 0.66222954632E+01 0.56629842457E+01 0.48471664118E+01 0.41786646921E+01 0.36482126016E+01
 0.32417448117E+01 0.29464918028E+01 0.27536234106E+01 0.26582181755E+01 0.26582034659E+01
 0.27535707084E+01 0.29464013522E+01 0.32416522273E+01 0.36481586732E+01 0.41786545123E+01
 0.48471846690E+01 0.56630311008E+01 0.66223670831E+01 0.77009305551E+01 0.88511070138E+01
 0.10004583385E+02 0.11079155897E+02 0.11987669068E+02 0.12648370766E+02 0.12996655702E+02
 0.12996562476E+02 0.12648181143E+02 0.11987553138E+02 0.11079183402E+02 0.10004671874E+02
 0.88511397642E+01 0.77008824545E+01 0.67366544104E+01 0.56629904980E+01 0.47735812757E+01
 0.40633300538E+01 0.35153333316E+01 0.31099936483E+01 0.28309744493E+01 0.26673836875E+01
 0.26134296437E+01 0.26673461673E+01 0.28309005185E+01 0.31099081692E+01 0.35152801992E+01
 0.40633322138E+01 0.47736192207E+01 0.56630311008E+01 0.67366848243E+01 0.79785763856E+01
 0.93459971528E+01 0.10769862304E+02 0.12159667732E+02 0.13410494754E+02 0.14412059996E+02
 0.15062113808E+02 0.15287218483E+02 0.15061989552E+02 0.14411903325E+02 0.13410396148E+02
 0.12159640988E+02 0.10769862889E+02 0.93459886619E+01 0.79785549513E+01 0.66222362532E+01
 0.54818684651E+01 0.45618328217E+01 0.38464676678E+01 0.33110029356E+01 0.29309383946E+01
 0.26873163362E+01 0.25682027619E+01 0.25681315674E+01 0.26871984032E+01 0.29309040693E+01
 0.33110198461E+01 0.38464386398E+01 0.45617959229E+01 0.54819330408E+01 0.66223670831E+01
 0.79785763856E+01 0.95182136574E+01 0.11178923464E+02 0.12870770472E+02 0.14479945941E+02
 0.15870781070E+02 0.16893682330E+02 0.17434643653E+02 0.17434670805E+02 0.16893682904E+02
 0.15870637766E+02 0.14479704571E+02 0.12870619183E+02 0.11178952798E+02 0.95182917128E+01
 0.79785355808E+01 0.62933447673E+01 0.51417294713E+01 0.42369158454E+01 0.35525447682E+01
 0.30570148053E+01 0.27225521041E+01 0.25293528959E+01 0.24661136596E+01 0.25292727588E+01
 0.27224944140E+01 0.30570148119E+01 0.35525406784E+01 0.42368956615E+01 0.51417625678E+01
 0.62934421106E+01 0.77009305551E+01 0.93459971528E+01 0.11178923464E+02 0.13119169906E+02
 0.15056112980E+02 0.16836055943E+02 0.18268318634E+02 0.19195983773E+02 0.19517089501E+02
 0.19195921392E+02 0.18268225106E+02 0.16835944043E+02 0.15055991237E+02 0.13119084400E+02
 0.11178902848E+02 0.93459823060E+01 0.77008542505E+01 0.57895536863E+01 0.46819105788E+01
 0.38343883984E+01 0.32115260772E+01 0.27772808487E+01 0.25030441402E+01 0.23703377630E+01
 0.23703517385E+01 0.25030509294E+01 0.27772361197E+01 0.32114666057E+01 0.38344006885E+01
 0.46820005274E+01 0.57896196391E+01 0.71799441141E+01 0.88511070138E+01 0.10769862304E+02
 0.12870770472E+02 0.15056112980E+02 0.17173708317E+02 0.19006192032E+02 0.20356099931E+02
 0.21072936205E+02 0.21072856642E+02 0.20355980332E+02 0.19006194175E+02 0.17173776850E+02
 0.15056073846E+02 0.12870613913E+02 0.10769748037E+02 0.88511086236E+01 0.71799586969E+01
 0.51671400421E+01 0.41507044368E+01 0.33932087512E+01 0.28532632290E+01 0.24938142003E+01
 0.22882025343E+01 0.22212598621E+01 0.22881779833E+01 0.24937901584E+01 0.28532629276E+01
 0.33932264066E+01 0.41507155854E+01 0.51671412489E+01 0.64769539930E+01 0.80945011839E+01
 0.10004583385E+02 0.12159667732E+02 0.14479945941E+02 0.16836055943E+02 0.19006192032E+02
 0.20761470821E+02 0.21907497017E+02 0.22306516574E+02 0.21907576365E+02 0.20761515951E+02
 0.19006136814E+02 0.16835958717E+02 0.14479884678E+02 0.12159641973E+02 0.10004555054E+02
 0.80944688519E+01 0.64769402631E+01 0.44880027068E+01 0.35962533174E+01 0.29489623220E+01
 0.25030367852E+01 0.22240825648E+01 0.20898374341E+01 0.20898009428E+01 0.22240276378E+01
 0.25030473816E+01 0.29490224026E+01 0.35962574751E+01 0.44879164972E+01 0.56668157961E+01
 0.71618907549E+01 0.89758089018E+01 0.11079155897E+02 0.13410494754E+02 0.15870781070E+02
 0.18268318634E+02 0.20356099931E+02 0.21907497017E+02 0.22737485668E+02 0.22737561270E+02
 0.21907581222E+02 0.20356001610E+02 0.18268112885E+02 0.15870687955E+02 0.13410542257E+02
 0.11079181438E+02 0.89757465045E+01 0.71618558210E+01 0.56668863262E+01 0.38091029358E+01
 0.30591219877E+01 0.25292921772E+01 0.21792057749E+01 0.19800377829E+01 0.19154051216E+01
 0.19800671372E+01 0.21792134940E+01 0.25292673159E+01 0.30591043321E+01 0.38090955684E+01
 0.48251647473E+01 0.61470992426E+01 0.77944024127E+01 0.97560076947E+01 0.11987669068E+02
 0.14412059996E+02 0.16893682330E+02 0.19195983773E+02 0.21072936205E+02 0.22306516574E+02
 0.22737561270E+02 0.22306481910E+02 0.21072882642E+02 0.19195932078E+02 0.16893633794E+02
 0.14411995759E+02 0.11987599483E+02 0.97559898574E+01 0.77944649005E+01 0.61471883647E+01
 0.48252099744E+01 0.31748013129E+01 0.25681657946E+01 0.21523143660E+01 0.18930162522E+01
 0.17684869914E+01 0.17685147179E+01 0.18930569391E+01 0.21523075443E+01 0.25681252800E+01
 0.31747805989E+01 0.40161278967E+01 0.51371384434E+01 0.65705792896E+01 0.83235070022E+01
 0.10369620079E+02 0.12648370766E+02 0.15062113808E+02 0.17434643653E+02 0.19517089501E+02
 0.21072856642E+02 0.21907576365E+02 0.21907581222E+02 0.21072882642E+02 0.19517134668E+02
 0.17434658402E+02 0.15062054273E+02 0.12648278529E+02 0.10369596996E+02 0.83235895678E+01
 0.65706919922E+01 0.51371948621E+01 0.40161352660E+01 0.26134168790E+01 0.21399845810E+01
 0.18275535815E+01 0.16498633199E+01 0.15921795234E+01 0.16498586790E+01 0.18275600562E+01
 0.21400044449E+01 0.26134227573E+01 0.32853655223E+01 0.42000848483E+01 0.53980885930E+01
 0.69019769455E+01 0.87042625122E+01 0.10762091800E+02 0.12996655702E+02 0.15287218483E+02
 0.17434670805E+02 0.19195921392E+02 0.20355980332E+02 0.20761515951E+02 0.20356001610E+02
 0.19195932078E+02 0.17434658402E+02 0.15287208782E+02 0.12996672697E+02 0.10762132236E+02
 0.87043155553E+01 0.69020474018E+01 0.53981785744E+01 0.42001671804E+01 0.32854051799E+01
 0.21380391890E+01 0.17810410129E+01 0.15581390094E+01 0.14510061118E+01 0.14510198860E+01
 0.15581585764E+01 0.17810444414E+01 0.21380436328E+01 0.26582119856E+01 0.33799305917E+01
 0.43447580698E+01 0.55856872452E+01 0.71129466110E+01 0.89034386384E+01 0.10897154873E+02
 0.12996562476E+02 0.15061989552E+02 0.16893682904E+02 0.18268225106E+02 0.19006194175E+02
 0.19006136814E+02 0.18268112885E+02 0.16893633794E+02 0.15062054273E+02 0.12996672697E+02
 0.10897219504E+02 0.89034627156E+01 0.71130083301E+01 0.55858079858E+01 0.43448643507E+01
 0.33799642685E+01 0.26582022920E+01 0.17502779591E+01 0.14908880284E+01 0.13430135633E+01
 0.12949819585E+01 0.13430435340E+01 0.14909024084E+01 0.17502716246E+01 0.21419064676E+01
 0.26958495338E+01 0.34488940158E+01 0.44371614034E+01 0.56837504522E+01 0.71853461350E+01
 0.89034475652E+01 0.10762079177E+02 0.12648181143E+02 0.14411903325E+02 0.15870637766E+02
 0.16835944043E+02 0.17173776850E+02 0.16835958717E+02 0.15870687955E+02 0.14411995759E+02
 0.12648278529E+02 0.10762132236E+02 0.89034627156E+01 0.71853876031E+01 0.56838477571E+01
 0.44372542552E+01 0.34489156721E+01 0.26958214160E+01 0.21418930935E+01 0.14448685529E+01
 0.12651039782E+01 0.11785355768E+01 0.11785265383E+01 0.12650937941E+01 0.14448835601E+01
 0.17317359967E+01 0.21473548800E+01 0.27208586578E+01 0.34852219017E+01 0.44689388119E+01
 0.56837882390E+01 0.71129669203E+01 0.87043146454E+01 0.10369609917E+02 0.11987553138E+02
 0.13410396148E+02 0.14479704571E+02 0.15055991237E+02 0.15056073846E+02 0.14479884678E+02
 0.13410542257E+02 0.11987599483E+02 0.10369596996E+02 0.87043155553E+01 0.71130083301E+01
 0.56838477571E+01 0.44689873915E+01 0.34852455918E+01 0.27208516038E+01 0.21473206646E+01
 0.17316974652E+01 0.12133918726E+01 0.10972836024E+01 0.10595407627E+01 0.10972660083E+01
 0.12133904724E+01 0.14167184809E+01 0.17221837065E+01 0.21510164778E+01 0.27296158213E+01
 0.34852074017E+01 0.44371835005E+01 0.55857418878E+01 0.69020300775E+01 0.83236148995E+01
 0.97560130451E+01 0.11079183402E+02 0.12159640988E+02 0.12870619183E+02 0.13119084400E+02
 0.12870613913E+02 0.12159641973E+02 0.11079181438E+02 0.97559898574E+01 0.83235895678E+01
 0.69020474018E+01 0.55858079858E+01 0.44372542552E+01 0.34852455918E+01 0.27296204613E+01
 0.21509969502E+01 0.17221482489E+01 0.14166900538E+01 0.10465240277E+01 0.98025219419E+00
 0.98024652743E+00 0.10465201950E+01 0.11842305400E+01 0.14034973298E+01 0.17192763947E+01
 0.21510089161E+01 0.27208470978E+01 0.34488612632E+01 0.43447579460E+01 0.53980758267E+01
 0.65706519990E+01 0.77944966065E+01 0.89758296535E+01 0.10004671874E+02 0.10769862889E+02
 0.11178952798E+02 0.11178902848E+02 0.10769748037E+02 0.10004555054E+02 0.89757465045E+01
 0.77944649005E+01 0.65706919922E+01 0.53981785744E+01 0.43448643507E+01 0.34489156721E+01
 0.27208516038E+01 0.21509969502E+01 0.17192611171E+01 0.14034775153E+01 0.11842179808E+01
 0.93528645373E+00 0.90704941400E+00 0.93527364826E+00 0.10223029310E+01 0.11748578877E+01
 0.14035055076E+01 0.17221733909E+01 0.21473469043E+01 0.26958266455E+01 0.33799049763E+01
 0.42000425743E+01 0.51370732314E+01 0.61471422106E+01 0.71618880511E+01 0.80945236657E+01
 0.88511397642E+01 0.93459886619E+01 0.95182917128E+01 0.93459823060E+01 0.88511086236E+01
 0.80944688519E+01 0.71618558210E+01 0.61471883647E+01 0.51371948621E+01 0.42001671804E+01
 0.33799642685E+01 0.26958214160E+01 0.21473206646E+01 0.17221482489E+01 0.14034775153E+01
 0.11748350054E+01 0.10223022643E+01 0.87204400124E+00 0.87203931117E+00 0.92075922903E+00
 0.10223066496E+01 0.11842432018E+01 0.14167328894E+01 0.17317416714E+01 0.21419168264E+01
 0.26581920121E+01 0.32853629680E+01 0.40160689508E+01 0.48251232506E+01 0.56667910118E+01
 0.64768696890E+01 0.71799439868E+01 0.77008824545E+01 0.79785549513E+01 0.79785355808E+01
 0.77008542505E+01 0.71799586969E+01 0.64769402631E+01 0.56668863262E+01 0.48252099744E+01
 0.40161352660E+01 0.32854051799E+01 0.26582022920E+01 0.21418930935E+01 0.17316974652E+01
 0.14166900538E+01 0.11842179808E+01 0.10223022643E+01 0.92076644916E+00 0.87204050631E+00
 0.90704727187E+00 0.98024336680E+00 0.10972677447E+01 0.12650926715E+01 0.14909008988E+01
 0.17810822444E+01 0.21400267436E+01 0.25681716619E+01 0.30590878017E+01 0.35962180605E+01
 0.41507056586E+01 0.46819407441E+01 0.51417511221E+01 0.54818660193E+01 0.56629846022E+01
 0.56629920448E+01 0.54818710769E+01 0.51417322049E+01 0.46819136844E+01 0.41507080864E+01
 0.35962556483E+01 0.30591207971E+01 0.25681611431E+01 0.21399778125E+01 0.17810327114E+01
 0.14908790775E+01 0.12650969851E+01 0.10972806831E+01 0.98025244109E+00 0.90705067004E+00
 0.87204111730E+00 0.90704727187E+00 0.95050340671E+00 0.10273507299E+01 0.11430664372E+01
 0.13035186915E+01 0.15139102628E+01 0.17778541893E+01 0.20963176872E+01 0.24660639370E+01
 0.28775288681E+01 0.33127425825E+01 0.37445081613E+01 0.41380339605E+01 0.44554092154E+01
 0.46621288071E+01 0.47339554971E+01 0.46621381486E+01 0.44553962149E+01 0.41379990023E+01
 0.37444968336E+01 0.33127749469E+01 0.28775557835E+01 0.24660277171E+01 0.20962333145E+01
 0.17777928591E+01 0.15139111499E+01 0.13035523670E+01 0.11430875434E+01 0.10273526902E+01
 0.95050552049E+00 0.90705407158E+00 0.89304607635E+00 0.98024336680E+00 0.10273507299E+01
 0.11033923629E+01 0.12132797750E+01 0.13615745188E+01 0.15516022423E+01 0.17847208753E+01
 0.20594664010E+01 0.23703235937E+01 0.27062258244E+01 0.30494186900E+01 0.33756532548E+01
 0.36564476708E+01 0.38633626322E+01 0.39733018261E+01 0.39733033748E+01 0.38633678513E+01
 0.36564592064E+01 0.33756720963E+01 0.30494347626E+01 0.27062201425E+01 0.23702882807E+01
 0.20594182334E+01 0.17846872067E+01 0.15515962900E+01 0.13615889896E+01 0.12132992288E+01
 0.11034047920E+01 0.10273515877E+01 0.98023695942E+00 0.95788721982E+00 0.95789112234E+00
 0.10972677447E+01 0.11430664372E+01 0.12132797750E+01 0.13120827152E+01 0.14428421873E+01
 0.16074545380E+01 0.18057811073E+01 0.20349184250E+01 0.22882055283E+01 0.25542442746E+01
 0.28165438226E+01 0.30544458605E+01 0.32456300500E+01 0.33698518020E+01 0.34129395221E+01
 0.33698213678E+01 0.32456164643E+01 0.30544757250E+01 0.28165814262E+01 0.25542349238E+01
 0.22881463979E+01 0.20348631060E+01 0.18057747765E+01 0.16074865086E+01 0.14428701907E+01
 0.13120855674E+01 0.12132701491E+01 0.11430625592E+01 0.10972720295E+01 0.10718056549E+01
 0.10636790959E+01 0.10718008023E+01 0.12650926715E+01 0.13035186915E+01 0.13615745188E+01
 0.14428421873E+01 0.15499140888E+01 0.16838984624E+01 0.18438954754E+01 0.20263087205E+01
 0.22240951000E+01 0.24263081182E+01 0.26183896974E+01 0.27835359385E+01 0.29051165836E+01
 0.29696734498E+01 0.29696676321E+01 0.29051081657E+01 0.27835356845E+01 0.26183887005E+01
 0.24262883807E+01 0.22240579654E+01 0.20262784139E+01 0.18438922976E+01 0.16839183715E+01
 0.15499372986E+01 0.14428540865E+01 0.13615741859E+01 0.13035128972E+01 0.12650875321E+01
 0.12423815710E+01 0.12320137377E+01 0.12320142979E+01 0.12423840190E+01 0.14909008988E+01
 0.15139102628E+01 0.15516022423E+01 0.16074545380E+01 0.16838984624E+01 0.17818483399E+01
 0.19001366276E+01 0.20349177664E+01 0.21792744645E+01 0.23232952239E+01 0.24548239385E+01
 0.25609491845E+01 0.26300718381E+01 0.26540953537E+01 0.26301028803E+01 0.25609859479E+01
 0.24548305255E+01 0.23232597088E+01 0.21792310713E+01 0.20349150915E+01 0.19001794546E+01
 0.17818908581E+01 0.16839022145E+01 0.16074325317E+01 0.15515917559E+01 0.15139193973E+01
 0.14909039523E+01 0.14785389468E+01 0.14730126753E+01 0.14715279529E+01 0.14730366580E+01
 0.14785585559E+01 0.17810822444E+01 0.17778541893E+01 0.17847208753E+01 0.18057811073E+01
 0.18438954754E+01 0.19001366276E+01 0.19732738123E+01 0.20594663928E+01 0.21523412662E+01
 0.22435138636E+01 0.23235316658E+01 0.23831936888E+01 0.24151030588E+01 0.24151142929E+01
 0.23832199408E+01 0.23235539817E+01 0.22435164770E+01 0.21523308184E+01 0.20594680534E+01
 0.19733001545E+01 0.19001695744E+01 0.18439086589E+01 0.18057712663E+01 0.17847052647E+01
 0.17778443659E+01 0.17810742886E+01 0.17896147011E+01 0.17986904054E+01 0.18043587324E+01
 0.18043642184E+01 0.17987030628E+01 0.17896266191E+01 0.21400267436E+01 0.20963176872E+01
 0.20594664010E+01 0.20349184250E+01 0.20263087205E+01 0.20349177664E+01 0.20594663928E+01
 0.20963183440E+01 0.21400268503E+01 0.21840858854E+01 0.22217930982E+01 0.22472128681E+01
 0.22561933595E+01 0.22472227472E+01 0.22217929453E+01 0.21840723965E+01 0.21400232208E+01
 0.20963359131E+01 0.20594785621E+01 0.20348941592E+01 0.20262628748E+01 0.20348944866E+01
 0.20594798268E+01 0.20963369434E+01 0.21400215434E+01 0.21840675013E+01 0.22217867464E+01
 0.22472167847E+01 0.22561879466E+01 0.22472088159E+01 0.22217915020E+01 0.21840860101E+01
 0.25681716619E+01 0.24660639370E+01 0.23703235937E+01 0.22882055283E+01 0.22240951000E+01
 0.21792744645E+01 0.21523412662E+01 0.21400268503E+01 0.21380659760E+01 0.21419168104E+01
 0.21473487612E+01 0.21510137586E+01 0.21510226822E+01 0.21473608260E+01 0.21419121418E+01
 0.21380484585E+01 0.21400065413E+01 0.21523065101E+01 0.21792112032E+01 0.22240250733E+01
 0.22881739748E+01 0.23703458546E+01 0.24661074446E+01 0.25681970089E+01 0.26673774687E+01
 0.27536170335E+01 0.28174507654E+01 0.28514277762E+01 0.28514244292E+01 0.28174472454E+01
 0.27536201147E+01 0.26673759890E+01 0.30590878017E+01 0.28775288681E+01 0.27062258244E+01
 0.25542442746E+01 0.24263081182E+01 0.23232952239E+01 0.22435138636E+01 0.21840858854E+01
 0.21419168104E+01 0.21141824386E+01 0.20985767494E+01 0.20935524049E+01 0.20985666647E+01
 0.21141813864E+01 0.21419307800E+01 0.21840784113E+01 0.22434339020E+01 0.23231536953E+01
 0.24262002546E+01 0.25542578050E+01 0.27063396195E+01 0.28776410067E+01 0.30591339113E+01
 0.32381141333E+01 0.33996337589E+01 0.35285531456E+01 0.36118303838E+01 0.36406262710E+01
 0.36118135016E+01 0.35285331165E+01 0.33996280193E+01 0.32381118967E+01 0.35962180605E+01
 0.33127425825E+01 0.30494186900E+01 0.28165438226E+01 0.26183896974E+01 0.24548239385E+01
 0.23235316658E+01 0.22217930982E+01 0.21473487612E+01 0.20985767494E+01 0.20744346421E+01
 0.20744193252E+01 0.20985526283E+01 0.21473451222E+01 0.22217855004E+01 0.23234510852E+01
 0.24546554295E+01 0.26182387731E+01 0.28165492578E+01 0.30495939410E+01 0.33129546127E+01
 0.35963379349E+01 0.38834143973E+01 0.41531595489E+01 0.43824974483E+01 0.45497155947E+01
 0.46379347719E+01 0.46379236548E+01 0.45496883173E+01 0.43824753329E+01 0.41531566443E+01
 0.38833900206E+01 0.41507056586E+01 0.37445081613E+01 0.33756532548E+01 0.30544458605E+01
 0.27835359385E+01 0.25609491845E+01 0.23831936888E+01 0.22472128681E+01 0.21510137586E+01
 0.20935524049E+01 0.20744193252E+01 0.20935408586E+01 0.21510107183E+01 0.22471878127E+01
 0.23830716485E+01 0.25607303308E+01 0.27833594676E+01 0.30544673150E+01 0.33758677920E+01
 0.37447529610E+01 0.41508406765E+01 0.45748753417E+01 0.49893298635E+01 0.53613574601E+01
 0.56573690743E+01 0.58482615214E+01 0.59142424261E+01 0.58482746876E+01 0.56573678916E+01
 0.53613424542E+01 0.49893226889E+01 0.45748446495E+01 0.46819407441E+01 0.41380339605E+01
 0.36564476708E+01 0.32456300500E+01 0.29051165836E+01 0.26300718381E+01 0.24151030588E+01
 0.22561933595E+01 0.21510226822E+01 0.20985666647E+01 0.20985526283E+01 0.21510107183E+01
 0.22561846571E+01 0.24149948402E+01 0.26298072998E+01 0.29048553540E+01 0.32456203774E+01
 0.36567248529E+01 0.41383652126E+01 0.46820960307E+01 0.52675398699E+01 0.58616332907E+01
 0.64211396987E+01 0.68980200791E+01 0.72465417503E+01 0.74307438120E+01 0.74307681660E+01
 0.72465810009E+01 0.68980340564E+01 0.64211568583E+01 0.58616904422E+01 0.52675621883E+01
 0.51417511221E+01 0.44554092154E+01 0.38633626322E+01 0.33698518020E+01 0.29696734498E+01
 0.26540953537E+01 0.24151142929E+01 0.22472227472E+01 0.21473608260E+01 0.21141813864E+01
 0.21473451222E+01 0.22471878127E+01 0.24149948402E+01 0.26538399255E+01 0.29694034203E+01
 0.33698100702E+01 0.38636346800E+01 0.44557906799E+01 0.51419667125E+01 0.59033464186E+01
 0.67037992603E+01 0.74910315692E+01 0.82018079101E+01 0.87703347773E+01 0.91384736239E+01
 0.92660035905E+01 0.91384984603E+01 0.87703511552E+01 0.82018178876E+01 0.74910868790E+01
 0.67038995713E+01 0.59033604289E+01 0.54818660193E+01 0.46621288071E+01 0.39733018261E+01
 0.34129395221E+01 0.29696676321E+01 0.26301028803E+01 0.23832199408E+01 0.22217929453E+01
 0.21419121418E+01 0.21419307800E+01 0.22217855004E+01 0.23830716485E+01 0.26298072998E+01
 0.29694034203E+01 0.34129372569E+01 0.39736039983E+01 0.46625193248E+01 0.54820771151E+01
 0.64185747592E+01 0.74368236563E+01 0.84790379020E+01 0.94687309171E+01 0.10319084890E+02
 0.10944973060E+02 0.11277389197E+02 0.11277386477E+02 0.10944947733E+02 0.10319026212E+02
 0.94686911298E+01 0.84790933160E+01 0.74369505656E+01 0.64186083637E+01 0.56629846022E+01
 0.47339554971E+01 0.39733033748E+01 0.33698213678E+01 0.29051081657E+01 0.25609859479E+01
 0.23235539817E+01 0.21840723965E+01 0.21380484585E+01 0.21840784113E+01 0.23234510852E+01
 0.25607303308E+01 0.29048553540E+01 0.33698100702E+01 0.39736039983E+01 0.47343703365E+01
 0.56632244320E+01 0.67552004140E+01 0.79811636584E+01 0.92836940786E+01 0.10578355302E+02
 0.11760237218E+02 0.12715729471E+02 0.13339824926E+02 0.13557058692E+02 0.13339790527E+02
 0.12715634729E+02 0.11760112687E+02 0.10578312750E+02 0.92838131808E+01 0.79813573363E+01
 0.67552480015E+01 0.56629920448E+01 0.46621381486E+01 0.38633678513E+01 0.32456164643E+01
 0.27835356845E+01 0.24548305255E+01 0.22435164770E+01 0.21400232208E+01 0.21400065413E+01
 0.22434339020E+01 0.24546554295E+01 0.27833594676E+01 0.32456203774E+01 0.38636346800E+01
 0.46625193248E+01 0.56632244320E+01 0.68723685571E+01 0.82718148252E+01 0.98114460689E+01
 0.11407060992E+02 0.12943378645E+02 0.14282617694E+02 0.15281275687E+02 0.15816533931E+02
 0.15816518434E+02 0.15281226653E+02 0.14282534969E+02 0.12943293532E+02 0.11407052457E+02
 0.98115715211E+01 0.82719953328E+01 0.68724038907E+01 0.54818710769E+01 0.44553962149E+01
 0.36564592064E+01 0.30544757250E+01 0.26183887005E+01 0.23232597088E+01 0.21523308184E+01
 0.20963359131E+01 0.21523065101E+01 0.23231536953E+01 0.26182387731E+01 0.30544673150E+01
 0.36567248529E+01 0.44557906799E+01 0.54820771151E+01 0.67552004140E+01 0.82718148252E+01
 0.99955095424E+01 0.11851310860E+02 0.13724624251E+02 0.15464440684E+02 0.16894925936E+02
 0.17841985538E+02 0.18173981351E+02 0.17841951919E+02 0.16894932190E+02 0.15464465416E+02
 0.13724570981E+02 0.11851219937E+02 0.99955549580E+01 0.82720144774E+01 0.67553040645E+01
 0.51417322049E+01 0.41379990023E+01 0.33756720963E+01 0.28165814262E+01 0.24262883807E+01
 0.21792310713E+01 0.20594680534E+01 0.20594785621E+01 0.21792112032E+01 0.24262002546E+01
 0.28165492578E+01 0.33758677920E+01 0.41383652126E+01 0.51419667125E+01 0.64185747592E+01
 0.79811636584E+01 0.98114460689E+01 0.11851310860E+02 0.13998122743E+02 0.16102439440E+02
 0.17971382052E+02 0.19385713859E+02 0.20148972876E+02 0.20148953874E+02 0.19385737120E+02
 0.17971512179E+02 0.16102537392E+02 0.13998043906E+02 0.11851181307E+02 0.98115108623E+01