    2    2   15    1
  0.2001288E+02  0.3839590E-09  0.3839590E-09  0.3839590E-09  0.5000000E-15
  1.000000000000000E-004
  CAR 
 unknown system                          
      8     10      8
 
  0.0000000E+00  0.0000000E+00  0.0000000E+00  0.8000000E-02
    1       -6.117263   1.000000
    2        5.849974   0.970217
    3        5.850004   0.970202
    4        5.850004   0.970202
    5        8.411587   0.000000
    6        8.411614   0.000000
    7        8.411614   0.000000
    8        9.225416   0.000000
 
  0.2000000E+00  0.1993820E-16  0.3023569E-17  0.6400000E-01
    1       -5.599390   1.000000
    2        2.838868   1.000000
    3        5.268651   1.000000
    4        5.268683   1.000000
    5        8.070842   0.000000
    6        9.212016   0.000000
    7        9.212065   0.000000
    8       11.908772   0.000000
 
  0.4000000E+00  0.3987640E-16  0.6047138E-17  0.6400000E-01
    1       -4.235542   1.000000
    2       -0.426358   1.000000
    3        4.720853   1.000000
    4        4.720885   1.000000
    5        7.470504   0.000000
    6        9.263319   0.000000
    7        9.263388   0.000000
    8       13.682053   0.000000
 
  0.2000000E+00  0.2000000E+00  0.4572614E-17  0.4800000E-01
    1       -5.421199   1.000000
    2        3.227156   1.000000
    3        4.358396   1.000000
    4        4.358415   1.000000
    5        7.306236   0.000000
    6        9.737143   0.000000
    7       10.747346   0.000000
    8       10.747368   0.000000
 
  0.4000000E+00  0.2000000E+00  0.1623023E-16  0.1920000E+00
    1       -4.278930   1.000000
    2        0.539478   1.000000
    3        3.222227   1.000000
    4        3.850131   1.000000
    5        7.620231   0.000000
    6        9.935649   0.000000
    7       10.788954   0.000000
    8       11.289994   0.000000
 
 -0.4000000E+00  0.2000000E+00  0.9097260E-17  0.1920000E+00
    1       -3.393538   1.000000
    2       -0.855725   1.000000
    3        2.412280   1.000000
    4        4.133141   1.000000
    5        7.903620   0.000000
    6       10.457882   0.000000
    7       10.653108   0.000000
    8       13.425357   0.000000
 
 -0.2000000E+00  0.2000000E+00  0.1212083E-16  0.9600000E-01
    1       -4.767226   1.000000
    2        1.372987   1.000000
    3        2.843807   1.000000
    4        5.002977   1.000000
    5        8.743095   0.000000
    6        9.842542   0.000000
    7       10.163861   0.000000
    8       11.593262   0.000000
 
  0.4000000E+00  0.4000000E+00  0.9145228E-17  0.4800000E-01
    1       -3.402680   1.000000
    2       -0.329235   1.000000
    3        3.151029   1.000000
    4        3.151047   1.000000
    5        6.423694   0.014896
    6        7.153065   0.000000
    7       14.376635   0.000000
    8       14.376659   0.000000
 
 -0.4000000E+00  0.4000000E+00  0.2424166E-16  0.9600000E-01
    1       -2.196259   1.000000
    2       -1.591443   1.000000
    3        1.778685   1.000000
    4        3.269980   1.000000
    5        6.872678   0.000000
    6        8.998201   0.000000
    7       13.955285   0.000000
    8       14.533678   0.000000
 
 -0.4000000E+00  0.4000000E+00  0.2000000E+00  0.1920000E+00
    1       -2.962821   1.000000
    2       -0.713029   1.000000
    3        1.863805   1.000000
    4        2.852045   1.000000
    5        9.243563   0.000000
    6        9.617225   0.000000
    7       10.287004   0.000000
    8       13.644984   0.000000
