    2    2   15    1
  0.1529437E+02  0.3691622E-09  0.3691622E-09  0.3691622E-09  0.5000000E-15
  1.000000000000000E-004
  CAR 
 unknown system                          
      8     28      8
 
  0.8333333E-01  0.8333333E-01  0.8333333E-01  0.3703704E-01
    1       -3.667782   1.000000
    2        3.909627   1.000000
    3        7.124385   1.000000
    4        8.628502   0.999899
    5       12.816557   0.000000
    6       13.707192   0.000000
    7       13.945212   0.000000
    8       15.780222   0.000000
 
  0.2500000E+00  0.8333333E-01  0.8333333E-01  0.7407407E-01
    1       -1.342673   1.000000
    2        4.282100   1.000000
    3        7.492814   1.000000
    4        7.971743   1.000000
    5        9.725912   0.000026
    6       12.298866   0.000000
    7       13.548016   0.000000
    8       14.361022   0.000000
 
  0.4166667E+00  0.8333333E-01  0.8333333E-01  0.3703704E-01
    1        2.191049   1.000000
    2        2.737136   1.000000
    3        6.027885   1.000000
    4        6.120563   1.000000
    5        9.572145   0.001557
    6       11.338866   0.000000
    7       13.662052   0.000000
    8       14.490180   0.000000
 
 -0.8333333E-01  0.8333333E-01  0.8333333E-01  0.1851852E-01
    1       -4.450472   1.000000
    2        4.507007   1.000000
    3        5.693752   1.000000
    4        8.246084   1.000000
    5       11.444624   0.000000
    6       14.312255   0.000000
    7       17.501537   0.000000
    8       18.095890   0.000000
 
  0.2500000E+00  0.2500000E+00  0.8333333E-01  0.3703704E-01
    1        2.096067   1.000000
    2        3.994051   1.000000
    3        4.097072   1.000000
    4        5.848476   1.000000
    5       10.978074   0.000000
    6       12.188454   0.000000
    7       13.793369   0.000000
    8       14.299946   0.000000
 
  0.4166667E+00  0.2500000E+00  0.8333333E-01  0.7407407E-01
    1       -0.052415   1.000000
    2        1.848948   1.000000
    3        6.995652   1.000000
    4        8.303578   1.000000
    5        9.955606   0.000000
    6       11.768677   0.000000
    7       13.551409   0.000000
    8       15.198179   0.000000
 
 -0.4166667E+00  0.2500000E+00  0.8333333E-01  0.3703704E-01
    1       -2.683340   1.000000
    2        1.168446   1.000000
    3        8.017454   1.000000
    4        9.829207   0.000001
    5       11.434153   0.000000
    6       12.902897   0.000000
    7       14.075404   0.000000
    8       14.319742   0.000000
 
 -0.2500000E+00  0.2500000E+00  0.8333333E-01  0.3703704E-01
    1       -3.790884   1.000000
    2        1.945574   1.000000
    3        5.958662   1.000000
    4        9.830812   0.000001
    5       11.439648   0.000000
    6       14.476046   0.000000
    7       15.325328   0.000000
    8       18.893500   0.000000
 
 -0.8333333E-01  0.2500000E+00  0.8333333E-01  0.3703704E-01
    1       -3.339514   1.000000
    2        3.654313   1.000000
    3        5.175972   1.000000
    4       10.675744   0.000000
    5       11.797157   0.000000
    6       13.234320   0.000000
    7       13.993431   0.000000
    8       15.935959   0.000000
 
  0.4166667E+00  0.4166667E+00  0.8333333E-01  0.1851852E-01
    1       -1.059573   1.000000
    2       -1.059573   1.000000
    3        9.470734   0.012571
    4        9.470735   0.012571
    5       11.352878   0.000000
    6       11.352886   0.000000
    7       13.711870   0.000000
    8       13.711873   0.000000
 
 -0.4166667E+00  0.4166667E+00  0.8333333E-01  0.3703704E-01
    1       -2.481787   1.000000
    2       -0.547584   1.000000
    3        7.175800   1.000000
    4        9.018497   0.831119
    5       11.239497   0.000000
    6       13.071039   0.000000
    7       18.207088   0.000000
    8       18.523203   0.000000
 
 -0.2500000E+00  0.4166667E+00  0.8333333E-01  0.7407407E-01
    1       -2.360146   1.000000
    2        1.430763   1.000000
    3        5.569951   1.000000
    4        9.170817   0.452846
    5       11.361530   0.000000
    6       13.463787   0.000000
    7       15.524116   0.000000
    8       16.728048   0.000000
 
 -0.8333333E-01  0.4166667E+00  0.8333333E-01  0.3703704E-01
    1       -0.699083   1.000000
    2        4.264231   1.000000
    3        5.878865   1.000000
    4        6.473294   1.000000
    5       10.069798   0.000000
    6       12.295866   0.000000
    7       13.326512   0.000000
    8       15.385768   0.000000
 
 -0.4166667E+00 -0.4166667E+00  0.8333333E-01  0.3703704E-01
    1       -0.752189   1.000000
    2       -0.747291   1.000000
    3        7.055678   1.000000
    4        7.074715   1.000000
    5       11.268874   0.000000
    6       14.478225   0.000000
    7       15.277098   0.000000
    8       15.369482   0.000000
 
 -0.2500000E+00 -0.4166667E+00  0.8333333E-01  0.7407407E-01
    1        0.571658   1.000000
    2        2.408202   1.000000
    3        5.806941   1.000000
    4        6.557070   1.000000
    5        8.235231   1.000000
    6       11.833239   0.000000
    7       15.382846   0.000000
    8       16.970702   0.000000
 
 -0.8333333E-01 -0.4166667E+00  0.8333333E-01  0.3703704E-01
    1        1.473939   1.000000
    2        3.440241   1.000000
    3        6.376636   1.000000
    4        7.605906   1.000000
    5        8.191782   1.000000
    6       10.783568   0.000000
    7       11.632011   0.000000
    8       15.682890   0.000000
 
 -0.2500000E+00 -0.2500000E+00  0.8333333E-01  0.3703704E-01
    1        1.168579   1.000000
    2        4.883939   1.000000
    3        4.932276   1.000000
    4        7.731488   1.000000
    5        8.712096   0.999111
    6       10.268578   0.000000
    7       12.634202   0.000000
    8       13.477693   0.000000
 
 -0.8333333E-01 -0.2500000E+00  0.8333333E-01  0.3703704E-01
    1       -1.993421   1.000000
    2        6.712546   1.000000
    3        7.718488   1.000000
    4        8.487390   0.999999
    5        9.877423   0.000000
    6       11.130276   0.000000
    7       12.366387   0.000000
    8       13.542413   0.000000
 
 -0.8333333E-01 -0.8333333E-01  0.8333333E-01  0.9259259E-02
    1       -3.997485   1.000000
    2        6.754963   1.000000
    3        6.824434   1.000000
    4        6.824440   1.000000
    5       11.143830   0.000000
    6       14.501100   0.000000
    7       14.777227   0.000000
    8       16.715801   0.000000
 
  0.2500000E+00  0.2500000E+00  0.2500000E+00  0.9259259E-02
    1        3.399149   1.000000
    2        3.399151   1.000000
    3        4.059967   1.000000
    4        4.059968   1.000000
    5       13.211593   0.000000
    6       13.211598   0.000000
    7       15.025920   0.000000
    8       15.025934   0.000000
 
 -0.2500000E+00  0.2500000E+00  0.2500000E+00  0.1851852E-01
    1       -3.138055   1.000000
    2        1.930477   1.000000
    3        3.627951   1.000000
    4        8.538778   0.999993
    5       12.891440   0.000000
    6       16.030955   0.000000
    7       17.253003   0.000000
    8       18.276400   0.000000
 
 -0.4166667E+00  0.4166667E+00  0.2500000E+00  0.3703704E-01
    1       -1.847452   1.000000
    2        0.023429   1.000000
    3        4.269872   1.000000
    4        6.087438   1.000000
    5       14.733669   0.000000
    6       16.169237   0.000000
    7       17.821459   0.000000
    8       18.185755   0.000000
 
 -0.2500000E+00  0.4166667E+00  0.2500000E+00  0.3703704E-01
    1       -1.400876   1.000000
    2        1.714135   1.000000
    3        3.468078   1.000000
    4        6.499789   1.000000
    5       10.820863   0.000000
    6       16.474866   0.000000
    7       17.511523   0.000000
    8       18.371936   0.000000
 
 -0.4166667E+00 -0.4166667E+00  0.2500000E+00  0.3703704E-01
    1        0.135260   1.000000
    2        0.145591   1.000000
    3        4.392409   1.000000
    4        4.395078   1.000000
    5       10.560284   0.000000
    6       17.629245   0.000000
    7       18.229229   0.000000
    8       19.011290   0.000000
 
 -0.2500000E+00 -0.4166667E+00  0.2500000E+00  0.3703704E-01
    1        1.768124   1.000000
    2        2.987405   1.000000
    3        4.740345   1.000000
    4        5.251678   1.000000
    5        6.000938   1.000000
    6       13.951902   0.000000
    7       15.335591   0.000000
    8       17.242484   0.000000
 
 -0.2500000E+00 -0.2500000E+00  0.2500000E+00  0.9259259E-02
    1        0.853889   1.000000
    2        5.774523   1.000000
    3        5.867654   1.000000
    4        7.265352   1.000000
    5        7.265354   1.000000
    6       11.587491   0.000000
    7       12.255372   0.000000
    8       12.255375   0.000000
 
 -0.4166667E+00  0.4166667E+00  0.4166667E+00  0.1851852E-01
    1       -0.628744   1.000000
    2        0.617705   1.000000
    3        2.435802   1.000000
    4        3.664139   1.000000
    5       16.180025   0.000000
    6       16.388710   0.000000
    7       19.385040   0.000000
    8       20.487036   0.000000
 
 -0.4166667E+00 -0.4166667E+00  0.4166667E+00  0.9259259E-02
    1        1.049760   1.000000
    2        1.067478   1.000000
    3        2.866464   1.000000
    4        2.866464   1.000000
    5       10.286417   0.000000
    6       19.175096   0.000000
    7       20.312743   0.000000
    8       20.312748   0.000000
