       N       E                     dE             d eps       ncg     rms          rms(c)
DAV:   1    -0.107437522749E+02   -0.10744E+02   -0.25635E-05   288   0.385E-02    0.137E-03
DAV:   2    -0.107437524172E+02   -0.14228E-06   -0.83971E-07   280   0.728E-03
   1 F= -.10743752E+02 E0= -.10743686E+02  d E =-.107438E+02
