   2   2   0   0
  0.2001288E+02  0.3839590E-09  0.3839590E-09  0.3839590E-09  0.5000000E-15
  1.000000000000000E-004
  CAR 
 unknown system                          
     17.46633531     -8.13440713  301      6.16448971      1.00000000
     -8.134  0.0000E+00  0.0000E+00
     -8.049  0.0000E+00  0.0000E+00
     -7.964  0.0000E+00  0.0000E+00
     -7.878  0.0000E+00  0.0000E+00
     -7.793  0.0000E+00  0.0000E+00
     -7.708  0.0000E+00  0.0000E+00
     -7.622  0.0000E+00  0.0000E+00
     -7.537  0.0000E+00  0.0000E+00
     -7.452  0.0000E+00  0.0000E+00
     -7.366  0.0000E+00  0.0000E+00
     -7.281  0.5949E-18  0.5076E-19
     -7.196  0.6544E-16  0.5635E-17
     -7.110  0.5469E-14  0.4724E-15
     -7.025  0.3190E-12  0.2770E-13
     -6.940  0.1302E-10  0.1139E-11
     -6.854  0.3727E-09  0.3294E-10
     -6.769  0.7502E-08  0.6731E-09
     -6.684  0.1068E-06  0.9791E-08
     -6.598  0.1088E-05  0.1026E-06
     -6.513  0.8060E-05  0.7904E-06
     -6.428  0.4468E-04  0.4603E-05
     -6.342  0.1919E-03  0.2098E-04
     -6.257  0.6561E-03  0.7697E-04
     -6.172  0.1796E-02  0.2303E-03
     -6.086  0.3876E-02  0.5610E-03
     -6.001  0.6510E-02  0.1116E-02
     -5.916  0.8731E-02  0.1862E-02
     -5.830  0.1032E-01  0.2742E-02
     -5.745  0.1247E-01  0.3806E-02
     -5.660  0.1600E-01  0.5172E-02
     -5.574  0.1945E-01  0.6832E-02
     -5.489  0.2011E-01  0.8548E-02
     -5.404  0.1774E-01  0.1006E-01
     -5.318  0.1608E-01  0.1143E-01
     -5.233  0.1886E-01  0.1304E-01
     -5.148  0.2501E-01  0.1518E-01
     -5.062  0.2974E-01  0.1772E-01
     -4.977  0.3046E-01  0.2032E-01
     -4.892  0.2913E-01  0.2280E-01
     -4.806  0.2810E-01  0.2520E-01
     -4.721  0.2689E-01  0.2749E-01
     -4.636  0.2491E-01  0.2962E-01
     -4.550  0.2494E-01  0.3175E-01
     -4.465  0.3069E-01  0.3437E-01
     -4.380  0.4039E-01  0.3781E-01
     -4.294  0.4670E-01  0.4180E-01
     -4.209  0.4605E-01  0.4573E-01
     -4.124  0.4320E-01  0.4941E-01
     -4.038  0.4242E-01  0.5303E-01
     -3.953  0.4153E-01  0.5658E-01
     -3.868  0.3902E-01  0.5991E-01
     -3.782  0.3974E-01  0.6330E-01
     -3.697  0.4865E-01  0.6745E-01
     -3.612  0.6195E-01  0.7274E-01
     -3.526  0.6891E-01  0.7862E-01
     -3.441  0.6422E-01  0.8410E-01
     -3.356  0.5456E-01  0.8876E-01
     -3.270  0.4815E-01  0.9286E-01
     -3.185  0.4344E-01  0.9657E-01
     -3.100  0.3628E-01  0.9967E-01
     -3.014  0.3112E-01  0.1023E+00
     -2.929  0.3474E-01  0.1053E+00
     -2.844  0.4435E-01  0.1091E+00
     -2.758  0.5019E-01  0.1134E+00
     -2.673  0.4660E-01  0.1173E+00
     -2.588  0.3639E-01  0.1204E+00
     -2.502  0.2636E-01  0.1227E+00
     -2.417  0.2067E-01  0.1245E+00
     -2.332  0.1873E-01  0.1260E+00
     -2.246  0.1874E-01  0.1276E+00
     -2.161  0.1950E-01  0.1293E+00
     -2.076  0.1940E-01  0.1310E+00
     -1.990  0.1745E-01  0.1325E+00
     -1.905  0.1445E-01  0.1337E+00
     -1.820  0.1184E-01  0.1347E+00
     -1.734  0.1083E-01  0.1356E+00
     -1.649  0.1190E-01  0.1366E+00
     -1.564  0.1372E-01  0.1378E+00
     -1.478  0.1458E-01  0.1391E+00
     -1.393  0.1613E-01  0.1404E+00
     -1.308  0.2303E-01  0.1424E+00
     -1.222  0.3803E-01  0.1456E+00
     -1.137  0.5850E-01  0.1506E+00
     -1.052  0.7663E-01  0.1572E+00
     -0.966  0.8347E-01  0.1643E+00
     -0.881  0.7688E-01  0.1709E+00
     -0.796  0.6456E-01  0.1764E+00
     -0.710  0.5583E-01  0.1811E+00
     -0.625  0.5302E-01  0.1857E+00
     -0.540  0.5261E-01  0.1901E+00
     -0.454  0.5095E-01  0.1945E+00
     -0.369  0.4773E-01  0.1986E+00
     -0.284  0.4490E-01  0.2024E+00
     -0.198  0.4314E-01  0.2061E+00
     -0.113  0.4136E-01  0.2096E+00
     -0.028  0.3839E-01  0.2129E+00
      0.058  0.3264E-01  0.2157E+00
      0.143  0.2348E-01  0.2177E+00
      0.229  0.1449E-01  0.2189E+00
      0.314  0.1182E-01  0.2199E+00
      0.399  0.1877E-01  0.2215E+00
      0.485  0.3169E-01  0.2242E+00
      0.570  0.4055E-01  0.2277E+00
      0.655  0.3792E-01  0.2309E+00
      0.741  0.2743E-01  0.2333E+00
      0.826  0.1827E-01  0.2348E+00
      0.911  0.1436E-01  0.2360E+00
      0.997  0.1401E-01  0.2372E+00
      1.082  0.1492E-01  0.2385E+00
      1.167  0.1546E-01  0.2398E+00
      1.253  0.1517E-01  0.2411E+00
      1.338  0.1613E-01  0.2425E+00
      1.423  0.2082E-01  0.2443E+00
      1.509  0.3017E-01  0.2469E+00
      1.594  0.4560E-01  0.2507E+00
      1.679  0.6656E-01  0.2564E+00
      1.765  0.8386E-01  0.2636E+00
      1.850  0.8625E-01  0.2709E+00
      1.935  0.7652E-01  0.2775E+00
      2.021  0.6787E-01  0.2833E+00
      2.106  0.6450E-01  0.2888E+00
      2.191  0.6047E-01  0.2939E+00
      2.277  0.5513E-01  0.2986E+00
      2.362  0.5436E-01  0.3033E+00
      2.447  0.5978E-01  0.3084E+00
      2.533  0.6917E-01  0.3143E+00
      2.618  0.8283E-01  0.3213E+00
      2.703  0.9870E-01  0.3298E+00
      2.789  0.1069E+00  0.3389E+00
      2.874  0.1006E+00  0.3475E+00
      2.959  0.8667E-01  0.3549E+00
      3.045  0.7811E-01  0.3615E+00
      3.130  0.7947E-01  0.3683E+00
      3.215  0.8503E-01  0.3756E+00
      3.301  0.8864E-01  0.3831E+00
      3.386  0.9009E-01  0.3908E+00
      3.471  0.9216E-01  0.3987E+00
      3.557  0.9552E-01  0.4069E+00
      3.642  0.9903E-01  0.4153E+00
      3.727  0.1025E+00  0.4241E+00
      3.813  0.1046E+00  0.4330E+00
      3.898  0.9945E-01  0.4415E+00
      3.983  0.8335E-01  0.4486E+00
      4.069  0.6516E-01  0.4541E+00
      4.154  0.6026E-01  0.4593E+00
      4.239  0.7133E-01  0.4654E+00
      4.325  0.8417E-01  0.4725E+00
      4.410  0.8501E-01  0.4798E+00
      4.495  0.7510E-01  0.4862E+00
      4.581  0.6638E-01  0.4919E+00
      4.666  0.6675E-01  0.4976E+00
      4.751  0.7128E-01  0.5037E+00
      4.837  0.6833E-01  0.5095E+00
      4.922  0.5385E-01  0.5141E+00
      5.007  0.3634E-01  0.5172E+00
      5.093  0.2677E-01  0.5195E+00
      5.178  0.2645E-01  0.5217E+00
      5.263  0.2725E-01  0.5240E+00
      5.349  0.2294E-01  0.5260E+00
      5.434  0.1618E-01  0.5274E+00
      5.519  0.1293E-01  0.5285E+00
      5.605  0.1402E-01  0.5297E+00
      5.690  0.1497E-01  0.5310E+00
      5.775  0.1256E-01  0.5320E+00
      5.861  0.8055E-02  0.5327E+00
      5.946  0.4182E-02  0.5331E+00
      6.031  0.1895E-02  0.5332E+00
      6.117  0.7953E-03  0.5333E+00
      6.202  0.4726E-03  0.5334E+00
      6.287  0.8758E-03  0.5334E+00
      6.373  0.2171E-02  0.5336E+00
      6.458  0.4464E-02  0.5340E+00
      6.543  0.7640E-02  0.5346E+00
      6.629  0.1154E-01  0.5356E+00
      6.714  0.1602E-01  0.5370E+00
      6.799  0.2050E-01  0.5387E+00
      6.885  0.2377E-01  0.5408E+00
      6.970  0.2478E-01  0.5429E+00
      7.055  0.2371E-01  0.5449E+00
      7.141  0.2193E-01  0.5468E+00
      7.226  0.2188E-01  0.5487E+00
      7.311  0.2651E-01  0.5509E+00
      7.397  0.3677E-01  0.5541E+00
      7.482  0.4968E-01  0.5583E+00
      7.567  0.6001E-01  0.5634E+00
      7.653  0.6443E-01  0.5689E+00
      7.738  0.6490E-01  0.5744E+00
      7.823  0.6743E-01  0.5802E+00
      7.909  0.7717E-01  0.5868E+00
      7.994  0.9396E-01  0.5948E+00
      8.079  0.1107E+00  0.6043E+00
      8.165  0.1170E+00  0.6142E+00
      8.250  0.1085E+00  0.6235E+00
      8.335  0.9165E-01  0.6313E+00
      8.421  0.7652E-01  0.6378E+00
      8.506  0.6957E-01  0.6438E+00
      8.591  0.7364E-01  0.6501E+00
      8.677  0.8537E-01  0.6573E+00
      8.762  0.9393E-01  0.6654E+00
      8.847  0.9104E-01  0.6731E+00
      8.933  0.8053E-01  0.6800E+00
      9.018  0.7258E-01  0.6862E+00
      9.103  0.7213E-01  0.6924E+00
      9.189  0.7853E-01  0.6991E+00
      9.274  0.9256E-01  0.7070E+00
      9.359  0.1140E+00  0.7167E+00
      9.445  0.1344E+00  0.7281E+00
      9.530  0.1435E+00  0.7404E+00
      9.615  0.1398E+00  0.7523E+00
      9.701  0.1304E+00  0.7634E+00
      9.786  0.1209E+00  0.7738E+00
      9.871  0.1099E+00  0.7831E+00
      9.957  0.9580E-01  0.7913E+00
     10.042  0.8163E-01  0.7983E+00
     10.127  0.7185E-01  0.8044E+00
     10.213  0.6739E-01  0.8102E+00
     10.298  0.6712E-01  0.8159E+00
     10.383  0.6865E-01  0.8218E+00
     10.469  0.6840E-01  0.8276E+00
     10.554  0.6589E-01  0.8332E+00
     10.639  0.6662E-01  0.8389E+00
     10.725  0.7693E-01  0.8455E+00
     10.810  0.9515E-01  0.8536E+00
     10.895  0.1090E+00  0.8629E+00
     10.981  0.1062E+00  0.8720E+00
     11.066  0.9042E-01  0.8797E+00
     11.151  0.7976E-01  0.8865E+00
     11.237  0.8565E-01  0.8938E+00
     11.322  0.9994E-01  0.9023E+00
     11.407  0.1053E+00  0.9113E+00
     11.493  0.9321E-01  0.9193E+00
     11.578  0.7080E-01  0.9253E+00
     11.664  0.5215E-01  0.9297E+00
     11.749  0.4396E-01  0.9335E+00
     11.834  0.4381E-01  0.9372E+00
     11.920  0.4793E-01  0.9413E+00
     12.005  0.5300E-01  0.9459E+00
     12.090  0.5392E-01  0.9505E+00
     12.176  0.4888E-01  0.9546E+00
     12.261  0.4418E-01  0.9584E+00
     12.346  0.4739E-01  0.9624E+00
     12.432  0.5863E-01  0.9674E+00
     12.517  0.7005E-01  0.9734E+00
     12.602  0.7253E-01  0.9796E+00
     12.688  0.6481E-01  0.9851E+00
     12.773  0.5463E-01  0.9898E+00
     12.858  0.4929E-01  0.9940E+00
     12.944  0.5011E-01  0.9983E+00
     13.029  0.5654E-01  0.1003E+01
     13.114  0.6744E-01  0.1009E+01
     13.200  0.7675E-01  0.1015E+01
     13.285  0.7733E-01  0.1022E+01
     13.370  0.7093E-01  0.1028E+01
     13.456  0.6600E-01  0.1034E+01
     13.541  0.6419E-01  0.1039E+01
     13.626  0.5785E-01  0.1044E+01
     13.712  0.4298E-01  0.1048E+01
     13.797  0.2584E-01  0.1050E+01
     13.882  0.1462E-01  0.1051E+01
     13.968  0.1140E-01  0.1052E+01
     14.053  0.1237E-01  0.1053E+01
     14.138  0.1227E-01  0.1054E+01
     14.224  0.9098E-02  0.1055E+01
     14.309  0.4799E-02  0.1055E+01
     14.394  0.1783E-02  0.1056E+01
     14.480  0.4668E-03  0.1056E+01
     14.565  0.1022E-03  0.1056E+01
     14.650  0.1357E-03  0.1056E+01
     14.736  0.6483E-03  0.1056E+01
     14.821  0.2382E-02  0.1056E+01
     14.906  0.6266E-02  0.1056E+01
     14.992  0.1194E-01  0.1058E+01
     15.077  0.1688E-01  0.1059E+01
     15.162  0.1858E-01  0.1061E+01
     15.248  0.1741E-01  0.1062E+01
     15.333  0.1557E-01  0.1063E+01
     15.418  0.1384E-01  0.1065E+01
     15.504  0.1130E-01  0.1066E+01
     15.589  0.7619E-02  0.1066E+01
     15.674  0.3961E-02  0.1066E+01
     15.760  0.1530E-02  0.1067E+01
     15.845  0.4294E-03  0.1067E+01
     15.930  0.8644E-04  0.1067E+01
     16.016  0.1237E-04  0.1067E+01
     16.101  0.1251E-05  0.1067E+01
     16.186  0.8905E-07  0.1067E+01
     16.272  0.4452E-08  0.1067E+01
     16.357  0.1560E-09  0.1067E+01
     16.442  0.3826E-11  0.1067E+01
     16.528  0.6562E-13  0.1067E+01
     16.613  0.7881E-15  0.1067E+01
     16.698  0.5711E-17  0.1067E+01
     16.784  0.0000E+00  0.1067E+01
     16.869  0.0000E+00  0.1067E+01
     16.954  0.0000E+00  0.1067E+01
     17.040  0.0000E+00  0.1067E+01
     17.125  0.0000E+00  0.1067E+01
     17.210  0.0000E+00  0.1067E+01
     17.296  0.0000E+00  0.1067E+01
     17.381  0.0000E+00  0.1067E+01
     17.466  0.0000E+00  0.1067E+01
