unknown system                          
   1.00000000000000     
     0.000000    2.715000    2.715000
     2.715000    0.000000    2.715000
     2.715000    2.715000    0.000000
   Si
     2
Direct
  0.500000  0.500000  0.500000
  0.750000  0.750000  0.750000
 
   28   28   28
 0.88339492279E+00 0.91045293494E+00 0.99383990123E+00 0.11405725024E+01 0.13626574557E+01
 0.16759275364E+01 0.20963152762E+01 0.26334824517E+01 0.32831503735E+01 0.40203307030E+01
 0.47956826375E+01 0.55370088531E+01 0.61577038220E+01 0.65726766406E+01 0.67187821961E+01
 0.65726208766E+01 0.61576379877E+01 0.55369694893E+01 0.47956639013E+01 0.40203128496E+01
 0.32831397059E+01 0.26335051326E+01 0.20963781517E+01 0.16760017823E+01 0.13627027820E+01
 0.11405712904E+01 0.99380808071E+00 0.91042415153E+00 0.91045293494E+00 0.95610600763E+00
 0.10507912029E+01 0.12015711207E+01 0.14189916591E+01 0.17153465604E+01 0.21007833855E+01
 0.25776143405E+01 0.31342504731E+01 0.37407850525E+01 0.43482202243E+01 0.48928452306E+01
 0.53063097415E+01 0.55300437499E+01 0.55300292506E+01 0.53062838803E+01 0.48928356330E+01
 0.43482293892E+01 0.37407990405E+01 0.31342711011E+01 0.25776589966E+01 0.21008531750E+01
 0.17154145891E+01 0.14190288894E+01 0.12015731343E+01 0.10507751242E+01 0.95609044055E+00
 0.91044708459E+00 0.99383990123E+00 0.10507912029E+01 0.11501773098E+01 0.12987265472E+01
 0.15051370527E+01 0.17779928703E+01 0.21221205697E+01 0.25339164440E+01 0.29969929293E+01
 0.34799514042E+01 0.39378773406E+01 0.43183087388E+01 0.45710849379E+01 0.46597869284E+01
 0.45710755624E+01 0.43183037256E+01 0.39378874538E+01 0.34799788964E+01 0.29970399264E+01
 0.25339822192E+01 0.21221874482E+01 0.17780316239E+01 0.15051350783E+01 0.12987019958E+01
 0.11501585974E+01 0.10507893460E+01 0.99384529922E+00 0.97529746419E+00 0.11405725024E+01
 0.12015711207E+01 0.12987265472E+01 0.14382025894E+01 0.16266733926E+01 0.18692212821E+01
 0.21662689171E+01 0.25100788164E+01 0.28820257131E+01 0.32521451521E+01 0.35820474349E+01
 0.38312471408E+01 0.39656314250E+01 0.39656265412E+01 0.38312398630E+01 0.35820531327E+01
 0.32521751507E+01 0.28820798132E+01 0.25101407233E+01 0.21663076441E+01 0.18692103523E+01
 0.16266178771E+01 0.14381407263E+01 0.12986963607E+01 0.12015785819E+01 0.11405946631E+01
 0.11112503237E+01 0.11112395200E+01 0.13626574557E+01 0.14189916591E+01 0.15051370527E+01
 0.16266733926E+01 0.17884163552E+01 0.19925773321E+01 0.22364496710E+01 0.25100774157E+01
 0.27948994074E+01 0.30645083014E+01 0.32881499831E+01 0.34365564631E+01 0.34885929181E+01
 0.34365490324E+01 0.32881505294E+01 0.30645298264E+01 0.27949368791E+01 0.25101079409E+01
 0.22364459443E+01 0.19925270086E+01 0.17883363731E+01 0.16266038645E+01 0.15051119106E+01
 0.14190123335E+01 0.13626967224E+01 0.13311771207E+01 0.13210600253E+01 0.13311495366E+01
 0.16759275364E+01 0.17153465604E+01 0.17779928703E+01 0.18692212821E+01 0.19925773321E+01
 0.21483981351E+01 0.23323056559E+01 0.25339156038E+01 0.27365009520E+01 0.29184116069E+01
 0.30565493137E+01 0.31312777974E+01 0.31312741136E+01 0.30565446234E+01 0.29184144118E+01
 0.27365061792E+01 0.25339070619E+01 0.23322733949E+01 0.21483490092E+01 0.19925298771E+01
 0.18691945515E+01 0.17779975055E+01 0.17153797745E+01 0.16759737528E+01 0.16539449735E+01
 0.16443454138E+01 0.16443306422E+01 0.16539064663E+01 0.20963152762E+01 0.21007833855E+01
 0.21221205697E+01 0.21662689171E+01 0.22364496710E+01 0.23323056559E+01 0.24491688118E+01
 0.25776174066E+01 0.27038259879E+01 0.28112463460E+01 0.28837206080E+01 0.29093436841E+01
 0.28837199615E+01 0.28112413062E+01 0.27038102642E+01 0.25775898515E+01 0.24491418900E+01
 0.23322997279E+01 0.22364739448E+01 0.21663114526E+01 0.21221613475E+01 0.21008149230E+01
 0.20963444567E+01 0.21012232800E+01 0.21079268407E+01 0.21108457777E+01 0.21079045413E+01
 0.21011924572E+01 0.26334824517E+01 0.25776143405E+01 0.25339164440E+01 0.25100788164E+01
 0.25100774157E+01 0.25339156038E+01 0.25776174066E+01 0.26334859662E+01 0.26909257250E+01
 0.27381629256E+01 0.27648451340E+01 0.27648522491E+01 0.27381736342E+01 0.26909234036E+01
 0.26334745971E+01 0.25776250631E+01 0.25339676052E+01 0.25101674606E+01 0.25101697099E+01
 0.25339709279E+01 0.25776258568E+01 0.26334757435E+01 0.26909276126E+01 0.27381769289E+01
 0.27648509178E+01 0.27648425772E+01 0.27381628909E+01 0.26909253952E+01 0.32831503735E+01
 0.31342504731E+01 0.29969929293E+01 0.28820257131E+01 0.27948994074E+01 0.27365009520E+01
 0.27038259879E+01 0.26909257250E+01 0.26901159527E+01 0.26936144730E+01 0.26955301271E+01
 0.26936416725E+01 0.26901472006E+01 0.26909538936E+01 0.27038763028E+01 0.27365958158E+01
 0.27950194832E+01 0.28821201752E+01 0.29970252005E+01 0.31342266256E+01 0.32831051669E+01
 0.34282709682E+01 0.35513108551E+01 0.36341578501E+01 0.36634259262E+01 0.36341603130E+01
 0.35513257796E+01 0.34283060429E+01 0.40203307030E+01 0.37407850525E+01 0.34799514042E+01
 0.32521451521E+01 0.30645083014E+01 0.29184116069E+01 0.28112463460E+01 0.27381629256E+01
 0.26936144730E+01 0.26727708507E+01 0.26727916927E+01 0.26936637315E+01 0.27382246002E+01
 0.28113294882E+01 0.29185277001E+01 0.30646301812E+01 0.32522162854E+01 0.34799404808E+01
 0.37407136932E+01 0.40202444142E+01 0.42967193836E+01 0.45424506432E+01 0.47279612961E+01
 0.48280437274E+01 0.48280570096E+01 0.47279975135E+01 0.45425049275E+01 0.42967920482E+01
 0.47956826375E+01 0.43482202243E+01 0.39378773406E+01 0.35820474349E+01 0.32881499831E+01
 0.30565493137E+01 0.28837206080E+01 0.27648451340E+01 0.26955301271E+01 0.26727916927E+01
 0.26955711244E+01 0.27649169645E+01 0.28838217666E+01 0.30566783762E+01 0.32882731989E+01
 0.35821031109E+01 0.39378300625E+01 0.43480967922E+01 0.47955430280E+01 0.52512745785E+01
 0.56760276412E+01 0.60248330974E+01 0.62549748979E+01 0.63354812211E+01 0.62550013260E+01
 0.60248846931E+01 0.56761071382E+01 0.52513882463E+01 0.55370088531E+01 0.48928452306E+01
 0.43183087388E+01 0.38312471408E+01 0.34365564631E+01 0.31312777974E+01 0.29093436841E+01
 0.27648522491E+01 0.26936416725E+01 0.26936637315E+01 0.27649169645E+01 0.29094502887E+01
 0.31314192332E+01 0.34366940155E+01 0.38313102623E+01 0.43182461921E+01 0.48926752139E+01
 0.55368068003E+01 0.62161809946E+01 0.68793905188E+01 0.74626445021E+01 0.78994526943E+01
 0.81339059418E+01 0.81338891404E+01 0.78994233957E+01 0.74626490320E+01 0.68794678985E+01
 0.62163389867E+01 0.61577038220E+01 0.53063097415E+01 0.45710849379E+01 0.39656314250E+01
 0.34885929181E+01 0.31312741136E+01 0.28837199615E+01 0.27381736342E+01 0.26901472006E+01
 0.27382246002E+01 0.28838217666E+01 0.31314192332E+01 0.34887438524E+01 0.39657118710E+01
 0.45710238065E+01 0.53061077356E+01 0.61574479376E+01 0.70896493759E+01 0.80421439269E+01
 0.89319708694E+01 0.96639019569E+01 0.10147339788E+02 0.10316486603E+02 0.10147228386E+02
 0.96637564875E+01 0.89318933305E+01 0.80422023228E+01 0.70898433961E+01 0.65726766406E+01
 0.55300437499E+01 0.46597869284E+01 0.39656265412E+01 0.34365490324E+01 0.30565446234E+01
 0.28112413062E+01 0.26909234036E+01 0.26909538936E+01 0.28113294882E+01 0.30566783762E+01
 0.34366940155E+01 0.39657118710E+01 0.46597330279E+01 0.55298334162E+01 0.65723971539E+01
 0.77584918398E+01 0.90259966571E+01 0.10278079595E+02 0.11390779249E+02 0.12231209097E+02
 0.12684852063E+02 0.12684780537E+02 0.12231026242E+02 0.11390569578E+02 0.10277951393E+02
 0.90260339340E+01 0.77586984375E+01 0.67187821961E+01 0.55300292506E+01 0.45710755624E+01
 0.38312398630E+01 0.32881505294E+01 0.29184144118E+01 0.27038102642E+01 0.26334745971E+01
 0.27038763028E+01 0.29185277001E+01 0.32882731989E+01 0.38313102623E+01 0.45710238065E+01
 0.55298334162E+01 0.67185192059E+01 0.81226105373E+01 0.96894403373E+01 0.11320164970E+02
 0.12870829182E+02 0.14166764580E+02 0.15032910687E+02 0.15337288155E+02 0.15032865603E+02
 0.14166651851E+02 0.12870663498E+02 0.11320035316E+02 0.96894561607E+01 0.81227980622E+01
 0.65726208766E+01 0.53062838803E+01 0.43183037256E+01 0.35820531327E+01 0.30645298264E+01
 0.27365061792E+01 0.25775898515E+01 0.25776250631E+01 0.27365958158E+01 0.30646301812E+01
 0.35821031109E+01 0.43182461921E+01 0.53061077356E+01 0.65723971539E+01 0.81226105373E+01
 0.99241936447E+01 0.11891835440E+02 0.13879259593E+02 0.15682382948E+02 0.17053886666E+02
 0.17790783546E+02 0.17790845675E+02 0.17054003884E+02 0.15682423711E+02 0.13879174877E+02
 0.11891717160E+02 0.99241817777E+01 0.81227557203E+01 0.61576379877E+01 0.48928356330E+01
 0.39378874538E+01 0.32521751507E+01 0.27949368791E+01 0.25339070619E+01 0.24491418900E+01
 0.25339676052E+01 0.27950194832E+01 0.32522162854E+01 0.39378300625E+01 0.48926752139E+01
 0.61574479376E+01 0.77584918398E+01 0.96894403373E+01 0.11891835440E+02 0.14238145679E+02
 0.16516679177E+02 0.18418993611E+02 0.19671155504E+02 0.20106918454E+02 0.19671375198E+02
 0.18419263713E+02 0.16516811221E+02 0.14238089399E+02 0.11891705128E+02 0.96893947056E+01
 0.77585955337E+01 0.55369694893E+01 0.43482293892E+01 0.34799788964E+01 0.28820798132E+01
 0.25101079409E+01 0.23322733949E+01 0.23322997279E+01 0.25101674606E+01 0.28821201752E+01
 0.34799404808E+01 0.43480967922E+01 0.55368068003E+01 0.70896493759E+01 0.90259966571E+01
 0.11320164970E+02 0.13879259593E+02 0.16516679177E+02 0.18900914044E+02 0.20689412333E+02
 0.21643569851E+02 0.21643715218E+02 0.20689747362E+02 0.18901216317E+02 0.16516777170E+02
 0.13879149853E+02 0.11319992723E+02 0.90259228380E+01 0.70897283664E+01 0.47956639013E+01
 0.37407990405E+01 0.29970399264E+01 0.25101407233E+01 0.22364459443E+01 0.21483490092E+01
 0.22364739448E+01 0.25101697099E+01 0.29970252005E+01 0.37407136932E+01 0.47955430280E+01
 0.62161809946E+01 0.80421439269E+01 0.10278079595E+02 0.12870829182E+02 0.15682382948E+02
 0.18418993611E+02 0.20689412333E+02 0.22181214791E+02 0.22700421209E+02 0.22181480500E+02
 0.20689757432E+02 0.18419193749E+02 0.15682339852E+02 0.12870617471E+02 0.10277868619E+02
 0.80420629848E+01 0.62162427764E+01 0.40203128496E+01 0.31342711011E+01 0.25339822192E+01
 0.21663076441E+01 0.19925270086E+01 0.19925298771E+01 0.21663114526E+01 0.25339709279E+01
 0.31342266256E+01 0.40202444142E+01 0.52512745785E+01 0.68793905188E+01 0.89319708694E+01
 0.11390779249E+02 0.14166764580E+02 0.17053886666E+02 0.19671155504E+02 0.21643569851E+02
 0.22700421209E+02 0.22700550745E+02 0.21643853054E+02 0.19671370025E+02 0.17053882361E+02
 0.14166558308E+02 0.11390507070E+02 0.89317725863E+01 0.68793249565E+01 0.52513124238E+01
 0.32831397059E+01 0.25776589966E+01 0.21221874482E+01 0.18692103523E+01 0.17883363731E+01
 0.18691945515E+01 0.21221613475E+01 0.25776258568E+01 0.32831051669E+01 0.42967193836E+01
 0.56760276412E+01 0.74626445021E+01 0.96639019569E+01 0.12231209097E+02 0.15032910687E+02
 0.17790783546E+02 0.20106918454E+02 0.21643715218E+02 0.22181480500E+02 0.21643853054E+02
 0.20107049986E+02 0.17790766971E+02 0.15032727762E+02 0.12230950317E+02 0.96636760815E+01
 0.74625084392E+01 0.56759828323E+01 0.42967333406E+01 0.26335051326E+01 0.21008531750E+01
 0.17780316239E+01 0.16266178771E+01 0.16266038645E+01 0.17779975055E+01 0.21008149230E+01
 0.26334757435E+01 0.34282709682E+01 0.45424506432E+01 0.60248330974E+01 0.78994526943E+01
 0.10147339788E+02 0.12684852063E+02 0.15337288155E+02 0.17790845675E+02 0.19671375198E+02
 0.20689747362E+02 0.20689757432E+02 0.19671370025E+02 0.17790766971E+02 0.15337128071E+02
 0.12684657292E+02 0.10147164421E+02 0.78993223494E+01 0.60247535045E+01 0.45424200414E+01
 0.34282780761E+01 0.20963781517E+01 0.17154145891E+01 0.15051350783E+01 0.14381407263E+01
 0.15051119106E+01 0.17153797745E+01 0.20963444567E+01 0.26909276126E+01 0.35513108551E+01
 0.47279612961E+01 0.62549748979E+01 0.81339059418E+01 0.10316486603E+02 0.12684780537E+02
 0.15032865603E+02 0.17054003884E+02 0.18419263713E+02 0.18901216317E+02 0.18419193749E+02
 0.17053882361E+02 0.15032727762E+02 0.12684657292E+02 0.10316384887E+02 0.81338144371E+01
 0.62548938861E+01 0.47279097087E+01 0.35512995603E+01 0.26909472679E+01 0.16760017823E+01
 0.14190288894E+01 0.12987019958E+01 0.12986963607E+01 0.14190123335E+01 0.16759737528E+01
 0.21012232800E+01 0.27381769289E+01 0.36341578501E+01 0.48280437274E+01 0.63354812211E+01
 0.81338891404E+01 0.10147228386E+02 0.12231026242E+02 0.14166651851E+02 0.15682423711E+02
 0.16516811221E+02 0.16516777170E+02 0.15682339852E+02 0.14166558308E+02 0.12230950317E+02
 0.10147164421E+02 0.81338144371E+01 0.63353958722E+01 0.48279798751E+01 0.36341420992E+01
 0.27382014729E+01 0.21012592520E+01 0.13627027820E+01 0.12015731343E+01 0.11501585974E+01
 0.12015785819E+01 0.13626967224E+01 0.16539449735E+01 0.21079268407E+01 0.27648509178E+01
 0.36634259262E+01 0.48280570096E+01 0.62550013260E+01 0.78994233957E+01 0.96637564875E+01
 0.11390569578E+02 0.12870663498E+02 0.13879174877E+02 0.14238089399E+02 0.13879149853E+02
 0.12870617471E+02 0.11390507070E+02 0.96636760815E+01 0.78993223494E+01 0.62548938861E+01
 0.48279798751E+01 0.36634107774E+01 0.27648920890E+01 0.21079838042E+01 0.16539798951E+01
 0.11405712904E+01 0.10507751242E+01 0.10507893460E+01 0.11405946631E+01 0.13311771207E+01
 0.16443454138E+01 0.21108457777E+01 0.27648425772E+01 0.36341603130E+01 0.47279975135E+01
 0.60248846931E+01 0.74626490320E+01 0.89318933305E+01 0.10277951393E+02 0.11320035316E+02
 0.11891717160E+02 0.11891705128E+02 0.11319992723E+02 0.10277868619E+02 0.89317725863E+01
 0.74625084392E+01 0.60247535045E+01 0.47279097087E+01 0.36341420992E+01 0.27648920890E+01
 0.21109241702E+01 0.16444004661E+01 0.13311836790E+01 0.99380808071E+00 0.95609044055E+00
 0.99384529922E+00 0.11112503237E+01 0.13210600253E+01 0.16443306422E+01 0.21079045413E+01
 0.27381628909E+01 0.35513257796E+01 0.45425049275E+01 0.56761071382E+01 0.68794678985E+01
 0.80422023228E+01 0.90260339340E+01 0.96894561607E+01 0.99241817777E+01 0.96893947056E+01
 0.90259228380E+01 0.80420629848E+01 0.68793249565E+01 0.56759828323E+01 0.45424200414E+01
 0.35512995603E+01 0.27382014729E+01 0.21079838042E+01 0.16444004661E+01 0.13210784285E+01
 0.11112190532E+01 0.91042415153E+00 0.91044708459E+00 0.97529746419E+00 0.11112395200E+01
 0.13311495366E+01 0.16539064663E+01 0.21011924572E+01 0.26909253952E+01 0.34283060429E+01
 0.42967920482E+01 0.52513882463E+01 0.62163389867E+01 0.70898433961E+01 0.77586984375E+01
 0.81227980622E+01 0.81227557203E+01 0.77585955337E+01 0.70897283664E+01 0.62162427764E+01
 0.52513124238E+01 0.42967333406E+01 0.34282780761E+01 0.26909472679E+01 0.21012592520E+01
 0.16539798951E+01 0.13311836790E+01 0.11112190532E+01 0.97525176792E+00 0.91045303943E+00
 0.95610721050E+00 0.10507924038E+01 0.12015719572E+01 0.14189928954E+01 0.17153482778E+01
 0.21007845170E+01 0.25776144069E+01 0.31342500617E+01 0.37407842172E+01 0.43482182280E+01
 0.48928423335E+01 0.53063074748E+01 0.55300429154E+01 0.55300292887E+01 0.53062845490E+01
 0.48928375116E+01 0.43482322838E+01 0.37408016652E+01 0.31342728269E+01 0.25776602624E+01
 0.21008538348E+01 0.17154136706E+01 0.14190264520E+01 0.12015706169E+01 0.10507733778E+01
 0.95608907072E+00 0.91044606349E+00 0.95610721050E+00 0.10115607415E+01 0.11081233236E+01
 0.12521802387E+01 0.14521498459E+01 0.17164649223E+01 0.20499493405E+01 0.24491673786E+01
 0.28981426426E+01 0.33662563771E+01 0.38098432587E+01 0.41781024071E+01 0.44226412456E+01
 0.45084222654E+01 0.44226323352E+01 0.41780986669E+01 0.38098516790E+01 0.33662729018E+01
 0.28981699955E+01 0.24492164311E+01 0.20500157086E+01 0.17165212087E+01 0.14521724694E+01
 0.12521746078E+01 0.11081132824E+01 0.10115605804E+01 0.95611218885E+00 0.93802579902E+00
 0.10507924038E+01 0.11081233236E+01 0.11990382184E+01 0.13292142898E+01 0.15050804973E+01
 0.17317505252E+01 0.20099085203E+01 0.23323078580E+01 0.26811855926E+01 0.30280549329E+01
 0.33367544430E+01 0.35695484749E+01 0.36949291985E+01 0.36949244226E+01 0.35695375857E+01
 0.33367454545E+01 0.30280582334E+01 0.26812125551E+01 0.23323610275E+01 0.20099686658E+01
 0.17317846305E+01 0.15050727604E+01 0.13291840496E+01 0.11990193373E+01 0.11081302424E+01
 0.10508117926E+01 0.10231178915E+01 0.10231081418E+01 0.12015719572E+01 0.12521802387E+01
 0.13292142898E+01 0.14378675475E+01 0.15829680647E+01 0.17670612816E+01 0.19879657909E+01
 0.22364519031E+01 0.24951265914E+01 0.27395223942E+01 0.29416698610E+01 0.30754518952E+01
 0.31222855792E+01 0.30754412820E+01 0.29416550827E+01 0.27395175284E+01 0.24951466794E+01
 0.22364961988E+01 0.19880080537E+01 0.17670668872E+01 0.15829280156E+01 0.14378111901E+01
 0.13291820250E+01 0.12521866649E+01 0.12015995175E+01 0.11730906163E+01 0.11638929811E+01
 0.11730688614E+01 0.14189928954E+01 0.14521498459E+01 0.15050804973E+01 0.15829680647E+01
 0.16896203094E+01 0.18258789765E+01 0.19879648302E+01 0.21662687907E+01 0.23453404586E+01
 0.25056243522E+01 0.26268444814E+01 0.26922087702E+01 0.26922042153E+01 0.26268339958E+01
 0.25056173577E+01 0.23453475747E+01 0.21662895180E+01 0.19879806412E+01 0.18258663606E+01
 0.16895754462E+01 0.15829153648E+01 0.15050521570E+01 0.14521578071E+01 0.14190226749E+01
 0.14004329977E+01 0.13922641428E+01 0.13922533050E+01 0.14004049655E+01 0.17153482778E+01
 0.17164649223E+01 0.17317505252E+01 0.17670612816E+01 0.18258789765E+01 0.19082366277E+01
 0.20099080034E+01 0.21221213879E+01 0.22322199895E+01 0.23255264823E+01 0.23881887850E+01
 0.24102785368E+01 0.23881860421E+01 0.23255216542E+01 0.22322157216E+01 0.21221194870E+01
 0.20099050383E+01 0.19082265611E+01 0.18258617480E+01 0.17670455048E+01 0.17317462076E+01
 0.17164755213E+01 0.17153695309E+01 0.17214866836E+01 0.17282900227E+01 0.17311156388E+01
 0.17282749932E+01 0.17214635724E+01 0.21007845170E+01 0.20499493405E+01 0.20099085203E+01
 0.19879657909E+01 0.19879648302E+01 0.20099080034E+01 0.20499516383E+01 0.21007872298E+01
 0.21526234651E+01 0.21949191585E+01 0.22186743748E+01 0.22186786254E+01 0.21949262115E+01
 0.21526247765E+01 0.21007839574E+01 0.20499529701E+01 0.20099198945E+01 0.19879848927E+01
 0.19879865722E+01 0.20099225302E+01 0.20499540064E+01 0.21007853219E+01 0.21526282299E+01
 0.21949288372E+01 0.22186777542E+01 0.22186724078E+01 0.21949188185E+01 0.21526229053E+01
 0.25776144069E+01 0.24491673786E+01 0.23323078580E+01 0.22364519031E+01 0.21662687907E+01
 0.21221213879E+01 0.21007872298E+01 0.20963184092E+01 0.21011921257E+01 0.21079036034E+01
 0.21108461328E+01 0.21079251735E+01 0.21012179472E+01 0.20963397933E+01 0.21008140619E+01
 0.21221614171E+01 0.21663103154E+01 0.22364748137E+01 0.23323044899E+01 0.24491466456E+01
 0.25775917039E+01 0.27038118606E+01 0.28112442222E+01 0.28837204882E+01 0.29093398223E+01
 0.28837164802E+01 0.28112450647E+01 0.27038248172E+01 0.31342500617E+01 0.28981426426E+01
 0.26811855926E+01 0.24951265914E+01 0.23453404586E+01 0.22322199895E+01 0.21526234651E+01
 0.21011921257E+01 0.20717041574E+01 0.20586195818E+01 0.20586395339E+01 0.20717511310E+01
 0.21012465724E+01 0.21526817430E+01 0.22322803130E+01 0.23453796099E+01 0.24951153527E+01
 0.26811261239E+01 0.28980717191E+01 0.31342018959E+01 0.33707461701E+01 0.35831277898E+01
 0.37446377111E+01 0.38321519062E+01 0.38321549333E+01 0.37446441836E+01 0.35831364647E+01
 0.33707671913E+01 0.37407842172E+01 0.33662563771E+01 0.30280549329E+01 0.27395223942E+01
 0.25056243522E+01 0.23255264823E+01 0.21949191585E+01 0.21079036034E+01 0.20586195818E+01
 0.20427420922E+01 0.20586646161E+01 0.21079761582E+01 0.21950016697E+01 0.23255994945E+01
 0.25056512925E+01 0.27394670638E+01 0.30279272968E+01 0.33661193101E+01 0.37406984466E+01
 0.41279194971E+01 0.44937972703E+01 0.47977448259E+01 0.49999753010E+01 0.50710301732E+01
 0.49999924397E+01 0.47977605676E+01 0.44938055099E+01 0.41279480455E+01 0.43482182280E+01
 0.38098432587E+01 0.33367544430E+01 0.29416698610E+01 0.26268444814E+01 0.23881887850E+01
 0.22186743748E+01 0.21108461328E+01 0.20586395339E+01 0.20586646161E+01 0.21109144188E+01
 0.22187671274E+01 0.23882731676E+01 0.26268690754E+01 0.29415884679E+01 0.33365755051E+01
 0.38096428077E+01 0.43480815407E+01 0.49247830653E+01 0.54965277156E+01 0.60065907322E+01
 0.63930682651E+01 0.66021086696E+01 0.66021165713E+01 0.63930808760E+01 0.60065916750E+01
 0.54965285255E+01 0.49248316624E+01 0.48928423335E+01 0.41781024071E+01 0.35695484749E+01
 0.30754518952E+01 0.26922087702E+01 0.24102785368E+01 0.22186786254E+01 0.21079251735E+01
 0.20717511310E+01 0.21079761582E+01 0.22187671274E+01 0.24103692959E+01 0.26922415796E+01
 0.30753683772E+01 0.35693454062E+01 0.41778551321E+01 0.48926552410E+01 0.56871771165E+01
 0.65118936367E+01 0.72943640422E+01 0.79468003189E+01 0.83821238872E+01 0.85352931568E+01
 0.83821074519E+01 0.79467654119E+01 0.72943202145E+01 0.65118797419E+01 0.56872512671E+01
 0.53063074748E+01 0.44226412456E+01 0.36949291985E+01 0.31222855792E+01 0.26922042153E+01
 0.23881860421E+01 0.21949262115E+01 0.21012179472E+01 0.21012465724E+01 0.21950016697E+01
 0.23882731676E+01 0.26922415796E+01 0.31222088336E+01 0.36947219621E+01 0.44223692239E+01
 0.53060865861E+01 0.63259156738E+01 0.74324662191E+01 0.85425113150E+01 0.95430139230E+01
 0.10307294493E+02 0.10722862126E+02 0.10722845551E+02 0.10307241371E+02 0.95429245932E+01
 0.85424137663E+01 0.74324269013E+01 0.63260034080E+01 0.55300429154E+01 0.45084222654E+01
 0.36949244226E+01 0.30754412820E+01 0.26268339958E+01 0.23255216542E+01 0.21526247765E+01
 0.20963397933E+01 0.21526817430E+01 0.23255994945E+01 0.26268690754E+01 0.30753683772E+01
 0.36947219621E+01 0.45081474615E+01 0.55298144995E+01 0.67531763956E+01 0.81382341339E+01
 0.96011669815E+01 0.11011517775E+02 0.12203668926E+02 0.13007203663E+02 0.13291481546E+02
 0.13007215643E+02 0.12203642063E+02 0.11011414309E+02 0.96010251417E+01 0.81381589651E+01
 0.67532564976E+01 0.55300292887E+01 0.44226323352E+01 0.35695375857E+01 0.29416550827E+01
 0.25056173577E+01 0.22322157216E+01 0.21007839574E+01 0.21008140619E+01 0.22322803130E+01
 0.25056512925E+01 0.29415884679E+01 0.35693454062E+01 0.44223692239E+01 0.55298144995E+01
 0.69036747543E+01 0.85227505580E+01 0.10316213712E+02 0.12151683351E+02 0.13836467603E+02
 0.15142717718E+02 0.15859971904E+02 0.15860039547E+02 0.15142850392E+02 0.13836524180E+02
 0.12151589778E+02 0.10316035718E+02 0.85226365973E+01 0.69037314635E+01 0.53062845490E+01
 0.41780986669E+01 0.33367454545E+01 0.27395175284E+01 0.23453475747E+01 0.21221194870E+01
 0.20499529701E+01 0.21221614171E+01 0.23453796099E+01 0.27394670638E+01 0.33365755051E+01
 0.41778551321E+01 0.53060865861E+01 0.67531763956E+01 0.85227505580E+01 0.10569431441E+02
 0.12778212068E+02 0.14952097221E+02 0.16823135385E+02 0.18101319485E+02 0.18556784057E+02
 0.18101523546E+02 0.16823381127E+02 0.14952198668E+02 0.12778108795E+02 0.10569223886E+02
 0.85226097378E+01 0.67532136418E+01 0.48928375116E+01 0.38098516790E+01 0.30280582334E+01
 0.24951466794E+01 0.21662895180E+01 0.20099050383E+01 0.20099198945E+01 0.21663103154E+01
 0.24951153527E+01 0.30279272968E+01 0.38096428077E+01 0.48926552410E+01 0.63259156738E+01
 0.81382341339E+01 0.10316213712E+02 0.12778212068E+02 0.15349647907E+02 0.17754752587E+02
 0.19646801268E+02 0.20691851604E+02 0.20691968290E+02 0.19647071118E+02 0.17754994449E+02
 0.15349710328E+02 0.12778075064E+02 0.10315992583E+02 0.81380932895E+01 0.63259522981E+01
 0.43482322838E+01 0.33662729018E+01 0.26812125551E+01 0.22364961988E+01 0.19879806412E+01
 0.19082265611E+01 0.19879848927E+01 0.22364748137E+01 0.26811261239E+01 0.33661193101E+01
 0.43480815407E+01 0.56871771165E+01 0.74324662191E+01 0.96011669815E+01 0.12151683351E+02
 0.14952097221E+02 0.17754752587E+02 0.20199091502E+02 0.21874281400E+02 0.22470499039E+02
 0.21874434794E+02 0.20199303454E+02 0.17754891547E+02 0.14952075705E+02 0.12151513927E+02
 0.96009571829E+01 0.74323506865E+01 0.56872194058E+01 0.37408016652E+01 0.28981699955E+01
 0.23323610275E+01 0.19880080537E+01 0.18258663606E+01 0.18258617480E+01 0.19879865722E+01
 0.23323044899E+01 0.28980717191E+01 0.37406984466E+01 0.49247830653E+01 0.65118936367E+01
 0.85425113150E+01 0.11011517775E+02 0.13836467603E+02 0.16823135385E+02 0.19646801268E+02
 0.21874281400E+02 0.23104167910E+02 0.23104208205E+02 0.21874374908E+02 0.19646884117E+02
 0.16823142715E+02 0.13836369618E+02 0.11011341550E+02 0.85423371789E+01 0.65118100716E+01
 0.49248177003E+01 0.31342728269E+01 0.24492164311E+01 0.20099686658E+01 0.17670668872E+01
 0.16895754462E+01 0.17670455048E+01 0.20099225302E+01 0.24491466456E+01 0.31342018959E+01
 0.41279194971E+01 0.54965277156E+01 0.72943640422E+01 0.95430139230E+01 0.12203668926E+02
 0.15142717718E+02 0.18101319485E+02 0.20691851604E+02 0.22470499039E+02 0.23104208205E+02
 0.22470484120E+02 0.20691813329E+02 0.18101253509E+02 0.15142623337E+02 0.12203545559E+02
 0.95428712551E+01 0.72942412096E+01 0.54964733720E+01 0.41279453958E+01 0.25776602624E+01
 0.20500157086E+01 0.17317846305E+01 0.15829280156E+01 0.15829153648E+01 0.17317462076E+01
 0.20499540064E+01 0.25775917039E+01 0.33707461701E+01 0.44937972703E+01 0.60065907322E+01
 0.79468003189E+01 0.10307294493E+02 0.13007203663E+02 0.15859971904E+02 0.18556784057E+02
 0.20691968290E+02 0.21874434794E+02 0.21874374908E+02 0.20691813329E+02 0.18556597172E+02
 0.15859815802E+02 0.13007098380E+02 0.10307212965E+02 0.79467168788E+01 0.60065227182E+01
 0.44937803539E+01 0.33707869942E+01 0.21008538348E+01 0.17165212087E+01 0.15050727604E+01
 0.14378111901E+01 0.15050521570E+01 0.17164755213E+01 0.21007853219E+01 0.27038118606E+01
 0.35831277898E+01 0.47977448259E+01 0.63930682651E+01 0.83821238872E+01 0.10722862126E+02
 0.13291481546E+02 0.15860039547E+02 0.18101523546E+02 0.19647071118E+02 0.20199303454E+02
 0.19646884117E+02 0.18101253509E+02 0.15859815802E+02 0.13291366851E+02 0.10722825043E+02
 0.83820981161E+01 0.63930329412E+01 0.47977306303E+01 0.35831617075E+01 0.27038807252E+01
 0.17154136706E+01 0.14521724694E+01 0.13291840496E+01 0.13291820250E+01 0.14521578071E+01
 0.17153695309E+01 0.21526282299E+01 0.28112442222E+01 0.37446377111E+01 0.49999753010E+01
 0.66021086696E+01 0.85352931568E+01 0.10722845551E+02 0.13007215643E+02 0.15142850392E+02
 0.16823381127E+02 0.17754994449E+02 0.17754891547E+02 0.16823142715E+02 0.15142623337E+02
 0.13007098380E+02 0.10722825043E+02 0.85352961728E+01 0.66020975778E+01 0.49999746241E+01
 0.37446809998E+01 0.28113237537E+01 0.21527041952E+01 0.14190264520E+01 0.12521746078E+01
 0.11990193373E+01 0.12521866649E+01 0.14190226749E+01 0.17214866836E+01 0.21949288372E+01
 0.28837204882E+01 0.38321519062E+01 0.50710301732E+01 0.66021165713E+01 0.83821074519E+01
 0.10307241371E+02 0.12203642063E+02 0.13836524180E+02 0.14952198668E+02 0.15349710328E+02
 0.14952075705E+02 0.13836369618E+02 0.12203545559E+02 0.10307212965E+02 0.83820981161E+01
 0.66020975778E+01 0.50710272678E+01 0.38322019734E+01 0.28838172771E+01 0.21950235972E+01
 0.17215366631E+01 0.12015706169E+01 0.11081132824E+01 0.11081302424E+01 0.12015995175E+01
 0.14004329977E+01 0.17282900227E+01 0.22186777542E+01 0.29093398223E+01 0.38321549333E+01
 0.49999924397E+01 0.63930808760E+01 0.79467654119E+01 0.95429245932E+01 0.11011414309E+02
 0.12151589778E+02 0.12778108795E+02 0.12778075064E+02 0.12151513927E+02 0.11011341550E+02
 0.95428712551E+01 0.79467168788E+01 0.63930329412E+01 0.49999746241E+01 0.38322019734E+01
 0.29094474266E+01 0.22187955340E+01 0.17283611226E+01 0.14004392259E+01 0.10507733778E+01
 0.10115605804E+01 0.10508117926E+01 0.11730906163E+01 0.13922641428E+01 0.17311156388E+01
 0.22186724078E+01 0.28837164802E+01 0.37446441836E+01 0.47977605676E+01 0.60065916750E+01
 0.72943202145E+01 0.85424137663E+01 0.96010251417E+01 0.10316035718E+02 0.10569223886E+02
 0.10315992583E+02 0.96009571829E+01 0.85423371789E+01 0.72942412096E+01 0.60065227182E+01
 0.47977306303E+01 0.37446809998E+01 0.28838172771E+01 0.22187955340E+01 0.17312046435E+01
 0.13922855452E+01 0.11730575533E+01 0.95608907072E+00 0.95611218885E+00 0.10231178915E+01
 0.11638929811E+01 0.13922533050E+01 0.17282749932E+01 0.21949188185E+01 0.28112450647E+01
 0.35831364647E+01 0.44938055099E+01 0.54965285255E+01 0.65118797419E+01 0.74324269013E+01
 0.81381589651E+01 0.85226365973E+01 0.85226097378E+01 0.81380932895E+01 0.74323506865E+01
 0.65118100716E+01 0.54964733720E+01 0.44937803539E+01 0.35831617075E+01 0.28113237537E+01
 0.21950235972E+01 0.17283611226E+01 0.13922855452E+01 0.11638685456E+01 0.10230706206E+01
 0.91044606349E+00 0.93802579902E+00 0.10231081418E+01 0.11730688614E+01 0.14004049655E+01
 0.17214635724E+01 0.21526229053E+01 0.27038248172E+01 0.33707671913E+01 0.41279480455E+01
 0.49248316624E+01 0.56872512671E+01 0.63260034080E+01 0.67532564976E+01 0.69037314635E+01
 0.67532136418E+01 0.63259522981E+01 0.56872194058E+01 0.49248177003E+01 0.41279453958E+01
 0.33707869942E+01 0.27038807252E+01 0.21527041952E+01 0.17215366631E+01 0.14004392259E+01
 0.11730575533E+01 0.10230706206E+01 0.93799459053E+00 0.99384177396E+00 0.10507940951E+01
 0.11501792920E+01 0.12987273785E+01 0.15051382274E+01 0.17779943025E+01 0.21221204280E+01
 0.25339144508E+01 0.29969906619E+01 0.34799492329E+01 0.39378743256E+01 0.43183056805E+01
 0.45710841802E+01 0.46597888189E+01 0.45710782160E+01 0.43183064173E+01 0.39378910454E+01
 0.34799828133E+01 0.29970420557E+01 0.25339821050E+01 0.21221864795E+01 0.17780299594E+01
 0.15051316241E+01 0.12986975531E+01 0.11501557046E+01 0.10507886945E+01 0.99384539257E+00
 0.97529790492E+00 0.10507940951E+01 0.11081249305E+01 0.11990389439E+01 0.13292142615E+01
 0.15050804327E+01 0.17317502621E+01 0.20099073071E+01 0.23323058805E+01 0.26811838083E+01
 0.30280536493E+01 0.33367534638E+01 0.35695483284E+01 0.36949306778E+01 0.36949270840E+01
 0.35695401337E+01 0.33367474157E+01 0.30280598864E+01 0.26812135362E+01 0.23323605351E+01
 0.20099668679E+01 0.17317824519E+01 0.15050704986E+01 0.13291815866E+01 0.11990173956E+01
 0.11081298919E+01 0.10508128730E+01 0.10231193202E+01 0.10231095514E+01 0.11501792920E+01
 0.11990389439E+01 0.12732056799E+01 0.13777188547E+01 0.15174006183E+01 0.16949082506E+01