    2    2   15    1
  0.2001288E+02  0.3839590E-09  0.3839590E-09  0.3839590E-09  0.5000000E-15
  1.000000000000000E-004
  CAR 
 unknown system                          
      8     20      8
 
  0.0000000E+00  0.0000000E+00  0.0000000E+00  0.2915452E-02
    1       -6.129362   1.000000
    2        5.856549   0.971158
    3        5.856575   0.971146
    4        5.856575   0.971146
    5        8.427068   0.000000
    6        8.427076   0.000000
    7        8.427076   0.000000
    8        9.207731   0.000000
 
  0.1428571E+00 -0.2862800E-17 -0.1748977E-16  0.2332362E-01
    1       -5.863163   1.000000
    2        3.915305   1.000000
    3        5.494208   0.999996
    4        5.494233   0.999996
    5        8.299906   0.000000
    6        8.952282   0.000000
    7        8.952303   0.000000
    8       10.877108   0.000000
 
  0.2857143E+00 -0.2269120E-16  0.9741634E-17  0.2332362E-01
    1       -5.095438   1.000000
    2        1.284896   1.000000
    3        4.974813   1.000000
    4        4.974844   1.000000
    5        7.765122   0.000000
    6        9.416056   0.000000
    7        9.416107   0.000000
    8       13.317523   0.000000
 
  0.4285714E+00 -0.2759730E-17  0.1159403E-16  0.2332362E-01
    1       -4.051751   1.000000
    2       -0.752596   1.000000
    3        4.683017   1.000000
    4        4.683051   1.000000
    5        7.440365   0.000000
    6        9.267535   0.000000
    7        9.267592   0.000000
    8       13.642176   0.000000
 
  0.1428571E+00  0.1428571E+00  0.4108522E-18  0.1749271E-01
    1       -5.773076   1.000000
    2        4.219523   1.000000
    3        4.875506   1.000000
    4        4.875522   1.000000
    5        7.742803   0.000000
    6        9.843432   0.000000
    7        9.843440   0.000000
    8       10.292149   0.000000
 
  0.2857143E+00  0.1428571E+00 -0.8512426E-17  0.6997085E-01
    1       -5.165359   1.000000
    2        2.082469   1.000000
    3        4.290549   1.000000
    4        4.328809   1.000000
    5        7.942100   0.000000
    6        9.778975   0.000000
    7       10.449524   0.000000
    8       10.636506   0.000000
 
  0.4285714E+00  0.1428571E+00  0.6714690E-17  0.6997085E-01
    1       -4.153851   1.000000
    2       -0.109387   1.000000
    3        3.598496   1.000000
    4        4.137916   1.000000
    5        8.010069   0.000000
    6        9.705129   0.000000
    7       10.425997   0.000000
    8       11.681619   0.000000
 
 -0.4285714E+00  0.1428571E+00 -0.2538985E-16  0.6997085E-01
    1       -3.592623   1.000000
    2       -0.977768   1.000000
    3        3.182834   1.000000
    4        4.336943   1.000000
    5        8.112097   0.000000
    6        9.613274   0.000000
    7       10.027468   0.000000
    8       14.060827   0.000000
 
 -0.2857143E+00  0.1428571E+00 -0.5704498E-17  0.6997085E-01
    1       -4.523346   1.000000
    2        0.573312   1.000000
    3        3.185783   1.000000
    4        4.854911   1.000000
    5        8.519528   0.000000
    6        9.782762   0.000000
    7        9.817202   0.000000
    8       12.539714   0.000000
 
 -0.1428571E+00  0.1428571E+00 -0.5725601E-17  0.3498542E-01
    1       -5.426373   1.000000
    2        2.705301   1.000000
    3        3.876206   1.000000
    4        5.452939   0.999999
    5        8.927766   0.000000
    6        9.163610   0.000000
    7        9.435704   0.000000
    8       11.509109   0.000000
 
  0.2857143E+00  0.2857143E+00  0.8217044E-18  0.1749271E-01
    1       -4.720753   1.000000
    2        1.682708   1.000000
    3        3.702678   1.000000
    4        3.702695   1.000000
    5        6.792858   0.000001
    6        8.487049   0.000000
    7       12.292768   0.000000
    8       12.292776   0.000000
 
  0.4285714E+00  0.2857143E+00 -0.5710699E-17  0.6997085E-01
    1       -3.816144   1.000000
    2        0.173739   1.000000
    3        2.719683   1.000000
    4        3.441083   1.000000
    5        7.080252   0.000000
    6        8.578599   0.000000
    7       12.520981   0.000000
    8       12.694474   0.000000
 
 -0.4285714E+00  0.2857143E+00  0.1028864E-16  0.6997085E-01
    1       -2.895037   1.000000
    2       -1.010584   1.000000
    3        1.762584   1.000000
    4        3.611048   1.000000
    5        7.318232   0.000000
    6       10.838480   0.000000
    7       12.183863   0.000000
    8       12.249923   0.000000
 
 -0.2857143E+00  0.2857143E+00 -0.7704199E-17  0.3498542E-01
    1       -3.547379   1.000000
    2       -0.256188   1.000000
    3        1.687394   1.000000
    4        4.164015   1.000000
    5        7.933742   0.000000
    6       11.343097   0.000000
    7       11.701982   0.000000
    8       12.491885   0.000000
 
  0.4285714E+00  0.4285714E+00  0.1232557E-17  0.1749271E-01
    1       -3.030651   1.000000
    2       -0.825627   1.000000
    3        3.066381   1.000000
    4        3.066404   1.000000
    5        6.434075   0.014421
    6        6.954841   0.000000
    7       14.976554   0.000000
    8       14.976557   0.000000
 
 -0.4285714E+00  0.4285714E+00 -0.5519460E-17  0.3498542E-01
    1       -2.077291   1.000000
    2       -1.788592   1.000000
    3        2.168427   1.000000
    4        3.128183   1.000000
    5        6.735491   0.000008
    6        8.007486   0.000000
    7       14.732948   0.000000
    8       15.161384   0.000000
 
  0.4285714E+00  0.2857143E+00  0.1428571E+00  0.6997085E-01
    1       -4.411155   1.000000
    2        0.941609   1.000000
    3        2.722630   1.000000
    4        4.055005   1.000000
    5        8.454715   0.000000
    6        9.717635   0.000000
    7       10.021665   0.000000
    8       12.049286   0.000000
 
 -0.4285714E+00  0.2857143E+00  0.1428571E+00  0.1399417E+00
    1       -3.365999   1.000000
    2       -0.596906   1.000000
    3        2.149921   1.000000
    4        3.514133   1.000000
    5        8.944328   0.000000
    6        9.362720   0.000000
    7       11.363376   0.000000
    8       12.510103   0.000000
 
 -0.4285714E+00  0.4285714E+00  0.1428571E+00  0.6997085E-01
    1       -2.824452   1.000000
    2       -0.911321   1.000000
    3        2.236693   1.000000
    4        2.649191   1.000000
    5        8.084666   0.000000
    6        8.458252   0.000000
    7       12.053173   0.000000
    8       14.580310   0.000000
 
 -0.2857143E+00  0.4285714E+00  0.1428571E+00  0.6997085E-01
    1       -2.385440   1.000000
    2       -1.310440   1.000000
    3        1.593646   1.000000
    4        2.740980   1.000000
    5        8.615950   0.000000
    6       10.733951   0.000000
    7       11.532207   0.000000
    8       11.680544   0.000000
