<?xml version="1.0" encoding="ISO-8859-1"?>
<modeling>
 <generator>
  <i name="program" type="string">vasp </i>
  <i name="version" type="string">5.4.4.18Apr17-6-g9f103f2a35  </i>
  <i name="subversion" type="string">(build Dec 09 2018 21:25:21) complex            parallel </i>
  <i name="platform" type="string">IFC18.0.1.163_CrayMPICH7.7.0_MKL18.0.1.163 </i>
  <i name="date" type="string">2019 03 19 </i>
  <i name="time" type="string">13:29:55 </i>
 </generator>
 <incar>
  <i type="string" name="PREC">normal</i>
  <i type="int" name="IBRION">     2</i>
  <i name="EDIFF">      0.00040000</i>
  <i name="EDIFFG">     -0.01000000</i>
  <i type="int" name="NSW">    15</i>
  <i type="int" name="ISIF">     2</i>
  <i name="ENCUT">    200.00000000</i>
  <i type="int" name="NBANDS">     8</i>
  <i type="logical" name="LREAL"> F  </i>
  <i type="int" name="ISMEAR">     0</i>
  <i name="SIGMA">      0.20000000</i>
  <v type="int" name="KPOINT_BSE">    -1     0     0     0</v>
 </incar>
 <structure name="primitive_cell" >
  <crystal>
   <varray name="basis" >
    <v>       0.00000000       2.71500000       2.71500000 </v>
    <v>       2.71500000       0.00000000       2.71500000 </v>
    <v>       2.71500000       2.71500000       0.00000000 </v>
   </varray>
   <i name="volume">     40.02575175 </i>
   <varray name="rec_basis" >
    <v>      -0.18416206       0.18416206       0.18416206 </v>
    <v>       0.18416206      -0.18416206       0.18416206 </v>
    <v>       0.18416206       0.18416206      -0.18416206 </v>
   </varray>
  </crystal>
  <varray name="positions" >
   <v>      -0.50000000      -0.50000000      -0.50000000 </v>
   <v>      -0.25000000      -0.25000000      -0.25000000 </v>
  </varray>
 </structure>
 <varray name="primitive_index" >
  <v type="int" >        1 </v>
  <v type="int" >        2 </v>
 </varray>
 <kpoints>
  <generation param="Monkhorst-Pack">
   <v type="int" name="divisions">       7        7        7 </v>
   <v name="usershift">      0.00000000       0.00000000       0.00000000 </v>
   <v name="genvec1">      0.14285714      -0.00000000       0.00000000 </v>
   <v name="genvec2">     -0.00000000       0.14285714      -0.00000000 </v>
   <v name="genvec3">      0.00000000       0.00000000       0.14285714 </v>
   <v name="shift">      0.00000000       0.00000000       0.00000000 </v>
  </generation>
  <varray name="kpointlist" >
   <v>       0.00000000       0.00000000       0.00000000 </v>
   <v>       0.14285714      -0.00000000      -0.00000000 </v>
   <v>       0.28571429      -0.00000000       0.00000000 </v>
   <v>       0.42857143      -0.00000000       0.00000000 </v>
   <v>       0.14285714       0.14285714       0.00000000 </v>
   <v>       0.28571429       0.14285714      -0.00000000 </v>
   <v>       0.42857143       0.14285714       0.00000000 </v>
   <v>      -0.42857143       0.14285714      -0.00000000 </v>
   <v>      -0.28571429       0.14285714      -0.00000000 </v>
   <v>      -0.14285714       0.14285714      -0.00000000 </v>
   <v>       0.28571429       0.28571429       0.00000000 </v>
   <v>       0.42857143       0.28571429      -0.00000000 </v>
   <v>      -0.42857143       0.28571429       0.00000000 </v>
   <v>      -0.28571429       0.28571429      -0.00000000 </v>
   <v>       0.42857143       0.42857143       0.00000000 </v>
   <v>      -0.42857143       0.42857143      -0.00000000 </v>
   <v>       0.42857143       0.28571429       0.14285714 </v>
   <v>      -0.42857143       0.28571429       0.14285714 </v>
   <v>      -0.42857143       0.42857143       0.14285714 </v>
   <v>      -0.28571429       0.42857143       0.14285714 </v>
  </varray>
  <varray name="weights" >
   <v>       0.00291545 </v>
   <v>       0.02332362 </v>
   <v>       0.02332362 </v>
   <v>       0.02332362 </v>
   <v>       0.01749271 </v>
   <v>       0.06997085 </v>
   <v>       0.06997085 </v>
   <v>       0.06997085 </v>
   <v>       0.06997085 </v>
   <v>       0.03498542 </v>
   <v>       0.01749271 </v>
   <v>       0.06997085 </v>
   <v>       0.06997085 </v>
   <v>       0.03498542 </v>
   <v>       0.01749271 </v>
   <v>       0.03498542 </v>
   <v>       0.06997085 </v>
   <v>       0.13994169 </v>
   <v>       0.06997085 </v>
   <v>       0.06997085 </v>
  </varray>
 </kpoints>
 <parameters>
  <separator name="general" >
   <i type="string" name="SYSTEM">unknown system</i>
   <i type="logical" name="LCOMPAT"> F  </i>
  </separator>
  <separator name="electronic" >
   <i type="string" name="PREC">normal</i>
   <i name="ENMAX">    200.00000000</i>
   <i name="ENAUG">    322.06900000</i>
   <i name="EDIFF">      0.00040000</i>
   <i type="int" name="IALGO">    38</i>
   <i type="int" name="IWAVPR">    11</i>
   <i type="int" name="NBANDS">     8</i>
   <i name="NELECT">      8.00000000</i>
   <i type="int" name="TURBO">     0</i>
   <i type="int" name="IRESTART">     0</i>
   <i type="int" name="NREBOOT">     0</i>
   <i type="int" name="NMIN">     0</i>
   <i name="EREF">      0.00000000</i>
   <separator name="electronic smearing" >
    <i type="int" name="ISMEAR">     0</i>
    <i name="SIGMA">      0.20000000</i>
    <i name="KSPACING">      0.50000000</i>
    <i type="logical" name="KGAMMA"> T  </i>
   </separator>
   <separator name="electronic projectors" >
    <i type="logical" name="LREAL"> F  </i>
    <v name="ROPT">      0.00000000</v>
    <i type="int" name="LMAXPAW">  -100</i>
    <i type="int" name="LMAXMIX">     2</i>
    <i type="logical" name="NLSPLINE"> F  </i>
   </separator>
   <separator name="electronic startup" >
    <i type="int" name="ISTART">     0</i>
    <i type="int" name="ICHARG">     2</i>
    <i type="int" name="INIWAV">     1</i>
   </separator>
   <separator name="electronic spin" >
    <i type="int" name="ISPIN">     1</i>
    <i type="logical" name="LNONCOLLINEAR"> F  </i>
    <v name="MAGMOM">      1.00000000      1.00000000</v>
    <i name="NUPDOWN">     -1.00000000</i>
    <i type="logical" name="LSORBIT"> F  </i>
    <v name="SAXIS">      0.00000000      0.00000000      1.00000000</v>
    <i type="logical" name="LSPIRAL"> F  </i>
    <v name="QSPIRAL">      0.00000000      0.00000000      0.00000000</v>
    <i type="logical" name="LZEROZ"> F  </i>
   </separator>
   <separator name="electronic exchange-correlation" >
    <i type="logical" name="LASPH"> F  </i>
    <i type="logical" name="LMETAGGA"> F  </i>
   </separator>
   <separator name="electronic convergence" >
    <i type="int" name="NELM">    60</i>
    <i type="int" name="NELMDL">    -5</i>
    <i type="int" name="NELMIN">     2</i>
    <i name="ENINI">    200.00000000</i>
    <separator name="electronic convergence detail" >
     <i type="logical" name="LDIAG"> T  </i>
     <i type="logical" name="LSUBROT"> F  </i>
     <i name="WEIMIN">      0.00100000</i>
     <i name="EBREAK">      0.00001250</i>
     <i name="DEPER">      0.30000000</i>
     <i type="int" name="NRMM">     4</i>
     <i name="TIME">      0.40000000</i>
    </separator>
   </separator>
   <separator name="electronic mixer" >
    <i name="AMIX">      0.40000000</i>
    <i name="BMIX">      1.00000000</i>
    <i name="AMIN">      0.10000000</i>
    <i name="AMIX_MAG">      1.60000000</i>
    <i name="BMIX_MAG">      1.00000000</i>
    <separator name="electronic mixer details" >
     <i type="int" name="IMIX">     4</i>
     <i type="logical" name="MIXFIRST"> F  </i>
     <i type="int" name="MAXMIX">   -45</i>
     <i name="WC">    100.00000000</i>
     <i type="int" name="INIMIX">     1</i>
     <i type="int" name="MIXPRE">     1</i>
     <i type="int" name="MREMOVE">     5</i>
    </separator>
   </separator>
   <separator name="electronic dipolcorrection" >
    <i type="logical" name="LDIPOL"> F  </i>
    <i type="logical" name="LMONO"> F  </i>
    <i type="int" name="IDIPOL">     0</i>
    <i name="EPSILON">      1.00000000</i>
    <v name="DIPOL">   -100.00000000   -100.00000000   -100.00000000</v>
    <i name="EFIELD">      0.00000000</i>
   </separator>
  </separator>
  <separator name="grids" >
   <i type="int" name="NGX">    14</i>
   <i type="int" name="NGY">    14</i>
   <i type="int" name="NGZ">    14</i>
   <i type="int" name="NGXF">    28</i>
   <i type="int" name="NGYF">    28</i>
   <i type="int" name="NGZF">    28</i>
   <i type="logical" name="ADDGRID"> F  </i>
  </separator>
  <separator name="ionic" >
   <i type="int" name="NSW">    15</i>
   <i type="int" name="IBRION">     2</i>
   <i type="int" name="MDALGO">     0</i>
   <i type="int" name="ISIF">     2</i>
   <i name="PSTRESS">      0.00000000</i>
   <i name="EDIFFG">     -0.01000000</i>
   <i type="int" name="NFREE">     1</i>
   <i name="POTIM">      0.50000000</i>
   <i name="SMASS">     -3.00000000</i>
   <i name="SCALEE">      1.00000000</i>
  </separator>
  <separator name="ionic md" >
   <i name="TEBEG">      0.00010000</i>
   <i name="TEEND">      0.00010000</i>
   <i type="int" name="NBLOCK">     1</i>
   <i type="int" name="KBLOCK">    15</i>
   <i type="int" name="NPACO">   256</i>
   <i name="APACO">     16.00000000</i>
  </separator>
  <separator name="symmetry" >
   <i type="int" name="ISYM">     2</i>
   <i name="SYMPREC">      0.00001000</i>
  </separator>
  <separator name="dos" >
   <i type="int" name="LORBIT">     0</i>
   <v name="RWIGS">     -1.00000000</v>
   <i type="int" name="NEDOS">   301</i>
   <i name="EMIN">     10.00000000</i>
   <i name="EMAX">    -10.00000000</i>
   <i name="EFERMI">      0.00000000</i>
  </separator>
  <separator name="writing" >
   <i type="int" name="NWRITE">     2</i>
   <i type="logical" name="LWAVE"> T  </i>
   <i type="logical" name="LDOWNSAMPLE"> F  </i>
   <i type="logical" name="LCHARG"> T  </i>
   <i type="logical" name="LPARD"> F  </i>
   <i type="logical" name="LVTOT"> F  </i>
   <i type="logical" name="LVHAR"> F  </i>
   <i type="logical" name="LELF"> F  </i>
   <i type="logical" name="LOPTICS"> F  </i>
   <v name="STM">      0.00000000      0.00000000      0.00000000      0.00000000      0.00000000      0.00000000      0.00000000</v>
  </separator>
  <separator name="performance" >
   <i type="int" name="NPAR">     8</i>
   <i type="int" name="NSIM">     4</i>
   <i type="int" name="NBLK">    -1</i>
   <i type="logical" name="LPLANE"> T  </i>
   <i type="logical" name="LSCALAPACK"> T  </i>
   <i type="logical" name="LSCAAWARE"> F  </i>
   <i type="logical" name="LSCALU"> F  </i>
   <i type="logical" name="LASYNC"> F  </i>
   <i type="logical" name="LORBITALREAL"> F  </i>
  </separator>
  <separator name="miscellaneous" >
   <i type="int" name="IDIOT">     3</i>
   <i type="int" name="ISPECIAL">     0</i>
   <i type="logical" name="LMUSIC"> F  </i>
   <v name="POMASS">     28.08500000</v>
   <v name="DARWINR">      0.00000000</v>
   <v name="DARWINV">      1.00000000</v>
   <i type="logical" name="LCORR"> T  </i>
  </separator>
  <i type="logical" name="GGA_COMPAT"> T  </i>
  <i type="logical" name="LBERRY"> F  </i>
  <i type="int" name="ICORELEVEL">     0</i>
  <i type="logical" name="LDAU"> F  </i>
  <i type="int" name="I_CONSTRAINED_M">     0</i>
  <separator name="electronic exchange-correlation" >
   <i type="string" name="GGA">--</i>
   <i type="int" name="VOSKOWN">     0</i>
   <i type="logical" name="LHFCALC"> F  </i>
   <i type="string" name="PRECFOCK"></i>
   <i type="logical" name="LSYMGRAD"> F  </i>
   <i type="logical" name="LHFONE"> F  </i>
   <i type="logical" name="LRHFCALC"> F  </i>
   <i type="logical" name="LTHOMAS"> F  </i>
   <i type="logical" name="LMODELHF"> F  </i>
   <i name="ENCUT4O">     -1.00000000</i>
   <i type="int" name="EXXOEP">     0</i>
   <i type="int" name="FOURORBIT">     0</i>
   <i name="AEXX">      0.00000000</i>
   <i name="HFALPHA">      0.00000000</i>
   <i name="MCALPHA">      0.00000000</i>
   <i name="ALDAX">      1.00000000</i>
   <i name="AGGAX">      1.00000000</i>
   <i name="ALDAC">      1.00000000</i>
   <i name="AGGAC">      1.00000000</i>
   <i type="int" name="NKREDX">     1</i>
   <i type="int" name="NKREDY">     1</i>
   <i type="int" name="NKREDZ">     1</i>
   <i type="logical" name="SHIFTRED"> F  </i>
   <i type="logical" name="ODDONLY"> F  </i>
   <i type="logical" name="EVENONLY"> F  </i>
   <i type="int" name="LMAXFOCK">     0</i>
   <i type="int" name="NMAXFOCKAE">     0</i>
   <i type="logical" name="LFOCKAEDFT"> F  </i>
   <i name="HFSCREEN">      0.00000000</i>
   <i name="HFSCREENC">      0.00000000</i>
   <i type="int" name="NBANDSGWLOW">     0</i>
  </separator>
  <separator name="vdW DFT" >
   <i type="logical" name="LUSE_VDW"> F  </i>
   <i name="Zab_VDW">     -0.84910000</i>
   <i name="PARAM1">      0.12340000</i>
   <i name="PARAM2">      1.00000000</i>
   <i name="PARAM3">      0.00000000</i>
  </separator>
  <separator name="model GW" >
   <i type="int" name="MODEL_GW">     0</i>
   <i name="MODEL_EPS0">     12.00772552</i>
   <i name="MODEL_ALPHA">      1.00000000</i>
  </separator>
  <separator name="linear response parameters" >
   <i type="logical" name="LEPSILON"> F  </i>
   <i type="logical" name="LRPA"> F  </i>
   <i type="logical" name="LNABLA"> F  </i>
   <i type="logical" name="LVEL"> F  </i>
   <i type="int" name="KINTER">     0</i>
   <i name="CSHIFT">      0.10000000</i>
   <i name="OMEGAMAX">     -1.00000000</i>
   <i name="DEG_THRESHOLD">      0.00200000</i>
   <i name="RTIME">     -0.10000000</i>
   <i name="WPLASMAI">      0.00000000</i>
   <v name="DFIELD">      0.00000000      0.00000000      0.00000000</v>
   <v name="WPLASMA">      0.00000000      0.00000000      0.00000000      0.00000000      0.00000000      0.00000000      0.00000000      0.00000000      0.00000000</v>
  </separator>
  <separator name="orbital magnetization" >
   <i type="logical" name="NUCIND"> F  </i>
   <v name="MAGPOS">      0.00000000      0.00000000      0.00000000</v>
   <i type="logical" name="LNICSALL"> T  </i>
   <i type="logical" name="ORBITALMAG"> F  </i>
   <i type="logical" name="LMAGBLOCH"> F  </i>
   <i type="logical" name="LCHIMAG"> F  </i>
   <i type="logical" name="LGAUGE"> T  </i>
   <i type="int" name="MAGATOM">     0</i>
   <v name="MAGDIPOL">      0.00000000      0.00000000      0.00000000</v>
   <v name="AVECCONST">      0.00000000      0.00000000      0.00000000</v>
  </separator>
  <separator name="response functions" >
   <i type="logical" name="LADDER"> F  </i>
   <i type="logical" name="LRPAFORCE"> F  </i>
   <i type="logical" name="LFXC"> F  </i>
   <i type="logical" name="LHARTREE"> T  </i>
   <i type="int" name="IBSE">     0</i>
   <v type="int" name="KPOINT">    -1     0     0     0</v>
   <i type="logical" name="LTCTE"> F  </i>
   <i type="logical" name="LTETE"> F  </i>
   <i type="logical" name="LTRIPLET"> F  </i>
   <i type="logical" name="LFXCEPS"> F  </i>
   <i type="logical" name="LFXHEG"> F  </i>
   <i type="int" name="NATURALO">     2</i>
   <i type="logical" name="L2ORDER"> F  </i>
   <i type="logical" name="LMP2LT"> F  </i>
   <i type="logical" name="LUSEW"> F  </i>
   <i name="ENCUTGW">     -2.00000000</i>
   <i name="ENCUTGWSOFT">     -2.00000000</i>
   <i name="ENCUTLF">     -1.00000000</i>
   <i type="int" name="LMAXMP2">    -1</i>
   <i name="SCISSOR">      0.00000000</i>
   <i type="int" name="NOMEGA">     0</i>
   <i type="int" name="NOMEGAR">     0</i>
   <i type="int" name="NBANDSGW">    -1</i>
   <i type="int" name="NBANDSO">    -1</i>
   <i type="int" name="NBANDSV">    -1</i>
   <i type="int" name="NELM">     1</i>
   <i type="int" name="NELMHF">     1</i>
   <i type="int" name="DIM">     3</i>
   <i type="int" name="ANTIRES">     0</i>
   <i name="OMEGAMAX">    -30.00000000</i>
   <i name="OMEGAMIN">    -30.00000000</i>
   <i name="OMEGATL">   -200.00000000</i>
   <i type="int" name="OMEGAGRID">   140</i>
   <i name="CSHIFT">     -0.10000000</i>
   <i type="logical" name="SELFENERGY"> F  </i>
   <i type="logical" name="LSPECTRAL"> F  </i>
   <i type="logical" name="LSPECTRALGW"> F  </i>
   <i type="logical" name="LSINGLES"> F  </i>
   <i type="logical" name="LFERMIGW"> F  </i>
   <i type="logical" name="ODDONLYGW"> F  </i>
   <i type="logical" name="EVENONLYGW"> F  </i>
   <i type="int" name="NKREDLFX">     1</i>
   <i type="int" name="NKREDLFY">     1</i>
   <i type="int" name="NKREDLFZ">     1</i>
   <i type="int" name="MAXMEM">  2800</i>
   <i type="int" name="TELESCOPE">     0</i>
   <i type="int" name="TAUPAR">     1</i>
   <i type="int" name="OMEGAPAR">    -1</i>
   <i name="LAMBDA">      1.00000000</i>
  </separator>
  <separator name="External order field" >
   <i name="OFIELD_KAPPA">      0.00000000</i>
   <v name="OFIELD_K">      0.00000000      0.00000000      0.00000000</v>
   <i name="OFIELD_Q6_NEAR">      0.00000000</i>
   <i name="OFIELD_Q6_FAR">      0.00000000</i>
   <i name="OFIELD_A">      0.00000000</i>
  </separator>
 </parameters>
 <atominfo>
  <atoms>       2 </atoms>
  <types>       1 </types>
  <array name="atoms" >
   <dimension dim="1">ion</dimension>
   <field type="string">element</field>
   <field type="int">atomtype</field>
   <set>
    <rc><c>Si</c><c>   1</c></rc>
    <rc><c>Si</c><c>   1</c></rc>
   </set>
  </array>
  <array name="atomtypes" >
   <dimension dim="1">type</dimension>
   <field type="int">atomspertype</field>
   <field type="string">element</field>
   <field>mass</field>
   <field>valence</field>
   <field type="string">pseudopotential</field>
   <set>
    <rc><c>   2</c><c>Si</c><c>     28.08500000</c><c>      4.00000000</c><c> PAW_PBE Si 05Jan2001                   </c></rc>
   </set>
  </array>
 </atominfo>
 <structure name="initialpos" >
  <crystal>
   <varray name="basis" >
    <v>       0.00000000       2.71500000       2.71500000 </v>
    <v>       2.71500000       0.00000000       2.71500000 </v>
    <v>       2.71500000       2.71500000       0.00000000 </v>
   </varray>
   <i name="volume">     40.02575175 </i>
   <varray name="rec_basis" >
    <v>      -0.18416206       0.18416206       0.18416206 </v>
    <v>       0.18416206      -0.18416206       0.18416206 </v>
    <v>       0.18416206       0.18416206      -0.18416206 </v>
   </varray>
  </crystal>
  <varray name="positions" >
   <v>       0.50000000       0.50000000       0.50000000 </v>
   <v>       0.75000000       0.75000000       0.75000000 </v>
  </varray>
 </structure>
 <calculation>
  <scstep>
   <time name="dav">    0.17    0.17</time>
   <time name="total">    0.20    0.22</time>
   <energy>
    <i name="alphaZ">      3.36414203 </i>
    <i name="ewald">   -228.56352493 </i>
    <i name="hartreedc">    -11.00108243 </i>
    <i name="XCdc">    -18.60172597 </i>
    <i name="pawpsdc">     65.95520812 </i>
    <i name="pawaedc">    -30.76852678 </i>
    <i name="eentropy">     -0.00934837 </i>
    <i name="bandstr">     11.00211776 </i>
    <i name="atom">    206.11247263 </i>
    <i name="e_fr_energy">     -2.51026795 </i>
    <i name="e_wo_entrp">     -2.50091958 </i>
    <i name="e_0_energy">     -2.50559377 </i>
   </energy>
  </scstep>
  <scstep>
   <time name="dav">    0.29    0.30</time>
   <time name="total">    0.29    0.30</time>
   <energy>
    <i name="e_fr_energy">    -10.90437110 </i>
    <i name="e_wo_entrp">    -10.90434291 </i>
    <i name="e_0_energy">    -10.90435700 </i>
   </energy>
  </scstep>
  <scstep>
   <time name="dav">    0.20    0.24</time>
   <time name="total">    0.21    0.24</time>
   <energy>
    <i name="e_fr_energy">    -10.96874353 </i>
    <i name="e_wo_entrp">    -10.96872329 </i>
    <i name="e_0_energy">    -10.96873341 </i>
   </energy>
  </scstep>
  <scstep>
   <time name="dav">    0.26    0.27</time>
   <time name="total">    0.27    0.27</time>
   <energy>
    <i name="e_fr_energy">    -10.96887968 </i>
    <i name="e_wo_entrp">    -10.96885946 </i>
    <i name="e_0_energy">    -10.96886957 </i>
   </energy>
  </scstep>
  <scstep>
   <time name="dav">    0.18    0.19</time>
   <time name="total">    0.20    0.20</time>
   <energy>
    <i name="e_fr_energy">    -10.96887972 </i>
    <i name="e_wo_entrp">    -10.96885949 </i>
    <i name="e_0_energy">    -10.96886961 </i>
   </energy>
  </scstep>
  <scstep>
   <time name="dav">    0.20    0.20</time>
   <time name="total">    0.24    0.25</time>
   <energy>
    <i name="e_fr_energy">    -10.84367520 </i>
    <i name="e_wo_entrp">    -10.84358523 </i>
    <i name="e_0_energy">    -10.84363021 </i>
   </energy>
  </scstep>
  <scstep>
   <time name="dav">    0.20    0.20</time>
   <time name="total">    0.24    0.24</time>
   <energy>
    <i name="e_fr_energy">    -10.78652454 </i>
    <i name="e_wo_entrp">    -10.78611354 </i>
    <i name="e_0_energy">    -10.78631904 </i>
   </energy>
  </scstep>
  <scstep>
   <time name="dav">    0.18    0.18</time>
   <time name="total">    0.22    0.23</time>
   <energy>
    <i name="e_fr_energy">    -10.78784833 </i>
    <i name="e_wo_entrp">    -10.78750180 </i>
    <i name="e_0_energy">    -10.78767507 </i>
   </energy>
  </scstep>
  <scstep>
   <time name="dav">    0.13    0.13</time>
   <time name="total">    0.16    0.17</time>
   <energy>
    <i name="alphaZ">      3.36414203 </i>
    <i name="ewald">   -228.56352493 </i>
    <i name="hartreedc">    -14.91860153 </i>
    <i name="XCdc">    -17.93730459 </i>
    <i name="pawpsdc">     75.93778122 </i>
    <i name="pawaedc">    -40.98872261 </i>
    <i name="eentropy">     -0.00034477 </i>
    <i name="bandstr">      6.20616132 </i>
    <i name="atom">    206.11247263 </i>
    <i name="e_fr_energy">    -10.78794124 </i>
    <i name="e_wo_entrp">    -10.78759647 </i>
    <i name="e_0_energy">    -10.78776885 </i>
   </energy>
  </scstep>
  <structure>
   <crystal>
    <varray name="basis" >
     <v>       0.00000000       2.71500000       2.71500000 </v>
     <v>       2.71500000       0.00000000       2.71500000 </v>
     <v>       2.71500000       2.71500000       0.00000000 </v>
    </varray>
    <i name="volume">     40.02575175 </i>
    <varray name="rec_basis" >
     <v>      -0.18416206       0.18416206       0.18416206 </v>
     <v>       0.18416206      -0.18416206       0.18416206 </v>
     <v>       0.18416206       0.18416206      -0.18416206 </v>
    </varray>
   </crystal>
   <varray name="positions" >
    <v>       0.50000000       0.50000000       0.50000000 </v>
    <v>       0.75000000       0.75000000       0.75000000 </v>
   </varray>
  </structure>
  <varray name="forces" >
   <v>      -0.00000000      -0.00000000       0.00000000 </v>
   <v>       0.00000000       0.00000000      -0.00000000 </v>
  </varray>
  <varray name="stress" >
   <v>      18.92960047       0.00000000       0.00000000 </v>
   <v>       0.00000000      18.92960047       0.00000000 </v>
   <v>       0.00000000       0.00000000      18.92960047 </v>
  </varray>
  <energy>
   <i name="e_fr_energy">    -10.78794124 </i>
   <i name="e_wo_entrp">    -10.78776885 </i>
   <i name="e_0_energy">     -0.00034477 </i>
  </energy>
  <time name="totalsc">    2.68    3.18</time>
  <eigenvalues>
   <array>
    <dimension dim="1">band</dimension>
    <dimension dim="2">kpoint</dimension>
    <dimension dim="3">spin</dimension>
    <field>eigene</field>
    <field>occ</field>
    <set>
     <set comment="spin 1">
      <set comment="kpoint 1">
       <r>   -6.1294    1.0000 </r>
       <r>    5.8565    0.9712 </r>
       <r>    5.8566    0.9711 </r>
       <r>    5.8566    0.9711 </r>
       <r>    8.4271    0.0000 </r>
       <r>    8.4271    0.0000 </r>
       <r>    8.4271    0.0000 </r>
       <r>    9.2077    0.0000 </r>
      </set>
      <set comment="kpoint 2">
       <r>   -5.8632    1.0000 </r>
       <r>    3.9153    1.0000 </r>
       <r>    5.4942    1.0000 </r>
       <r>    5.4942    1.0000 </r>
       <r>    8.2999    0.0000 </r>
       <r>    8.9523    0.0000 </r>
       <r>    8.9523    0.0000 </r>
       <r>   10.8771    0.0000 </r>
      </set>
      <set comment="kpoint 3">
       <r>   -5.0954    1.0000 </r>
       <r>    1.2849    1.0000 </r>
       <r>    4.9748    1.0000 </r>
       <r>    4.9748    1.0000 </r>
       <r>    7.7651    0.0000 </r>
       <r>    9.4161    0.0000 </r>
       <r>    9.4161    0.0000 </r>
       <r>   13.3175    0.0000 </r>
      </set>
      <set comment="kpoint 4">
       <r>   -4.0518    1.0000 </r>
       <r>   -0.7526    1.0000 </r>
       <r>    4.6830    1.0000 </r>
       <r>    4.6831    1.0000 </r>
       <r>    7.4404    0.0000 </r>
       <r>    9.2675    0.0000 </r>
       <r>    9.2676    0.0000 </r>
       <r>   13.6422    0.0000 </r>
      </set>
      <set comment="kpoint 5">
       <r>   -5.7731    1.0000 </r>
       <r>    4.2195    1.0000 </r>
       <r>    4.8755    1.0000 </r>
       <r>    4.8755    1.0000 </r>
       <r>    7.7428    0.0000 </r>
       <r>    9.8434    0.0000 </r>
       <r>    9.8434    0.0000 </r>
       <r>   10.2921    0.0000 </r>
      </set>
      <set comment="kpoint 6">
       <r>   -5.1654    1.0000 </r>
       <r>    2.0825    1.0000 </r>
       <r>    4.2905    1.0000 </r>
       <r>    4.3288    1.0000 </r>
       <r>    7.9421    0.0000 </r>
       <r>    9.7790    0.0000 </r>
       <r>   10.4495    0.0000 </r>
       <r>   10.6365    0.0000 </r>
      </set>
      <set comment="kpoint 7">
       <r>   -4.1539    1.0000 </r>
       <r>   -0.1094    1.0000 </r>
       <r>    3.5985    1.0000 </r>
       <r>    4.1379    1.0000 </r>
       <r>    8.0101    0.0000 </r>
       <r>    9.7051    0.0000 </r>
       <r>   10.4260    0.0000 </r>
       <r>   11.6816    0.0000 </r>
      </set>
      <set comment="kpoint 8">
       <r>   -3.5926    1.0000 </r>
       <r>   -0.9778    1.0000 </r>
       <r>    3.1828    1.0000 </r>
       <r>    4.3369    1.0000 </r>
       <r>    8.1121    0.0000 </r>
       <r>    9.6133    0.0000 </r>
       <r>   10.0275    0.0000 </r>
       <r>   14.0608    0.0000 </r>
      </set>
      <set comment="kpoint 9">
       <r>   -4.5233    1.0000 </r>
       <r>    0.5733    1.0000 </r>
       <r>    3.1858    1.0000 </r>
       <r>    4.8549    1.0000 </r>
       <r>    8.5195    0.0000 </r>
       <r>    9.7828    0.0000 </r>
       <r>    9.8172    0.0000 </r>
       <r>   12.5397    0.0000 </r>
      </set>
      <set comment="kpoint 10">
       <r>   -5.4264    1.0000 </r>
       <r>    2.7053    1.0000 </r>
       <r>    3.8762    1.0000 </r>
       <r>    5.4529    1.0000 </r>
       <r>    8.9278    0.0000 </r>
       <r>    9.1636    0.0000 </r>
       <r>    9.4357    0.0000 </r>
       <r>   11.5091    0.0000 </r>
      </set>
      <set comment="kpoint 11">
       <r>   -4.7208    1.0000 </r>
       <r>    1.6827    1.0000 </r>
       <r>    3.7027    1.0000 </r>
       <r>    3.7027    1.0000 </r>
       <r>    6.7929    0.0000 </r>
       <r>    8.4870    0.0000 </r>
       <r>   12.2928    0.0000 </r>
       <r>   12.2928    0.0000 </r>
      </set>
      <set comment="kpoint 12">
       <r>   -3.8161    1.0000 </r>
       <r>    0.1737    1.0000 </r>
       <r>    2.7197    1.0000 </r>
       <r>    3.4411    1.0000 </r>
       <r>    7.0803    0.0000 </r>
       <r>    8.5786    0.0000 </r>
       <r>   12.5210    0.0000 </r>
       <r>   12.6945    0.0000 </r>
      </set>
      <set comment="kpoint 13">
       <r>   -2.8950    1.0000 </r>
       <r>   -1.0106    1.0000 </r>
       <r>    1.7626    1.0000 </r>
       <r>    3.6110    1.0000 </r>
       <r>    7.3182    0.0000 </r>
       <r>   10.8385    0.0000 </r>
       <r>   12.1839    0.0000 </r>
       <r>   12.2499    0.0000 </r>
      </set>
      <set comment="kpoint 14">
       <r>   -3.5474    1.0000 </r>
       <r>   -0.2562    1.0000 </r>
       <r>    1.6874    1.0000 </r>
       <r>    4.1640    1.0000 </r>
       <r>    7.9337    0.0000 </r>
       <r>   11.3431    0.0000 </r>
       <r>   11.7020    0.0000 </r>
       <r>   12.4919    0.0000 </r>
      </set>
      <set comment="kpoint 15">
       <r>   -3.0307    1.0000 </r>
       <r>   -0.8256    1.0000 </r>
       <r>    3.0664    1.0000 </r>
       <r>    3.0664    1.0000 </r>
       <r>    6.4341    0.0144 </r>
       <r>    6.9548    0.0000 </r>
       <r>   14.9766    0.0000 </r>
       <r>   14.9766    0.0000 </r>
      </set>
      <set comment="kpoint 16">
       <r>   -2.0773    1.0000 </r>
       <r>   -1.7886    1.0000 </r>
       <r>    2.1684    1.0000 </r>
       <r>    3.1282    1.0000 </r>
       <r>    6.7355    0.0000 </r>
       <r>    8.0075    0.0000 </r>
       <r>   14.7329    0.0000 </r>
       <r>   15.1614    0.0000 </r>
      </set>
      <set comment="kpoint 17">
       <r>   -4.4112    1.0000 </r>
       <r>    0.9416    1.0000 </r>
       <r>    2.7226    1.0000 </r>
       <r>    4.0550    1.0000 </r>
       <r>    8.4547    0.0000 </r>
       <r>    9.7176    0.0000 </r>
       <r>   10.0217    0.0000 </r>
       <r>   12.0493    0.0000 </r>
      </set>
      <set comment="kpoint 18">
       <r>   -3.3660    1.0000 </r>
       <r>   -0.5969    1.0000 </r>
       <r>    2.1499    1.0000 </r>
       <r>    3.5141    1.0000 </r>
       <r>    8.9443    0.0000 </r>
       <r>    9.3627    0.0000 </r>
       <r>   11.3634    0.0000 </r>
       <r>   12.5101    0.0000 </r>
      </set>
      <set comment="kpoint 19">
       <r>   -2.8245    1.0000 </r>
       <r>   -0.9113    1.0000 </r>
       <r>    2.2367    1.0000 </r>
       <r>    2.6492    1.0000 </r>
       <r>    8.0847    0.0000 </r>
       <r>    8.4583    0.0000 </r>
       <r>   12.0532    0.0000 </r>
       <r>   14.5803    0.0000 </r>
      </set>
      <set comment="kpoint 20">
       <r>   -2.3854    1.0000 </r>
       <r>   -1.3104    1.0000 </r>
       <r>    1.5936    1.0000 </r>
       <r>    2.7410    1.0000 </r>
       <r>    8.6159    0.0000 </r>
       <r>   10.7340    0.0000 </r>
       <r>   11.5322    0.0000 </r>
       <r>   11.6805    0.0000 </r>
      </set>
     </set>
    </set>
   </array>
  </eigenvalues>
  <separator name="orbital magnetization" >
   <v name="MAGDIPOLOUT">      0.00000000      0.00000000      0.00000000</v>
  </separator>
  <dos>
   <i name="efermi">      6.12497909 </i>
   <total>
    <array>
     <dimension dim="1">gridpoints</dimension>
     <dimension dim="2">spin</dimension>
     <field>energy</field>
     <field>total</field>
     <field>integrated</field>
     <set>
      <set comment="spin 1">
       <r>    -8.1294     0.0000     0.0000 </r>
       <r>    -8.0451     0.0000     0.0000 </r>
       <r>    -7.9608     0.0000     0.0000 </r>
       <r>    -7.8765     0.0000     0.0000 </r>
       <r>    -7.7922     0.0000     0.0000 </r>
       <r>    -7.7078     0.0000     0.0000 </r>
       <r>    -7.6235     0.0000     0.0000 </r>
       <r>    -7.5392     0.0000     0.0000 </r>
       <r>    -7.4549     0.0000     0.0000 </r>
       <r>    -7.3706     0.0000     0.0000 </r>
       <r>    -7.2863     0.0000     0.0000 </r>
       <r>    -7.2020     0.0000     0.0000 </r>
       <r>    -7.1177     0.0000     0.0000 </r>
       <r>    -7.0334     0.0000     0.0000 </r>
       <r>    -6.9491     0.0000     0.0000 </r>
       <r>    -6.8648     0.0000     0.0000 </r>
       <r>    -6.7805     0.0000     0.0000 </r>
       <r>    -6.6962     0.0000     0.0000 </r>
       <r>    -6.6119     0.0000     0.0000 </r>
       <r>    -6.5276     0.0001     0.0000 </r>
       <r>    -6.4433     0.0008     0.0001 </r>
       <r>    -6.3590     0.0028     0.0003 </r>
       <r>    -6.2747     0.0079     0.0010 </r>
       <r>    -6.1904     0.0178     0.0025 </r>
       <r>    -6.1061     0.0373     0.0056 </r>
       <r>    -6.0218     0.0758     0.0120 </r>
       <r>    -5.9375     0.1373     0.0236 </r>
       <r>    -5.8532     0.1993     0.0404 </r>
       <r>    -5.7689     0.2221     0.0591 </r>
       <r>    -5.6846     0.1971     0.0757 </r>
       <r>    -5.6003     0.1683     0.0899 </r>
       <r>    -5.5160     0.1828     0.1053 </r>
       <r>    -5.4317     0.2411     0.1257 </r>
       <r>    -5.3474     0.3222     0.1528 </r>
       <r>    -5.2631     0.4233     0.1885 </r>
       <r>    -5.1788     0.5195     0.2323 </r>
       <r>    -5.0945     0.5326     0.2772 </r>
       <r>    -5.0102     0.4229     0.3128 </r>
       <r>    -4.9259     0.2652     0.3352 </r>
       <r>    -4.8416     0.1699     0.3495 </r>
       <r>    -4.7573     0.1854     0.3652 </r>
       <r>    -4.6730     0.3047     0.3908 </r>
       <r>    -4.5887     0.4971     0.4328 </r>
       <r>    -4.5044     0.6895     0.4909 </r>
       <r>    -4.4201     0.7805     0.5567 </r>
       <r>    -4.3357     0.7421     0.6192 </r>
       <r>    -4.2514     0.6624     0.6751 </r>
       <r>    -4.1671     0.6215     0.7275 </r>
       <r>    -4.0828     0.5954     0.7777 </r>
       <r>    -3.9985     0.5475     0.8238 </r>
       <r>    -3.9142     0.5182     0.8675 </r>
       <r>    -3.8299     0.5517     0.9140 </r>
       <r>    -3.7456     0.6329     0.9674 </r>
       <r>    -3.6613     0.7408     1.0298 </r>
       <r>    -3.5770     0.8716     1.1033 </r>
       <r>    -3.4927     0.9993     1.1876 </r>
       <r>    -3.4084     1.0641     1.2773 </r>
       <r>    -3.3241     0.9891     1.3607 </r>
       <r>    -3.2398     0.7620     1.4249 </r>
       <r>    -3.1555     0.5147     1.4683 </r>
       <r>    -3.0712     0.4247     1.5041 </r>
       <r>    -2.9869     0.5395     1.5496 </r>
       <r>    -2.9026     0.7321     1.6113 </r>
       <r>    -2.8183     0.8062     1.6792 </r>
       <r>    -2.7340     0.6735     1.7360 </r>
       <r>    -2.6497     0.4425     1.7733 </r>
       <r>    -2.5654     0.2954     1.7982 </r>
       <r>    -2.4811     0.3036     1.8238 </r>
       <r>    -2.3968     0.3841     1.8562 </r>
       <r>    -2.3125     0.4124     1.8910 </r>
       <r>    -2.2282     0.3617     1.9215 </r>
       <r>    -2.1439     0.2984     1.9466 </r>
       <r>    -2.0596     0.2648     1.9690 </r>
       <r>    -1.9753     0.2474     1.9898 </r>
       <r>    -1.8910     0.2373     2.0098 </r>
       <r>    -1.8067     0.2336     2.0295 </r>
       <r>    -1.7224     0.2125     2.0474 </r>
       <r>    -1.6381     0.1646     2.0613 </r>
       <r>    -1.5538     0.1336     2.0726 </r>
       <r>    -1.4695     0.1773     2.0875 </r>
       <r>    -1.3852     0.2966     2.1125 </r>
       <r>    -1.3009     0.4269     2.1485 </r>
       <r>    -1.2166     0.5313     2.1933 </r>
       <r>    -1.1323     0.6828     2.2509 </r>
       <r>    -1.0480     0.9469     2.3307 </r>
       <r>    -0.9637     1.2095     2.4326 </r>
       <r>    -0.8793     1.2819     2.5407 </r>
       <r>    -0.7950     1.1680     2.6392 </r>
       <r>    -0.7107     1.0501     2.7277 </r>
       <r>    -0.6264     1.0068     2.8126 </r>
       <r>    -0.5421     0.9225     2.8903 </r>
       <r>    -0.4578     0.7185     2.9509 </r>
       <r>    -0.3735     0.5066     2.9936 </r>
       <r>    -0.2892     0.4306     3.0299 </r>
       <r>    -0.2049     0.4851     3.0708 </r>
       <r>    -0.1206     0.5533     3.1175 </r>
       <r>    -0.0363     0.5546     3.1642 </r>
       <r>     0.0480     0.5151     3.2076 </r>
       <r>     0.1323     0.4882     3.2488 </r>
       <r>     0.2166     0.4543     3.2871 </r>
       <r>     0.3009     0.3764     3.3188 </r>
       <r>     0.3852     0.3042     3.3445 </r>
       <r>     0.4695     0.3146     3.3710 </r>
       <r>     0.5538     0.3834     3.4033 </r>
       <r>     0.6381     0.4107     3.4379 </r>
       <r>     0.7224     0.3696     3.4691 </r>
       <r>     0.8067     0.3421     3.4979 </r>
       <r>     0.8910     0.3786     3.5299 </r>
       <r>     0.9753     0.4115     3.5646 </r>
       <r>     1.0596     0.3645     3.5953 </r>
       <r>     1.1439     0.2678     3.6179 </r>
       <r>     1.2282     0.2012     3.6348 </r>
       <r>     1.3125     0.1935     3.6511 </r>
       <r>     1.3968     0.2458     3.6719 </r>
       <r>     1.4811     0.3886     3.7046 </r>
       <r>     1.5654     0.6285     3.7576 </r>
       <r>     1.6497     0.8684     3.8308 </r>
       <r>     1.7340     0.9615     3.9119 </r>
       <r>     1.8183     0.8732     3.9855 </r>
       <r>     1.9026     0.7679     4.0502 </r>
       <r>     1.9869     0.8832     4.1247 </r>
       <r>     2.0712     1.2569     4.2306 </r>
       <r>     2.1555     1.6071     4.3661 </r>
       <r>     2.2398     1.5922     4.5003 </r>
       <r>     2.3241     1.1972     4.6013 </r>
       <r>     2.4084     0.7559     4.6650 </r>
       <r>     2.4928     0.6289     4.7180 </r>
       <r>     2.5771     0.9300     4.7964 </r>
       <r>     2.6614     1.4378     4.9176 </r>
       <r>     2.7457     1.7205     5.0627 </r>
       <r>     2.8300     1.5348     5.1921 </r>
       <r>     2.9143     1.1098     5.2856 </r>
       <r>     2.9986     0.8729     5.3592 </r>
       <r>     3.0829     0.9675     5.4408 </r>
       <r>     3.1672     1.1748     5.5398 </r>
       <r>     3.2515     1.2606     5.6461 </r>
       <r>     3.3358     1.2846     5.7544 </r>
       <r>     3.4201     1.4626     5.8777 </r>
       <r>     3.5044     1.7771     6.0275 </r>
       <r>     3.5887     1.9342     6.1905 </r>
       <r>     3.6730     1.7334     6.3367 </r>
       <r>     3.7573     1.3110     6.4472 </r>
       <r>     3.8416     0.9674     6.5287 </r>
       <r>     3.9259     0.8780     6.6027 </r>
       <r>     4.0102     1.0286     6.6895 </r>
       <r>     4.0945     1.3117     6.8000 </r>
       <r>     4.1788     1.5978     6.9347 </r>
       <r>     4.2631     1.7514     7.0824 </r>
       <r>     4.3474     1.6477     7.2213 </r>
       <r>     4.4317     1.2758     7.3288 </r>
       <r>     4.5160     0.8277     7.3986 </r>
       <r>     4.6003     0.5563     7.4455 </r>
       <r>     4.6846     0.5472     7.4916 </r>
       <r>     4.7689     0.7028     7.5509 </r>
       <r>     4.8532     0.8602     7.6234 </r>
       <r>     4.9375     0.8764     7.6973 </r>
       <r>     5.0218     0.7072     7.7569 </r>
       <r>     5.1061     0.4461     7.7945 </r>
       <r>     5.1904     0.2410     7.8148 </r>
       <r>     5.2747     0.1819     7.8302 </r>
       <r>     5.3590     0.2641     7.8524 </r>
       <r>     5.4433     0.3964     7.8859 </r>
       <r>     5.5276     0.4506     7.9238 </r>
       <r>     5.6119     0.3721     7.9552 </r>
       <r>     5.6962     0.2303     7.9746 </r>
       <r>     5.7805     0.1225     7.9850 </r>
       <r>     5.8649     0.0732     7.9911 </r>
       <r>     5.9492     0.0513     7.9955 </r>
       <r>     6.0335     0.0329     7.9982 </r>
       <r>     6.1178     0.0196     7.9999 </r>
       <r>     6.2021     0.0210     8.0016 </r>
       <r>     6.2864     0.0424     8.0052 </r>
       <r>     6.3707     0.0784     8.0118 </r>
       <r>     6.4550     0.1147     8.0215 </r>
       <r>     6.5393     0.1496     8.0341 </r>
       <r>     6.6236     0.2038     8.0513 </r>
       <r>     6.7079     0.2837     8.0752 </r>
       <r>     6.7922     0.3580     8.1054 </r>
       <r>     6.8765     0.4080     8.1398 </r>
       <r>     6.9608     0.4615     8.1787 </r>
       <r>     7.0451     0.5321     8.2236 </r>
       <r>     7.1294     0.5864     8.2730 </r>
       <r>     7.2137     0.6070     8.3242 </r>
       <r>     7.2980     0.6069     8.3753 </r>
       <r>     7.3823     0.5679     8.4232 </r>
       <r>     7.4666     0.4642     8.4623 </r>
       <r>     7.5509     0.3415     8.4911 </r>
       <r>     7.6352     0.2983     8.5163 </r>
       <r>     7.7195     0.4070     8.5506 </r>
       <r>     7.8038     0.6938     8.6091 </r>
       <r>     7.8881     1.1346     8.7047 </r>
       <r>     7.9724     1.5908     8.8388 </r>
       <r>     8.0567     1.8174     8.9920 </r>
       <r>     8.1410     1.6791     9.1336 </r>
       <r>     8.2253     1.3517     9.2475 </r>
       <r>     8.3096     1.1985     9.3486 </r>
       <r>     8.3939     1.4107     9.4675 </r>
       <r>     8.4782     1.7968     9.6190 </r>
       <r>     8.5625     1.9654     9.7847 </r>
       <r>     8.6468     1.7373     9.9311 </r>
       <r>     8.7311     1.3409    10.0442 </r>
       <r>     8.8154     1.1509    10.1412 </r>
       <r>     8.8997     1.2534    10.2469 </r>
       <r>     8.9840     1.3776    10.3630 </r>
       <r>     9.0683     1.3057    10.4731 </r>
       <r>     9.1526     1.1732    10.5720 </r>
       <r>     9.2370     1.2266    10.6754 </r>
       <r>     9.3213     1.4585    10.7983 </r>
       <r>     9.4056     1.6407    10.9366 </r>
       <r>     9.4899     1.6673    11.0772 </r>
       <r>     9.5742     1.7223    11.2224 </r>
       <r>     9.6585     1.9964    11.3907 </r>
       <r>     9.7428     2.3462    11.5885 </r>
       <r>     9.8271     2.4316    11.7935 </r>
       <r>     9.9114     2.1438    11.9742 </r>
       <r>     9.9957     1.6789    12.1157 </r>
       <r>    10.0800     1.2286    12.2193 </r>
       <r>    10.1643     0.8665    12.2924 </r>
       <r>    10.2486     0.6777    12.3495 </r>
       <r>    10.3329     0.7269    12.4108 </r>
       <r>    10.4172     0.9210    12.4884 </r>
       <r>    10.5015     1.0817    12.5796 </r>
       <r>    10.5858     1.1467    12.6763 </r>
       <r>    10.6701     1.1764    12.7754 </r>
       <r>    10.7544     1.1817    12.8751 </r>
       <r>    10.8387     1.0816    12.9662 </r>
       <r>    10.9230     0.8344    13.0366 </r>
       <r>    11.0073     0.5293    13.0812 </r>
       <r>    11.0916     0.3337    13.1093 </r>
       <r>    11.1759     0.3807    13.1414 </r>
       <r>    11.2602     0.6852    13.1992 </r>
       <r>    11.3445     1.1062    13.2925 </r>
       <r>    11.4288     1.4342    13.4134 </r>
       <r>    11.5131     1.5811    13.5467 </r>
       <r>    11.5974     1.5994    13.6815 </r>
       <r>    11.6817     1.5040    13.8083 </r>
       <r>    11.7660     1.2588    13.9144 </r>
       <r>    11.8503     0.9666    13.9959 </r>
       <r>    11.9346     0.8598    14.0684 </r>
       <r>    12.0189     1.0283    14.1551 </r>
       <r>    12.1032     1.3066    14.2652 </r>
       <r>    12.1875     1.4848    14.3904 </r>
       <r>    12.2718     1.5327    14.5196 </r>
       <r>    12.3561     1.6062    14.6550 </r>
       <r>    12.4404     1.8329    14.8095 </r>
       <r>    12.5247     2.0622    14.9834 </r>
       <r>    12.6090     1.9804    15.1503 </r>
       <r>    12.6934     1.5205    15.2785 </r>
       <r>    12.7777     0.9301    15.3569 </r>
       <r>    12.8620     0.4589    15.3956 </r>
       <r>    12.9463     0.1835    15.4111 </r>
       <r>    13.0306     0.0655    15.4166 </r>
       <r>    13.1149     0.0434    15.4202 </r>
       <r>    13.1992     0.0721    15.4263 </r>
       <r>    13.2835     0.1155    15.4361 </r>
       <r>    13.3678     0.1409    15.4479 </r>
       <r>    13.4521     0.1404    15.4598 </r>
       <r>    13.5364     0.1372    15.4713 </r>
       <r>    13.6207     0.1437    15.4834 </r>
       <r>    13.7050     0.1438    15.4956 </r>
       <r>    13.7893     0.1364    15.5071 </r>
       <r>    13.8736     0.1630    15.5208 </r>
       <r>    13.9579     0.2545    15.5423 </r>
       <r>    14.0422     0.3615    15.5727 </r>
       <r>    14.1265     0.3859    15.6053 </r>
       <r>    14.2108     0.3000    15.6306 </r>
       <r>    14.2951     0.1884    15.6464 </r>
       <r>    14.3794     0.1579    15.6598 </r>
       <r>    14.4637     0.2461    15.6805 </r>
       <r>    14.5480     0.3997    15.7142 </r>
       <r>    14.6323     0.5123    15.7574 </r>
       <r>    14.7166     0.5146    15.8008 </r>
       <r>    14.8009     0.4363    15.8376 </r>
       <r>    14.8852     0.3605    15.8679 </r>
       <r>    14.9695     0.3335    15.8961 </r>
       <r>    15.0538     0.3354    15.9243 </r>
       <r>    15.1381     0.3215    15.9514 </r>
       <r>    15.2224     0.2654    15.9738 </r>
       <r>    15.3067     0.1764    15.9887 </r>
       <r>    15.3910     0.0896    15.9962 </r>
       <r>    15.4753     0.0336    15.9991 </r>
       <r>    15.5596     0.0091    15.9998 </r>
       <r>    15.6439     0.0018    16.0000 </r>
       <r>    15.7282     0.0002    16.0000 </r>
       <r>    15.8125     0.0000    16.0000 </r>
       <r>    15.8968     0.0000    16.0000 </r>
       <r>    15.9811     0.0000    16.0000 </r>
       <r>    16.0655     0.0000    16.0000 </r>
       <r>    16.1498     0.0000    16.0000 </r>
       <r>    16.2341     0.0000    16.0000 </r>
       <r>    16.3184     0.0000    16.0000 </r>
       <r>    16.4027     0.0000    16.0000 </r>
       <r>    16.4870     0.0000    16.0000 </r>
       <r>    16.5713     0.0000    16.0000 </r>
       <r>    16.6556     0.0000    16.0000 </r>
       <r>    16.7399     0.0000    16.0000 </r>
       <r>    16.8242     0.0000    16.0000 </r>
       <r>    16.9085     0.0000    16.0000 </r>
       <r>    16.9928     0.0000    16.0000 </r>
       <r>    17.0771     0.0000    16.0000 </r>
       <r>    17.1614     0.0000    16.0000 </r>
      </set>
     </set>
    </array>
   </total>
  </dos>
 </calculation>
 <structure name="finalpos" >
  <crystal>
   <varray name="basis" >
    <v>       0.00000000       2.71500000       2.71500000 </v>
    <v>       2.71500000       0.00000000       2.71500000 </v>
    <v>       2.71500000       2.71500000       0.00000000 </v>
   </varray>
   <i name="volume">     40.02575175 </i>
   <varray name="rec_basis" >
    <v>      -0.18416206       0.18416206       0.18416206 </v>
    <v>       0.18416206      -0.18416206       0.18416206 </v>
    <v>       0.18416206       0.18416206      -0.18416206 </v>
   </varray>
  </crystal>
  <varray name="positions" >
   <v>       0.50000000       0.50000000       0.50000000 </v>
   <v>       0.75000000       0.75000000       0.75000000 </v>
  </varray>
 </structure>
</modeling>
