unknown system                          
   1.00000000000000     
    -2.450000    2.450000    1.274000
     2.450000   -2.450000    1.274000
     2.450000    2.450000   -1.274000
   Si
     2
Direct
  0.250000  0.750000  0.500000
  0.000000  0.000000  0.000000
 
   28   28   28
 -5.5710     -4.0389     -.44148E-01  4.9068      9.1234      11.468      11.731      10.525      8.8060      7.1779    
  5.8191      4.7897      4.0856      3.6795      3.5472      3.6795      4.0856      4.7897      5.8191      7.1779    
  8.8060      10.525      11.731      11.468      9.1235      4.9068     -.44112E-01 -4.0389     -4.0389     -4.8266    
 -2.6748      1.5653      6.3079      9.9813      11.689      11.458      10.027      8.3111      6.7528      5.4867    
  4.5517      3.9344      3.6066      3.5472      3.7513      4.2318      5.0147      6.1248      7.5551      9.2251    
  10.907      11.881      11.229      8.5018      4.1224     -.61825     -.44112E-01 -2.6748     -2.7317     -.20156    
  3.8999      8.0344      10.861      11.778      11.036      9.4405      7.7693      6.3050      5.1469      4.3140    
  3.7863      3.5363      3.5472      3.8180      4.3646      5.2136      6.3851      7.8611      9.5434      11.161    
  11.947      11.078      8.2751      4.1224      4.9068      1.5654     -.20154     0.33283      2.9338      6.5289    
  9.7461      11.552      11.651      10.470      8.8069      7.2113      5.8597      4.8182      4.0892      3.6488    
  3.4724      3.5472      3.8761      4.4767      5.3744      6.5839      8.0765      9.7421      11.286      11.965    
  11.078      8.5018      9.1235      6.3079      3.8999      2.9338      3.8350      6.1988      9.0051      11.138    
  11.903      11.279      9.8040      8.1612      6.6672      5.4400      4.5167      3.8879      3.5285      3.4177    
  3.5472      3.9225      4.5615      5.4873      6.7084      8.1878      9.8097      11.286      11.947      11.229    
  11.468      9.9813      8.0344      6.5289      6.1988      7.2157      9.0964      10.965      12.007      11.856    
  10.702      9.1087      7.5380      6.1643      5.0653      4.2557      3.7184      3.4302      3.3748      3.5473    
  3.9547      4.6143      5.5455      6.7508      8.1878      9.7421      11.161      11.881      11.731      11.689    
  10.861      9.7461      9.0051      9.0964      10.009      11.268      12.199      12.293      11.457      10.013    
  8.4367      6.9690      5.7253      4.7508      4.0446      3.5870      3.3578      3.3453      3.5473      3.9712    
  4.6323      5.5455      6.7084      8.0765      9.5434      10.907      10.525      11.458      11.778      11.552    
  11.138      10.965      11.268      11.933      12.554      12.681      12.073      10.836      9.3264      7.8269    
  6.4815      5.3677      4.5072      3.8901      3.4974      3.3135      3.3302      3.5473      3.9712      4.6143    
  5.4873      6.5839      7.8611      9.2251      8.8060      10.027      11.036      11.651      11.903      12.007    
  12.199      12.554      12.918      12.997      12.545      11.530      10.164      8.7047      7.3139      6.0975    
  5.1044      4.3416      3.7961      3.4522      3.2986      3.3302      3.5473      3.9547      4.5615      5.3744    
  6.3851      7.5551      7.1779      8.3111      9.4405      10.470      11.279      11.856      12.293      12.681    
  12.997      13.099      12.805      12.037      10.891      9.5576      8.1937      6.9264      5.8329      4.9434    
  4.2579      3.7646      3.4522      3.3135      3.3453      3.5473      3.9225      4.4767      5.2136      6.1248    
  5.8191      6.7528      7.7693      8.8069      9.8040      10.702      11.457      12.073      12.545      12.805    
  12.743      12.277      11.434      10.323      9.0776      7.8310      6.6854      5.6980      4.8892      4.2579    
  3.7961      3.4974      3.3578      3.3748      3.5472      3.8761      4.3646      5.0147      4.7897      5.4867    
  6.3050      7.2113      8.1613      9.1087      10.013      10.836      11.530      12.037      12.277      12.176    
  11.712      10.923      9.9013      8.7699      7.6429      6.6036      5.6980      4.9434      4.3416      3.8901    
  3.5870      3.4302      3.4177      3.5472      3.8180      4.2318      4.0856      4.5517      5.1469      5.8597    
  6.6672      7.5380      8.4367      9.3264      10.164      10.891      11.434      11.712      11.664      11.274    
  10.583      9.6769      8.6640      7.6429      6.6854      5.8329      5.1044      4.5072      4.0446      3.7184    
  3.5285      3.4724      3.5472      3.7513      3.6795      3.9344      4.3141      4.8182      5.4400      6.1643    
  6.9690      7.8268      8.7047      9.5576      10.323      10.923      11.274      11.318      11.036      10.464    
  9.6769      8.7699      7.8310      6.9264      6.0975      5.3677      4.7508      4.2557      3.8879      3.6488    
  3.5363      3.5472      3.5472      3.6066      3.7863      4.0893      4.5168      5.0653      5.7253      6.4815    
  7.3139      8.1937      9.0776      9.9013      10.583      11.036      11.196      11.036      10.583      9.9013    
  9.0776      8.1937      7.3139      6.4815      5.7253      5.0653      4.5167      4.0892      3.7863      3.6066    
  3.6795      3.5472      3.5364      3.6489      3.8879      4.2557      4.7508      5.3677      6.0975      6.9264    
  7.8310      8.7699      9.6769      10.464      11.036      11.318      11.274      10.923      10.323      9.5576    
  8.7047      7.8269      6.9690      6.1643      5.4400      4.8182      4.3140      3.9344      4.0856      3.7513    
  3.5473      3.4725      3.5286      3.7185      4.0446      4.5072      5.1044      5.8329      6.6853      7.6429    
  8.6640      9.6769      10.583      11.274      11.664      11.712      11.434      10.891      10.164      9.3264    
  8.4367      7.5380      6.6672      5.8597      5.1469      4.5517      4.7897      4.2318      3.8181      3.5473    
  3.4179      3.4303      3.5870      3.8901      4.3415      4.9434      5.6980      6.6036      7.6429      8.7699    
  9.9013      10.923      11.712      12.176      12.277      12.037      11.530      10.836      10.013      9.1087    
  8.1612      7.2113      6.3050      5.4867      5.8191      5.0148      4.3647      3.8762      3.5473      3.3749    
  3.3579      3.4975      3.7961      4.2578      4.8892      5.6980      6.6853      7.8310      9.0776      10.323    
  11.434      12.277      12.743      12.805      12.545      12.073      11.457      10.702      9.8040      8.8069    
  7.7693      6.7528      7.1779      6.1248      5.2137      4.4768      3.9226      3.5474      3.3454      3.3135    
  3.4522      3.7646      4.2578      4.9434      5.8329      6.9264      8.1937      9.5576      10.891      12.037    
  12.805      13.099      12.997      12.681      12.293      11.856      11.279      10.470      9.4405      8.3111    
  8.8060      7.5551      6.3852      5.3744      4.5616      3.9548      3.5474      3.3303      3.2986      3.4522    
  3.7961      4.3415      5.1044      6.0975      7.3139      8.7047      10.164      11.530      12.545      12.997    
  12.918      12.554      12.199      12.007      11.903      11.651      11.036      10.027      10.525      9.2251    
  7.8611      6.5839      5.4874      4.6145      3.9713      3.5474      3.3303      3.3135      3.4975      3.8901    
  4.5072      5.3677      6.4815      7.8268      9.3264      10.836      12.073      12.681      12.554      11.933    
  11.268      10.965      11.138      11.552      11.778      11.458      11.731      10.907      9.5434      8.0765    
  6.7085      5.5456      4.6324      3.9713      3.5474      3.3454      3.3579      3.5870      4.0446      4.7508    
  5.7253      6.9690      8.4367      10.013      11.457      12.293      12.199      11.268      10.009      9.0964    
  9.0051      9.7461      10.861      11.689      11.468      11.881      11.161      9.7421      8.1878      6.7509    
  5.5456      4.6145      3.9548      3.5474      3.3749      3.4303      3.7185      4.2557      5.0653      6.1643    
  7.5380      9.1087      10.702      11.856      12.007      10.965      9.0964      7.2157      6.1988      6.5289    
  8.0344      9.9813      9.1234      11.229      11.947      11.286      9.8097      8.1878      6.7085      5.4874    
  4.5616      3.9226      3.5473      3.4179      3.5286      3.8879      4.5168      5.4400      6.6672      8.1613    
  9.8040      11.279      11.903      11.138      9.0051      6.1988      3.8350      2.9338      3.8999      6.3079    
  4.9068      8.5018      11.078      11.965      11.286      9.7421      8.0765      6.5839      5.3744      4.4768    
  3.8762      3.5473      3.4725      3.6489      4.0893      4.8182      5.8597      7.2113      8.8069      10.470    
  11.651      11.552      9.7461      6.5289      2.9338     0.33283     -.20156      1.5653     -.44148E-01  4.1224    
  8.2751      11.078      11.947      11.161      9.5434      7.8611      6.3852      5.2137      4.3647      3.8181    
  3.5473      3.5364      3.7863      4.3141      5.1469      6.3050      7.7693      9.4405      11.036      11.778    
  10.861      8.0344      3.8999     -.20154     -2.7317     -2.6748     -4.0389     -.61829      4.1224      8.5018    
  11.229      11.881      10.907      9.2251      7.5551      6.1248      5.0148      4.2318      3.7513      3.5472    
  3.6066      3.9344      4.5517      5.4867      6.7528      8.3111      10.027      11.458      11.689      9.9813    
  6.3079      1.5654     -2.6748     -4.8266     -4.0388     -2.9297     0.56572      5.1002      9.0700      11.332    
  11.611      10.439      8.7277      7.0921      5.7165      4.6645      3.9341      3.4979      3.3302      3.4196    
  3.7729      4.4128      5.3680      6.6495      8.2138      9.9183      11.288      11.419      9.6452      6.0281    
  1.5221     -2.3245     -2.9297     -4.0388     -2.3246      1.5220      6.0281      9.6451      11.419      11.288    
  9.9183      8.2138      6.6495      5.3680      4.4128      3.7729      3.4196      3.3302      3.4979      3.9341    
  4.6645      5.7165      7.0921      8.7277      10.439      11.611      11.332      9.0701      5.1003     0.56575    
 0.65948     -2.2249     -2.6748     -.52835      3.3314      7.4210      10.362      11.456      10.859      9.3263    
  7.6650      6.1945      5.0223      4.1726      3.6269      3.3573      3.3452      3.5886      4.1026      4.9146    
  6.0492      7.4978      9.1783      10.863      11.852      11.292      8.8072      4.8500      5.3449      1.7916    
 -.34150     -.20158      2.1198      5.6387      8.9780      11.019      11.350      10.317      8.6985      7.1096    
  5.7508      4.6970      3.9553      3.5028      3.3140      3.3748      3.6875      4.2700      5.1499      6.3471    
  7.8426      9.5392      11.177      12.038      11.369      8.9477      9.4753      6.4883      3.7446      2.3717    
  2.9338      5.1434      8.0188      10.387      11.442      11.049      9.6863      8.0675      6.5750      5.3396    
  4.4069      3.7707      3.4063      3.2918      3.4178      3.7900      4.4279      5.3573      6.5925      8.1049    
  9.7876      11.370      12.177      11.577      11.871      10.270      8.0447      6.1493      5.4333      6.1987    
  8.0420      10.078      11.403      11.530      10.556      9.0221      7.4629      6.0856      4.9789      4.1642    
  3.6264      3.3414      3.2918      3.4725      3.8914      4.5679      5.5247      6.7697      8.2669      9.9057    
  11.433      12.256      12.239      12.156      11.141      9.7007      8.5758      8.3425      9.0963      10.401    
  11.538      11.897      11.275      9.9345      8.3790      6.9124      5.6622      4.6829      3.9778      3.5274    
  3.3104      3.3140      3.5364      3.9866      4.6821      5.6415      6.8666      8.3164      9.8831      11.351    
  11.114      12.082      12.321      11.879      11.144      10.634      10.689      11.268      11.973      12.289    
  11.879      10.764      9.2868      7.7916      6.4407      5.3213      4.4615      3.8534      3.4767      3.3141    
  3.3573      3.6067      4.0706      4.7639      5.7002      6.8759      8.2485      9.7182      9.4194      10.725    
  11.750      12.272      12.314      12.136      12.056      12.232      12.554      12.710      12.387      11.476    
  10.144      8.6880      7.2914      6.0684      5.0749      4.3212      3.7938      3.4749      3.3519      3.4196    
  3.6796      4.1387      4.8080      5.6962      6.7959      8.0661      7.7810      9.0051      10.202      11.240    
  11.961      12.356      12.565      12.744      12.930      12.997      12.741      12.023      10.892      9.5541    
  8.1817      6.9063      5.8115      4.9311      4.2652      3.8000      3.5216      3.4218      3.4979      3.7513    
  4.1867      4.8111      5.6292      6.6315      6.3933      7.4121      8.5021      9.5857      10.583      11.406    
  12.016      12.455      12.766      12.918      12.805      12.321      11.456      10.325      9.0637      7.8064    
  6.6587      5.6812      4.8942      4.2946      3.8710      3.6146      3.5209      3.5886      3.8180      4.2115    
  4.7727      5.5032      5.3264      6.0974      6.9841      7.9430      8.9169      9.8472      10.687      11.395    
  11.949      12.323      12.457      12.277      11.752      10.920      9.8704      8.7228      7.5925      6.5643    
  5.6840      4.9660      4.4083      4.0046      3.7508      3.6454      3.6874      3.8761      4.2115      4.6950    
  4.5828      5.1105      5.7635      6.5246      7.3625      8.2361      9.1018      9.9201      10.654      11.260    
  11.680      11.849      11.712      11.256      10.520      9.5881      8.5686      7.5595      6.6313      5.8219    
  5.1453      4.6038      4.1973      3.9261      3.7906      3.7900      3.9224      4.1867      4.1387      4.4435    
  4.8692      5.4123      6.0611      6.7942      7.5823      8.3931      9.1930      9.9430      10.592      11.073    
  11.318      11.274      10.929      10.317      9.5173      8.6214      7.7151      6.8600      6.0919      5.4278    
  4.8765      4.4438      4.1344      3.9505      3.8914      3.9547      3.9712      4.0707      4.2856      4.6171    
  5.0640      5.6189      6.2674      6.9896      7.7621      8.5568      9.3353      10.043      10.609      10.959    
  11.036      10.823      10.347      9.6726      8.8828      8.0537      7.2425      6.4858      5.8059      5.2186    
  4.7363      4.3681      4.1182      3.9866      4.0707      3.9713      3.9867      4.1183      4.3682      4.7364    
  5.2186      5.8060      6.4858      7.2426      8.0537      8.8828      9.6726      10.347      10.823      11.036    
  10.959      10.609      10.043      9.3353      8.5568      7.7621      6.9895      6.2673      5.6188      5.0640    
  4.6171      4.2855      4.4435      4.1388      3.9548      3.8915      3.9506      4.1345      4.4439      4.8765    
  5.4278      6.0919      6.8600      7.7151      8.6214      9.5173      10.317      10.929      11.274      11.318    
  11.073      10.592      9.9430      9.1930      8.3931      7.5823      6.7941      6.0611      5.4123      4.8692    
  5.1105      4.5829      4.1868      3.9225      3.7901      3.7907      3.9261      4.1973      4.6039      5.1453    
  5.8219      6.6313      7.5595      8.5686      9.5881      10.520      11.256      11.712      11.849      11.680    
  11.260      10.654      9.9201      9.1018      8.2361      7.3625      6.5245      5.7635      6.0975      5.3264    
  4.6950      4.2116      3.8762      3.6876      3.6455      3.7509      4.0046      4.4083      4.9660      5.6840    
  6.5643      7.5925      8.7228      9.8704      10.920      11.752      12.277      12.457      12.323      11.949    
  11.395      10.687      9.8472      8.9169      7.9430      6.9841      7.4121      6.3933      5.5032      4.7728    
  4.2116      3.8181      3.5887      3.5210      3.6146      3.8710      4.2945      4.8942      5.6812      6.6587    
  7.8064      9.0637      10.325      11.456      12.321      12.805      12.918      12.766      12.455      12.016    
  11.406      10.583      9.5857      8.5021      9.0051      7.7810      6.6315      5.6292      4.8112      4.1867    
  3.7514      3.4980      3.4218      3.5216      3.8000      4.2652      4.9310      5.8115      6.9063      8.1817    
  9.5541      10.892      12.023      12.741      12.997      12.930      12.744      12.565      12.356      11.961    
  11.240      10.202      10.725      9.4194      8.0662      6.7960      5.6962      4.8081      4.1388      3.6796    
  3.4197      3.3519      3.4749      3.7938      4.3211      5.0749      6.0684      7.2914      8.6879      10.144    
  11.476      12.387      12.710      12.554      12.232      12.056      12.136      12.314      12.272      11.750    
  12.082      11.114      9.7182      8.2485      6.8759      5.7002      4.7640      4.0707      3.6067      3.3574    
  3.3141      3.4766      3.8533      4.4615      5.3213      6.4407      7.7916      9.2868      10.764      11.879    
  12.289      11.974      11.268      10.689      10.634      11.144      11.879      12.321      12.156      12.239    
  11.351      9.8830      8.3164      6.8666      5.6416      4.6822      3.9867      3.5365      3.3140      3.3104    
  3.5274      3.9778      4.6829      5.6622      6.9124      8.3790      9.9345      11.275      11.897      11.538    
  10.401      9.0965      8.3427      8.5759      9.7008      11.141      10.270      11.871      12.256      11.433    
  9.9057      8.2669      6.7697      5.5247      4.5679      3.8914      3.4725      3.2918      3.3414      3.6264    
  4.1642      4.9789      6.0856      7.4629      9.0221      10.556      11.530      11.403      10.078      8.0421    
  6.1988      5.4334      6.1493      8.0447      6.4883      9.4753      11.577      12.177      11.370      9.7876    
  8.1049      6.5925      5.3574      4.4279      3.7901      3.4178      3.2918      3.4064      3.7708      4.4069    
  5.3396      6.5750      8.0675      9.6863      11.049      11.442      10.387      8.0189      5.1436      2.9339    
  2.3718      3.7446      1.7917      5.3449      8.9477      11.369      12.038      11.177      9.5392      7.8426    
  6.3471      5.1500      4.2700      3.6875      3.3748      3.3140      3.5028      3.9553      4.6970      5.7508    
  7.1096      8.6985      10.317      11.350      11.019      8.9780      5.6388      2.1199     -.20150     -.34146    
 -2.2249     0.65947      4.8500      8.8072      11.292      11.852      10.863      9.1783      7.4978      6.0492    
  4.9146      4.1026      3.5886      3.3452      3.3573      3.6269      4.1726      5.0223      6.1945      7.6650    
  9.3263      10.859      11.456      10.362      7.4210      3.3315     -.52829     -2.6748     -.44087E-01 0.65950    
  3.3609      6.9684      10.117      11.805      11.779      10.506      8.7949      7.1700      5.7973      4.7369    
  3.9869      3.5209      3.3134      3.3519      3.6397      4.1958      5.0470      6.2102      7.6602      9.2921    
  10.811      11.477      10.616      8.1235      4.6735      1.5221     0.56576     -.61821     0.56577      3.6210    
  7.3124      10.278      11.645      11.332      9.9265      8.2398      6.6914      5.4157      4.4552      3.7998    
  3.4218      3.2985      3.4218      3.7998      4.4552      5.4156      6.6914      8.2398      9.9265      11.332    
  11.645      10.278      7.3124      3.6210      3.3609     0.65951     -.44075E-01  1.5221      4.6735      8.1235    
  10.616      11.477      10.811      9.2921      7.6602      6.2102      5.0470      4.1958      3.6398      3.3519    
  3.3134      3.5209      3.9869      4.7369      5.7973      7.1700      8.7948      10.506      11.779      11.805    
  10.117      6.9683      7.1997      3.9636      1.7917      1.5654      3.3315      6.2848      9.1890      10.983    
  11.232      10.213      8.6376      7.0849      5.7499      4.7084      3.9700      3.5135      3.3141      3.3578    
  3.6455      4.1933      5.0279      6.1728      7.6204      9.2946      11.000      12.156      12.011      10.231    
  10.636      7.9792      5.3174      3.7446      3.8999      5.6387      8.1199      10.251      11.227      10.860    
  9.5590      7.9934      6.5401      5.3309      4.4142      3.7871      3.4262      3.3104      3.4302      3.7906    
  4.4098      5.3139      6.5218      8.0161      9.7080      11.385      12.463      12.284      12.593      11.257    
  9.1494      7.1565      6.1493      6.5289      8.0187      9.8271      11.076      11.240      10.350      8.8903    
  7.3860      6.0486      4.9701      4.1761      3.6542      3.3817      3.3414      3.5285      3.9506      4.6263    
  5.5798      6.8235      8.3313      10.006      11.635      12.681      12.776      12.867      11.951      10.464    
  9.1282      8.5757      9.0050      10.078      11.122      11.511      10.985      9.7400      8.2533      6.8395    
  5.6291      4.6809      4.0025      3.5762      3.3817      3.4064      3.6489      4.1182      4.8320      5.8100    
  7.0584      8.5434      10.165      11.727      11.643      12.707      13.013      12.544      11.654      10.880    
  10.634      10.965      11.538      11.849      11.518      10.507      9.1089      7.6763      6.3753      5.2965    
  4.4725      3.8985      3.5554      3.4262      3.5029      3.7864      4.2855      5.0152      5.9902      7.2097    
  8.6351      10.169      10.014      11.375      12.441      12.946      12.879      12.491      12.140      12.056    
  12.199      12.289      11.999      11.170      9.9159      8.5251      7.1855      6.0111      5.0616      4.3508    
  3.8668      3.5919      3.5135      3.6269      3.9345      4.4435      5.1649      6.1077      7.2654      8.5976    
  8.4317      9.7090      10.938      11.970      12.621      12.862      12.845      12.773      12.744      12.680    
  12.387      11.700      10.624      9.3410      8.0261      6.8048      5.7611      4.9316      4.3183      3.9073    
  3.6838      3.6397      3.7729      4.0857      4.5828      5.2710      6.1537      7.2204      7.0771      8.1490    
  9.2750      10.365      11.324      12.045      12.484      12.705      12.794      12.766      12.545      12.023    
  11.164      10.063      8.8490      7.6458      6.5545      5.6356      4.9105      4.3754      4.0179      3.8275    
  3.7997      3.9341      4.2318      4.6950      5.3261      6.1243      6.0213      6.8458      7.7701      8.7433    
  9.6975      10.563      11.285      11.822      12.174      12.349      12.323      12.037      11.456      10.615    
  9.5896      8.4870      7.4136      6.4503      5.6412      4.9993      4.5201      4.1948      4.0176      3.9868    
  4.1026      4.3647      4.7728      5.3261      5.2711      5.8520      6.5434      7.3225      8.1513      8.9809    
  9.7605      10.448      11.014      11.431      11.667      11.680      11.434      10.920      10.171      9.2635    
  8.2933      7.3512      6.5023      5.7808      5.1968      4.7487      4.4328      4.2475      4.1932      4.2700    
  4.4768      4.8113      4.8082      5.1650      5.6287      6.1912      6.8365      7.5377      8.2606      8.9687    
  9.6287      10.209      10.674      10.978      11.073      10.923      10.520      9.8987      9.1289      8.2941    
  7.4711      6.7141      6.0529      5.4989      5.0556      4.7247      4.5088      4.4098      4.4280      4.5616    
  4.6145      4.7641      5.0154      5.3664      5.8123      6.3423      6.9385      7.5777      8.2343      8.8816    
  9.4885      10.014      10.406      10.609      10.583      10.317      9.8406      9.2108      8.5003      7.7748    
  7.0824      6.4518      5.8986      5.4324      5.0610      4.7911      4.6264      4.5680      4.6823      4.6324    
  4.6823      4.8321      5.0818      5.4290      5.8669      6.3842      6.9661      7.5957      8.2523      8.9060    
  9.5124      10.013      10.347      10.464      10.347      10.013      9.5124      8.9060      8.2523      7.5957    
  6.9661      6.3842      5.8669      5.4290      5.0818      4.8321      5.0154      4.7641      4.6145      4.5680    
  4.6264      4.7911      5.0610      5.4324      5.8986      6.4518      7.0824      7.7747      8.5003      9.2109    
  9.8406      10.317      10.583      10.609      10.406      10.014      9.4885      8.8817      8.2343      7.5776    
  6.9385      6.3423      5.8123      5.3664      5.6287      5.1650      4.8081      4.5616      4.4280      4.4098    
  4.5088      4.7247      5.0556      5.4990      6.0529      6.7141      7.4711      8.2941      9.1289      9.8987    
  10.520      10.923      11.073      10.978      10.674      10.209      9.6287      8.9687      8.2606      7.5377    
  6.8365      6.1912      6.5434      5.8520      5.2711      4.8112      4.4767      4.2700      4.1932      4.2475    
  4.4328      4.7487      5.1968      5.7808      6.5023      7.3512      8.2933      9.2635      10.171      10.920    
  11.434      11.680      11.667      11.431      11.014      10.448      9.7605      8.9809      8.1514      7.3225    
  7.7701      6.8458      6.0213      5.3261      4.7727      4.3647      4.1026      3.9869      4.0176      4.1948    
  4.5201      4.9993      5.6413      6.4503      7.4136      8.4870      9.5896      10.615      11.456      12.037    
  12.323      12.350      12.174      11.822      11.285      10.563      9.6976      8.7433      9.2750      8.1490    
  7.0771      6.1243      5.3261      4.6949      4.2318      3.9340      3.7997      3.8275      4.0178      4.3754    
  4.9105      5.6356      6.5545      7.6458      8.8490      10.063      11.164      12.023      12.545      12.766    
  12.794      12.705      12.485      12.045      11.324      10.365      10.938      9.7090      8.4317      7.2203    
  6.1536      5.2709      4.5828      4.0856      3.7729      3.6397      3.6838      3.9073      4.3183      4.9316    
  5.7611      6.8048      8.0261      9.3410      10.624      11.701      12.387      12.681      12.744      12.773    
  12.845      12.862      12.621      11.970      12.441      11.375      10.014      8.5975      7.2654      6.1076    
  5.1648      4.4434      3.9344      3.6268      3.5134      3.5919      3.8668      4.3507      5.0616      6.0111    
  7.1855      8.5251      9.9160      11.170      11.999      12.289      12.199      12.056      12.140      12.491    
  12.879      12.946      13.013      12.707      11.643      10.169      8.6351      7.2096      5.9901      5.0152    
  4.2855      3.7863      3.5028      3.4261      3.5554      3.8985      4.4725      5.2964      6.3753      7.6763    
  9.1089      10.507      11.518      11.849      11.538      10.965      10.634      10.880      11.654      12.544    
  11.951      12.867      12.776      11.727      10.165      8.5433      7.0584      5.8100      4.8319      4.1182    
  3.6488      3.4063      3.3816      3.5762      4.0024      4.6809      5.6291      6.8395      8.2533      9.7400    
  10.985      11.512      11.122      10.078      9.0051      8.5758      9.1283      10.464      9.1494      11.257    
  12.593      12.681      11.635      10.006      8.3313      6.8235      5.5797      4.6263      3.9505      3.5285    
  3.3414      3.3816      3.6542      4.1761      4.9701      6.0486      7.3860      8.8903      10.350      11.240    
  11.076      9.8272      8.0189      6.5289      6.1493      7.1565      5.3174      7.9792      10.636      12.284    
  12.463      11.385      9.7080      8.0161      6.5218      5.3139      4.4098      3.7906      3.4302      3.3104    
  3.4262      3.7871      4.4142      5.3308      6.5401      7.9934      9.5590      10.860      11.227      10.251    
  8.1200      5.6388      3.8999      3.7446      1.7917      3.9636      7.1997      10.231      12.011      12.156    
  11.000      9.2946      7.6204      6.1728      5.0279      4.1933      3.6455      3.3578      3.3141      3.5135    
  3.9700      4.7084      5.7498      7.0849      8.6376      10.213      11.232      10.983      9.1890      6.2848    
  3.3315      1.5654      4.9068      5.3449      7.1997      9.6705      11.718      12.579      12.093      10.676    
  8.9909      7.4069      6.0627      5.0103      4.2476      3.7508      3.4974      3.4749      3.6839      4.1375    
  4.8583      5.8653      7.1492      8.6404      10.175      11.292      11.381      10.202      8.1234      6.0280    
  5.1002      4.1224      4.8500      6.9683      9.5435      11.509      12.179      11.517      10.032      8.3853    
  6.8797      5.6329      4.6821      4.0177      3.6146      3.4521      3.5215      3.8275      4.3874      5.2256    
  6.3576      7.7608      9.3412      10.871      11.759      11.421      9.7570      7.3123      6.9683      4.8500    
  4.1224      5.1003      7.3124      9.7571      11.422      11.759      10.871      9.3412      7.7609      6.3577    
  5.2256      4.3874      3.8275      3.5215      3.4521      3.6146      4.0177      4.6821      5.6329      6.8797    
  8.3852      10.032      11.517      12.179      11.508      9.5434      9.6704      7.1997      5.3449      4.9068    
  6.0281      8.1235      10.202      11.381      11.292      10.175      8.6404      7.1492      5.8653      4.8583    