unknown system                          
   1.00000000000000     
    -2.450000    2.450000    1.274000
     2.450000   -2.450000    1.274000
     2.450000    2.450000   -1.274000
   Si
     2
Direct
  0.250000  0.750000  0.500000
  0.000000  0.000000  0.000000
 
   28   28   28
 -.55731899426E+01 -.40410097494E+01 -.46260088342E-01 0.49045254579E+01 0.91209133583E+01
 0.11464873526E+02 0.11728548608E+02 0.10522348056E+02 0.88043071802E+01 0.71771948061E+01
 0.58194139374E+01 0.47909145746E+01 0.40875297693E+01 0.36818265513E+01 0.35496039507E+01
 0.36818276244E+01 0.40875445004E+01 0.47909409730E+01 0.58194330283E+01 0.71771986226E+01
 0.88043072351E+01 0.10522352573E+02 0.11728551927E+02 0.11464871582E+02 0.91209102140E+01
 0.49045211203E+01 -.46270218500E-01 -.40410207291E+01 -.40410207291E+01 -.48286498754E+01
 -.26766813675E+01 0.15636934153E+01 0.63063049657E+01 0.99796024718E+01 0.11686761954E+02
 0.11456068694E+02 0.10024773448E+02 0.83098269596E+01 0.67522883393E+01 0.54871279681E+01
 0.45529641259E+01 0.39363313969E+01 0.36089052040E+01 0.35496105665E+01 0.37535993222E+01
 0.42336915163E+01 0.50159483090E+01 0.61250013646E+01 0.75541303811E+01 0.92228789162E+01
 0.10903462591E+02 0.11877491345E+02 0.11225299543E+02 0.84988007763E+01 0.41198336518E+01
 -.62054714484E+00 -.46270218500E-01 -.26766875048E+01 -.27332276545E+01 -.20269419273E+00
 0.38991737365E+01 0.80339335141E+01 0.10860671976E+02 0.11777184781E+02 0.11034562576E+02
 0.94393200426E+01 0.77683767955E+01 0.63047140981E+01 0.51474671182E+01 0.43154059558E+01
 0.37882469665E+01 0.35386818568E+01 0.35496260231E+01 0.38203409973E+01 0.43665814796E+01
 0.52148114145E+01 0.63852422240E+01 0.78598277808E+01 0.95407953292E+01 0.11156985547E+02
 0.11943115723E+02 0.11073866316E+02 0.82719486939E+01 0.41198336518E+01 0.49045211203E+01
 0.15636882640E+01 -.20269241359E+00 0.33228926576E+00 0.29339949787E+01 0.65297605131E+01
 0.97472236873E+01 0.11553290334E+02 0.11651305564E+02 0.10469571015E+02 0.88062255790E+01
 0.72107249670E+01 0.58596413099E+01 0.48188737232E+01 0.40906516387E+01 0.36508102123E+01
 0.34747148324E+01 0.35496511493E+01 0.38784530161E+01 0.44786486453E+01 0.53755804121E+01
 0.65838855966E+01 0.80750675543E+01 0.97393020299E+01 0.11282537163E+02 0.11960420540E+02
 0.11073866316E+02 0.84988007763E+01 0.91209102140E+01 0.63062985215E+01 0.38991750603E+01
 0.29340048691E+01 0.38361755769E+01 0.62008916239E+01 0.90079728576E+01 0.11140539317E+02
 0.11905292753E+02 0.11280786629E+02 0.98043731158E+01 0.81610421627E+01 0.66669577236E+01
 0.54401146512E+01 0.45175408381E+01 0.38893517146E+01 0.35304424578E+01 0.34200460666E+01
 0.35496843231E+01 0.39248521427E+01 0.45635158764E+01 0.54885029422E+01 0.67083577086E+01
 0.81862138234E+01 0.98067794957E+01 0.11282537163E+02 0.11943115723E+02 0.11225299543E+02
 0.11464871582E+02 0.99795954611E+01 0.80339257030E+01 0.65297677389E+01 0.62009069042E+01
 0.72191494191E+01 0.91009489884E+01 0.10969730487E+02 0.12011735513E+02 0.11859324227E+02
 0.10703865103E+02 0.91096459249E+01 0.75381431759E+01 0.61642653808E+01 0.50655913210E+01
 0.42565468139E+01 0.37199162532E+01 0.34321930640E+01 0.33770741708E+01 0.35497193347E+01
 0.39571394990E+01 0.46164011161E+01 0.55467261237E+01 0.67507470954E+01 0.81862138234E+01
 0.97393020299E+01 0.11156985547E+02 0.11877491345E+02 0.11728551927E+02 0.11686765184E+02
 0.10860663059E+02 0.97472164422E+01 0.90079836127E+01 0.91009650714E+01 0.10015504801E+02
 0.11275296136E+02 0.12205856474E+02 0.12299199986E+02 0.11461186312E+02 0.10015848097E+02
 0.84379982503E+01 0.69693735166E+01 0.57254118647E+01 0.47512010350E+01 0.40455698430E+01
 0.35884293282E+01 0.33597046434E+01 0.33475243132E+01 0.35497464858E+01 0.39736909290E+01
 0.46343601620E+01 0.55467261237E+01 0.67083577086E+01 0.80750675543E+01 0.95407953292E+01
 0.10903462591E+02 0.10522352573E+02 0.11456084530E+02 0.11777192992E+02 0.11553282989E+02
 0.11140535011E+02 0.10969741488E+02 0.11275308298E+02 0.11940974072E+02 0.12562979035E+02
 0.12688999117E+02 0.12080465504E+02 0.10840663199E+02 0.93294335031E+01 0.78283333459E+01
 0.64821123985E+01 0.53680510595E+01 0.45077316408E+01 0.38911236387E+01 0.34988851462E+01
 0.33153471631E+01 0.33324879951E+01 0.35497567621E+01 0.39736909290E+01 0.46164011161E+01
 0.54885029422E+01 0.65838855966E+01 0.78598277808E+01 0.92228789162E+01 0.88043072351E+01
 0.10024787213E+02 0.11034585829E+02 0.11651317521E+02 0.11905290497E+02 0.12011735926E+02
 0.12205864701E+02 0.12562984138E+02 0.12928496356E+02 0.13007545164E+02 0.12554503647E+02
 0.11537295526E+02 0.10168983563E+02 0.87078257650E+01 0.73154908514E+01 0.60982049949E+01
 0.51048097180E+01 0.43421683037E+01 0.37971327772E+01 0.34535962022E+01 0.33004240327E+01
 0.33324879951E+01 0.35497464858E+01 0.39571394990E+01 0.45635158764E+01 0.53755804121E+01
 0.63852422240E+01 0.75541303811E+01 0.71771986226E+01 0.83098305221E+01 0.94393375665E+01
 0.10469594783E+02 0.11280800291E+02 0.11859328971E+02 0.12299205444E+02 0.12689002820E+02
 0.13007542670E+02 0.13109591986E+02 0.12816028185E+02 0.12046297845E+02 0.10898629351E+02
 0.95627829478E+01 0.81969028848E+01 0.69280612220E+01 0.58336653891E+01 0.49438762966E+01
 0.42585033612E+01 0.37656014177E+01 0.34535962022E+01 0.33153471631E+01 0.33475243132E+01
 0.35497193347E+01 0.39248521427E+01 0.44786486453E+01 0.52148114145E+01 0.61250013646E+01
 0.58194330283E+01 0.67522945736E+01 0.77683825068E+01 0.88062409876E+01 0.98043911453E+01
 0.10703877966E+02 0.11461197277E+02 0.12080474591E+02 0.12554502780E+02 0.12816020062E+02
 0.12753804481E+02 0.12287388983E+02 0.11443250218E+02 0.10330363471E+02 0.90826173489E+01
 0.78341884452E+01 0.66870676615E+01 0.56988628323E+01 0.48897564825E+01 0.42585033612E+01
 0.37971327772E+01 0.34988851462E+01 0.33597046434E+01 0.33770741708E+01 0.35496843231E+01
 0.38784530161E+01 0.43665814796E+01 0.50159483090E+01 0.47909409730E+01 0.54871468462E+01
 0.63047220082E+01 0.72107312588E+01 0.81610513468E+01 0.91096545776E+01 0.10015857600E+02
 0.10840676951E+02 0.11537305532E+02 0.12046293788E+02 0.12287378579E+02 0.12187074807E+02
 0.11722268353E+02 0.10931294372E+02 0.99082277927E+01 0.87748857821E+01 0.76460499686E+01
 0.66053064094E+01 0.56988628323E+01 0.49438762966E+01 0.43421683037E+01 0.38911236387E+01
 0.35884293282E+01 0.34321930640E+01 0.34200460666E+01 0.35496511493E+01 0.38203409973E+01
 0.42336915163E+01 0.40875445004E+01 0.45529826501E+01 0.51474811074E+01 0.58596495928E+01
 0.66669632794E+01 0.75381450866E+01 0.84379972763E+01 0.93294374815E+01 0.10168995244E+02
 0.10898637307E+02 0.11443244935E+02 0.11722258776E+02 0.11674484671E+02 0.11283907368E+02
 0.10591221226E+02 0.96837155009E+01 0.86689632270E+01 0.76460499686E+01 0.66870676615E+01
 0.58336653891E+01 0.51048097180E+01 0.45077316408E+01 0.40455698430E+01 0.37199162532E+01
 0.35304424578E+01 0.34747148324E+01 0.35496260231E+01 0.37535993222E+01 0.36818276244E+01
 0.39363343259E+01 0.43154113278E+01 0.48188802060E+01 0.54401215788E+01 0.61642694493E+01
 0.69693701074E+01 0.78283252633E+01 0.87078229100E+01 0.95627882409E+01 0.10330367334E+02
 0.10931289440E+02 0.11283900146E+02 0.11327754410E+02 0.11045676695E+02 0.10472234279E+02
 0.96837155009E+01 0.87748857821E+01 0.78341884452E+01 0.69280612220E+01 0.60982049949E+01
 0.53680510595E+01 0.47512010350E+01 0.42565468139E+01 0.38893517146E+01 0.36508102123E+01
 0.35386818568E+01 0.35496105665E+01 0.35496039507E+01 0.36088985077E+01 0.37882373851E+01
 0.40906444620E+01 0.45175396586E+01 0.50655950719E+01 0.57254143249E+01 0.64821073072E+01
 0.73154793440E+01 0.81968931071E+01 0.90826143449E+01 0.99082272849E+01 0.10591217200E+02
 0.11045671336E+02 0.11205469708E+02 0.11045676695E+02 0.10591221226E+02 0.99082277927E+01
 0.90826173489E+01 0.81969028848E+01 0.73154908514E+01 0.64821123985E+01 0.57254118647E+01
 0.50655913210E+01 0.45175408381E+01 0.40906516387E+01 0.37882469665E+01 0.36089052040E+01
 0.36818265513E+01 0.35496059891E+01 0.35386694718E+01 0.36507932807E+01 0.38893376265E+01
 0.42565397185E+01 0.47512001861E+01 0.53680522485E+01 0.60982016206E+01 0.69280493600E+01
 0.78341730227E+01 0.87748758867E+01 0.96837122134E+01 0.10472230696E+02 0.11045671336E+02
 0.11327754410E+02 0.11283907368E+02 0.10931294372E+02 0.10330363471E+02 0.95627829478E+01
 0.87078257650E+01 0.78283333459E+01 0.69693735166E+01 0.61642653808E+01 0.54401146512E+01
 0.48188737232E+01 0.43154059558E+01 0.39363313969E+01 0.40875297693E+01 0.37535917097E+01
 0.35496183581E+01 0.34747014420E+01 0.35304268472E+01 0.37199029954E+01 0.40455593559E+01
 0.45077256728E+01 0.51048101406E+01 0.58336652860E+01 0.66870567748E+01 0.76460313741E+01
 0.86689506674E+01 0.96837122134E+01 0.10591217200E+02 0.11283900146E+02 0.11674484671E+02
 0.11722268353E+02 0.11443250218E+02 0.10898629351E+02 0.10168983563E+02 0.93294335031E+01
 0.84379982503E+01 0.75381431759E+01 0.66669577236E+01 0.58596413099E+01 0.51474671182E+01
 0.45529641259E+01 0.47909145746E+01 0.42336713229E+01 0.38203306486E+01 0.35496427485E+01
 0.34200370460E+01 0.34321870368E+01 0.35884231088E+01 0.38911119343E+01 0.43421579127E+01
 0.49438763765E+01 0.56988651758E+01 0.66052960870E+01 0.76460313741E+01 0.87748758867E+01
 0.99082272849E+01 0.10931289440E+02 0.11722258776E+02 0.12187074807E+02 0.12287388983E+02
 0.12046297845E+02 0.11537295526E+02 0.10840663199E+02 0.10015848097E+02 0.91096459249E+01
 0.81610421627E+01 0.72107249670E+01 0.63047140981E+01 0.54871279681E+01 0.58194139374E+01
 0.50159234666E+01 0.43665650842E+01 0.38784445219E+01 0.35496774221E+01 0.33770732767E+01
 0.33597123092E+01 0.34988879246E+01 0.37971210196E+01 0.42584904042E+01 0.48897564752E+01
 0.56988651758E+01 0.66870567748E+01 0.78341730227E+01 0.90826143449E+01 0.10330367334E+02
 0.11443244935E+02 0.12287378579E+02 0.12753804481E+02 0.12816028185E+02 0.12554503647E+02
 0.12080465504E+02 0.11461186312E+02 0.10703865103E+02 0.98043731158E+01 0.88062255790E+01
 0.77683767955E+01 0.67522883393E+01 0.71771948061E+01 0.61249874230E+01 0.52147980401E+01
 0.44786442349E+01 0.39248488631E+01 0.35497151510E+01 0.33475319970E+01 0.33153665880E+01
 0.34536050688E+01 0.37655897773E+01 0.42584904042E+01 0.49438763765E+01 0.58336652860E+01
 0.69280493600E+01 0.81968931071E+01 0.95627882409E+01 0.10898637307E+02 0.12046293788E+02
 0.12816020062E+02 0.13109591986E+02 0.13007545164E+02 0.12688999117E+02 0.12299199986E+02
 0.11859324227E+02 0.11280786629E+02 0.10469571015E+02 0.94393200426E+01 0.83098269596E+01
 0.88043071802E+01 0.75541291799E+01 0.63852375881E+01 0.53755848016E+01 0.45635270095E+01
 0.39571421760E+01 0.35497447795E+01 0.33325011199E+01 0.33004480604E+01 0.34536050688E+01
 0.37971210196E+01 0.43421579127E+01 0.51048101406E+01 0.60982016206E+01 0.73154793440E+01
 0.87078229100E+01 0.10168995244E+02 0.11537305532E+02 0.12554502780E+02 0.13007542670E+02
 0.12928496356E+02 0.12562979035E+02 0.12205856474E+02 0.12011735513E+02 0.11905292753E+02
 0.11651305564E+02 0.11034562576E+02 0.10024773448E+02 0.10522348056E+02 0.92228830775E+01
 0.78598289409E+01 0.65838915578E+01 0.54885249942E+01 0.46164251150E+01 0.39736974823E+01
 0.35497560444E+01 0.33325011199E+01 0.33153665880E+01 0.34988879246E+01 0.38911119343E+01
 0.45077256728E+01 0.53680522485E+01 0.64821073072E+01 0.78283252633E+01 0.93294374815E+01
 0.10840676951E+02 0.12080474591E+02 0.12689002820E+02 0.12562984138E+02 0.11940974072E+02
 0.11275296136E+02 0.10969730487E+02 0.11140539317E+02 0.11553290334E+02 0.11777184781E+02
 0.11456068694E+02 0.11728548608E+02 0.10903470289E+02 0.95408034958E+01 0.80750704818E+01
 0.67083720004E+01 0.55467590968E+01 0.46343891243E+01 0.39736974823E+01 0.35497447795E+01
 0.33475319970E+01 0.33597123092E+01 0.35884231088E+01 0.40455593559E+01 0.47512001861E+01
 0.57254143249E+01 0.69693701074E+01 0.84379972763E+01 0.10015857600E+02 0.11461197277E+02
 0.12299205444E+02 0.12205864701E+02 0.11275308298E+02 0.10015504801E+02 0.91009489884E+01
 0.90079728576E+01 0.97472236873E+01 0.10860671976E+02 0.11686761954E+02 0.11464873526E+02
 0.11877501869E+02 0.11157004623E+02 0.97393130604E+01 0.81862176941E+01 0.67507645379E+01
 0.55467590968E+01 0.46164251150E+01 0.39571421760E+01 0.35497151510E+01 0.33770732767E+01
 0.34321870368E+01 0.37199029954E+01 0.42565397185E+01 0.50655950719E+01 0.61642694493E+01
 0.75381450866E+01 0.91096545776E+01 0.10703877966E+02 0.11859328971E+02 0.12011735926E+02
 0.10969741488E+02 0.91009650714E+01 0.72191494191E+01 0.62008916239E+01 0.65297605131E+01
 0.80339335141E+01 0.99796024718E+01 0.91209133583E+01 0.11225305747E+02 0.11943136957E+02
 0.11282563064E+02 0.98067915645E+01 0.81862176941E+01 0.67083720004E+01 0.54885249942E+01
 0.45635270095E+01 0.39248488631E+01 0.35496774221E+01 0.34200370460E+01 0.35304268472E+01
 0.38893376265E+01 0.45175396586E+01 0.54401215788E+01 0.66669632794E+01 0.81610513468E+01
 0.98043911453E+01 0.11280800291E+02 0.11905290497E+02 0.11140535011E+02 0.90079836127E+01
 0.62009069042E+01 0.38361755769E+01 0.29339949787E+01 0.38991737365E+01 0.63063049657E+01
 0.49045254579E+01 0.84988003140E+01 0.11073874923E+02 0.11960445794E+02 0.11282563064E+02
 0.97393130604E+01 0.80750704818E+01 0.65838915578E+01 0.53755848016E+01 0.44786442349E+01
 0.38784445219E+01 0.35496427485E+01 0.34747014420E+01 0.36507932807E+01 0.40906444620E+01
 0.48188802060E+01 0.58596495928E+01 0.72107312588E+01 0.88062409876E+01 0.10469594783E+02
 0.11651317521E+02 0.11553282989E+02 0.97472164422E+01 0.65297677389E+01 0.29340048691E+01
 0.33228926576E+00 -.20269419273E+00 0.15636934153E+01 -.46260088342E-01 0.41198364969E+01
 0.82719467829E+01 0.11073874923E+02 0.11943136957E+02 0.11157004623E+02 0.95408034958E+01
 0.78598289409E+01 0.63852375881E+01 0.52147980401E+01 0.43665650842E+01 0.38203306486E+01
 0.35496183581E+01 0.35386694718E+01 0.37882373851E+01 0.43154113278E+01 0.51474811074E+01
 0.63047220082E+01 0.77683825068E+01 0.94393375665E+01 0.11034585829E+02 0.11777192992E+02
 0.10860663059E+02 0.80339257030E+01 0.38991750603E+01 -.20269241359E+00 -.27332276545E+01
 -.26766813675E+01 -.40410097494E+01 -.62053515169E+00 0.41198364969E+01 0.84988003140E+01
 0.11225305747E+02 0.11877501869E+02 0.10903470289E+02 0.92228830775E+01 0.75541291799E+01
 0.61249874230E+01 0.50159234666E+01 0.42336713229E+01 0.37535917097E+01 0.35496059891E+01
 0.36088985077E+01 0.39363343259E+01 0.45529826501E+01 0.54871468462E+01 0.67522945736E+01
 0.83098305221E+01 0.10024787213E+02 0.11456084530E+02 0.11686765184E+02 0.99795954611E+01
 0.63062985215E+01 0.15636882640E+01 -.26766875048E+01 -.48286498754E+01 -.40409666216E+01
 -.29319157418E+01 0.56334384120E+00 0.50974818388E+01 0.90668479345E+01 0.11328553767E+02
 0.11607498452E+02 0.10435645540E+02 0.87257619013E+01 0.70912660378E+01 0.57166967316E+01
 0.46655838386E+01 0.39358586743E+01 0.35000566573E+01 0.33324403950E+01 0.34217516793E+01
 0.37747285414E+01 0.44140399720E+01 0.53683278837E+01 0.66489345148E+01 0.82123548963E+01
 0.99161259042E+01 0.11285463048E+02 0.11416371698E+02 0.96425479868E+01 0.60257279401E+01
 0.15198642375E+01 -.23266914712E+01 -.29319224284E+01 -.40409807609E+01 -.23267124930E+01
 0.15198362084E+01 0.60256983158E+01 0.96425206949E+01 0.11416343093E+02 0.11285433045E+02
 0.99161058292E+01 0.82123512943E+01 0.66489345140E+01 0.53683158433E+01 0.44140205214E+01
 0.37747173778E+01 0.34217518294E+01 0.33324451717E+01 0.35000685151E+01 0.39358846908E+01
 0.46656161686E+01 0.57167175875E+01 0.70912721671E+01 0.87257677409E+01 0.10435662081E+02
 0.11607523333E+02 0.11328581278E+02 0.90668744452E+01 0.50975011413E+01 0.56334958937E+00
 0.65720845202E+00 -.22269449321E+01 -.26766631661E+01 -.53005218672E+00 0.33298590610E+01
 0.74194251484E+01 0.10359994523E+02 0.11454075607E+02 0.10857145134E+02 0.93247311651E+01
 0.76639105503E+01 0.61941985473E+01 0.50228159266E+01 0.41738364692E+01 0.36287123484E+01
 0.33594615837E+01 0.33474944288E+01 0.35907549718E+01 0.41043752505E+01 0.49157378857E+01
 0.60492911829E+01 0.74966773959E+01 0.91759338790E+01 0.10859200127E+02 0.11848282549E+02
 0.11288440948E+02 0.88038219483E+01 0.48472754443E+01 0.53424092888E+01 0.17897957061E+01
 -.34294517358E+00 -.20268279439E+00 0.21190301175E+01 0.56383176427E+01 0.89777303546E+01
 0.11018395567E+02 0.11349843043E+02 0.10316109053E+02 0.86975177866E+01 0.71089281184E+01
 0.57506665679E+01 0.46975543493E+01 0.39566172231E+01 0.35046917010E+01 0.33161562866E+01
 0.33770661646E+01 0.36896597254E+01 0.42718443871E+01 0.51510508634E+01 0.63471559532E+01
 0.78412469312E+01 0.95364998799E+01 0.11172874728E+02 0.12033398500E+02 0.11364971066E+02
 0.89444470913E+01 0.94724954605E+01 0.64864055009E+01 0.37435407304E+01 0.23713404533E+01
 0.29340013982E+01 0.51443096092E+01 0.80201631731E+01 0.10388904010E+02 0.11443188945E+02
 0.11049790581E+02 0.96862162254E+01 0.80670817260E+01 0.65746105627E+01 0.53396596211E+01
 0.44075901952E+01 0.37721061835E+01 0.34082088540E+01 0.32939526975E+01 0.34200682274E+01
 0.37922437112E+01 0.44297561714E+01 0.53584284625E+01 0.65924427558E+01 0.81033347855E+01
 0.97846122874E+01 0.11366558809E+02 0.12172841822E+02 0.11573302546E+02 0.11867456417E+02
 0.10267806271E+02 0.80438312187E+01 0.61494930928E+01 0.54345770181E+01 0.62008924820E+01
 0.80450126155E+01 0.10081256772E+02 0.11406376061E+02 0.11532293179E+02 0.10557782805E+02
 0.90226688586E+01 0.74628761926E+01 0.60854815324E+01 0.49791685351E+01 0.41650184106E+01
 0.36278042555E+01 0.33432751779E+01 0.32939547465E+01 0.34747710023E+01 0.38936715680E+01
 0.45697551974E+01 0.55257311586E+01 0.67695542837E+01 0.82652208144E+01 0.99026752271E+01
 0.11428938033E+02 0.12252271023E+02 0.12235763561E+02 0.12153670414E+02 0.11139580099E+02
 0.97012584198E+01 0.85777675740E+01 0.83459296382E+01 0.91009431280E+01 0.10406619912E+02
 0.11543986173E+02 0.11902106285E+02 0.11279263477E+02 0.99368533941E+01 0.83800938656E+01
 0.69126825315E+01 0.56623178021E+01 0.46832609663E+01 0.39786831279E+01 0.35288283315E+01
 0.33122579875E+01 0.33161608650E+01 0.35387673354E+01 0.39889182869E+01 0.46840447998E+01
 0.56425869877E+01 0.68664200230E+01 0.83147699209E+01 0.98802161004E+01 0.11347071932E+02
 0.11111096522E+02 0.12079081508E+02 0.12319833869E+02 0.11879053048E+02 0.11146036085E+02
 0.10637972347E+02 0.10694972626E+02 0.11275283903E+02 0.11981063357E+02 0.12296342203E+02
 0.11884999495E+02 0.10768859686E+02 0.92896132916E+01 0.77929586767E+01 0.64412068212E+01
 0.53215687618E+01 0.44619851643E+01 0.38542784267E+01 0.34780262641E+01 0.33159302474E+01
 0.33594645831E+01 0.36090052380E+01 0.40729460362E+01 0.47658314946E+01 0.57012064605E+01
 0.68757011164E+01 0.82469354466E+01 0.97156157535E+01 0.94172264323E+01 0.10722199134E+02
 0.11748600287E+02 0.12271269306E+02 0.12315466909E+02 0.12140291238E+02 0.12062343159E+02
 0.12240148271E+02 0.12562962945E+02 0.12718814825E+02 0.12395670907E+02 0.11483237793E+02
 0.10148728684E+02 0.86909883138E+01 0.72929471371E+01 0.60690606213E+01 0.50752904131E+01
 0.43217121593E+01 0.37947581233E+01 0.34762812393E+01 0.33536361899E+01 0.34217481208E+01
 0.36819191607E+01 0.41409867482E+01 0.48098530806E+01 0.56971873683E+01 0.67957935228E+01
 0.80648161619E+01 0.77799011855E+01 0.90033509617E+01 0.10200270188E+02 0.11238901141E+02
 0.11961333517E+02 0.12359073542E+02 0.12570482014E+02 0.12751427362E+02 0.12938962898E+02
 0.13007528815E+02 0.12750721005E+02 0.12031922691E+02 0.10899522669E+02 0.95591659940E+01
 0.81847846606E+01 0.69079604345E+01 0.58122295376E+01 0.49314928644E+01 0.42657616487E+01
 0.38009037546E+01 0.35228901512E+01 0.34235058123E+01 0.35000419326E+01 0.37536541487E+01
 0.41889214587E+01 0.48129409197E+01 0.56301764393E+01 0.66313853227E+01 0.63933166809E+01
 0.74112303936E+01 0.85007846072E+01 0.95845713079E+01 0.10582551586E+02 0.11407518899E+02
 0.12019944785E+02 0.12461571695E+02 0.12774707242E+02 0.12928337924E+02 0.12816014468E+02
 0.12331182653E+02 0.11465206326E+02 0.10332065703E+02 0.90686410215E+01 0.78095121597E+01
 0.66603824167E+01 0.56819440033E+01 0.48946989872E+01 0.42950906045E+01 0.38718591847E+01
 0.36158817393E+01 0.35226401870E+01 0.35907064731E+01 0.38203466605E+01 0.42136964377E+01
 0.47744981244E+01 0.55041937293E+01 0.53274447265E+01 0.60976134897E+01 0.69834628829E+01
 0.79420510797E+01 0.89162610834E+01 0.98476569833E+01 0.10688819323E+02 0.11399401060E+02
 0.11955967638E+02 0.12331743510E+02 0.12466977795E+02 0.12287379009E+02 0.11761455233E+02
 0.10928403077E+02 0.98771981728E+01 0.87276311661E+01 0.75955184218E+01 0.65659240720E+01
 0.56847500840E+01 0.49664627713E+01 0.44088023424E+01 0.40054439449E+01 0.37521575218E+01
 0.36472036513E+01 0.36895937251E+01 0.38784091394E+01 0.42136822660E+01 0.46967449849E+01
 0.45846155020E+01 0.51115567949E+01 0.57637862067E+01 0.65241752288E+01 0.73618912374E+01
 0.82358593040E+01 0.91026548865E+01 0.99227254116E+01 0.10658784181E+02 0.11266821128E+02
 0.11688839241E+02 0.11858495764E+02 0.11722261685E+02 0.11265645107E+02 0.10527853338E+02
 0.95947013082E+01 0.85733217601E+01 0.75625233794E+01 0.66328729314E+01 0.58225520642E+01
 0.51456072482E+01 0.46042720167E+01 0.41981144507E+01 0.39273941157E+01 0.37923991371E+01
 0.37921672111E+01 0.39247689604E+01 0.41888819323E+01 0.41409298988E+01 0.44452781137E+01
 0.48703413148E+01 0.54127098982E+01 0.60609507155E+01 0.67937827733E+01 0.75822899525E+01
 0.83942371524E+01 0.91958435480E+01 0.99478366438E+01 0.10598481739E+02 0.11081736110E+02
 0.11327661033E+02 0.11283902963E+02 0.10937707180E+02 0.10325488167E+02 0.95237547005E+01
 0.86260790054E+01 0.77180618908E+01 0.68615661796E+01 0.60924440642E+01 0.54280191625E+01
 0.48767899659E+01 0.44445507043E+01 0.41357326917E+01 0.39523617281E+01 0.38935932359E+01
 0.39570333297E+01 0.39735792654E+01 0.40728824789E+01 0.42873650620E+01 0.46183301489E+01
 0.50645284729E+01 0.56188634485E+01 0.62671972537E+01 0.69898167003E+01 0.77633697816E+01
 0.85596750665E+01 0.93401220049E+01 0.10049547420E+02 0.10616937430E+02 0.10967836558E+02
 0.11045673388E+02 0.10832001668E+02 0.10354656963E+02 0.96790995354E+01 0.88875411027E+01
 0.80566615094E+01 0.72439728736E+01 0.64862460852E+01 0.58059780630E+01 0.52187829317E+01
 0.47369841745E+01 0.43693794057E+01 0.41200645355E+01 0.39888474156E+01 0.40728913561E+01
 0.39735893199E+01 0.39888581929E+01 0.41200816964E+01 0.43694002396E+01 0.47370025991E+01
 0.52188026096E+01 0.58060024000E+01 0.64862631711E+01 0.72439711372E+01 0.80566526514E+01
 0.88875450818E+01 0.96791138343E+01 0.10354663991E+02 0.10831999318E+02 0.11045672671E+02
 0.10967834904E+02 0.10616922231E+02 0.10049523823E+02 0.93401099592E+01 0.85596778188E+01
 0.77633695838E+01 0.69898031451E+01 0.62671777232E+01 0.56188448131E+01 0.50645100400E+01
 0.46183160109E+01 0.42873634539E+01 0.44452909583E+01 0.41409551001E+01 0.39570606138E+01
 0.38936221578E+01 0.39523929164E+01 0.41357571790E+01 0.44445643100E+01 0.48768047636E+01
 0.54280428810E+01 0.60924623167E+01 0.68615645967E+01 0.77180514423E+01 0.86260780027E+01
 0.95237595476E+01 0.10325484817E+02 0.10937698395E+02 0.11283899268E+02 0.11327655632E+02
 0.11081714901E+02 0.10598450933E+02 0.99478159992E+01 0.91958372511E+01 0.83942328071E+01
 0.75822810791E+01 0.67937724926E+01 0.60609390894E+01 0.54126968161E+01 0.48703364942E+01
 0.51115631310E+01 0.45846398284E+01 0.41889164933E+01 0.39248057483E+01 0.37922080604E+01
 0.37924398219E+01 0.39274188869E+01 0.41981202570E+01 0.46042780831E+01 0.51456254877E+01
 0.58225680361E+01 0.66328720633E+01 0.75625151001E+01 0.85733192695E+01 0.95946976511E+01
 0.10527838111E+02 0.11265626733E+02 0.11722251405E+02 0.11858484965E+02 0.11688814176E+02
 0.11266787576E+02 0.10658758130E+02 0.99227104763E+01 0.91026456964E+01 0.82358554465E+01
 0.73618923630E+01 0.65241744433E+01 0.57637827261E+01 0.60976213132E+01 0.53274626327E+01
 0.46967767023E+01 0.42137176922E+01 0.38784452899E+01 0.36896370834E+01 0.36472466371E+01
 0.37521788959E+01 0.40054413135E+01 0.44087990049E+01 0.49664725137E+01 0.56847600225E+01
 0.65659225124E+01 0.75955135571E+01 0.87276290845E+01 0.98771873478E+01 0.10928376380E+02
 0.11761425846E+02 0.12287359045E+02 0.12466959854E+02 0.12331717323E+02 0.11955937760E+02
 0.11399376060E+02 0.10688799911E+02 0.98476447776E+01 0.89162622813E+01 0.79420628500E+01
 0.69834731890E+01 0.74112483181E+01 0.63933342294E+01 0.55042215015E+01 0.47745325948E+01
 0.42137250091E+01 0.38203726847E+01 0.35907421711E+01 0.35226768685E+01 0.36158959568E+01
 0.38718494693E+01 0.42950801439E+01 0.48946996600E+01 0.56819450974E+01 0.66603775683E+01
 0.78095090551E+01 0.90686387491E+01 0.10332049206E+02 0.11465171498E+02 0.12331144728E+02
 0.12815985014E+02 0.12928313319E+02 0.12774683830E+02 0.12461552510E+02 0.12019928534E+02
 0.11407501637E+02 0.10582540485E+02 0.95845776036E+01 0.85008036273E+01 0.90033722870E+01
 0.77799207391E+01 0.66314080150E+01 0.56302099223E+01 0.48129733304E+01 0.41889379923E+01
 0.37536638626E+01 0.35000617489E+01 0.34235281806E+01 0.35228939602E+01 0.38008893479E+01
 0.42657479659E+01 0.49314861525E+01 0.58122211271E+01 0.69079501058E+01 0.81847799227E+01
 0.95591610938E+01 0.10899502445E+02 0.12031886147E+02 0.12750681568E+02 0.13007494885E+02
 0.12938935810E+02 0.12751411717E+02 0.12570479148E+02 0.12359072116E+02 0.11961324991E+02
 0.11238896082E+02 0.10200281522E+02 0.10722214933E+02 0.94172450918E+01 0.80648309352E+01
 0.67958150107E+01 0.56972203169E+01 0.48098787662E+01 0.41409893633E+01 0.36819110705E+01
 0.34217478982E+01 0.33536390519E+01 0.34762728047E+01 0.37947414342E+01 0.43216989963E+01
 0.50752793990E+01 0.60690447956E+01 0.72929311896E+01 0.86909789615E+01 0.10148718722E+02
 0.11483216691E+02 0.12395641053E+02 0.12718784019E+02 0.12562933647E+02 0.12240126184E+02
 0.12062340307E+02 0.12140306969E+02 0.12315482242E+02 0.12271273350E+02 0.11748604884E+02
 0.12079096200E+02 0.11111115263E+02 0.97156281595E+01 0.82469407793E+01 0.68757151222E+01
 0.57012317474E+01 0.47658463812E+01 0.40729358390E+01 0.36089823165E+01 0.33594451551E+01
 0.33159129429E+01 0.34780060968E+01 0.38542612527E+01 0.44619746998E+01 0.53215567870E+01
 0.64411880595E+01 0.77929398538E+01 0.92895988202E+01 0.10768844280E+02 0.11884981446E+02
 0.12296327280E+02 0.11981051235E+02 0.11275269474E+02 0.10694963941E+02 0.10637985573E+02
 0.11146068171E+02 0.11879081786E+02 0.12319849767E+02 0.12153692832E+02 0.12235784902E+02
 0.11347090986E+02 0.98802208743E+01 0.83147643690E+01 0.68664222057E+01 0.56425984074E+01
 0.46840460509E+01 0.39888983494E+01 0.35387354945E+01 0.33161275396E+01 0.33122249026E+01
 0.35287998091E+01 0.39786666789E+01 0.46832533834E+01 0.56623074727E+01 0.69126664115E+01
 0.83800773188E+01 0.99368367190E+01 0.11279245434E+02 0.11902095790E+02 0.11543991660E+02
 0.10406632643E+02 0.91009508588E+01 0.83459401789E+01 0.85777966235E+01 0.97013002647E+01
 0.11139614374E+02 0.10267836180E+02 0.11867477162E+02 0.12252292525E+02 0.11428953987E+02
 0.99026732067E+01 0.82652063982E+01 0.67695435143E+01 0.55257253096E+01 0.45697420122E+01
 0.38936457704E+01 0.34747369750E+01 0.32939155739E+01 0.33432347652E+01 0.36277733647E+01
 0.41650038142E+01 0.49791626359E+01 0.60854742234E+01 0.74628676444E+01 0.90226604553E+01
 0.10557769494E+02 0.11532277986E+02 0.11406376979E+02 0.10081283311E+02 0.80450496284E+01
 0.62009232147E+01 0.54346069591E+01 0.61495332388E+01 0.80438734455E+01 0.64864384873E+01
 0.94725123753E+01 0.11573313546E+02 0.12172856106E+02 0.11366568238E+02 0.97846058024E+01
 0.81033160129E+01 0.65924213894E+01 0.53584060314E+01 0.44297304655E+01 0.37922159507E+01
 0.34200377254E+01 0.32939161528E+01 0.34081713629E+01 0.37720803310E+01 0.44075790618E+01
 0.53396540974E+01 0.65746065194E+01 0.80670834519E+01 0.96862202585E+01 0.11049786624E+02
 0.11443182728E+02 0.10388918024E+02 0.80202057983E+01 0.51443629267E+01 0.29340482216E+01
 0.23713831492E+01 0.37435833210E+01 0.17898302239E+01 0.53424258772E+01 0.89444465905E+01
 0.11364967409E+02 0.12033399937E+02 0.11172875210E+02 0.95364916892E+01 0.78412290316E+01
 0.63471289903E+01 0.51510167775E+01 0.42718110190E+01 0.36896336856E+01 0.33770429006E+01
 0.33161291382E+01 0.35046663427E+01 0.39566033609E+01 0.46975489185E+01 0.57506611912E+01
 0.71089269614E+01 0.86975294367E+01 0.10316126318E+02 0.11349852118E+02 0.11018402358E+02
 0.89777557646E+01 0.56383667570E+01 0.21190863377E+01 -.20263291039E+00 -.34290175411E+00
 -.22269145011E+01 0.65722550879E+00 0.48472729189E+01 0.88038052729E+01 0.11288422778E+02
 0.11848269388E+02 0.10859191158E+02 0.91759262256E+01 0.74966644812E+01 0.60492646506E+01
 0.49157001787E+01 0.41043414617E+01 0.35907342426E+01 0.33474801541E+01 0.33594476204E+01
 0.36287048245E+01 0.41738390470E+01 0.50228185337E+01 0.61941946542E+01 0.76639118579E+01
 0.93247495273E+01 0.10857172188E+02 0.11454097072E+02 0.10360014095E+02 0.74194566343E+01
 0.33299029304E+01 -.53000784786E+00 -.26766252332E+01 -.46158573729E-01 0.65728104334E+00
 0.33582291644E+01 0.69650582242E+01 0.10112810105E+02 0.11800305389E+02 0.11774875899E+02
 0.10502357729E+02 0.87925667698E+01 0.71688735778E+01 0.57972659283E+01 0.47377265622E+01
 0.39883636451E+01 0.35227298897E+01 0.33153745279E+01 0.33537014327E+01 0.36412473782E+01
 0.41967411454E+01 0.50472177228E+01 0.62096145075E+01 0.76588041456E+01 0.92900139078E+01
 0.10807950422E+02 0.11473989535E+02 0.10612909066E+02 0.81207778210E+01 0.46711123836E+01
 0.15199165564E+01 0.56341575728E+00 -.62043105843E+00 0.56341321183E+00 0.36183192913E+01
 0.73091776121E+01 0.10274189882E+02 0.11641364293E+02 0.11328978484E+02 0.99237418269E+01
 0.82379918676E+01 0.66905745368E+01 0.54157729540E+01 0.44560942736E+01 0.38012490353E+01
 0.34235898655E+01 0.33004508388E+01 0.34235840347E+01 0.38012438903E+01 0.44560873886E+01
 0.54157544124E+01 0.66905471107E+01 0.82379741939E+01 0.99237451458E+01 0.11328992326E+02
 0.11641371950E+02 0.10274188231E+02 0.73091747763E+01 0.36183203740E+01 0.33582317096E+01
 0.65728472538E+00 -.46157156858E-01 0.15199136484E+01 0.46711103630E+01 0.81207839738E+01