   2   2   0   0
  0.1529437E+02  0.3691622E-09  0.3691622E-09  0.3691622E-09  0.5000000E-15
  1.000000000000000E-004
  CAR 
 unknown system                          
     22.31093879     -6.61572211  301      9.16783149      1.00000000
     -6.616  0.0000E+00  0.0000E+00
     -6.519  0.0000E+00  0.0000E+00
     -6.423  0.0000E+00  0.0000E+00
     -6.326  0.0000E+00  0.0000E+00
     -6.230  0.0000E+00  0.0000E+00
     -6.134  0.0000E+00  0.0000E+00
     -6.037  0.0000E+00  0.0000E+00
     -5.941  0.0000E+00  0.0000E+00
     -5.844  0.0000E+00  0.0000E+00
     -5.748  0.6755E-17  0.6513E-18
     -5.652  0.1324E-14  0.1283E-15
     -5.555  0.1695E-12  0.1648E-13
     -5.459  0.1374E-10  0.1342E-11
     -5.362  0.7060E-09  0.6941E-10
     -5.266  0.2301E-07  0.2288E-08
     -5.169  0.4763E-06  0.4821E-07
     -5.073  0.6271E-05  0.6528E-06
     -4.977  0.5257E-04  0.5722E-05
     -4.880  0.2811E-03  0.3282E-04
     -4.784  0.9591E-03  0.1253E-03
     -4.687  0.2093E-02  0.3271E-03
     -4.591  0.2942E-02  0.6108E-03
     -4.494  0.2834E-02  0.8840E-03
     -4.398  0.2713E-02  0.1146E-02
     -4.302  0.4628E-02  0.1592E-02
     -4.205  0.8788E-02  0.2439E-02
     -4.109  0.1178E-01  0.3575E-02
     -4.012  0.1044E-01  0.4582E-02
     -3.916  0.7126E-02  0.5269E-02
     -3.819  0.7204E-02  0.5964E-02
     -3.723  0.1300E-01  0.7217E-02
     -3.627  0.2214E-01  0.9352E-02
     -3.530  0.2927E-01  0.1217E-01
     -3.434  0.2878E-01  0.1495E-01
     -3.337  0.2003E-01  0.1688E-01
     -3.241  0.9427E-02  0.1779E-01
     -3.145  0.2970E-02  0.1808E-01
     -3.048  0.1012E-02  0.1817E-01
     -2.952  0.2220E-02  0.1839E-01
     -2.855  0.7462E-02  0.1911E-01
     -2.759  0.1897E-01  0.2094E-01
     -2.662  0.3639E-01  0.2444E-01
     -2.566  0.5224E-01  0.2948E-01
     -2.470  0.5556E-01  0.3484E-01
     -2.373  0.4672E-01  0.3934E-01
     -2.277  0.3636E-01  0.4285E-01
     -2.180  0.2731E-01  0.4548E-01
     -2.084  0.1669E-01  0.4709E-01
     -1.987  0.7429E-02  0.4781E-01
     -1.891  0.3906E-02  0.4819E-01
     -1.795  0.7256E-02  0.4888E-01
     -1.698  0.1580E-01  0.5041E-01
     -1.602  0.2300E-01  0.5263E-01
     -1.505  0.2149E-01  0.5470E-01
     -1.409  0.1303E-01  0.5595E-01
     -1.313  0.5961E-02  0.5653E-01
     -1.216  0.4633E-02  0.5698E-01
     -1.120  0.8027E-02  0.5775E-01
     -1.023  0.1394E-01  0.5909E-01
     -0.927  0.2221E-01  0.6123E-01
     -0.830  0.3642E-01  0.6475E-01
     -0.734  0.5770E-01  0.7031E-01
     -0.638  0.7333E-01  0.7738E-01
     -0.541  0.6782E-01  0.8392E-01
     -0.445  0.4761E-01  0.8851E-01
     -0.348  0.3214E-01  0.9161E-01
     -0.252  0.2959E-01  0.9446E-01
     -0.155  0.3612E-01  0.9795E-01
     -0.059  0.4560E-01  0.1023E+00
      0.037  0.5549E-01  0.1077E+00
      0.134  0.6339E-01  0.1138E+00
      0.230  0.6117E-01  0.1197E+00
      0.327  0.4434E-01  0.1240E+00
      0.423  0.2357E-01  0.1263E+00
      0.520  0.1377E-01  0.1276E+00
      0.616  0.1875E-01  0.1294E+00
      0.712  0.3008E-01  0.1323E+00
      0.809  0.3447E-01  0.1356E+00
      0.905  0.2789E-01  0.1383E+00
      1.002  0.2230E-01  0.1404E+00
      1.098  0.3078E-01  0.1434E+00
      1.194  0.4872E-01  0.1481E+00
      1.291  0.5640E-01  0.1536E+00
      1.387  0.4400E-01  0.1578E+00
      1.484  0.2318E-01  0.1600E+00
      1.580  0.8423E-02  0.1608E+00
      1.677  0.2927E-02  0.1611E+00
      1.773  0.5028E-02  0.1616E+00
      1.869  0.1598E-01  0.1632E+00
      1.966  0.3523E-01  0.1665E+00
      2.062  0.5211E-01  0.1716E+00
      2.159  0.5581E-01  0.1770E+00
      2.255  0.5114E-01  0.1819E+00
      2.352  0.4955E-01  0.1867E+00
      2.448  0.5332E-01  0.1918E+00
      2.544  0.5476E-01  0.1971E+00
      2.641  0.4710E-01  0.2016E+00
      2.737  0.3442E-01  0.2049E+00
      2.834  0.2588E-01  0.2074E+00
      2.930  0.2644E-01  0.2100E+00
      3.026  0.3350E-01  0.2132E+00
      3.123  0.3945E-01  0.2170E+00
      3.219  0.4464E-01  0.2213E+00
      3.316  0.5765E-01  0.2269E+00
      3.412  0.7197E-01  0.2338E+00
      3.509  0.6692E-01  0.2403E+00
      3.605  0.4183E-01  0.2443E+00
      3.701  0.1843E-01  0.2461E+00
      3.798  0.1107E-01  0.2472E+00
      3.894  0.1864E-01  0.2490E+00
      3.991  0.3299E-01  0.2521E+00
      4.087  0.4488E-01  0.2565E+00
      4.184  0.5157E-01  0.2614E+00
      4.280  0.5729E-01  0.2670E+00
      4.376  0.6386E-01  0.2731E+00
      4.473  0.6522E-01  0.2794E+00
      4.569  0.5343E-01  0.2846E+00
      4.666  0.3300E-01  0.2877E+00
      4.762  0.2079E-01  0.2897E+00
      4.859  0.2906E-01  0.2925E+00
      4.955  0.5620E-01  0.2980E+00
      5.051  0.8752E-01  0.3064E+00
      5.148  0.1014E+00  0.3162E+00
      5.244  0.8512E-01  0.3244E+00
      5.341  0.5004E-01  0.3292E+00
      5.437  0.2034E-01  0.3312E+00
      5.533  0.7614E-02  0.3319E+00
      5.630  0.9316E-02  0.3328E+00
      5.726  0.2074E-01  0.3348E+00
      5.823  0.3823E-01  0.3385E+00
      5.919  0.6001E-01  0.3443E+00
      6.016  0.8376E-01  0.3524E+00
      6.112  0.9981E-01  0.3620E+00
      6.208  0.9716E-01  0.3714E+00
      6.305  0.7615E-01  0.3787E+00
      6.401  0.4802E-01  0.3833E+00
      6.498  0.2835E-01  0.3861E+00
      6.594  0.3002E-01  0.3890E+00
      6.691  0.5342E-01  0.3941E+00
      6.787  0.8110E-01  0.4019E+00
      6.883  0.9175E-01  0.4108E+00
      6.980  0.8224E-01  0.4187E+00
      7.076  0.6892E-01  0.4253E+00
      7.173  0.6691E-01  0.4318E+00
      7.269  0.7027E-01  0.4386E+00
      7.365  0.6229E-01  0.4446E+00
      7.462  0.4517E-01  0.4489E+00
      7.558  0.4072E-01  0.4529E+00
      7.655  0.5826E-01  0.4585E+00
      7.751  0.7636E-01  0.4658E+00
      7.848  0.7002E-01  0.4726E+00
      7.944  0.4657E-01  0.4771E+00
      8.040  0.2951E-01  0.4799E+00
      8.137  0.2499E-01  0.4823E+00
      8.233  0.2923E-01  0.4852E+00
      8.330  0.4402E-01  0.4894E+00
      8.426  0.6344E-01  0.4955E+00
      8.523  0.6770E-01  0.5020E+00
      8.619  0.4957E-01  0.5068E+00
      8.715  0.2751E-01  0.5095E+00
      8.812  0.2261E-01  0.5117E+00
      8.908  0.3917E-01  0.5154E+00
      9.005  0.6350E-01  0.5216E+00
      9.101  0.7464E-01  0.5288E+00
      9.198  0.6630E-01  0.5351E+00
      9.294  0.5083E-01  0.5400E+00
      9.390  0.3875E-01  0.5438E+00
      9.487  0.3334E-01  0.5470E+00
      9.583  0.3647E-01  0.5505E+00
      9.680  0.4354E-01  0.5547E+00
      9.776  0.4665E-01  0.5592E+00
      9.872  0.4645E-01  0.5637E+00
      9.969  0.4849E-01  0.5684E+00
     10.065  0.5083E-01  0.5733E+00
     10.162  0.4955E-01  0.5780E+00
     10.258  0.4940E-01  0.5828E+00
     10.355  0.5558E-01  0.5882E+00
     10.451  0.6343E-01  0.5943E+00
     10.547  0.6344E-01  0.6004E+00
     10.644  0.5406E-01  0.6056E+00
     10.740  0.4248E-01  0.6097E+00
     10.837  0.3753E-01  0.6133E+00
     10.933  0.4960E-01  0.6181E+00
     11.030  0.7758E-01  0.6256E+00
     11.126  0.9728E-01  0.6350E+00
     11.222  0.9202E-01  0.6438E+00
     11.319  0.7845E-01  0.6514E+00
     11.415  0.7274E-01  0.6584E+00
     11.512  0.6539E-01  0.6647E+00
     11.608  0.4885E-01  0.6694E+00
     11.704  0.3319E-01  0.6726E+00
     11.801  0.2789E-01  0.6753E+00
     11.897  0.3012E-01  0.6782E+00
     11.994  0.3445E-01  0.6816E+00
     12.090  0.4428E-01  0.6858E+00
     12.187  0.6284E-01  0.6919E+00
     12.283  0.8108E-01  0.6997E+00
     12.379  0.8544E-01  0.7079E+00
     12.476  0.7446E-01  0.7151E+00
     12.572  0.6317E-01  0.7212E+00
     12.669  0.6378E-01  0.7274E+00
     12.765  0.6802E-01  0.7339E+00
     12.862  0.6257E-01  0.7399E+00
     12.958  0.5180E-01  0.7449E+00
     13.054  0.4988E-01  0.7498E+00
     13.151  0.5919E-01  0.7555E+00
     13.247  0.6897E-01  0.7621E+00
     13.344  0.7411E-01  0.7693E+00
     13.440  0.8278E-01  0.7772E+00
     13.537  0.9930E-01  0.7868E+00
     13.633  0.1115E+00  0.7976E+00
     13.729  0.1089E+00  0.8081E+00
     13.826  0.1056E+00  0.8182E+00
     13.922  0.1191E+00  0.8297E+00
     14.019  0.1342E+00  0.8427E+00
     14.115  0.1223E+00  0.8545E+00
     14.211  0.8805E-01  0.8630E+00
     14.308  0.6153E-01  0.8689E+00
     14.404  0.5422E-01  0.8741E+00
     14.501  0.5189E-01  0.8791E+00
     14.597  0.4084E-01  0.8831E+00
     14.694  0.2333E-01  0.8853E+00
     14.790  0.1002E-01  0.8863E+00
     14.886  0.6044E-02  0.8869E+00
     14.983  0.8667E-02  0.8877E+00
     15.079  0.1180E-01  0.8888E+00
     15.176  0.1150E-01  0.8899E+00
     15.272  0.1140E-01  0.8910E+00
     15.369  0.2021E-01  0.8930E+00
     15.465  0.4008E-01  0.8968E+00
     15.561  0.5926E-01  0.9026E+00
     15.658  0.6472E-01  0.9088E+00
     15.754  0.6038E-01  0.9146E+00
     15.851  0.5946E-01  0.9204E+00
     15.947  0.6481E-01  0.9266E+00
     16.043  0.7462E-01  0.9338E+00
     16.140  0.9580E-01  0.9430E+00
     16.236  0.1223E+00  0.9548E+00
     16.333  0.1248E+00  0.9669E+00
     16.429  0.9288E-01  0.9758E+00
     16.526  0.5188E-01  0.9808E+00
     16.622  0.2421E-01  0.9832E+00
     16.718  0.1042E-01  0.9842E+00
     16.815  0.4739E-02  0.9846E+00
     16.911  0.3618E-02  0.9850E+00
     17.008  0.4976E-02  0.9855E+00
     17.104  0.9354E-02  0.9864E+00
     17.201  0.1826E-01  0.9881E+00
     17.297  0.2763E-01  0.9908E+00
     17.393  0.3013E-01  0.9937E+00
     17.490  0.2806E-01  0.9964E+00
     17.586  0.3175E-01  0.9994E+00
     17.683  0.4217E-01  0.1004E+01
     17.779  0.4942E-01  0.1008E+01
     17.876  0.4891E-01  0.1013E+01
     17.972  0.4676E-01  0.1018E+01
     18.068  0.4936E-01  0.1022E+01
     18.165  0.5243E-01  0.1027E+01
     18.261  0.4779E-01  0.1032E+01
     18.358  0.3943E-01  0.1036E+01
     18.454  0.3529E-01  0.1039E+01
     18.550  0.3170E-01  0.1042E+01
     18.647  0.2417E-01  0.1045E+01
     18.743  0.1818E-01  0.1046E+01
     18.840  0.1814E-01  0.1048E+01
     18.936  0.2024E-01  0.1050E+01
     19.033  0.1995E-01  0.1052E+01
     19.129  0.1759E-01  0.1054E+01
     19.225  0.1582E-01  0.1055E+01
     19.322  0.1466E-01  0.1057E+01
     19.418  0.1274E-01  0.1058E+01
     19.515  0.1177E-01  0.1059E+01
     19.611  0.1258E-01  0.1060E+01
     19.708  0.1176E-01  0.1061E+01
     19.804  0.7692E-02  0.1062E+01
     19.900  0.3348E-02  0.1062E+01
     19.997  0.1395E-02  0.1062E+01
     20.093  0.2310E-02  0.1063E+01
     20.190  0.5933E-02  0.1063E+01
     20.286  0.1039E-01  0.1064E+01
     20.382  0.1165E-01  0.1065E+01
     20.479  0.8362E-02  0.1066E+01
     20.575  0.3836E-02  0.1067E+01
     20.672  0.1124E-02  0.1067E+01
     20.768  0.2103E-03  0.1067E+01
     20.865  0.2508E-04  0.1067E+01
     20.961  0.1905E-05  0.1067E+01
     21.057  0.9203E-07  0.1067E+01
     21.154  0.2824E-08  0.1067E+01
     21.250  0.5497E-10  0.1067E+01
     21.347  0.6782E-12  0.1067E+01
     21.443  0.5296E-14  0.1067E+01
     21.540  0.2948E-16  0.1067E+01
     21.636  0.0000E+00  0.1067E+01
     21.732  0.0000E+00  0.1067E+01
     21.829  0.0000E+00  0.1067E+01
     21.925  0.0000E+00  0.1067E+01
     22.022  0.0000E+00  0.1067E+01
     22.118  0.0000E+00  0.1067E+01
     22.215  0.0000E+00  0.1067E+01
     22.311  0.0000E+00  0.1067E+01
