    2    2   15    1
  0.1529437E+02  0.3691622E-09  0.3691622E-09  0.3691622E-09  0.5000000E-15
  1.000000000000000E-004
  CAR 
 unknown system                          
      8     18      8
 
  0.0000000E+00  0.0000000E+00  0.0000000E+00  0.8000000E-02
    1       -4.615430   1.000000
    2        6.195174   1.000000
    3        6.302739   1.000000
    4        6.302750   1.000000
    5       10.603828   0.000000
    6       16.951893   0.000000
    7       17.375736   0.000000
    8       17.375750   0.000000
 
  0.2000000E+00  0.1244391E-16 -0.1244391E-16  0.6400000E-01
    1       -3.488644   1.000000
    2        5.028496   1.000000
    3        6.286456   1.000000
    4        9.316297   0.147120
    5       12.693149   0.000000
    6       12.848857   0.000000
    7       13.455449   0.000000
    8       15.531059   0.000000
 
  0.4000000E+00  0.2488782E-16 -0.2488782E-16  0.6400000E-01
    1       -0.156447   1.000000
    2        5.179818   1.000000
    3        6.010713   1.000000
    4        7.265953   1.000000
    5        8.961811   0.927542
    6       11.419973   0.000000
    7       13.683117   0.000000
    8       14.332670   0.000000
 
  0.2000000E+00  0.2000000E+00 -0.2488782E-16  0.6400000E-01
    1       -0.618880   1.000000
    2        6.003564   1.000000
    3        6.898086   1.000000
    4        6.939112   1.000000
    5        9.753535   0.000017
    6       11.874713   0.000000
    7       12.441172   0.000000
    8       12.708105   0.000000
 
  0.4000000E+00  0.2000000E+00 -0.9576153E-17  0.1280000E+00
    1        1.213746   1.000000
    2        3.396062   1.000000
    3        4.474036   1.000000
    4        7.715558   1.000000
    5        9.056573   0.784551
    6       11.049278   0.000000
    7       13.906623   0.000000
    8       16.280044   0.000000
 
 -0.4000000E+00  0.2000000E+00  0.2251918E-16  0.1280000E+00
    1       -2.544815   1.000000
    2        2.035100   1.000000
    3        6.755075   1.000000
    4       10.463127   0.000000
    5       11.115496   0.000000
    6       12.317597   0.000000
    7       14.016787   0.000000
    8       15.924285   0.000000
 
 -0.2000000E+00  0.2000000E+00  0.2101777E-17  0.3200000E-01
    1       -4.139566   1.000000
    2        2.744094   1.000000
    3        6.746157   1.000000
    4        8.377889   1.000000
    5       13.215156   0.000000
    6       13.339950   0.000000
    7       15.056223   0.000000
    8       19.278941   0.000000
 
  0.4000000E+00  0.4000000E+00 -0.4977564E-16  0.6400000E-01
    1       -0.681329   1.000000
    2       -0.677683   1.000000
    3        8.432589   1.000000
    4        8.495990   0.999999
    5       10.701009   0.000000
    6       13.226556   0.000000
    7       13.616497   0.000000
    8       14.079882   0.000000
 
 -0.4000000E+00  0.4000000E+00  0.4203554E-17  0.3200000E-01
    1       -2.720889   1.000000
    2       -0.394707   1.000000
    3        8.075821   1.000000
    4        9.974024   0.000000
    5       10.283098   0.000000
    6       12.211175   0.000000
    7       18.191507   0.000000
    8       18.831939   0.000000
 
  0.2000000E+00  0.2000000E+00  0.2000000E+00  0.6400000E-01
    1        0.768182   1.000000
    2        3.029035   1.000000
    3        6.127435   1.000000
    4        6.150269   1.000000
    5       11.376581   0.000000
    6       13.097556   0.000000
    7       14.034410   0.000000
    8       14.485574   0.000000
 
 -0.2000000E+00  0.2000000E+00  0.2000000E+00  0.3200000E-01
    1       -3.666465   1.000000
    2        2.575034   1.000000
    3        4.199870   1.000000
    4       10.245655   0.000000
    5       11.466232   0.000000
    6       14.522588   0.000000
    7       17.716182   0.000000
    8       18.160515   0.000000
 
 -0.4000000E+00  0.4000000E+00  0.2000000E+00  0.6400000E-01
    1       -2.260345   1.000000
    2        0.019881   1.000000
    3        4.958914   1.000000
    4        7.171396   1.000000
    5       13.635366   0.000000
    6       15.687869   0.000000
    7       17.868605   0.000000
    8       18.104175   0.000000
 
 -0.2000000E+00  0.4000000E+00  0.2000000E+00  0.6400000E-01
    1       -1.616432   1.000000
    2        2.264917   1.000000
    3        3.990963   1.000000
    4        7.742414   1.000000
    5       10.018163   0.000000
    6       15.520604   0.000000
    7       16.316209   0.000000
    8       17.287863   0.000000
 
 -0.4000000E+00 -0.4000000E+00  0.2000000E+00  0.6400000E-01
    1        0.184260   1.000000
    2        0.196103   1.000000
    3        5.136680   1.000000
    4        5.140599   1.000000
    5        9.609563   0.000896
    6       16.226813   0.000000
    7       17.663300   0.000000
    8       18.489816   0.000000
 
 -0.2000000E+00 -0.4000000E+00  0.2000000E+00  0.6400000E-01
    1        2.472641   1.000000
    2        3.431426   1.000000
    3        4.297885   1.000000
    4        5.797699   1.000000
    5        7.309587   1.000000
    6       12.146300   0.000000
    7       13.543055   0.000000
    8       16.179301   0.000000
 
 -0.2000000E+00 -0.2000000E+00  0.2000000E+00  0.1600000E-01
    1       -1.086624   1.000000
    2        7.775898   1.000000
    3        8.109918   1.000000
    4        8.454892   1.000000
    5        8.454903   1.000000
    6       10.093177   0.000000
    7       11.596880   0.000000
    8       11.596902   0.000000
 
 -0.4000000E+00  0.4000000E+00  0.4000000E+00  0.3200000E-01
    1       -0.917853   1.000000
    2        0.691037   1.000000
    3        2.507117   1.000000
    4        4.091440   1.000000
    5       16.196865   0.000000
    6       16.529059   0.000000
    7       19.005930   0.000000
    8       20.311293   0.000000
 
 -0.4000000E+00 -0.4000000E+00  0.4000000E+00  0.1600000E-01
    1        1.312561   1.000000
    2        1.336212   1.000000
    3        3.128629   1.000000
    4        3.128630   1.000000
    5        9.196049   0.421294
    6       18.414871   0.000000
    7       19.621805   0.000000
    8       19.621832   0.000000
