unknown system                          
   1.00000000000000     
    -2.450000    2.450000    1.274000
     2.450000   -2.450000    1.274000
     2.450000    2.450000   -1.274000
   Si
     2
Direct
  0.250000  0.750000  0.500000
  0.000000  0.000000  0.000000
 
   28   28   28
 -.54730216719E+01 -.39387047331E+01 0.50839287286E-01 0.49719034539E+01 0.91384361757E+01
 0.11439913735E+02 0.11692482467E+02 0.10504410736E+02 0.88111779888E+01 0.71965310249E+01
 0.58358156606E+01 0.47957727529E+01 0.40794470984E+01 0.36639062132E+01 0.35279184844E+01
 0.36638240772E+01 0.40794926210E+01 0.47959387165E+01 0.58358732297E+01 0.71964552964E+01
 0.88111661616E+01 0.10504483272E+02 0.11692478259E+02 0.11439861238E+02 0.91385047396E+01
 0.49720118872E+01 0.50754066612E-01 -.39389027281E+01 -.39389027281E+01 -.47280855616E+01
 -.25758813278E+01 0.16525179444E+01 0.63596023901E+01 0.99863399233E+01 0.11663780989E+02
 0.11435618392E+02 0.10028228172E+02 0.83350971497E+01 0.67836781558E+01 0.55105264273E+01
 0.45620377299E+01 0.39308233478E+01 0.35922143333E+01 0.35278435360E+01 0.37339192937E+01
 0.42217883699E+01 0.50141491523E+01 0.61303807051E+01 0.75564505315E+01 0.92073930840E+01
 0.10863038584E+02 0.11827226325E+02 0.11199162450E+02 0.85241736892E+01 0.41950153237E+01
 -.52079705257E+00 0.50754066612E-01 -.25760243406E+01 -.26327830309E+01 -.10667542668E+00
 0.39740005616E+01 0.80686908312E+01 0.10855730774E+02 0.11756908986E+02 0.11028165357E+02
 0.94585919107E+01 0.78041300999E+01 0.63404959223E+01 0.51719511971E+01 0.43247054792E+01
 0.37829827839E+01 0.35222570225E+01 0.35276859345E+01 0.37991004189E+01 0.43506063199E+01
 0.52053587559E+01 0.63781794512E+01 0.78442696803E+01 0.95040974617E+01 0.11097894128E+02
 0.11883037160E+02 0.11047294279E+02 0.83001627134E+01 0.41950153237E+01 0.49720118872E+01
 0.16524773541E+01 -.10673068159E+00 0.42860264923E+00 0.30190842325E+01 0.65848373195E+01
 0.97613641262E+01 0.11537911441E+02 0.11634244071E+02 0.10473392928E+02 0.88332147591E+01
 0.72473951779E+01 0.58912939732E+01 0.48379214772E+01 0.40956237482E+01 0.36430846792E+01
 0.34575023501E+01 0.35276136682E+01 0.38562214813E+01 0.44592696938E+01 0.53592099119E+01
 0.65657088121E+01 0.80447930800E+01 0.96874968985E+01 0.11212916152E+02 0.11896847063E+02
 0.11047294279E+02 0.85241736892E+01 0.91385047396E+01 0.63596549935E+01 0.39740117074E+01
 0.30191168381E+01 0.39202593330E+01 0.62667368025E+01 0.90388049490E+01 0.11135094075E+02
 0.11882923513E+02 0.11267667786E+02 0.98139511822E+01 0.81876700450E+01 0.66958525392E+01
 0.54602400340E+01 0.45254725785E+01 0.38860077408E+01 0.35179918130E+01 0.34012923592E+01
 0.35277507000E+01 0.39023096943E+01 0.45418111352E+01 0.54670564878E+01 0.66825938168E+01
 0.81476778458E+01 0.97495135417E+01 0.11212916152E+02 0.11883037160E+02 0.11199162450E+02
 0.11439861238E+02 0.99863267700E+01 0.80686831610E+01 0.65848871374E+01 0.62668300121E+01
 0.72810713985E+01 0.91403161495E+01 0.10975685609E+02 0.11991877557E+02 0.11835798189E+02
 0.10696362397E+02 0.91216897922E+01 0.75585234642E+01 0.61794950883E+01 0.50693896198E+01
 0.42497392193E+01 0.37058629725E+01 0.34138795781E+01 0.33565481087E+01 0.35280700680E+01
 0.39347364591E+01 0.45934339808E+01 0.55226321467E+01 0.67223002138E+01 0.81476778458E+01
 0.96874968985E+01 0.11097894128E+02 0.11827226325E+02 0.11692478259E+02 0.11663751283E+02
 0.10855654240E+02 0.97613091294E+01 0.90388696940E+01 0.91404310748E+01 0.10048431627E+02
 0.11286703900E+02 0.12192712651E+02 0.12274609821E+02 0.11444431816E+02 0.10016981973E+02
 0.84514063788E+01 0.69808830217E+01 0.57246887440E+01 0.47371215469E+01 0.40231503500E+01
 0.35634851547E+01 0.33358271857E+01 0.33255143768E+01 0.35283997235E+01 0.39514965262E+01
 0.46110053750E+01 0.55226321467E+01 0.66825938168E+01 0.80447930800E+01 0.95040974617E+01
 0.10863038584E+02 0.10504483272E+02 0.11435697645E+02 0.11756910212E+02 0.11537808193E+02
 0.11135015258E+02 0.10975742912E+02 0.11286806351E+02 0.11946259189E+02 0.12553842215E+02
 0.12669229039E+02 0.12063930447E+02 0.10839427732E+02 0.93430642953E+01 0.78439619756E+01
 0.64851397219E+01 0.53523605386E+01 0.44773439856E+01 0.38550644032E+01 0.34651390448E+01
 0.32875290031E+01 0.33096487714E+01 0.35285388848E+01 0.39514965262E+01 0.45934339808E+01
 0.54670564878E+01 0.65657088121E+01 0.78442696803E+01 0.92073930840E+01 0.88111661616E+01
 0.10028310408E+02 0.11028291999E+02 0.11634276137E+02 0.11882830315E+02 0.11991799308E+02
 0.12192749279E+02 0.12553912292E+02 0.12917382155E+02 0.12993135852E+02 0.12544213690E+02
 0.11541520996E+02 0.10190681562E+02 0.87370542259E+01 0.73349702503E+01 0.60949498360E+01
 0.50774017141E+01 0.42995317167E+01 0.37518188309E+01 0.34149512197E+01 0.32711875507E+01
 0.33096487714E+01 0.35283997235E+01 0.39347364591E+01 0.45418111352E+01 0.53592099119E+01
 0.63781794512E+01 0.75564505315E+01 0.71964552964E+01 0.83350368764E+01 0.94586513592E+01
 0.10473523701E+02 0.11267721213E+02 0.11835738202E+02 0.12274549318E+02 0.12669242242E+02
 0.12993169302E+02 0.13099821901E+02 0.12814272880E+02 0.12060042508E+02 0.10932522411E+02
 0.96108800565E+01 0.82424150706E+01 0.69523198228E+01 0.58267320427E+01 0.49091720364E+01
 0.42093358420E+01 0.37170165961E+01 0.34149512197E+01 0.32875290031E+01 0.33255143768E+01
 0.35280700680E+01 0.39023096943E+01 0.44592696938E+01 0.52053587559E+01 0.61303807051E+01
 0.58358732297E+01 0.67836056612E+01 0.78040399897E+01 0.88332331065E+01 0.98140520825E+01
 0.10696422479E+02 0.11444410372E+02 0.12063894231E+02 0.12544208353E+02 0.12814276981E+02
 0.12762884363E+02 0.12312356954E+02 0.11489334136E+02 0.10395983207E+02 0.91550401831E+01
 0.78933211321E+01 0.67153415102E+01 0.56903655770E+01 0.48525938870E+01 0.42093358420E+01
 0.37518188309E+01 0.34651390448E+01 0.33358271857E+01 0.33565481087E+01 0.35277507000E+01
 0.38562214813E+01 0.43506063199E+01 0.50141491523E+01 0.47959387165E+01 0.55106168092E+01
 0.63404501018E+01 0.72473015309E+01 0.81876483162E+01 0.91217453570E+01 0.10017034920E+02
 0.10839436211E+02 0.11541506535E+02 0.12060027229E+02 0.12312344387E+02 0.12226010055E+02
 0.11779647445E+02 0.11009041648E+02 0.99999214353E+01 0.88643252860E+01 0.77129566677E+01
 0.66351502017E+01 0.56903655770E+01 0.49091720364E+01 0.42995317167E+01 0.38550644032E+01
 0.35634851547E+01 0.34138795781E+01 0.34012923592E+01 0.35276136682E+01 0.37991004189E+01
 0.42217883699E+01 0.40794926210E+01 0.45621604403E+01 0.51720477744E+01 0.58912849710E+01
 0.66957784540E+01 0.75584768668E+01 0.84514193453E+01 0.93431012650E+01 0.10190704886E+02
 0.10932522559E+02 0.11489317702E+02 0.11779630377E+02 0.11744505369E+02 0.11369365096E+02
 0.10691478000E+02 0.97899558866E+01 0.87644993005E+01 0.77129566677E+01 0.67153415102E+01
 0.58267320427E+01 0.50774017141E+01 0.44773439856E+01 0.40231503500E+01 0.37058629725E+01
 0.35179918130E+01 0.34575023501E+01 0.35276859345E+01 0.37339192937E+01 0.36638240772E+01
 0.39307736390E+01 0.43247493114E+01 0.48379986379E+01 0.54602626441E+01 0.61794524619E+01
 0.69808311694E+01 0.78439459391E+01 0.87370719049E+01 0.96109038953E+01 0.10395990679E+02
 0.11009030055E+02 0.11369350815E+02 0.11420428023E+02 0.11147078921E+02 0.10580566953E+02
 0.97899558866E+01 0.88643252860E+01 0.78933211321E+01 0.69523198228E+01 0.60949498360E+01
 0.53523605386E+01 0.47371215469E+01 0.42497392193E+01 0.38860077408E+01 0.36430846792E+01
 0.35222570225E+01 0.35278435360E+01 0.35279184844E+01 0.35920896653E+01 0.37828522454E+01
 0.40955876969E+01 0.45255156721E+01 0.50694288212E+01 0.57246773223E+01 0.64850983125E+01
 0.73349406105E+01 0.82424143751E+01 0.91550558844E+01 0.99999313824E+01 0.10691472471E+02
 0.11147068280E+02 0.11306336153E+02 0.11147078921E+02 0.10691478000E+02 0.99999214353E+01
 0.91550401831E+01 0.82424150706E+01 0.73349702503E+01 0.64851397219E+01 0.57246887440E+01
 0.50693896198E+01 0.45254725785E+01 0.40956237482E+01 0.37829827839E+01 0.35922143333E+01
 0.36639062132E+01 0.35278357038E+01 0.35221241202E+01 0.36429204129E+01 0.38859222820E+01
 0.42497484135E+01 0.47371614136E+01 0.53523726945E+01 0.60949265634E+01 0.69522874755E+01
 0.78933060404E+01 0.88643318009E+01 0.97899662338E+01 0.10580564091E+02 0.11147068280E+02
 0.11420428023E+02 0.11369365096E+02 0.11009041648E+02 0.10395983207E+02 0.96108800565E+01
 0.87370542259E+01 0.78439619756E+01 0.69808830217E+01 0.61794950883E+01 0.54602400340E+01
 0.48379214772E+01 0.43247054792E+01 0.39308233478E+01 0.40794470984E+01 0.37339421641E+01
 0.35276748007E+01 0.34574011783E+01 0.35178536124E+01 0.37057728763E+01 0.40231367362E+01
 0.44773745710E+01 0.50774283216E+01 0.58267262852E+01 0.67153108909E+01 0.77129336015E+01
 0.87645019310E+01 0.97899662338E+01 0.10691472471E+02 0.11369350815E+02 0.11744505369E+02
 0.11779647445E+02 0.11489334136E+02 0.10932522411E+02 0.10190681562E+02 0.93430642953E+01
 0.84514063788E+01 0.75585234642E+01 0.66958525392E+01 0.58912939732E+01 0.51719511971E+01
 0.45620377299E+01 0.47957727529E+01 0.42216721970E+01 0.37990706479E+01 0.35276082272E+01
 0.34012556090E+01 0.34138156571E+01 0.35634274704E+01 0.38550415210E+01 0.42995510773E+01
 0.49092058293E+01 0.56903702987E+01 0.66351207611E+01 0.77129336015E+01 0.88643318009E+01
 0.99999313824E+01 0.11009030055E+02 0.11779630377E+02 0.12226010055E+02 0.12312356954E+02
 0.12060042508E+02 0.11541520996E+02 0.10839427732E+02 0.10016981973E+02 0.91216897922E+01
 0.81876700450E+01 0.72473951779E+01 0.63404959223E+01 0.55105264273E+01 0.58358156606E+01
 0.50139970416E+01 0.43504717928E+01 0.38561645883E+01 0.35277619997E+01 0.33565908700E+01
 0.33358557559E+01 0.34651269986E+01 0.37517952377E+01 0.42093481333E+01 0.48526297873E+01
 0.56903702987E+01 0.67153108909E+01 0.78933060404E+01 0.91550558844E+01 0.10395990679E+02
 0.11489317702E+02 0.12312344387E+02 0.12762884363E+02 0.12814272880E+02 0.12544213690E+02
 0.12063930447E+02 0.11444431816E+02 0.10696362397E+02 0.98139511822E+01 0.88332147591E+01
 0.78041300999E+01 0.67836781558E+01 0.71965310249E+01 0.61303731687E+01 0.52052759483E+01
 0.44591725098E+01 0.39022559371E+01 0.35281054729E+01 0.33256288288E+01 0.32876322583E+01
 0.34149707965E+01 0.37169938248E+01 0.42093481333E+01 0.49092058293E+01 0.58267262852E+01
 0.69522874755E+01 0.82424143751E+01 0.96109038953E+01 0.10932522559E+02 0.12060027229E+02
 0.12814276981E+02 0.13099821901E+02 0.12993135852E+02 0.12669229039E+02 0.12274609821E+02
 0.11835798189E+02 0.11267667786E+02 0.10473392928E+02 0.94585919107E+01 0.83350971497E+01
 0.88111779888E+01 0.75565022377E+01 0.63782246708E+01 0.53592279683E+01 0.45417843038E+01
 0.39347041028E+01 0.35284569443E+01 0.33098056044E+01 0.32713192690E+01 0.34149707965E+01
 0.37517952377E+01 0.42995510773E+01 0.50774283216E+01 0.60949265634E+01 0.73349406105E+01
 0.87370719049E+01 0.10190704886E+02 0.11541506535E+02 0.12544208353E+02 0.12993169302E+02
 0.12917382155E+02 0.12553842215E+02 0.12192712651E+02 0.11991877557E+02 0.11882923513E+02
 0.11634244071E+02 0.11028165357E+02 0.10028228172E+02 0.10504410736E+02 0.92073524355E+01
 0.78442785022E+01 0.65657969910E+01 0.54671711101E+01 0.45934726967E+01 0.39514828513E+01
 0.35286049377E+01 0.33098056044E+01 0.32876322583E+01 0.34651269986E+01 0.38550415210E+01
 0.44773745710E+01 0.53523726945E+01 0.64850983125E+01 0.78439459391E+01 0.93431012650E+01
 0.10839436211E+02 0.12063894231E+02 0.12669242242E+02 0.12553912292E+02 0.11946259189E+02
 0.11286703900E+02 0.10975685609E+02 0.11135094075E+02 0.11537911441E+02 0.11756908986E+02
 0.11435618392E+02 0.11692482467E+02 0.10863006881E+02 0.95040138700E+01 0.80447572870E+01
 0.66827086301E+01 0.55228051325E+01 0.46110705177E+01 0.39514828513E+01 0.35284569443E+01
 0.33256288288E+01 0.33358557559E+01 0.35634274704E+01 0.40231367362E+01 0.47371614136E+01
 0.57246773223E+01 0.69808311694E+01 0.84514193453E+01 0.10017034920E+02 0.11444410372E+02
 0.12274549318E+02 0.12192749279E+02 0.11286806351E+02 0.10048431627E+02 0.91403161495E+01
 0.90388049490E+01 0.97613641262E+01 0.10855730774E+02 0.11663780989E+02 0.11439913735E+02
 0.11827326333E+02 0.11097915074E+02 0.96873869491E+01 0.81476139804E+01 0.67224238666E+01
 0.55228051325E+01 0.45934726967E+01 0.39347041028E+01 0.35281054729E+01 0.33565908700E+01
 0.34138156571E+01 0.37057728763E+01 0.42497484135E+01 0.50694288212E+01 0.61794524619E+01
 0.75584768668E+01 0.91217453570E+01 0.10696422479E+02 0.11835738202E+02 0.11991799308E+02
 0.10975742912E+02 0.91404310748E+01 0.72810713985E+01 0.62667368025E+01 0.65848373195E+01
 0.80686908312E+01 0.99863399233E+01 0.91384361757E+01 0.11199227018E+02 0.11883213202E+02
 0.11212973580E+02 0.97493949521E+01 0.81476139804E+01 0.66827086301E+01 0.54671711101E+01
 0.45417843038E+01 0.39022559371E+01 0.35277619997E+01 0.34012556090E+01 0.35178536124E+01
 0.38859222820E+01 0.45255156721E+01 0.54602626441E+01 0.66957784540E+01 0.81876483162E+01
 0.98140520825E+01 0.11267721213E+02 0.11882830315E+02 0.11135015258E+02 0.90388696940E+01
 0.62668300121E+01 0.39202593330E+01 0.30190842325E+01 0.39740005616E+01 0.63596023901E+01
 0.49719034539E+01 0.85240361348E+01 0.11047363049E+02 0.11897052019E+02 0.11212973580E+02
 0.96873869491E+01 0.80447572870E+01 0.65657969910E+01 0.53592279683E+01 0.44591725098E+01
 0.38561645883E+01 0.35276082272E+01 0.34574011783E+01 0.36429204129E+01 0.40955876969E+01
 0.48379986379E+01 0.58912849710E+01 0.72473015309E+01 0.88332331065E+01 0.10473523701E+02
 0.11634276137E+02 0.11537808193E+02 0.97613091294E+01 0.65848871374E+01 0.30191168381E+01
 0.42860264923E+00 -.10667542668E+00 0.16525179444E+01 0.50839287286E-01 0.41948733631E+01
 0.82999981715E+01 0.11047363049E+02 0.11883213202E+02 0.11097915074E+02 0.95040138700E+01
 0.78442785022E+01 0.63782246708E+01 0.52052759483E+01 0.43504717928E+01 0.37990706479E+01
 0.35276748007E+01 0.35221241202E+01 0.37828522454E+01 0.43247493114E+01 0.51720477744E+01
 0.63404501018E+01 0.78040399897E+01 0.94586513592E+01 0.11028291999E+02 0.11756910212E+02
 0.10855654240E+02 0.80686831610E+01 0.39740117074E+01 -.10673068159E+00 -.26327830309E+01
 -.25758813278E+01 -.39387047331E+01 -.52069419136E+00 0.41948733631E+01 0.85240361348E+01
 0.11199227018E+02 0.11827326333E+02 0.10863006881E+02 0.92073524355E+01 0.75565022377E+01
 0.61303731687E+01 0.50139970416E+01 0.42216721970E+01 0.37339421641E+01 0.35278357038E+01
 0.35920896653E+01 0.39307736390E+01 0.45621604403E+01 0.55106168092E+01 0.67836056612E+01
 0.83350368764E+01 0.10028310408E+02 0.11435697645E+02 0.11663751283E+02 0.99863267700E+01
 0.63596549935E+01 0.16524773541E+01 -.25760243406E+01 -.47280855616E+01 -.39383816741E+01
 -.28283404880E+01 0.64642549633E+00 0.51366527920E+01 0.90531559850E+01 0.11279453871E+02
 0.11557151510E+02 0.10410228931E+02 0.87274496375E+01 0.71046992647E+01 0.57258610625E+01
 0.46631443217E+01 0.39222622658E+01 0.34792014738E+01 0.33094070867E+01 0.34020682398E+01
 0.37635300189E+01 0.44153898297E+01 0.53839321598E+01 0.66743630205E+01 0.82336054555E+01
 0.99144484086E+01 0.11252821551E+02 0.11368116602E+02 0.96099211144E+01 0.60337824691E+01
 0.15726954451E+01 -.22411740320E+01 -.28285190095E+01 -.39384176662E+01 -.22410778652E+01
 0.15727214618E+01 0.60337492435E+01 0.96100045429E+01 0.11368284915E+02 0.11252893443E+02
 0.99144513043E+01 0.82337060316E+01 0.66745134620E+01 0.53839481269E+01 0.44153072635E+01
 0.37635310451E+01 0.34021312754E+01 0.33093775754E+01 0.34791212020E+01 0.39222795844E+01
 0.46631905241E+01 0.57257642783E+01 0.71045220907E+01 0.87273691944E+01 0.10410193496E+02
 0.11557008835E+02 0.11279297475E+02 0.90531718748E+01 0.51367392545E+01 0.64634871653E+00
 0.76716271407E+00 -.21086609357E+01 -.25756562568E+01 -.46225863720E+00 0.33547829619E+01
 0.74013871790E+01 0.10315507324E+02 0.11412566198E+02 0.10843389184E+02 0.93428382924E+01
 0.76985381547E+01 0.62261677744E+01 0.50413032608E+01 0.41772295720E+01 0.36196100273E+01
 0.33415499965E+01 0.33253257269E+01 0.35695256053E+01 0.40888783879E+01 0.49089716447E+01
 0.60496764331E+01 0.74945787835E+01 0.91555870934E+01 0.10810940909E+02 0.11784690214E+02
 0.11244031576E+02 0.88123197953E+01 0.49168839727E+01 0.54344703760E+01 0.19171356765E+01
 -.21708360482E+00 -.10652984584E+00 0.21698885566E+01 0.56401832840E+01 0.89413678935E+01
 0.10969483336E+02 0.11318206321E+02 0.10318179413E+02 0.87277081575E+01 0.71481135756E+01
 0.57820300959E+01 0.47143551131E+01 0.39594929402E+01 0.34964170112E+01 0.32998265801E+01
 0.33565211056E+01 0.36692408378E+01 0.42553551408E+01 0.51401914197E+01 0.63385138108E+01
 0.78239219723E+01 0.94967263385E+01 0.11107734266E+02 0.11963974559E+02 0.11329577214E+02
 0.89728824506E+01 0.95133459558E+01 0.65873680776E+01 0.38737939675E+01 0.24935040939E+01
 0.30191348755E+01 0.51777543931E+01 0.80037587376E+01 0.10341893442E+02 0.11396021392E+02
 0.11028675402E+02 0.96985242610E+01 0.81003662080E+01 0.66095416774E+01 0.53636629956E+01
 0.44180148770E+01 0.37712814001E+01 0.33988801162E+01 0.32785726228E+01 0.34014452322E+01
 0.37733522503E+01 0.44130068983E+01 0.53441797003E+01 0.65761117398E+01 0.80742512278E+01
 0.97323253802E+01 0.11294007021E+02 0.12105446234E+02 0.11548101967E+02 0.11850823655E+02
 0.10310626488E+02 0.81380027594E+01 0.62664106268E+01 0.55396919838E+01 0.62666867634E+01
 0.80590684716E+01 0.10050570689E+02 0.11355440279E+02 0.11491393055E+02 0.10546201122E+02
 0.90392623197E+01 0.74914655595E+01 0.61092278300E+01 0.49905523469E+01 0.41650753143E+01
 0.36202646563E+01 0.33309522694E+01 0.32786108767E+01 0.34577974085E+01 0.38763011664E+01
 0.45529773372E+01 0.55090547387E+01 0.67483895455E+01 0.82305834113E+01 0.98477094367E+01
 0.11359860166E+02 0.12193713509E+02 0.12190626232E+02 0.12142321021E+02 0.11174230862E+02
 0.97749131928E+01 0.86672853716E+01 0.84221454584E+01 0.91401819434E+01 0.10400492492E+02
 0.11503924972E+02 0.11853982315E+02 0.11248566261E+02 0.99339525418E+01 0.83968096205E+01
 0.69317588576E+01 0.56709796053E+01 0.46790145813E+01 0.39658310892E+01 0.35125311860E+01
 0.32955515249E+01 0.32999234101E+01 0.35226255749E+01 0.39723319169E+01 0.46670404918E+01
 0.56247648062E+01 0.68444880854E+01 0.82823438491E+01 0.98331297463E+01 0.11291336852E+02
 0.11075344924E+02 0.12049096595E+02 0.12310254885E+02 0.11898601824E+02 0.11191002779E+02
 0.10692271691E+02 0.10736536674E+02 0.11286525663E+02 0.11958875972E+02 0.12254934485E+02
 0.11847582589E+02 0.10752764622E+02 0.92959826172E+01 0.78084065861E+01 0.64494263148E+01
 0.53144139110E+01 0.44415832239E+01 0.38279863731E+01 0.34525601986E+01 0.32944712933E+01
 0.33416530701E+01 0.35925801059E+01 0.40560361970E+01 0.47483926854E+01 0.56840361203E+01
 0.68577622903E+01 0.82244208463E+01 0.96852067154E+01 0.94083362892E+01 0.10708387003E+02
 0.11732644923E+02 0.12260958989E+02 0.12318059148E+02 0.12156274307E+02 0.12082872197E+02
 0.12250968894E+02 0.12553668772E+02 0.12691288633E+02 0.12364301686E+02 0.11465310514E+02
 0.10152071323E+02 0.87085031782E+01 0.73080928879E+01 0.60678336935E+01 0.50541364279E+01
 0.42870014346E+01 0.37568054375E+01 0.34432122415E+01 0.33283019035E+01 0.34021650764E+01
 0.36641979612E+01 0.41228281667E+01 0.47922549661E+01 0.56830214282E+01 0.67864424678E+01
 0.80580020251E+01 0.77910275487E+01 0.90156060751E+01 0.10205450629E+02 0.11233701713E+02
 0.11949687494E+02 0.12348496006E+02 0.12565444578E+02 0.12749317583E+02 0.12932653786E+02
 0.12993003611E+02 0.12732937845E+02 0.12022797487E+02 0.10908855077E+02 0.95857927675E+01
 0.82152278885E+01 0.69247115930E+01 0.58043415625E+01 0.48998283376E+01 0.42206758052E+01
 0.37553429012E+01 0.34856799885E+01 0.33963434700E+01 0.34790975666E+01 0.37341013230E+01
 0.41692333085E+01 0.47961769136E+01 0.56215503748E+01 0.66338774120E+01 0.64083847252E+01
 0.74381202363E+01 0.85287626751E+01 0.96020977779E+01 0.10584020170E+02 0.11396271813E+02
 0.12004754835E+02 0.12449697583E+02 0.12767659554E+02 0.12923917661E+02 0.12814193580E+02
 0.12337476272E+02 0.11487458431E+02 0.10372764819E+02 0.91192563347E+01 0.78529701259E+01
 0.66799771606E+01 0.56702795663E+01 0.48569729237E+01 0.42452476729E+01 0.38245517750E+01
 0.35793273183E+01 0.34964548359E+01 0.35693296141E+01 0.37990615348E+01 0.41929768772E+01
 0.47600518773E+01 0.55030205503E+01 0.53340587867E+01 0.61227723717E+01 0.70198559043E+01
 0.79769053812E+01 0.89380462024E+01 0.98524457274E+01 0.10681867168E+02 0.11390697965E+02
 0.11953518295E+02 0.12338266635E+02 0.12482132519E+02 0.12312320525E+02 0.11800406263E+02
 0.10984775445E+02 0.99473975877E+01 0.87986670062E+01 0.76492971833E+01 0.65879476029E+01
 0.56716831802E+01 0.49276911781E+01 0.43609149878E+01 0.39631337687E+01 0.37213936233E+01
 0.36248364339E+01 0.36688890598E+01 0.38559846010E+01 0.41929463410E+01 0.46859445913E+01
 0.45778609103E+01 0.51240771786E+01 0.57935502342E+01 0.65612782860E+01 0.73938920390E+01
 0.82547801481E+01 0.91092348766E+01 0.99251740697E+01 0.10667132100E+02 0.11287274820E+02
 0.11722339602E+02 0.11903785351E+02 0.11779633962E+02 0.11337111791E+02 0.10613117206E+02
 0.96865476323E+01 0.86570448497E+01 0.76211156423E+01 0.66553455886E+01 0.58100866368E+01
 0.51111395087E+01 0.45652740125E+01 0.41671275251E+01 0.39066427373E+01 0.37758572532E+01
 0.37729283061E+01 0.39019360169E+01 0.41691350599E+01 0.41226448331E+01 0.44415444550E+01
 0.48847615870E+01 0.54398026284E+01 0.60897196755E+01 0.68148688240E+01 0.75938782454E+01
 0.84029268357E+01 0.92122132600E+01 0.99800717602E+01 0.10648597920E+02 0.11146680028E+02
 0.11403573237E+02 0.11369356545E+02 0.11032884779E+02 0.10428005830E+02 0.96249826895E+01
 0.87118088178E+01 0.77742550518E+01 0.68819457133E+01 0.60827037957E+01 0.54031465484E+01
 0.48526701010E+01 0.44293698159E+01 0.41271321497E+01 0.39421044995E+01 0.38759112190E+01
 0.39342962434E+01 0.39510433532E+01 0.40557506225E+01 0.42842885607E+01 0.46294366656E+01
 0.50817325873E+01 0.56322414638E+01 0.62726907595E+01 0.69927383935E+01 0.77754416362E+01
 0.85919843968E+01 0.93970135654E+01 0.10127390581E+02 0.10707931300E+02 0.11065389344E+02
 0.11147065651E+02 0.10936528700E+02 0.10459224004E+02 0.97753825735E+01 0.89637455142E+01
 0.81034098786E+01 0.72604178969E+01 0.64817013505E+01 0.57951373400E+01 0.52132762602E+01
 0.47390670632E+01 0.43722983499E+01 0.41147788108E+01 0.39720494624E+01 0.40558757191E+01
 0.39510633183E+01 0.39719488234E+01 0.41146614385E+01 0.43722335082E+01 0.47390249414E+01
 0.52132202327E+01 0.57950808696E+01 0.64816557319E+01 0.72603684134E+01 0.81033637765E+01
 0.89637335352E+01 0.97754000450E+01 0.10459232450E+02 0.10936519187E+02 0.11147060813E+02
 0.11065388505E+02 0.10707916902E+02 0.10127380400E+02 0.93970427028E+01 0.85920462478E+01
 0.77755063273E+01 0.69928079726E+01 0.62727724777E+01 0.56322997199E+01 0.50817454920E+01
 0.46294652158E+01 0.42843954028E+01 0.44415963371E+01 0.41227598835E+01 0.39343519290E+01
 0.38758677473E+01 0.39420292182E+01 0.41270733784E+01 0.44293144979E+01 0.48526155605E+01
 0.54031145762E+01 0.60826852216E+01 0.68819130915E+01 0.77742231306E+01 0.87118102366E+01
 0.96250002130E+01 0.10427998759E+02 0.11032860454E+02 0.11369347830E+02 0.11403574061E+02
 0.11146671800E+02 0.10648605816E+02 0.99801249733E+01 0.92122872379E+01 0.84029925925E+01
 0.75939593774E+01 0.68149746832E+01 0.60897822381E+01 0.54397740875E+01 0.48847202933E+01
 0.51239643007E+01 0.45778454912E+01 0.41692177975E+01 0.39020147078E+01 0.37729559322E+01
 0.37758551832E+01 0.39066150378E+01 0.41670700533E+01 0.45652259279E+01 0.51111340814E+01
 0.58100912414E+01 0.66553242846E+01 0.76210982041E+01 0.86570629487E+01 0.96865644661E+01
 0.10613093797E+02 0.11337080023E+02 0.11779633580E+02 0.11903796130E+02 0.11722343437E+02
 0.11287309189E+02 0.10667212584E+02 0.99252464460E+01 0.91092755240E+01 0.82548505329E+01
 0.73940111922E+01 0.65613418510E+01 0.57934802163E+01 0.61226747402E+01 0.53339085576E+01
 0.46858843906E+01 0.41929898233E+01 0.38560660472E+01 0.36689743258E+01 0.36249006555E+01
 0.37213925012E+01 0.39630779883E+01 0.43608844753E+01 0.49277156627E+01 0.56717018891E+01
 0.65879315025E+01 0.76493004741E+01 0.87987101909E+01 0.99474173709E+01 0.10984743352E+02
 0.11800381331E+02 0.12312335639E+02 0.12482147299E+02 0.12338276366E+02 0.11953579613E+02
 0.11390800007E+02 0.10681916369E+02 0.98524322123E+01 0.89380784692E+01 0.79770130095E+01
 0.70199071341E+01 0.74381377859E+01 0.64082813249E+01 0.55028859326E+01 0.47599856784E+01
 0.41929826837E+01 0.37991221338E+01 0.35694377817E+01 0.34965466883E+01 0.35793272988E+01
 0.38244996736E+01 0.42452487592E+01 0.48570269079E+01 0.56703002704E+01 0.66799648580E+01
 0.78530048341E+01 0.91193308428E+01 0.10372789629E+02 0.11487428229E+02 0.12337469892E+02
 0.12814217510E+02 0.12923914730E+02 0.12767658633E+02 0.12449776528E+02 0.12004863193E+02
 0.11396277564E+02 0.10583935873E+02 0.96020708410E+01 0.85288255081E+01 0.90155966351E+01
 0.77909918458E+01 0.66337898479E+01 0.56214764629E+01 0.47961339599E+01 0.41692032593E+01
 0.37341225287E+01 0.34791904224E+01 0.33964157916E+01 0.34856555799E+01 0.37553020700E+01
 0.42207202448E+01 0.48999038555E+01 0.58043530266E+01 0.69247086504E+01 0.82153030200E+01
 0.95858942348E+01 0.10908879850E+02 0.12022776515E+02 0.12732952911E+02 0.12993017982E+02
 0.12932607156E+02 0.12749288667E+02 0.12565524245E+02 0.12348589096E+02 0.11949641421E+02
 0.11233556019E+02 0.10205362668E+02 0.10708261177E+02 0.94082478982E+01 0.80579085042E+01
 0.67863874430E+01 0.56830262173E+01 0.47922397757E+01 0.41227630732E+01 0.36641761347E+01
 0.34022195129E+01 0.33283235137E+01 0.34431564549E+01 0.37567916293E+01 0.42870929958E+01
 0.50542181383E+01 0.60678304329E+01 0.73081103897E+01 0.87086183963E+01 0.10152180029E+02
 0.11465322096E+02 0.12364292322E+02 0.12691321352E+02 0.12553657213E+02 0.12250867834E+02
 0.12082809837E+02 0.12156335179E+02 0.12318113930E+02 0.12260869736E+02 0.11732475513E+02
 0.12048957027E+02 0.11075221972E+02 0.96850594436E+01 0.82242884517E+01 0.68577518204E+01
 0.56841081693E+01 0.47483886941E+01 0.40559423372E+01 0.35925317581E+01 0.33416695254E+01
 0.32944388199E+01 0.34524893041E+01 0.38280176753E+01 0.44417131328E+01 0.53144830819E+01
 0.64494116006E+01 0.78084555333E+01 0.92961225166E+01 0.10752848183E+02 0.11847565437E+02
 0.12254937443E+02 0.11958923273E+02 0.11286489712E+02 0.10736401409E+02 0.10692190559E+02
 0.11191028106E+02 0.11898598744E+02 0.12310144829E+02 0.12142218059E+02 0.12190564318E+02
 0.11291256837E+02 0.98329631577E+01 0.82822124150E+01 0.68445306794E+01 0.56248745758E+01
 0.46670265497E+01 0.39722280471E+01 0.35225824987E+01 0.32999195866E+01 0.32954843596E+01
 0.35124748818E+01 0.39659170190E+01 0.46791602654E+01 0.56710193669E+01 0.69317430480E+01
 0.83968930377E+01 0.99340867434E+01 0.11248590390E+02 0.11853927955E+02 0.11503942813E+02
 0.10400556224E+02 0.91401460756E+01 0.84220263359E+01 0.86672170407E+01 0.97748929079E+01
 0.11174159475E+02 0.10310491989E+02 0.11850753613E+02 0.12193751819E+02 0.11359843739E+02
 0.98475665887E+01 0.82304995143E+01 0.67484878463E+01 0.55091692962E+01 0.45529434719E+01
 0.38762169358E+01 0.34577911489E+01 0.32786056894E+01 0.33308775176E+01 0.36202496419E+01
 0.41652074675E+01 0.49906808921E+01 0.61092275522E+01 0.74914602565E+01 0.90393691687E+01
 0.10546291986E+02 0.11491336825E+02 0.11355355007E+02 0.10050606455E+02 0.80591499190E+01
 0.62666851704E+01 0.55396478989E+01 0.62663885290E+01 0.81379357591E+01 0.65872630791E+01
 0.95131739203E+01 0.11548084619E+02 0.12105574409E+02 0.11294047170E+02 0.97322373155E+01
 0.80742491776E+01 0.65762567993E+01 0.53442721388E+01 0.44129587565E+01 0.37733157692E+01
 0.34014885273E+01 0.32785716260E+01 0.33988183393E+01 0.37713180411E+01 0.44181651271E+01
 0.53637396358E+01 0.66094993883E+01 0.81003770305E+01 0.96986291127E+01 0.11028691892E+02
 0.11395890518E+02 0.10341799141E+02 0.80038090554E+01 0.51778420685E+01 0.30191868606E+01
 0.24935703801E+01 0.38738341835E+01 0.19172256421E+01 0.54343456085E+01 0.89727168320E+01
 0.11329623970E+02 0.11964155407E+02 0.11107802736E+02 0.94967045891E+01 0.78240093210E+01
 0.63386808705E+01 0.51402436015E+01 0.42553070666E+01 0.36692629563E+01 0.33565979280E+01
 0.32998187087E+01 0.34963765438E+01 0.39595712986E+01 0.47144831716E+01 0.57820293035E+01
 0.71480360579E+01 0.87277301667E+01 0.10318249402E+02 0.11318137982E+02 0.10969313579E+02
 0.89412945890E+01 0.56402323820E+01 0.21699514424E+01 -.10643822668E+00 -.21691838093E+00
 -.21084527711E+01 0.76726634137E+00 0.49167648274E+01 0.88122106735E+01 0.11244141774E+02
 0.11784874550E+02 0.10811004270E+02 0.91556252626E+01 0.74947330250E+01 0.60498279350E+01
 0.49089743065E+01 0.40888429813E+01 0.35695924200E+01 0.33253981432E+01 0.33415180090E+01
 0.36195904274E+01 0.41773247337E+01 0.50413705224E+01 0.62260832352E+01 0.76984395068E+01
 0.93428568127E+01 0.10843395317E+02 0.11412429280E+02 0.10315353991E+02 0.74013611206E+01
 0.33548054338E+01 -.46226173344E+00 -.25755686878E+01 0.51732492892E-01 0.76784501675E+00
 0.34411994812E+01 0.69886131839E+01 0.10072350378E+02 0.11723181000E+02 0.11702495554E+02
 0.10462497929E+02 0.87851815455E+01 0.71756690116E+01 0.58002629875E+01 0.47290773153E+01
 0.39689555422E+01 0.34968267756E+01 0.32875955849E+01 0.33284087622E+01 0.36225277989E+01
 0.41887410154E+01 0.50537016952E+01 0.62300061621E+01 0.76820820825E+01 0.92947234084E+01
 0.10774658683E+02 0.11403242601E+02 0.10530118411E+02 0.80625407462E+01 0.46651282369E+01
 0.15731932365E+01 0.64695528003E+00 -.51969569623E+00 0.64705742015E+00 0.36555801539E+01
 0.72874447900E+01 0.10206663298E+02 0.11562514571E+02 0.11273992713E+02 0.99068213382E+01
 0.82478966655E+01 0.67057194635E+01 0.54208186450E+01 0.44470328956E+01 0.37809743841E+01
 0.33966130301E+01 0.32711894417E+01 0.33965129320E+01 0.37809421898E+01 0.44470716419E+01
 0.54207687748E+01 0.67055942257E+01 0.82478774839E+01 0.99069125069E+01 0.11274013579E+02
 0.11562441404E+02 0.10206648900E+02 0.72874956511E+01 0.36555475455E+01 0.34411466893E+01
 0.76776499198E+00 0.51775979665E-01 0.15732839569E+01 0.46651186261E+01 0.80625020625E+01