unknown system                          
   1.00000000000000     
    -2.450000    2.450000    1.274000
     2.450000   -2.450000    1.274000
     2.450000    2.450000   -1.274000
   Si
     2
Direct
  0.250000  0.750000  0.500000
  0.000000  0.000000  0.000000
 
   32   32   32
 -5.3487     -4.1731     -1.0165      3.1663      7.2178      10.191      11.618      11.564      10.492      9.0270    
  7.5828      6.3040      5.2633      4.4823      3.9500      3.6437      3.5440      3.6437      3.9499      4.4822    
  5.2633      6.3039      7.5828      9.0270      10.492      11.564      11.618      10.191      7.2178      3.1663    
 -1.0166     -4.1731     -4.1731     -4.7806     -3.1120     0.30516      4.4472      8.1960      10.723      11.703    
  11.316      10.083      8.6057      7.2003      5.9845      5.0159      4.3054      3.8377      3.5897      3.5443    
  3.6973      4.0594      4.6518      5.4959      6.5969      7.9227      9.3877      10.816      11.720      11.496    
  9.7572      6.5551      2.4725     -1.4796     -1.0166     -3.1120     -3.1561     -1.1400      2.2941      6.1208    
  9.3257      11.240      11.691      10.962      9.6028      8.1407      6.7915      5.6520      4.7639      4.1289    
  3.7276      3.5377      3.5447      3.7483      4.1617      4.8070      5.7033      6.8498      8.2052      9.6731    
  11.047      11.807      11.395      9.5149      6.3209      2.4725      3.1663     0.30513     -1.1400     -.70224    
  1.4682      4.6699      7.9413      10.423      11.629      11.536      10.504      9.0755      7.6503      6.3731    
  5.3201      4.5179      3.9594      3.6235      3.4892      3.5453      3.7943      4.2520      4.9404      5.8759    
  7.0513      8.4172      9.8708      11.184      11.845      11.357      9.5149      6.5551      7.2178      4.4472    
  2.2941      1.4682      2.2479      4.3630      7.1130      9.6560      11.320      11.805      11.217      9.9607    
  8.5225      7.1540      5.9619      5.0018      4.2865      3.8031      3.5292      3.4460      3.5455      3.8332    
  4.3264      5.0462      6.0054      7.1913      8.5487      9.9719      11.230      11.845      11.395      9.7572    
  10.191      8.1960      6.1208      4.6699      4.3630      5.3136      7.1813      9.3221      11.052      11.897    
  11.728      10.749      9.3739      7.9659      6.6716      5.5735      4.7085      4.0781      3.6651      3.4475    
  3.4091      3.5451      3.8636      4.3818      5.1194      6.0857      7.2632      8.5934      9.9719      11.184    
  11.807      11.496      11.618      10.723      9.3257      7.9413      7.1130      7.1814      8.1335      9.6105    
  11.066      11.993      12.103      11.410      10.179      8.7818      7.4287      6.2221      5.2222      4.4501    
  3.8990      3.5495      3.3809      3.3800      3.5446      3.8841      4.4158      5.1569      6.1129      7.2632    
  8.5487      9.8708      11.047      11.720      11.564      11.703      11.240      10.423      9.6560      9.3221    
  9.6105      10.427      11.437      12.218      12.434      11.961      10.913      9.5787      8.2124      6.9339    
  5.8227      4.9200      4.2346      3.7546      3.4598      3.3317      3.3597      3.5440      3.8945      4.4273    
  5.1569      6.0857      7.1913      8.4172      9.6731      10.816      10.492      11.316      11.691      11.629    
  11.320      11.052      11.066      11.437      12.032      12.573      12.766      12.426      11.556      10.334    
  9.0012      7.6933      6.5021      5.4876      4.6762      4.0682      3.6487      3.3985      3.3014      3.3493    
  3.5437      3.8945      4.4158      5.1194      6.0054      7.0513      8.2052      9.3877      9.0270      10.083    
  10.962      11.536      11.805      11.897      11.993      12.218      12.573      12.921      13.055      12.798    
  12.090      11.018      9.7687      8.4800      7.2491      6.1503      5.2280      4.4978      3.9550      3.5841    
  3.3675      3.2912      3.3493      3.5440      3.8841      4.3818      5.0462      5.8759      6.8498      7.9227    
  7.5828      8.6057      9.6028      10.504      11.217      11.728      12.103      12.434      12.766      13.055    
  13.182      13.015      12.475      11.588      10.478      9.2651      8.0445      6.8999      5.8911      5.0511    
  4.3890      3.8978      3.5625      3.3675      3.3014      3.3597      3.5446      3.8636      4.3264      4.9404    
  5.7033      6.5969      6.3039      7.2003      8.1407      9.0755      9.9607      10.749      11.410      11.961    
  12.426      12.798      13.015      12.990      12.650      11.991      11.081      10.007      8.8575      7.7178    
  6.6597      5.7325      4.9616      4.3525      3.8978      3.5841      3.3985      3.3317      3.3800      3.5451    
  3.8332      4.2520      4.8070      5.4959      5.2633      5.9845      6.7915      7.6503      8.5225      9.3739    
  10.179      10.913      11.556      12.090      12.475      12.650      12.557      12.172      11.520      10.653    
  9.6431      8.5718      7.5158      6.5376      5.6792      4.9616      4.3890      3.9550      3.6487      3.4598    
  3.3809      3.4091      3.5455      3.7943      4.1617      4.6518      4.4822      5.0158      5.6520      6.3731    
  7.1540      7.9659      8.7818      9.5787      10.334      11.018      11.588      11.991      12.172      12.093    
  11.743      11.144      10.345      9.4137      8.4248      7.4475      6.5376      5.7325      5.0511      4.4978    
  4.0682      3.7546      3.5495      3.4475      3.4460      3.5453      3.7483      4.0594      3.9499      4.3054    
  4.7639      5.3202      5.9619      6.6716      7.4287      8.2124      9.0012      9.7687      10.478      11.081    
  11.520      11.743      11.715      11.428      10.902      10.184      9.3355      8.4248      7.5158      6.6597    
  5.8911      5.2280      4.6762      4.2346      3.8990      3.6651      3.5292      3.4892      3.5447      3.6973    
  3.6437      3.8377      4.1289      4.5179      5.0019      5.5736      6.2221      6.9339      7.6933      8.4800    
  9.2651      10.007      10.653      11.144      11.428      11.470      11.262      10.819      10.184      9.4137    
  8.5718      7.7178      6.8999      6.1503      5.4876      4.9200      4.4501      4.0781      3.8031      3.6235    
  3.5377      3.5443      3.5440      3.5898      3.7277      3.9595      4.2866      4.7085      5.2223      5.8227    
  6.5021      7.2491      8.0445      8.8575      9.6431      10.345      10.902      11.262      11.386      11.262    
  10.902      10.345      9.6431      8.8575      8.0445      7.2491      6.5021      5.8227      5.2222      4.7085    
  4.2865      3.9594      3.7276      3.5897      3.6437      3.5444      3.5378      3.6237      3.8032      4.0782    
  4.4501      4.9200      5.4876      6.1503      6.8998      7.7178      8.5718      9.4137      10.184      10.819    
  11.262      11.470      11.428      11.144      10.653      10.007      9.2651      8.4800      7.6933      6.9339    
  6.2221      5.5735      5.0018      4.5179      4.1289      3.8377      3.9500      3.6974      3.5449      3.4894    
  3.5294      3.6652      3.8991      4.2346      4.6762      5.2279      5.8910      6.6597      7.5158      8.4248    
  9.3355      10.184      10.902      11.428      11.715      11.743      11.520      11.081      10.478      9.7687    
  9.0012      8.2124      7.4287      6.6716      5.9619      5.3201      4.7639      4.3054      4.4823      4.0595    
  3.7484      3.5455      3.4462      3.4477      3.5496      3.7546      4.0682      4.4977      5.0510      5.7325    
  6.5376      7.4475      8.4248      9.4137      10.345      11.144      11.743      12.093      12.172      11.991    
  11.588      11.018      10.334      9.5787      8.7818      7.9659      7.1540      6.3731      5.6520      5.0159    
  5.2633      4.6519      4.1618      3.7945      3.5456      3.4093      3.3811      3.4599      3.6487      3.9550    
  4.3890      4.9616      5.6791      6.5376      7.5158      8.5718      9.6431      10.653      11.520      12.172    
  12.557      12.650      12.475      12.090      11.556      10.913      10.179      9.3739      8.5225      7.6503    
  6.7915      5.9845      6.3040      5.4960      4.8071      4.2522      3.8334      3.5453      3.3801      3.3318    
  3.3986      3.5841      3.8977      4.3525      4.9616      5.7325      6.6597      7.7178      8.8575      10.007    
  11.081      11.991      12.650      12.990      13.015      12.798      12.426      11.961      11.410      10.749    
  9.9607      9.0755      8.1407      7.2003      7.5828      6.5969      5.7034      4.9405      4.3266      3.8637    
  3.5447      3.3598      3.3015      3.3675      3.5625      3.8977      4.3890      5.0510      5.8910      6.8998    
  8.0445      9.2651      10.478      11.588      12.475      13.015      13.182      13.055      12.766      12.434    
  12.103      11.728      11.217      10.504      9.6028      8.6057      9.0270      7.9227      6.8499      5.8759    
  5.0463      4.3819      3.8843      3.5441      3.3494      3.2913      3.3675      3.5841      3.9550      4.4977    
  5.2279      6.1503      7.2491      8.4800      9.7687      11.018      12.090      12.798      13.055      12.921    
  12.573      12.218      11.993      11.897      11.805      11.536      10.962      10.083      10.492      9.3877    
  8.2052      7.0513      6.0054      5.1195      4.4159      3.8947      3.5438      3.3494      3.3015      3.3986    
  3.6487      4.0682      4.6762      5.4876      6.5021      7.6933      9.0012      10.334      11.556      12.426    
  12.766      12.573      12.032      11.437      11.066      11.052      11.320      11.629      11.691      11.316    
  11.564      10.816      9.6731      8.4173      7.1913      6.0857      5.1569      4.4274      3.8947      3.5441    
  3.3598      3.3318      3.4599      3.7546      4.2346      4.9200      5.8227      6.9339      8.2124      9.5787    
  10.913      11.961      12.434      12.218      11.437      10.427      9.6105      9.3221      9.6560      10.423    
  11.240      11.703      11.618      11.720      11.047      9.8707      8.5488      7.2632      6.1129      5.1569    
  4.4159      3.8843      3.5447      3.3801      3.3811      3.5496      3.8991      4.4501      5.2223      6.2221    
  7.4287      8.7818      10.179      11.410      12.103      11.993      11.066      9.6105      8.1335      7.1813    
  7.1130      7.9413      9.3257      10.723      10.191      11.496      11.807      11.184      9.9719      8.5934    
  7.2632      6.0857      5.1195      4.3819      3.8637      3.5453      3.4093      3.4477      3.6652      4.0782    
  4.7085      5.5736      6.6716      7.9659      9.3739      10.749      11.728      11.897      11.052      9.3221    
  7.1814      5.3136      4.3630      4.6699      6.1208      8.1960      7.2178      9.7573      11.395      11.845    
  11.230      9.9719      8.5488      7.1913      6.0054      5.0463      4.3266      3.8334      3.5456      3.4462    
  3.5294      3.8032      4.2866      5.0019      5.9619      7.1540      8.5225      9.9607      11.217      11.805    
  11.320      9.6560      7.1130      4.3630      2.2479      1.4682      2.2941      4.4472      3.1663      6.5551    
  9.5149      11.357      11.845      11.184      9.8707      8.4173      7.0513      5.8759      4.9405      4.2522    
  3.7945      3.5455      3.4894      3.6237      3.9595      4.5179      5.3202      6.3731      7.6503      9.0755    
  10.504      11.536      11.629      10.423      7.9413      4.6699      1.4682     -.70224     -1.1400     0.30516    
 -1.0165      2.4726      6.3209      9.5149      11.395      11.807      11.047      9.6731      8.2052      6.8499    
  5.7034      4.8071      4.1618      3.7484      3.5449      3.5378      3.7277      4.1289      4.7639      5.6520    
  6.7915      8.1407      9.6028      10.962      11.691      11.240      9.3257      6.1208      2.2941     -1.1400    
 -3.1561     -3.1120     -4.1731     -1.4795      2.4726      6.5551      9.7573      11.496      11.720      10.816    
  9.3877      7.9227      6.5969      5.4960      4.6519      4.0595      3.6974      3.5444      3.5898      3.8377    
  4.3054      5.0158      5.9845      7.2003      8.6057      10.083      11.316      11.703      10.723      8.1960    
  4.4472     0.30513     -3.1120     -4.7806     -4.1730     -3.3106     -.53171      3.3147      7.1410      10.016    
  11.442      11.432      10.402      8.9509      7.5043      6.2139      5.1565      4.3565      3.8038      3.4751    
  3.3494      3.4176      3.6851      4.1707      4.8982      5.8827      7.1100      8.5173      9.9792      11.153    
  11.445      10.373      7.8178      4.1575     0.24090     -2.8485     -3.3107     -4.1730     -2.8485     0.24099    
  4.1576      7.8178      10.373      11.445      11.153      9.9792      8.5172      7.1100      5.8827      4.8983    
  4.1707      3.6851      3.4176      3.3494      3.4750      3.8037      4.3564      5.1565      6.2139      7.5043    
  8.9509      10.403      11.432      11.442      10.016      7.1410      3.3147     -.53167     -.43741     -2.7462    
 -3.1118     -1.4271      1.7640      5.4927      8.7420      10.792      11.403      10.797      9.4973      8.0487    
  6.6968      5.5457      4.6431      3.9931      3.5769      3.3710      3.3597      3.5413      3.9282      4.5430    
  5.4076      6.5259      7.8638      9.3332      10.755      11.649      11.448      9.8150      6.8376      3.1004    
  3.5531     0.51255     -1.2348     -1.1400     0.75007      3.8133      7.1110      9.7475      11.164      11.265    
  10.358      8.9768      7.5622      6.2803      5.2157      4.4005      3.8300      3.4827      3.3369      3.3800    
  3.6138      4.0537      4.7229      5.6408      6.8052      8.1732      9.6484      11.028      11.818      11.503    
  9.8289      6.9689      7.5204      4.6068      2.1812      1.0102      1.4683      3.3799      6.0975      8.7692    
  10.662      11.392      10.997      9.8450      8.4375      7.0747      5.8758      4.9046      4.1788      3.6867    
  3.4057      3.3162      3.4091      3.6896      4.1752      4.8886      5.8459      7.0389      8.4179      9.8818    
  11.217      11.947      11.623      10.070      10.500      8.4043      6.1037      4.3311      3.6810      4.3630    
  6.1133      8.3113      10.237      11.340      11.410      10.593      9.2864      7.8976      6.6039      5.4976    
  4.6229      3.9851      3.5676      3.3480      3.3092      3.4459      3.7659      4.2877      5.0327      6.0132    
  7.2157      8.5857      10.021      11.315      12.033      11.797      11.987      11.038      9.4769      7.8232    
  6.6665      6.4285      7.1814      8.6185      10.191      11.338      11.694      11.200      10.082      8.7199    
  7.3767      6.1665      5.1586      4.3796      3.8251      3.4760      3.3110      3.3162      3.4891      3.8398    
  4.3866      5.1488      6.1348      7.3265      8.6672      10.058      11.314      12.060      12.006      12.138    
  11.579      10.566      9.5217      8.8863      8.9252      9.6106      10.637      11.559      11.981      11.707    
  10.798      9.5198      8.1717      6.8954      5.7787      4.8699      4.1816      3.7033      3.4144      3.2960    
  3.3369      3.5375      3.9087      4.4679      5.2316      6.2043      7.3651      8.6575      9.9890      11.208    
  10.990      11.847      12.191      12.012      11.502      10.977      10.737      10.919      11.437      12.022    
  12.345      12.167      11.431      10.279      8.9675      7.6667      6.4733      5.4541      4.6404      4.0348    
  3.6228      3.3845      3.3033      3.3710      3.5896      3.9700      4.5279      5.2769      6.2180      7.3289    
  8.5559      9.8154      9.5445      10.663      11.564      12.095      12.245      12.152      12.028      12.052    
  12.270      12.573      12.750      12.588      11.980      10.971      9.7407      8.4598      7.2291      6.1274    
  5.2038      4.4769      3.9428      3.5856      3.3871      3.3331      3.4176      3.6435      4.0211      4.5640    
  5.2823      6.1749      7.2193      8.3668      8.0990      9.1876      10.236      11.153      11.823      12.225    
  12.442      12.597      12.773      12.960      13.055      12.909      12.414      11.561      10.458      9.2473    
  8.0262      6.8798      5.8711      5.0356      4.3837      3.9080      3.5930      3.4224      3.3845      3.4751    
  3.6972      4.0598      4.5739      5.2472      6.0766      7.0415      6.8040      7.7651      8.7606      9.7335    
  10.629      11.378      11.949      12.371      12.697      12.947      13.082      13.015      12.664      11.998    
  11.073      9.9899      8.8347      7.6922      6.6348      5.7136      4.9546      4.3634      3.9315      3.6447    
  3.4894      3.4561      3.5414      3.7483      4.0840      4.5571      5.1730      5.9281      5.7364      6.5186    
  7.3807      8.2823      9.1786      10.029      10.801      11.461      12.001      12.423      12.706      12.802    
  12.650      12.218      11.528      10.635      9.6108      8.5323      7.4763      6.5050      5.6605      4.9633    
  4.4167      4.0129      3.7398      3.5865      3.5454      3.6140      3.7945      4.0923      4.5138      5.0630    
  4.9229      5.5111      6.1986      6.9630      7.7736      8.5959      9.3986      10.156      10.847      11.445    
  11.919      12.228      12.324      12.172      11.764      11.124      10.298      9.3533      8.3612      7.3905    
  6.4961      5.7141      5.0621      4.5430      4.1507      3.8760      3.7108      3.6494      3.6899      3.8335    
  4.0840      4.4463      4.3578      4.7593      5.2626      5.8586      6.5309      7.2568      8.0113      8.7705    
  9.5122      10.212      10.839      11.351      11.701      11.841      11.743      11.401      10.837      10.096    
  9.2393      8.3336      7.4406      6.6098      5.8740      5.2493      4.7397      4.3418      4.0499      3.8587    
  3.7646      3.7661      3.8638      4.0600      4.0213      4.2526      4.5800      5.0023      5.5135      6.1024    
  6.7539      7.4508      8.1755      8.9079      9.6220      10.281      10.840      11.245      11.451      11.428    
  11.170      10.697      10.048      9.2799      8.4537      7.6264      6.8439      6.1366      5.5209      5.0025    
  4.5815      4.2565      4.0254      3.8870      3.8401      3.8845      3.8948      3.9702      4.1358      4.3929    
  4.7412      5.1774      5.6951      6.2856      6.9387      7.6414      8.3758      9.1141      9.8164      10.432    
  10.908      11.195      11.262      11.098      10.720      10.162      9.4756      8.7178      7.9422      7.1917    
  6.4953      5.8699      5.3242      4.8630      4.4895      4.2057      4.0122      3.9089      3.9701      3.8949    
  3.9089      4.0123      4.2056      4.4895      4.8631      5.3242      5.8699      6.4953      7.1917      7.9422    
  8.7178      9.4756      10.162      10.720      11.098      11.261      11.195      10.908      10.432      9.8164    
  9.1141      8.3758      7.6414      6.9386      6.2856      5.6950      5.1773      4.7412      4.3929      4.1357    
  4.2526      4.0213      3.8844      3.8400      3.8870      4.0255      4.2565      4.5816      5.0025      5.5209    
  6.1367      6.8439      7.6264      8.4537      9.2799      10.048      10.697      11.170      11.428      11.451    
  11.245      10.839      10.281      9.6220      8.9079      8.1755      7.4509      6.7539      6.1024      5.5134    
  5.0023      4.5800      4.7594      4.3577      4.0599      3.8638      3.7662      3.7646      3.8587      4.0499    
  4.3419      4.7398      5.2493      5.8739      6.6098      7.4406      8.3336      9.2393      10.096      10.837    
  11.401      11.743      11.841      11.701      11.352      10.839      10.212      9.5122      8.7706      8.0113    
  7.2567      6.5308      5.8586      5.2626      5.5110      4.9229      4.4463      4.0840      3.8335      3.6899    
  3.6494      3.7108      3.8761      4.1507      4.5430      5.0621      5.7141      6.4960      7.3905      8.3612    
  9.3533      10.298      11.124      11.764      12.172      12.324      12.228      11.919      11.445      10.847    
  10.156      9.3986      8.5959      7.7736      6.9631      6.1986      6.5186      5.7364      5.0631      4.5138    
  4.0922      3.7944      3.6140      3.5454      3.5865      3.7398      4.0129      4.4167      4.9633      5.6604    
  6.5049      7.4763      8.5324      9.6108      10.635      11.528      12.218      12.650      12.802      12.706    
  12.423      12.001      11.460      10.801      10.029      9.1787      8.2823      7.3806      7.7651      6.8041    
  5.9281      5.1729      4.5570      4.0840      3.7483      3.5414      3.4561      3.4894      3.6447      3.9314    
  4.3633      4.9546      5.7136      6.6348      7.6922      8.8347      9.9900      11.073      11.998      12.664    
  13.015      13.082      12.947      12.697      12.371      11.949      11.378      10.629      9.7335      8.7607    
  9.1877      8.0990      7.0414      6.0766      5.2472      4.5740      4.0598      3.6972      3.4751      3.3846    
  3.4224      3.5930      3.9080      4.3837      5.0356      5.8710      6.8798      8.0263      9.2473      10.458    
  11.561      12.414      12.909      13.054      12.960      12.772      12.597      12.442      12.225      11.822    
  11.153      10.236      10.663      9.5445      8.3668      7.2193      6.1749      5.2823      4.5640      4.0212    
  3.6435      3.4176      3.3332      3.3872      3.5856      3.9428      4.4768      5.2038      6.1274      7.2291    
  8.4598      9.7407      10.971      11.980      12.588      12.750      12.573      12.270      12.051      12.028    
  12.152      12.245      12.095      11.564      11.847      10.990      9.8155      8.5559      7.3289      6.2180    
  5.2769      4.5280      3.9700      3.5896      3.3711      3.3034      3.3845      3.6227      4.0348      4.6404    
  5.4541      6.4733      7.6667      8.9675      10.279      11.431      12.167      12.345      12.022      11.437    
  10.919      10.737      10.977      11.502      12.012      12.191      12.138      12.006      11.208      9.9890    
  8.6575      7.3651      6.2043      5.2316      4.4679      3.9088      3.5376      3.3370      3.2960      3.4145    
  3.7033      4.1816      4.8698      5.7787      6.8954      8.1717      9.5198      10.798      11.707      11.981    
  11.559      10.637      9.6104      8.9250      8.8862      9.5216      10.566      11.579      11.038      11.987    
  12.060      11.314      10.058      8.6673      7.3265      6.1347      5.1489      4.3867      3.8399      3.4892    
  3.3163      3.3112      3.4761      3.8252      4.3795      5.1586      6.1665      7.3767      8.7199      10.082    
  11.200      11.694      11.338      10.191      8.6183      7.1813      6.4284      6.6663      7.8230      9.4769    
  8.4043      10.500      11.797      12.033      11.315      10.021      8.5856      7.2157      6.0132      5.0328    
  4.2878      3.7660      3.4460      3.3094      3.3481      3.5677      3.9851      4.6229      5.4976      6.6039    
  7.8976      9.2864      10.593      11.409      11.340      10.237      8.3112      6.1132      4.3629      3.6809    
  4.3310      6.1037      4.6067      7.5203      10.070      11.623      11.947      11.217      9.8817      8.4179    
  7.0389      5.8459      4.8887      4.1753      3.6898      3.4092      3.3163      3.4059      3.6868      4.1788    
  4.9046      5.8758      7.0748      8.4375      9.8450      10.997      11.392      10.662      8.7692      6.0973    
  3.3798      1.4682      1.0103      2.1812     0.51252      3.5531      6.9690      9.8290      11.503      11.818    
  11.028      9.6484      8.1731      6.8051      5.6408      4.7231      4.0539      3.6139      3.3801      3.3370    
  3.4829      3.8300      4.4005      5.2157      6.2803      7.5622      8.9768      10.358      11.265      11.164    
  9.7475      7.1109      3.8133     0.75010     -1.1400     -1.2349     -2.7461     -.43729      3.1004      6.8375    
  9.8150      11.449      11.649      10.755      9.3332      7.8638      6.5259      5.4076      4.5431      3.9283    
  3.5415      3.3599      3.3711      3.5769      3.9931      4.6431      5.5457      6.6967      8.0487      9.4974    
  10.797      11.403      10.792      8.7420      5.4928      1.7640     -1.4272     -3.1119     -1.0161     -.43713    
  1.7993      4.9881      8.1869      10.567      11.673      11.501      10.421      8.9730      7.5360      6.2496    
  5.1885      4.3774      3.8074      3.4559      3.3014      3.3330      3.5540      3.9810      4.6370      5.5400    
  6.6842      8.0205      9.4454      10.725      11.347      10.839      9.0206      6.1487      2.9115     0.24116    
 -.53147     -1.4793     -.53144      2.0021      5.3231      8.4675      10.655      11.516      11.140      9.9561    
  8.5100      7.1158      5.8941      4.9074      4.1711      3.6712      3.3844      3.2912      3.3844      3.6712    
  4.1711      4.9075      5.8940      7.1158      8.5100      9.9561      11.140      11.516      10.655      8.4675    
  5.3231      2.0021      1.7993     -.43712     -1.0161     0.24123      2.9116      6.1487      9.0206      10.839    
  11.347      10.725      9.4454      8.0205      6.6842      5.5400      4.6370      3.9810      3.5540      3.3330    
  3.3014      3.4559      3.8075      4.3775      5.1886      6.2496      7.5360      8.9731      10.421      11.502    
  11.673      10.567      8.1869      4.9881      5.2096      2.3403     0.51279     0.30547      1.7642      4.3833    
  7.3192      9.7240      11.037      11.125      10.252      8.9083      7.5214      6.2566      5.2002      4.3867    
  3.8133      3.4594      3.3033      3.3317      3.5452      3.9580      4.5926      5.4699      6.5929      7.9281    
  9.3915      10.826      11.814      11.850      10.635      8.2504      8.6653      5.9622      3.5484      2.1813    
  2.2944      3.8135      6.1907      8.6369      10.431      11.161      10.818      9.7265      8.3624      7.0288    
  5.8475      4.8858      4.1643      3.6730      3.3901      3.2960      3.3810      3.6493      4.1175      4.8084    
  5.7400      6.9092      8.2749      9.7469      11.155      12.080      12.062      10.876      11.267      9.3727    
  7.1346      5.2481      4.3312      4.6701      6.0975      8.0681      9.8910      11.000      11.140      10.409    
  9.1690      7.8234      6.5583      5.4700      4.6066      3.9763      3.5640      3.3479      3.3111      3.4475    
  3.7645      4.2801      5.0162      5.9870      7.1839      8.5596      10.021      11.397      12.289      12.299    
  12.530      11.743      10.260      8.5508      7.1970      6.6665      7.1130      8.3113      9.7603      10.900    
  11.329      10.939      9.9124      8.6100      7.3076      6.1249      5.1356      4.3705      3.8277      3.4890    
  3.3338      3.3481      3.5293      3.8869      4.4395      5.2071      6.1997      7.4034      8.7668      10.197    
  11.535      12.424      12.462      12.706      12.217      11.183      10.002      9.1289      8.8863      9.3221    
  10.191      11.070      11.544      11.372      10.569      9.3679      8.0715      6.8327      5.7427      4.8545    
  4.1840      3.7222      3.4498      3.3480      3.4059      3.6236      4.0122      4.5895      5.3726      6.3674    
  7.5557      8.8845      10.265      11.556      11.451      12.378      12.774      12.592      11.992      11.286    
  10.802      10.737      11.066      11.559      11.889      11.786      11.150      10.083      8.8297      7.5745    
  6.4161      5.4245      4.6349      4.0519      3.6625      3.4474      3.3903      3.4830      3.7277      4.1358    
  4.7236      5.5048      6.4814      7.6321      8.9047      10.216      10.052      11.216      12.153      12.688    
  12.783      12.559      12.239      12.037      12.051      12.218      12.345      12.210      11.671      10.737    
  9.5635      8.3308      7.1410      6.0738      5.1808      4.4830      3.9778      3.6502      3.4821      3.4597    
  3.5771      3.8378      4.2527      4.8357      5.5971      6.5353      7.6277      8.8248      8.6481      9.7789    
  10.858      11.783      12.421      12.737      12.807      12.771      12.749      12.773      12.766      12.588    
  12.115      11.307      10.247      9.0778      7.8986      6.7913      5.8192      5.0194      4.4032      3.9637    
  3.6857      3.5531      3.5543      3.6853      3.9499      4.3578      4.9202      5.6443      6.5257      7.5420    
  7.3790      8.3830      9.4098      10.396      11.279      11.974      12.441      12.715      12.867      12.948    
  12.947      12.798      12.414      11.749      10.839      9.7818      8.6618      7.5584      6.5417      5.6620    
  4.9457      4.3980      4.0105      3.7687      3.6588      3.6715      3.8039      4.0596      4.4464      4.9729    
  5.6436      6.4527      6.3198      7.1469      8.0428      8.9623      9.8548      10.674      11.378      11.929    
  12.327      12.593      12.728      12.706      12.475      11.998      11.285      10.395      9.3913      8.3456    