unknown system                          
   1.00000000000000     
    -2.437147    2.437147    1.291324
     2.437147   -2.437147    1.291324
     2.437147    2.437147   -1.291324
   Si
     2
Direct
  0.250000  0.750000  0.500000
  0.000000  0.000000  0.000000
 
   32   32   32
 -5.3525     -4.1758     -1.0162      3.1709      7.2265      10.202      11.630      11.574      10.500      9.0305    
  7.5825      6.3008      5.2581      4.4756      3.9423      3.6353      3.5355      3.6353      3.9422      4.4755    
  5.2580      6.3008      7.5825      9.0305      10.500      11.574      11.630      10.202      7.2265      3.1709    
 -1.0162     -4.1758     -4.1758     -4.7854     -3.1167     0.30241      4.4476      8.1998      10.729      11.710    
  11.323      10.088      8.6077      7.1996      5.9815      5.0111      4.2993      3.8305      3.5816      3.5358    
  3.6888      4.0514      4.6447      5.4903      6.5936      7.9231      9.3927      10.826      11.735      11.512    
  9.7726      6.5669      2.4792     -1.4782     -1.0162     -3.1168     -3.1640     -1.1489      2.2862      6.1153    
  9.3233      11.240      11.694      10.965      9.6053      8.1416      6.7906      5.6493      4.7597      4.1233    
  3.7208      3.5298      3.5362      3.7396      4.1533      4.7995      5.6974      6.8467      8.2062      9.6797    
  11.059      11.824      11.414      9.5323      6.3338      2.4792      3.1709     0.30240     -1.1489     -.71537    
  1.4530      4.6550      7.9286      10.414      11.624      11.534      10.504      9.0764      7.6506      6.3723    
  5.3179      4.5142      3.9544      3.6171      3.4816      3.5368      3.7855      4.2434      4.9326      5.8697    
  7.0482      8.4190      9.8785      11.198      11.863      11.377      9.5323      6.5669      7.2265      4.4476    
  2.2862      1.4530      2.2276      4.3400      7.0901      9.6358      11.305      11.795      11.212      9.9590    
  8.5225      7.1542      5.9614      5.0002      4.2835      3.7986      3.5231      3.4385      3.5370      3.8243    
  4.3176      5.0382      5.9992      7.1884      8.5509      9.9803      11.245      11.863      11.414      9.7726    
  10.202      8.1998      6.1153      4.6550      4.3400      5.2848      7.1499      9.2914      11.025      11.877    
  11.714      10.742      9.3712      7.9655      6.6719      5.5734      4.7074      4.0757      3.6610      3.4417    
  3.4018      3.5367      3.8545      4.3728      5.1112      6.0793      7.2603      8.5957      9.9803      11.198    
  11.824      11.512      11.630      10.729      9.3233      7.9286      7.0901      7.1499      8.0964      9.5714    
  11.029      11.961      12.080      11.395      10.171      8.7790      7.4285      6.2227      5.2227      4.4496    
  3.8971      3.5458      3.3754      3.3728      3.5362      3.8751      4.4068      5.1486      6.1066      7.2603    
  8.5509      9.8785      11.059      11.735      11.574      11.710      11.240      10.414      9.6358      9.2914    
  9.5714      10.383      11.393      12.177      12.401      11.936      10.898      9.5713      8.2099      6.9341    
  5.8238      4.9209      4.2346      3.7531      3.4565      3.3264      3.3526      3.5356      3.8855      4.4183    
  5.1486      6.0793      7.1884      8.4190      9.6797      10.826      10.500      11.323      11.694      11.624    
  11.305      11.025      11.029      11.393      11.984      12.526      12.724      12.393      11.533      10.320    
  8.9946      7.6914      6.5028      5.4892      4.6776      4.0686      3.6476      3.3954      3.2962      3.3422    
  3.5354      3.8855      4.4068      5.1112      5.9992      7.0482      8.2062      9.3927      9.0305      10.088    
  10.965      11.534      11.795      11.877      11.961      12.177      12.526      12.872      13.008      12.758    
  12.059      10.997      9.7565      8.4744      7.2478      6.1514      5.2299      4.4995      3.9557      3.5832    
  3.3644      3.2860      3.3422      3.5356      3.8751      4.3728      5.0382      5.8697      6.8467      7.9231    
  7.5825      8.6077      9.6053      10.504      11.212      11.714      12.080      12.401      12.724      13.008    
  13.136      12.972      12.439      11.561      10.460      9.2545      8.0398      6.8990      5.8924      5.0533    
  4.3910      3.8987      3.5616      3.3644      3.2962      3.3526      3.5362      3.8545      4.3176      4.9326    
  5.6974      6.5936      6.3008      7.1996      8.1416      9.0764      9.9590      10.742      11.395      11.936    
  12.393      12.758      12.972      12.947      12.612      11.959      11.057      9.9910      8.8481      7.7137    
  6.6592      5.7340      4.9639      4.3546      3.8987      3.5832      3.3954      3.3264      3.3728      3.5367    
  3.8243      4.2434      4.7995      5.4903      5.2580      5.9815      6.7906      7.6507      8.5225      9.3712    
  10.171      10.898      11.533      12.059      12.439      12.612      12.519      12.138      11.492      10.631    
  9.6285      8.5631      7.5120      6.5372      5.6808      4.9639      4.3910      3.9557      3.6476      3.4565    
  3.3754      3.4018      3.5370      3.7855      4.1533      4.6447      4.4755      5.0111      5.6493      6.3723    
  7.1542      7.9655      8.7790      9.5713      10.320      10.997      11.561      11.959      12.138      12.059    
  11.713      11.118      10.325      9.3999      8.4165      7.4438      6.5372      5.7340      5.0533      4.4995    
  4.0686      3.7531      3.5458      3.4417      3.4385      3.5368      3.7396      4.0514      3.9422      4.2993    
  4.7597      5.3179      5.9614      6.6719      7.4285      8.2099      8.9946      9.7565      10.460      11.057    
  11.492      11.713      11.685      11.400      10.878      10.165      9.3220      8.4165      7.5120      6.6592    
  5.8924      5.2299      4.6776      4.2346      3.8971      3.6610      3.5231      3.4816      3.5362      3.6888    
  3.6353      3.8305      4.1233      4.5142      5.0002      5.5735      6.2227      6.9341      7.6914      8.4744    
  9.2545      9.9910      10.631      11.118      11.400      11.442      11.235      10.796      10.165      9.3999    
  8.5631      7.7137      6.8990      6.1514      5.4892      4.9209      4.4496      4.0757      3.7986      3.6171    
  3.5298      3.5358      3.5355      3.5817      3.7208      3.9544      4.2836      4.7074      5.2227      5.8238    
  6.5028      7.2478      8.0398      8.8481      9.6285      10.325      10.878      11.235      11.358      11.235    
  10.878      10.325      9.6285      8.8481      8.0398      7.2478      6.5028      5.8238      5.2227      4.7074    
  4.2835      3.9544      3.7208      3.5816      3.6353      3.5358      3.5299      3.6172      3.7986      4.0757    
  4.4496      4.9210      5.4892      6.1514      6.8990      7.7137      8.5631      9.3999      10.165      10.796    
  11.235      11.442      11.400      11.118      10.631      9.9910      9.2545      8.4744      7.6914      6.9341    
  6.2227      5.5734      5.0002      4.5142      4.1233      3.8305      3.9423      3.6888      3.5363      3.4816    
  3.5232      3.6611      3.8971      4.2346      4.6776      5.2299      5.8924      6.6592      7.5120      8.4165    
  9.3220      10.165      10.878      11.400      11.685      11.713      11.492      11.057      10.460      9.7565    
  8.9946      8.2099      7.4285      6.6719      5.9614      5.3179      4.7597      4.2993      4.4756      4.0514    
  3.7396      3.5368      3.4386      3.4418      3.5459      3.7531      4.0686      4.4995      5.0533      5.7340    
  6.5372      7.4438      8.4165      9.3999      10.325      11.118      11.713      12.059      12.138      11.959    
  11.561      10.997      10.320      9.5713      8.7790      7.9655      7.1542      6.3723      5.6493      5.0111    
  5.2581      4.6447      4.1534      3.7856      3.5370      3.4018      3.3754      3.4565      3.6476      3.9557    
  4.3910      4.9639      5.6808      6.5372      7.5120      8.5631      9.6285      10.631      11.492      12.138    
  12.519      12.612      12.439      12.059      11.533      10.898      10.171      9.3712      8.5225      7.6506    
  6.7906      5.9815      6.3008      5.4904      4.7995      4.2434      3.8243      3.5367      3.3728      3.3264    
  3.3954      3.5832      3.8987      4.3546      4.9639      5.7340      6.6592      7.7137      8.8481      9.9910    
  11.057      11.959      12.612      12.947      12.972      12.758      12.393      11.936      11.395      10.742    
  9.9590      9.0764      8.1416      7.1996      7.5825      6.5937      5.6974      4.9326      4.3176      3.8545    
  3.5361      3.3525      3.2961      3.3644      3.5616      3.8987      4.3910      5.0533      5.8924      6.8990    
  8.0398      9.2545      10.460      11.561      12.439      12.972      13.136      13.008      12.724      12.401    
  12.080      11.714      11.212      10.504      9.6053      8.6077      9.0305      7.9231      6.8467      5.8697    
  5.0382      4.3728      3.8750      3.5355      3.3422      3.2860      3.3644      3.5832      3.9557      4.4995    
  5.2299      6.1514      7.2478      8.4744      9.7565      10.997      12.059      12.758      13.008      12.872    
  12.526      12.177      11.961      11.877      11.795      11.534      10.965      10.088      10.500      9.3928    
  8.2063      7.0483      5.9992      5.1112      4.4067      3.8854      3.5353      3.3422      3.2961      3.3954    
  3.6476      4.0686      4.6776      5.4892      6.5028      7.6914      8.9946      10.320      11.533      12.393    
  12.724      12.526      11.984      11.393      11.029      11.025      11.305      11.624      11.694      11.323    
  11.574      10.826      9.6797      8.4190      7.1884      6.0793      5.1486      4.4182      3.8854      3.5355    
  3.3525      3.3264      3.4565      3.7531      4.2346      4.9210      5.8238      6.9341      8.2099      9.5713    
  10.898      11.936      12.401      12.177      11.393      10.383      9.5714      9.2914      9.6358      10.414    
  11.240      11.710      11.630      11.735      11.059      9.8785      8.5509      7.2603      6.1066      5.1486    
  4.4067      3.8750      3.5361      3.3728      3.3754      3.5459      3.8971      4.4496      5.2227      6.2227    
  7.4285      8.7790      10.171      11.395      12.080      11.961      11.029      9.5714      8.0964      7.1499    
  7.0901      7.9286      9.3233      10.729      10.202      11.512      11.824      11.198      9.9803      8.5957    
  7.2603      6.0793      5.1112      4.3728      3.8545      3.5367      3.4018      3.4418      3.6611      4.0757    
  4.7074      5.5735      6.6719      7.9655      9.3712      10.742      11.714      11.877      11.025      9.2914    
  7.1499      5.2848      4.3400      4.6550      6.1153      8.1998      7.2265      9.7726      11.414      11.863    
  11.245      9.9803      8.5509      7.1884      5.9992      5.0382      4.3176      3.8243      3.5370      3.4386    
  3.5232      3.7986      4.2836      5.0002      5.9614      7.1542      8.5225      9.9590      11.212      11.795    
  11.305      9.6358      7.0901      4.3400      2.2276      1.4530      2.2862      4.4476      3.1709      6.5669    
  9.5323      11.377      11.863      11.198      9.8785      8.4190      7.0483      5.8697      4.9326      4.2434    
  3.7856      3.5368      3.4816      3.6172      3.9544      4.5142      5.3179      6.3723      7.6507      9.0764    
  10.504      11.534      11.624      10.414      7.9286      4.6550      1.4530     -.71537     -1.1489     0.30241    
 -1.0162      2.4792      6.3338      9.5323      11.414      11.824      11.059      9.6797      8.2063      6.8467    
  5.6974      4.7995      4.1534      3.7396      3.5363      3.5299      3.7208      4.1233      4.7597      5.6493    
  6.7906      8.1416      9.6053      10.965      11.694      11.240      9.3233      6.1153      2.2862     -1.1489    
 -3.1640     -3.1167     -4.1758     -1.4781      2.4792      6.5669      9.7726      11.512      11.735      10.826    
  9.3928      7.9231      6.5937      5.4904      4.6447      4.0514      3.6888      3.5358      3.5817      3.8305    
  4.2993      5.0111      5.9815      7.1996      8.6077      10.088      11.323      11.710      10.729      8.1998    
  4.4476     0.30240     -3.1168     -4.7854     -4.1757     -3.3117     -.52907      3.3222      7.1531      10.031    
  11.458      11.445      10.412      8.9555      7.5049      6.2115      5.1521      4.3508      3.7972      3.4680    
  3.3423      3.4108      3.6790      4.1656      4.8943      5.8805      7.1102      8.5204      9.9856      11.163    
  11.456      10.384      7.8261      4.1621     0.24174     -2.8505     -3.3118     -4.1758     -2.8505     0.24177    
  4.1622      7.8260      10.384      11.456      11.163      9.9857      8.5204      7.1101      5.8805      4.8944    
  4.1656      3.6790      3.4108      3.3424      3.4680      3.7972      4.3507      5.1521      6.2115      7.5049    
  8.9555      10.412      11.445      11.458      10.031      7.1531      3.3223     -.52899     -.43500     -2.7485    
 -3.1167     -1.4321      1.7608      5.4924      8.7446      10.797      11.409      10.803      9.5013      8.0507    
  6.6967      5.5438      4.6397      3.9885      3.5712      3.3645      3.3526      3.5340      3.9213      4.5369    
  5.4027      6.5234      7.8650      9.3393      10.766      11.665      11.467      9.8327      6.8516      3.1087    
  3.5600     0.51262     -1.2403     -1.1490     0.73990      3.8040      7.1040      9.7435      11.163      11.266    
  10.360      8.9789      7.5634      6.2802      5.2142      4.3977      3.8259      3.4774      3.3305      3.3728    
  3.6063      4.0464      4.7163      5.6356      6.8027      8.1750      9.6558      11.042      11.836      11.523    
  9.8475      6.9826      7.5317      4.6104      2.1769     0.99942      1.4530      3.3627      6.0806      8.7546    
  10.651      11.385      10.994      9.8447      8.4384      7.0756      5.8759      4.9036      4.1765      3.6830    
  3.4007      3.3099      3.4018      3.6818      4.1674      4.8815      5.8404      7.0364      8.4201      9.8901    
  11.232      11.966      11.643      10.087      10.514      8.4114      6.1020      4.3206      3.6631      4.3399    
  6.0878      8.2863      10.215      11.323      11.399      10.587      9.2846      7.8979      6.6047      5.4980    
  4.6224      3.9834      3.5644      3.3432      3.3029      3.4384      3.7579      4.2796      5.0252      6.0075    
  7.2133      8.5882      10.030      11.329      12.051      11.815      12.001      11.048      9.4784      7.8148    
  6.6485      6.4024      7.1498      8.5848      10.159      11.310      11.673      11.187      10.075      8.7176    
  7.3769      6.1676      5.1594      4.3796      3.8239      3.4731      3.3063      3.3098      3.4815      3.8315    
  4.3782      5.1411      6.1288      7.3240      8.6697      10.066      11.328      12.076      12.019      12.148    
  11.583      10.561      9.5059      8.8604      8.8910      9.5713      10.596      11.521      11.950      11.684    
  10.783      9.5126      8.1695      6.8959      5.7801      4.8712      4.1821      3.7023      3.4117      3.2913    
  3.3304      3.5297      3.9001      4.4592      5.2236      6.1982      7.3624      8.6596      9.9964      11.219    
  10.999      11.856      12.196      12.010      11.490      10.955      10.704      10.878      11.392      11.977    
  12.305      12.135      11.408      10.265      8.9610      7.6649      6.4742      5.4559      4.6421      4.0356    
  3.6221      3.3818      3.2986      3.3644      3.5815      3.9612      4.5190      5.2688      6.2119      7.3260    
  8.5574      9.8215      9.5489      10.669      11.569      12.096      12.238      12.134      12.000      12.014    
  12.225      12.526      12.705      12.549      11.949      10.950      9.7283      8.4542      7.2279      6.1287    
  5.2060      4.4789      3.9438      3.5850      3.3844      3.3282      3.4107      3.6352      4.0121      4.5549    
  5.2742      6.1686      7.2162      8.3676      8.0991      9.1904      10.240      11.155      11.819      12.214    
  12.421      12.565      12.733      12.915      13.008      12.865      12.377      11.533      10.439      9.2365    
  8.0215      6.8791      5.8726      5.0380      4.3859      3.9091      3.5924      3.4195      3.3794      3.4680    
  3.6887      4.0506      4.5648      5.2390      6.0705      7.0382      6.8007      7.7646      8.7622      9.7354    
  10.629      11.373      11.935      12.348      12.665      12.908      13.038      12.972      12.625      11.965    
  11.049      9.9735      8.8253      7.6882      6.6345      5.7153      4.9572      4.3656      3.9325      3.6439    
  3.4864      3.4507      3.5341      3.7396      4.0746      4.5479      5.1650      5.9220      5.7306      6.5153    
  7.3797      8.2829      9.1792      10.027      10.794      11.446      11.978      12.392      12.670      12.762    
  12.612      12.184      11.499      10.614      9.5961      8.5239      7.4727      6.5048      5.6623      4.9659    
  4.4188      4.0137      3.7388      3.5831      3.5397      3.6064      3.7856      4.0828      4.5048      5.0553    
  4.9155      5.5056      6.1954      6.9620      7.7738      8.5959      9.3961      10.149      10.834      11.424    
  11.891      12.196      12.289      12.138      11.734      11.098      10.279      9.3398      8.3533      7.3872    
  6.4960      5.7158      5.0645      4.5449      4.1512      3.8746      3.7070      3.6434      3.6820      3.8244    
  4.0746      4.4375      4.3493      4.7523      5.2576      5.8558      6.5300      7.2569      8.0111      8.7682    
  9.5057      10.200      10.821      11.327      11.672      11.810      11.713      11.373      10.813      10.077    
  9.2264      8.3258      7.4372      6.6096      5.8756      5.2514      4.7412      4.3418      4.0479      3.8544    
  3.7581      3.7579      3.8546      4.0506      4.0121      4.2444      4.5735      4.9978      5.5112      6.1018    
  6.7543      7.4509      8.1736      8.9024      9.6114      10.265      10.818      11.219      11.423      11.400    
  11.144      10.674      10.030      9.2670      8.4458      7.6228      6.8434      6.1379      5.5226      5.0035    
  4.5810      4.2539      4.0206      3.8801      3.8316      3.8752      3.8855      3.9612      4.1280      4.3869    
  4.7373      5.1756      5.6950      6.2864      6.9391      7.6401      8.3711      9.1048      9.8018      10.413    
  10.884      11.169      11.235      11.073      10.697      10.144      9.4622      8.7094      7.9382      7.1908    
  6.4962      5.8711      5.3246      4.8619      4.4863      4.2003      4.0049      3.9001      3.9612      3.8856    
  3.9002      4.0049      4.2002      4.4863      4.8619      5.3247      5.8711      6.4962      7.1909      7.9382    
  8.7094      9.4622      10.144      10.697      11.073      11.235      11.169      10.884      10.413      9.8018    
  9.1047      8.3711      7.6401      6.9391      6.2864      5.6950      5.1756      4.7373      4.3869      4.1279    
  4.2444      4.0121      3.8751      3.8315      3.8801      4.0206      4.2539      4.5810      5.0035      5.5226    
  6.1380      6.8434      7.6228      8.4458      9.2670      10.030      10.674      11.144      11.400      11.423    
  11.219      10.818      10.265      9.6114      8.9023      8.1736      7.4509      6.7543      6.1018      5.5111    
  4.9978      4.5735      4.7524      4.3492      4.0506      3.8546      3.7580      3.7581      3.8543      4.0479    
  4.3419      4.7412      5.2514      5.8755      6.6096      7.4372      8.3258      9.2264      10.077      10.813    
  11.373      11.713      11.810      11.672      11.327      10.821      10.200      9.5057      8.7682      8.0112    
  7.2569      6.5299      5.8558      5.2576      5.5056      4.9155      4.4375      4.0746      3.8244      3.6819    
  3.6433      3.7070      3.8746      4.1512      4.5449      5.0645      5.7159      6.4959      7.3871      8.3533    
  9.3398      10.279      11.098      11.734      12.138      12.289      12.195      11.891      11.424      10.834    
  10.149      9.3961      8.5959      7.7738      6.9620      6.1954      6.5152      5.7306      5.0553      4.5048    
  4.0828      3.7855      3.6063      3.5397      3.5831      3.7387      4.0137      4.4189      4.9659      5.6623    
  6.5048      7.4727      8.5239      9.5961      10.614      11.499      12.184      12.612      12.762      12.670    
  12.392      11.978      11.446      10.794      10.027      9.1792      8.2830      7.3797      7.7646      6.8007    
  5.9220      5.1649      4.5479      4.0746      3.7396      3.5341      3.4507      3.4864      3.6439      3.9325    
  4.3656      4.9572      5.7153      6.6345      7.6882      8.8253      9.9735      11.049      11.965      12.625    
  12.972      13.038      12.908      12.665      12.348      11.935      11.373      10.629      9.7354      8.7622    
  9.1905      8.0991      7.0382      6.0705      5.2390      4.5648      4.0506      3.6887      3.4680      3.3794    
  3.4196      3.5923      3.9091      4.3859      5.0381      5.8726      6.8791      8.0216      9.2366      10.439    
  11.533      12.377      12.865      13.008      12.915      12.733      12.565      12.421      12.214      11.819    
  11.155      10.240      10.669      9.5488      8.3676      7.2162      6.1687      5.2741      4.5549      4.0121    
  3.6352      3.4107      3.3282      3.3845      3.5851      3.9438      4.4789      5.2060      6.1287      7.2279    
  8.4542      9.7283      10.950      11.949      12.549      12.705      12.526      12.225      12.014      12.000    
  12.134      12.238      12.096      11.569      11.856      10.999      9.8215      8.5574      7.3260      6.2118    
  5.2688      4.5191      3.9612      3.5815      3.3644      3.2986      3.3819      3.6220      4.0356      4.6421    
  5.4560      6.4742      7.6649      8.9610      10.265      11.408      12.135      12.305      11.977      11.393    
  10.878      10.704      10.955      11.490      12.010      12.196      12.148      12.019      11.219      9.9964    
  8.6596      7.3624      6.1982      5.2236      4.4592      3.9001      3.5297      3.3305      3.2913      3.4117    
  3.7024      4.1821      4.8712      5.7801      6.8959      8.1695      9.5126      10.783      11.684      11.950    
  11.521      10.596      9.5713      8.8910      8.8605      9.5060      10.561      11.583      11.048      12.001    
  12.076      11.328      10.066      8.6697      7.3240      6.1288      5.1411      4.3782      3.8315      3.4815    
  3.3098      3.3064      3.4731      3.8238      4.3795      5.1594      6.1676      7.3769      8.7176      10.075    
  11.187      11.673      11.310      10.159      8.5848      7.1499      6.4025      6.6485      7.8148      9.4784    
  8.4114      10.514      11.815      12.051      11.330      10.030      8.5881      7.2133      6.0075      5.0253    
  4.2796      3.7579      3.4385      3.3030      3.3432      3.5644      3.9834      4.6224      5.4980      6.6047    
  7.8978      9.2847      10.588      11.399      11.323      10.215      8.2864      6.0879      4.3400      3.6631    
  4.3206      6.1021      4.6103      7.5317      10.087      11.643      11.966      11.232      9.8901      8.4202    
  7.0365      5.8404      4.8815      4.1675      3.6819      3.4018      3.3098      3.4007      3.6831      4.1765    
  4.9036      5.8759      7.0756      8.4384      9.8447      10.994      11.385      10.651      8.7547      6.0806    
  3.3627      1.4532     0.99960      2.1770     0.51262      3.5601      6.9826      9.8475      11.523      11.836    
  11.042      9.6558      8.1749      6.8027      5.6356      4.7163      4.0464      3.6063      3.3728      3.3305    
  3.4775      3.8259      4.3976      5.2142      6.2802      7.5634      8.9789      10.360      11.266      11.163    
  9.7435      7.1040      3.8041     0.74006     -1.1488     -1.2403     -2.7483     -.43489      3.1087      6.8515    
  9.8327      11.467      11.665      10.766      9.3393      7.8650      6.5235      5.4027      4.5368      3.9213    
  3.5341      3.3527      3.3644      3.5712      3.9885      4.6397      5.5438      6.6966      8.0507      9.5014    
  10.803      11.408      10.797      8.7446      5.4925      1.7608     -1.4321     -3.1166     -1.0159     -.43482    
  1.8059      5.0000      8.2035      10.586      11.691      11.517      10.432      8.9790      7.5378      6.2484    
  5.1854      4.3731      3.8025      3.4506      3.2962      3.3282      3.5499      3.9778      4.6349      5.5393    
  6.6853      8.0240      9.4515      10.733      11.357      10.849      9.0297      6.1551      2.9147     0.24189    
 -.52891     -1.4780     -.52890      2.0081      5.3334      8.4813      10.670      11.531      11.152      9.9645    
  8.5147      7.1172      5.8931      4.9048      4.1673      3.6667      3.3794      3.2860      3.3794      3.6667    
  4.1674      4.9049      5.8931      7.1172      8.5146      9.9645      11.152      11.531      10.670      8.4813    
  5.3334      2.0081      1.8059     -.43483     -1.0159     0.24190      2.9147      6.1551      9.0297      10.849    
  11.357      10.733      9.4515      8.0240      6.6853      5.5393      4.6349      3.9778      3.5499      3.3282    
  3.2962      3.4506      3.8025      4.3732      5.1855      6.2484      7.5378      8.9790      10.432      11.517    
  11.691      10.586      8.2035      5.0000      5.2210      2.3454     0.51274     0.30254      1.7609      4.3814    
  7.3198      9.7270      11.042      11.131      10.257      8.9123      7.5240      6.2576      5.1998      4.3851    
  3.8105      3.4556      3.2986      3.3264      3.5396      3.9525      4.5877      5.4663      6.5916      7.9304    
  9.3988      10.838      11.832      11.871      10.656      8.2676      8.6809      5.9710      3.5500      2.1769    
  2.2863      3.8041      6.1821      8.6304      10.427      11.160      10.819      9.7287      8.3649      7.0309    
  5.8487      4.8859      4.1632      3.6706      3.3866      3.2913      3.3754      3.6433      4.1115      4.8030    
  5.7359      6.9078      8.2776      9.7552      11.170      12.099      12.084      10.897      11.285      9.3849    
  7.1389      5.2444      4.3206      4.6550      6.0805      8.0516      9.8771      10.990      11.134      10.407    
  9.1693      7.8250      6.5602      5.4714      4.6071      3.9756      3.5620      3.3446      3.3064      3.4417    
  3.7581      4.2736      5.0102      5.9826      7.1824      8.5626      10.030      11.411      12.308      12.320    
  12.548      11.757      10.267      8.5491      7.1864      6.6484      7.0899      8.2862      9.7363      10.879    
  11.314      10.929      9.9079      8.6092      7.3089      6.1268      5.1373      4.3714      3.8274      3.4872    
  3.3304      3.3432      3.5232      3.8801      4.4325      5.2007      6.1950      7.4018      8.7700      10.206    
  11.549      12.442      12.477      12.720      12.226      11.184      9.9935      9.1108      8.8603      9.2912    
  10.159      11.040      11.518      11.354      10.558      9.3625      8.0704      6.8340      5.7449      4.8566    
  4.1852      3.7222      3.4482      3.3446      3.4008      3.6171      4.0049      4.5821      5.3658      6.3624    
  7.5539      8.8875      10.273      11.569      11.462      12.390      12.784      12.595      11.986      11.270    
  10.776      10.704      11.029      11.521      11.855      11.759      11.130      10.071      8.8245      7.5737    
  6.4177      5.4270      4.6372      4.0535      3.6627      3.4458      3.3867      3.4775      3.7208      4.1281    
  4.7157      5.4977      6.4762      7.6302      8.9072      10.223      10.058      11.224      12.162      12.693    
  12.781      12.548      12.218      12.006      12.014      12.177      12.305      12.175      11.644      10.718    
  9.5526      8.3262      7.1406      6.0757      5.1836      4.4856      3.9795      3.6503      3.4803      3.4558    
  3.5712      3.8305      4.2445      4.8274      5.5897      6.5299      7.6256      8.8267      8.6493      9.7833    
  10.864      11.788      12.422      12.730      12.791      12.745      12.715      12.733      12.724      12.549    
  12.081      11.282      10.230      9.0682      7.8948      6.7913      5.8214      5.0224      4.4059      3.9655    
  3.6858      3.5510      3.5500      3.6791      3.9422      4.3493      4.9117      5.6367      6.5203      7.5396    
  7.3763      8.3835      9.4128      10.400      11.281      11.971      12.431      12.696      12.839      12.913    
  12.908      12.758      12.377      11.719      10.816      9.7667      8.6535      7.5552      6.5421      5.6644    
  4.9488      4.4008      4.0121      3.7685      3.6565      3.6669      3.7973      4.0514      4.4375      4.9642    
  5.6361      6.4472      6.3144      7.1441      8.0427      8.9641      9.8570      10.674      11.373      11.918    
  12.308      12.565      12.695      12.670      12.439      11.965      11.259      10.375      9.3780      8.3383    