unknown system                          
   1.00000000000000     
    -2.388545    2.388545    1.350794
     2.388545   -2.388545    1.350794
     2.388545    2.388545   -1.350794
   Si
     2
Direct
  0.250000  0.750000  0.500000
  0.000000 -0.000000 -0.000000
 
   32   32   32
 -.54094169738E+01 -.42504449169E+01 -.11265077608E+01 0.30475779508E+01 0.71499057188E+01
 0.10240876392E+02 0.11825830241E+02 0.11921286473E+02 0.10945887740E+02 0.95036970306E+01
 0.80458150251E+01 0.67339368337E+01 0.56510205547E+01 0.48282256895E+01 0.42619588949E+01
 0.39338937639E+01 0.38268000172E+01 0.39338999075E+01 0.42619428207E+01 0.48281899737E+01
 0.56509993488E+01 0.67339362257E+01 0.80458091645E+01 0.95036826314E+01 0.10945886073E+02
 0.11921294158E+02 0.11825825356E+02 0.10240868630E+02 0.71499213448E+01 0.30476013825E+01
 -.11265146956E+01 -.42504714453E+01 -.42504714453E+01 -.47772703290E+01 -.30713346197E+01
 0.34256065899E+00 0.44730896722E+01 0.82391728657E+01 0.10829338978E+02 0.11906230700E+02
 0.11616856756E+02 0.10448044337E+02 0.89893280383E+01 0.75793190601E+01 0.63434618284E+01
 0.53475513719E+01 0.46106318458E+01 0.41234462352E+01 0.38671656892E+01 0.38271038704E+01
 0.40003525707E+01 0.43973913011E+01 0.50373913163E+01 0.59369106116E+01 0.70925158607E+01
 0.84608429100E+01 0.99440477652E+01 0.11333590581E+02 0.12104558397E+02 0.11682067083E+02
 0.97400885406E+01 0.63936660325E+01 0.22633158917E+01 -.16461607261E+01 -.11265146956E+01
 -.30713557511E+01 -.29862288696E+01 -.91056202211E+00 0.25100728164E+01 0.62849792819E+01
 0.94464066835E+01 0.11356033446E+02 0.11844508941E+02 0.11171843050E+02 0.98592765594E+01
 0.84224960739E+01 0.70820339929E+01 0.59383414278E+01 0.50396219565E+01 0.43939533822E+01
 0.39877870533E+01 0.38028431494E+01 0.38277018388E+01 0.40635356948E+01 0.45239821207E+01
 0.52289441059E+01 0.61920446502E+01 0.74024768083E+01 0.88057342749E+01 0.10291970226E+02
 0.11605775200E+02 0.12198834135E+02 0.11555569588E+02 0.94536861621E+01 0.61232859822E+01
 0.22633158917E+01 0.30476013825E+01 0.34255692683E+00 -.91057431604E+00 -.33081715930E+00
 0.18789566908E+01 0.50189981693E+01 0.81735251947E+01 0.10543092839E+02 0.11684486018E+02
 0.11586573637E+02 0.10591290028E+02 0.92125691017E+01 0.78267417506E+01 0.65750897306E+01
 0.55357233794E+01 0.47399840634E+01 0.41867211858E+01 0.38599067310E+01 0.37430482508E+01
 0.38283483521E+01 0.41206353040E+01 0.46358859608E+01 0.53938343519E+01 0.64043865496E+01
 0.76492755025E+01 0.90645470552E+01 0.10531701645E+02 0.11765443919E+02 0.12236272001E+02
 0.11506173332E+02 0.94536861621E+01 0.63936660325E+01 0.71499213448E+01 0.44731030964E+01
 0.25100716101E+01 0.18789532986E+01 0.27689381024E+01 0.48648137715E+01 0.74820334232E+01
 0.98397050885E+01 0.11337443800E+02 0.11724429750E+02 0.11120072407E+02 0.99090524600E+01
 0.85375965156E+01 0.72269636764E+01 0.60795643251E+01 0.51515789710E+01 0.44597274293E+01
 0.39962136604E+01 0.37442353664E+01 0.36897444076E+01 0.38285968490E+01 0.41688962352E+01
 0.47280927590E+01 0.55245771786E+01 0.65638139715E+01 0.78208074241E+01 0.92249442231E+01
 0.10653707745E+02 0.11817950180E+02 0.12236272001E+02 0.11555569588E+02 0.97400885406E+01
 0.10240868630E+02 0.82391729027E+01 0.62849805833E+01 0.50189998111E+01 0.48648180188E+01
 0.58553507271E+01 0.76234999244E+01 0.95602039913E+01 0.11056241802E+02 0.11714084065E+02
 0.11451469826E+02 0.10479558332E+02 0.91823015806E+01 0.78630655503E+01 0.66480672033E+01
 0.56147207543E+01 0.47997709719E+01 0.42084412582E+01 0.38286832302E+01 0.36443160254E+01
 0.36443813065E+01 0.38282801785E+01 0.42064968364E+01 0.47967079850E+01 0.56150668761E+01
 0.66625782324E+01 0.79087718230E+01 0.92793460176E+01 0.10653707745E+02 0.11765443919E+02
 0.12198834135E+02 0.11682067083E+02 0.11825825356E+02 0.10829326225E+02 0.94463953756E+01
 0.81735196135E+01 0.74820364624E+01 0.76235070889E+01 0.85242795674E+01 0.98224921114E+01
 0.11025556847E+02 0.11706655371E+02 0.11652129142E+02 0.10910314414E+02 0.97405639302E+01
 0.84575553325E+01 0.72181286643E+01 0.61131214305E+01 0.51974567485E+01 0.44919486736E+01
 0.39937178764E+01 0.36888902482E+01 0.35631111351E+01 0.36086018369E+01 0.38276257290E+01
 0.42320636849E+01 0.48388844945E+01 0.56613431837E+01 0.66960774050E+01 0.79087718230E+01
 0.92249442231E+01 0.10531701645E+02 0.11605775200E+02 0.12104558397E+02 0.11921294158E+02
 0.11906229819E+02 0.11356022943E+02 0.10543076769E+02 0.98396934699E+01 0.95602051882E+01
 0.98224997557E+01 0.10497906403E+02 0.11273576741E+02 0.11791809934E+02 0.11796033671E+02
 0.11221192646E+02 0.10201324381E+02 0.89917717950E+01 0.77695168122E+01 0.66303345528E+01
 0.56421899033E+01 0.48412917879E+01 0.42368689155E+01 0.38213289137E+01 0.35807603378E+01
 0.35031596190E+01 0.35837328284E+01 0.38269289181E+01 0.42449912678E+01 0.48531512634E+01
 0.56613431837E+01 0.66625782324E+01 0.78208074241E+01 0.90645470552E+01 0.10291970226E+02
 0.11333590581E+02 0.10945886073E+02 0.11616863940E+02 0.11844511801E+02 0.11684476339E+02
 0.11337426210E+02 0.11056229963E+02 0.11025558547E+02 0.11273583860E+02 0.11660695150E+02
 0.11948634634E+02 0.11911517946E+02 0.11434087856E+02 0.10556686465E+02 0.94518624575E+01
 0.82851750320E+01 0.71508028460E+01 0.61230762639E+01 0.52507808029E+01 0.45561687410E+01
 0.40409828762E+01 0.36955058439E+01 0.35070562868E+01 0.34663088092E+01 0.35709780509E+01
 0.38266748446E+01 0.42449912678E+01 0.48388844945E+01 0.56150668761E+01 0.65638139715E+01
 0.76492755025E+01 0.88057342749E+01 0.99440477652E+01 0.95036826314E+01 0.10448037393E+02
 0.11171842182E+02 0.11586573820E+02 0.11724426025E+02 0.11714074882E+02 0.11706646881E+02
 0.11791810098E+02 0.11948640396E+02 0.12056748340E+02 0.11959386282E+02 0.11543600681E+02
 0.10798057420E+02 0.98234019217E+01 0.87487013986E+01 0.76589604835E+01 0.66285014597E+01
 0.57141366861E+01 0.49499552963E+01 0.43487944706E+01 0.39083899809E+01 0.36189382507E+01
 0.34697293936E+01 0.34539060797E+01 0.35709780509E+01 0.38269289181E+01 0.42320636849E+01
 0.47967079850E+01 0.55245771786E+01 0.64043865496E+01 0.74024768083E+01 0.84608429100E+01
 0.80458091645E+01 0.89893131914E+01 0.98592608310E+01 0.10591283663E+02 0.11120077047E+02
 0.11451474616E+02 0.11652124228E+02 0.11796025261E+02 0.11911518712E+02 0.11959393670E+02
 0.11853659487E+02 0.11511672791E+02 0.10905467742E+02 0.10086992271E+02 0.91408569319E+01
 0.81368465133E+01 0.71442294518E+01 0.62227817884E+01 0.54155264442E+01 0.47464633943E+01
 0.42230420549E+01 0.38415560013E+01 0.35932727608E+01 0.34697293936E+01 0.34663088092E+01
 0.35837328284E+01 0.38276257290E+01 0.42064968364E+01 0.47280927590E+01 0.53938343519E+01
 0.61920446502E+01 0.70925158607E+01 0.67339362257E+01 0.75793162920E+01 0.84224872668E+01
 0.92125570274E+01 0.99090456052E+01 0.10479561633E+02 0.10910320286E+02 0.11221191244E+02
 0.11434083530E+02 0.11543604372E+02 0.11511681288E+02 0.11289132871E+02 0.10850591942E+02
 0.10218649336E+02 0.94380324371E+01 0.85620522408E+01 0.76511497329E+01 0.67633316130E+01
 0.59465456175E+01 0.52341382204E+01 0.46439801194E+01 0.41809550984E+01 0.38415560013E+01
 0.36189382507E+01 0.35070562868E+01 0.35031596190E+01 0.36086018369E+01 0.38282801785E+01
 0.41688962352E+01 0.46358859608E+01 0.52289441059E+01 0.59369106116E+01 0.56509993488E+01
 0.63434613022E+01 0.70820451241E+01 0.78267447258E+01 0.85375841895E+01 0.91822902941E+01
 0.97405687547E+01 0.10201335780E+02 0.10556687761E+02 0.10798052640E+02 0.10905471267E+02
 0.10850600835E+02 0.10613989296E+02 0.10195660163E+02 0.96146501418E+01 0.89080714672E+01
 0.81244170653E+01 0.73156473168E+01 0.65300737286E+01 0.58069493423E+01 0.51733823313E+01
 0.46439801194E+01 0.42230420549E+01 0.39083899809E+01 0.36955058439E+01 0.35807603378E+01
 0.35631111351E+01 0.36443813065E+01 0.38285968490E+01 0.41206353040E+01 0.45239821207E+01
 0.50373913163E+01 0.48281899737E+01 0.53475339659E+01 0.59383481887E+01 0.65751064442E+01
 0.72269687004E+01 0.78630570448E+01 0.84575517505E+01 0.89917814580E+01 0.94518710940E+01
 0.98233984670E+01 0.10086987143E+02 0.10218654276E+02 0.10195668060E+02 0.10004877749E+02
 0.96489660696E+01 0.91477925557E+01 0.85350952033E+01 0.78527474129E+01 0.71446910253E+01
 0.64516365158E+01 0.58069493423E+01 0.52341382204E+01 0.47464633943E+01 0.43487944706E+01
 0.40409828762E+01 0.38213289137E+01 0.36888902482E+01 0.36443160254E+01 0.36897444076E+01
 0.38283483521E+01 0.40635356948E+01 0.43973913011E+01 0.42619428207E+01 0.46106136027E+01
 0.50396093315E+01 0.55357299971E+01 0.60795847491E+01 0.66480805968E+01 0.72181278476E+01
 0.77695149799E+01 0.82851808990E+01 0.87487068575E+01 0.91408550199E+01 0.94380295848E+01
 0.96146526196E+01 0.96489694355E+01 0.95294815054E+01 0.92588647182E+01 0.88540058531E+01
 0.83429935111E+01 0.77607835486E+01 0.71446910253E+01 0.65300737286E+01 0.59465456175E+01
 0.54155264442E+01 0.49499552963E+01 0.45561687410E+01 0.42368689155E+01 0.39937178764E+01
 0.38286832302E+01 0.37442353664E+01 0.37430482508E+01 0.38277018388E+01 0.40003525707E+01
 0.39338999075E+01 0.41234542796E+01 0.43939497684E+01 0.47399826991E+01 0.51515948878E+01
 0.56147435546E+01 0.61131311316E+01 0.66303315037E+01 0.71508030774E+01 0.76589686807E+01
 0.81368523534E+01 0.85620503119E+01 0.89080677278E+01 0.91477914002E+01 0.92588640829E+01
 0.92285659600E+01 0.90563715452E+01 0.87538956352E+01 0.83429935111E+01 0.78527474129E+01
 0.73156473168E+01 0.67633316130E+01 0.62227817884E+01 0.57141366861E+01 0.52507808029E+01
 0.48412917879E+01 0.44919486736E+01 0.42084412582E+01 0.39962136604E+01 0.38599067310E+01
 0.38028431494E+01 0.38271038704E+01 0.38268000172E+01 0.38671908933E+01 0.39878174605E+01
 0.41867419455E+01 0.44597412095E+01 0.47997843221E+01 0.51974680668E+01 0.56421958258E+01
 0.61230791793E+01 0.66285047454E+01 0.71442324018E+01 0.76511511358E+01 0.81244177326E+01
 0.85350946503E+01 0.88540024864E+01 0.90563675485E+01 0.91257383387E+01 0.90563715452E+01
 0.88540058531E+01 0.85350952033E+01 0.81244170653E+01 0.76511497329E+01 0.71442294518E+01
 0.66285014597E+01 0.61230762639E+01 0.56421899033E+01 0.51974567485E+01 0.47997709719E+01
 0.44597274293E+01 0.41867211858E+01 0.39877870533E+01 0.38671656892E+01 0.39338937639E+01
 0.38271234523E+01 0.38028885106E+01 0.38599537895E+01 0.39962433180E+01 0.42084550922E+01
 0.44919575172E+01 0.48413006205E+01 0.52507870021E+01 0.57141367933E+01 0.62227775213E+01
 0.67633296632E+01 0.73156516683E+01 0.78527531648E+01 0.83429931170E+01 0.87538898735E+01
 0.90563675485E+01 0.92285659600E+01 0.92588647182E+01 0.91477925557E+01 0.89080714672E+01
 0.85620522408E+01 0.81368465133E+01 0.76589604835E+01 0.71508028460E+01 0.66303345528E+01
 0.61131214305E+01 0.56147207543E+01 0.51515789710E+01 0.47399840634E+01 0.43939533822E+01
 0.41234462352E+01 0.42619588949E+01 0.40003748743E+01 0.38277378106E+01 0.37430919675E+01
 0.37442758065E+01 0.38287135473E+01 0.39937347793E+01 0.42368731131E+01 0.45561670986E+01
 0.49499543981E+01 0.54155251869E+01 0.59465412843E+01 0.65300707061E+01 0.71446942169E+01
 0.77607884209E+01 0.83429931170E+01 0.88540024864E+01 0.92588640829E+01 0.95294815054E+01
 0.96489660696E+01 0.96146501418E+01 0.94380324371E+01 0.91408569319E+01 0.87487013986E+01
 0.82851750320E+01 0.77695168122E+01 0.72181286643E+01 0.66480672033E+01 0.60795643251E+01
 0.55357233794E+01 0.50396219565E+01 0.46106318458E+01 0.48282256895E+01 0.43974311167E+01
 0.40635705484E+01 0.38283782138E+01 0.36897750634E+01 0.36443488119E+01 0.36889140726E+01
 0.38213316130E+01 0.40409710233E+01 0.43487879233E+01 0.47464677021E+01 0.52341392378E+01
 0.58069397993E+01 0.64516285939E+01 0.71446942169E+01 0.78527531648E+01 0.85350946503E+01
 0.91477914002E+01 0.96489694355E+01 0.10004877749E+02 0.10195660163E+02 0.10218649336E+02
 0.10086992271E+02 0.98234019217E+01 0.94518624575E+01 0.89917717950E+01 0.84575553325E+01
 0.78630655503E+01 0.72269636764E+01 0.65750897306E+01 0.59383414278E+01 0.53475513719E+01
 0.56510205547E+01 0.50374279409E+01 0.45240235113E+01 0.41206702467E+01 0.38286187467E+01
 0.36443933703E+01 0.35631190861E+01 0.35807611818E+01 0.36954949237E+01 0.39083754995E+01
 0.42230369442E+01 0.46439818893E+01 0.51733783006E+01 0.58069397993E+01 0.65300707061E+01
 0.73156516683E+01 0.81244177326E+01 0.89080677278E+01 0.96146526196E+01 0.10195668060E+02
 0.10613989296E+02 0.10850591942E+02 0.10905467742E+02 0.10798057420E+02 0.10556686465E+02
 0.10201324381E+02 0.97405639302E+01 0.91823015806E+01 0.85375965156E+01 0.78267417506E+01
 0.70820339929E+01 0.63434618284E+01 0.67339368337E+01 0.59369193969E+01 0.52289711530E+01
 0.46359245943E+01 0.41689215656E+01 0.38282767050E+01 0.36085831556E+01 0.35031465643E+01
 0.35070472593E+01 0.36189199843E+01 0.38415327560E+01 0.41809436731E+01 0.46439818893E+01
 0.52341392378E+01 0.59465412843E+01 0.67633296632E+01 0.76511511358E+01 0.85620503119E+01
 0.94380295848E+01 0.10218654276E+02 0.10850600835E+02 0.11289132871E+02 0.11511672791E+02
 0.11543600681E+02 0.11434087856E+02 0.11221192646E+02 0.10910314414E+02 0.10479558332E+02
 0.99090524600E+01 0.92125691017E+01 0.84224960739E+01 0.75793190601E+01 0.80458150251E+01
 0.70925142355E+01 0.61920468075E+01 0.53938487399E+01 0.47281095008E+01 0.42064948637E+01
 0.38275999045E+01 0.35837008034E+01 0.34662844698E+01 0.34697061082E+01 0.35932436617E+01
 0.38415327560E+01 0.42230369442E+01 0.47464677021E+01 0.54155251869E+01 0.62227775213E+01
 0.71442324018E+01 0.81368523534E+01 0.91408550199E+01 0.10086987143E+02 0.10905471267E+02
 0.11511681288E+02 0.11853659487E+02 0.11959386282E+02 0.11911517946E+02 0.11796033671E+02
 0.11652129142E+02 0.11451469826E+02 0.11120072407E+02 0.10591290028E+02 0.98592765594E+01
 0.89893280383E+01 0.95036970306E+01 0.84608568448E+01 0.74024784524E+01 0.64043761644E+01
 0.55245674282E+01 0.47967021732E+01 0.42320468722E+01 0.38268905774E+01 0.35709307738E+01
 0.34538693878E+01 0.34697061082E+01 0.36189199843E+01 0.39083754995E+01 0.43487879233E+01
 0.49499543981E+01 0.57141367933E+01 0.66285047454E+01 0.76589686807E+01 0.87487068575E+01
 0.98233984670E+01 0.10798052640E+02 0.11543604372E+02 0.11959393670E+02 0.12056748340E+02
 0.11948634634E+02 0.11791809934E+02 0.11706655371E+02 0.11714084065E+02 0.11724429750E+02
 0.11586573637E+02 0.11171843050E+02 0.10448044337E+02 0.10945887740E+02 0.99440622859E+01
 0.88057488600E+01 0.76492734462E+01 0.65637956257E+01 0.56150465197E+01 0.48388647468E+01
 0.42449577849E+01 0.38266238990E+01 0.35709307738E+01 0.34662844698E+01 0.35070472593E+01
 0.36954949237E+01 0.40409710233E+01 0.45561670986E+01 0.52507870021E+01 0.61230791793E+01
 0.71508030774E+01 0.82851808990E+01 0.94518710940E+01 0.10556687761E+02 0.11434083530E+02
 0.11911518712E+02 0.11948640396E+02 0.11660695150E+02 0.11273576741E+02 0.11025556847E+02
 0.11056241802E+02 0.11337443800E+02 0.11684486018E+02 0.11844508941E+02 0.11616856756E+02
 0.11921286473E+02 0.11333582777E+02 0.10291974028E+02 0.90645605401E+01 0.78208112790E+01
 0.66625593287E+01 0.56613107478E+01 0.48531189661E+01 0.42449577849E+01 0.38268905774E+01
 0.35837008034E+01 0.35031465643E+01 0.35807611818E+01 0.38213316130E+01 0.42368731131E+01
 0.48413006205E+01 0.56421958258E+01 0.66303315037E+01 0.77695149799E+01 0.89917814580E+01
 0.10201335780E+02 0.11221191244E+02 0.11796025261E+02 0.11791810098E+02 0.11273583860E+02
 0.10497906403E+02 0.98224921114E+01 0.95602039913E+01 0.98397050885E+01 0.10543092839E+02
 0.11356033446E+02 0.11906230700E+02 0.11825830241E+02 0.12104546702E+02 0.11605757397E+02
 0.10531700693E+02 0.92249598976E+01 0.79087749788E+01 0.66960525475E+01 0.56613107478E+01
 0.48388647468E+01 0.42320468722E+01 0.38275999045E+01 0.36085831556E+01 0.35631190861E+01
 0.36889140726E+01 0.39937347793E+01 0.44919575172E+01 0.51974680668E+01 0.61131311316E+01
 0.72181278476E+01 0.84575517505E+01 0.97405687547E+01 0.10910320286E+02 0.11652124228E+02
 0.11706646881E+02 0.11025558547E+02 0.98224997557E+01 0.85242795674E+01 0.76234999244E+01
 0.74820334232E+01 0.81735251947E+01 0.94464066835E+01 0.10829338978E+02 0.10240876392E+02
 0.11682074980E+02 0.12198824583E+02 0.11765422274E+02 0.10653700715E+02 0.92793578152E+01
 0.79087749788E+01 0.66625593287E+01 0.56150465197E+01 0.47967021732E+01 0.42064948637E+01
 0.38282767050E+01 0.36443933703E+01 0.36443488119E+01 0.38287135473E+01 0.42084550922E+01
 0.47997843221E+01 0.56147435546E+01 0.66480805968E+01 0.78630570448E+01 0.91822902941E+01
 0.10479561633E+02 0.11451474616E+02 0.11714074882E+02 0.11056229963E+02 0.95602051882E+01
 0.76235070889E+01 0.58553507271E+01 0.48648137715E+01 0.50189981693E+01 0.62849792819E+01
 0.82391728657E+01 0.71499057188E+01 0.97400931651E+01 0.11555582822E+02 0.12236262703E+02
 0.11817923993E+02 0.10653700715E+02 0.92249598976E+01 0.78208112790E+01 0.65637956257E+01
 0.55245674282E+01 0.47281095008E+01 0.41689215656E+01 0.38286187467E+01 0.36897750634E+01
 0.37442758065E+01 0.39962433180E+01 0.44597412095E+01 0.51515948878E+01 0.60795847491E+01
 0.72269687004E+01 0.85375841895E+01 0.99090456052E+01 0.11120077047E+02 0.11724426025E+02
 0.11337426210E+02 0.98396934699E+01 0.74820364624E+01 0.48648180188E+01 0.27689381024E+01
 0.18789566908E+01 0.25100728164E+01 0.44730896722E+01 0.30475779508E+01 0.63936397841E+01
 0.94536880588E+01 0.11506186644E+02 0.12236262703E+02 0.11765422274E+02 0.10531700693E+02
 0.90645605401E+01 0.76492734462E+01 0.64043761644E+01 0.53938487399E+01 0.46359245943E+01
 0.41206702467E+01 0.38283782138E+01 0.37430919675E+01 0.38599537895E+01 0.41867419455E+01
 0.47399826991E+01 0.55357299971E+01 0.65751064442E+01 0.78267447258E+01 0.92125570274E+01
 0.10591283663E+02 0.11586573820E+02 0.11684476339E+02 0.10543076769E+02 0.81735196135E+01
 0.50189998111E+01 0.18789532986E+01 -.33081715930E+00 -.91056202211E+00 0.34256065899E+00
 -.11265077608E+01 0.22632863379E+01 0.61232545863E+01 0.94536880588E+01 0.11555582822E+02
 0.12198824583E+02 0.11605757397E+02 0.10291974028E+02 0.88057488600E+01 0.74024784524E+01
 0.61920468075E+01 0.52289711530E+01 0.45240235113E+01 0.40635705484E+01 0.38277378106E+01
 0.38028885106E+01 0.39878174605E+01 0.43939497684E+01 0.50396093315E+01 0.59383481887E+01
 0.70820451241E+01 0.84224872668E+01 0.98592608310E+01 0.11171842182E+02 0.11844511801E+02
 0.11356022943E+02 0.94463953756E+01 0.62849805833E+01 0.25100716101E+01 -.91057431604E+00
 -.29862288696E+01 -.30713346197E+01 -.42504449169E+01 -.16461529974E+01 0.22632863379E+01
 0.63936397841E+01 0.97400931651E+01 0.11682074980E+02 0.12104546702E+02 0.11333582777E+02
 0.99440622859E+01 0.84608568448E+01 0.70925142355E+01 0.59369193969E+01 0.50374279409E+01
 0.43974311167E+01 0.40003748743E+01 0.38271234523E+01 0.38671908933E+01 0.41234542796E+01
 0.46106136027E+01 0.53475339659E+01 0.63434613022E+01 0.75793162920E+01 0.89893131914E+01
 0.10448037393E+02 0.11616863940E+02 0.11906229819E+02 0.10829326225E+02 0.82391729027E+01
 0.44731030964E+01 0.34255692683E+00 -.30713557511E+01 -.47772703290E+01 -.42503343306E+01
 -.34319855510E+01 -.70846106014E+00 0.31170180185E+01 0.69951156890E+01 0.10000173941E+02
 0.11601769452E+02 0.11757677760E+02 0.10833389132E+02 0.94050384312E+01 0.79395922720E+01
 0.66103022583E+01 0.55048312580E+01 0.46575907520E+01 0.40658126103E+01 0.37100735252E+01
 0.35710581889E+01 0.36396466610E+01 0.39206408781E+01 0.44306771685E+01 0.51900073249E+01
 0.62075632963E+01 0.74609831094E+01 0.88783797150E+01 0.10323823003E+02 0.11424502484E+02
 0.11597932572E+02 0.10402192698E+02 0.77565999807E+01 0.40609003182E+01 0.15308874232E+00
 -.29181230268E+01 -.34320097350E+01 -.42504315823E+01 -.29181764747E+01 0.15312146928E+00
 0.40609384065E+01 0.77565757136E+01 0.10402153930E+02 0.11597957709E+02 0.11424570083E+02
 0.10323842125E+02 0.88783306413E+01 0.74609465928E+01 0.62075940196E+01 0.51900517700E+01
 0.44306636463E+01 0.39205952462E+01 0.36396475515E+01 0.35711059124E+01 0.37100883840E+01
 0.40657673842E+01 0.46575592831E+01 0.55048698400E+01 0.66103571721E+01 0.79395866552E+01
 0.94049952166E+01 0.10833386044E+02 0.11757711105E+02 0.11601758718E+02 0.10000104621E+02
 0.69950802280E+01 0.31170744629E+01 -.70839114054E+00 -.59764737610E+00 -.27986894968E+01
 -.30712474051E+01 -.13468689133E+01 0.18314488448E+01 0.55278732629E+01 0.87651188223E+01
 0.10845125548E+02 0.11520850659E+02 0.10988644800E+02 0.97394741303E+01 0.83109124267E+01
 0.69611579646E+01 0.57993671036E+01 0.48801437656E+01 0.42143943682E+01 0.37885000067E+01
 0.35827030737E+01 0.35837912189E+01 0.37914265607E+01 0.42186250738E+01 0.48863970599E+01
 0.58120013598E+01 0.69910481836E+01 0.83775160764E+01 0.98707232082E+01 0.11254156416E+02
 0.12010360568E+02 0.11605532468E+02 0.97667732862E+01 0.66503745353E+01 0.28787975486E+01
 0.33991369289E+01 0.47115091311E+00 -.11234689911E+01 -.91059542244E+00 0.10159904646E+01
 0.40349812554E+01 0.72469852525E+01 0.98068065933E+01 0.11190176259E+02 0.11305508456E+02
 0.10442780192E+02 0.91063874721E+01 0.77235426107E+01 0.64594498498E+01 0.54014554975E+01
 0.45868280330E+01 0.40164598160E+01 0.36738263375E+01 0.35409748761E+01 0.36086230704E+01
 0.38806325091E+01 0.43731149700E+01 0.51076921386E+01 0.60983828617E+01 0.73332063801E+01
 0.87557688214E+01 0.10255766104E+02 0.11580112524E+02 0.12207202122E+02 0.11668224019E+02
 0.97859200712E+01 0.68076757155E+01 0.74482814760E+01 0.45900768900E+01 0.23169164611E+01
 0.13158799940E+01 0.18789619631E+01 0.37861395576E+01 0.63994359980E+01 0.89188072578E+01
 0.10673175795E+02 0.11323274744E+02 0.10916597991E+02 0.98035996329E+01 0.84522768430E+01
 0.71376790178E+01 0.59746460796E+01 0.50282303557E+01 0.43199594895E+01 0.38431551520E+01
 0.35801788732E+01 0.35156556186E+01 0.36443706355E+01 0.39740754060E+01 0.45230680270E+01
 0.53122060833E+01 0.63512129261E+01 0.76208209398E+01 0.90565485523E+01 0.10542091554E+02
 0.11807731370E+02 0.12362849397E+02 0.11815728188E+02 0.10075782479E+02 0.10583888464E+02
 0.84530659655E+01 0.62420937062E+01 0.46320242765E+01 0.41294845163E+01 0.48647812839E+01
 0.65417327454E+01 0.85653150701E+01 0.10280575171E+02 0.11208212527E+02 0.11183002797E+02
 0.10360798428E+02 0.91137461706E+01 0.78007494243E+01 0.65748679126E+01 0.55238910892E+01
 0.46920610561E+01 0.40878985396E+01 0.36996095563E+01 0.35100236879E+01 0.35071065093E+01
 0.36896453233E+01 0.40683795870E+01 0.46624513370E+01 0.54908255301E+01 0.65585366864E+01
 0.78398176200E+01 0.92645924654E+01 0.10715288752E+02 0.11930754683E+02 0.12474382404E+02
 0.12032973783E+02 0.12266262118E+02 0.11199287421E+02 0.96305282918E+01 0.80710775094E+01
 0.70479465889E+01 0.68964492375E+01 0.76234283844E+01 0.89098053241E+01 0.10250223366E+02
 0.11157794156E+02 0.11339128801E+02 0.10774508471E+02 0.96885514379E+01 0.84211551392E+01
 0.71765412034E+01 0.60556761126E+01 0.51224968623E+01 0.44033181456E+01 0.38970470405E+01
 0.35894356750E+01 0.34651422794E+01 0.35156165280E+01 0.37429932869E+01 0.41599846624E+01
 0.47854669468E+01 0.56355359809E+01 0.67102422430E+01 0.79785400687E+01 0.93678961068E+01
 0.10764828276E+02 0.11939011329E+02 0.12520079669E+02 0.12464926714E+02 0.12437841645E+02
 0.11779881054E+02 0.10759750326E+02 0.97787660471E+01 0.92116034871E+01 0.92497739692E+01
 0.98224591068E+01 0.10633987780E+02 0.11296671521E+02 0.11491620561E+02 0.11085963705E+02
 0.10165727048E+02 0.89806658627E+01 0.77573786073E+01 0.66045972188E+01 0.55987793581E+01
 0.47829780515E+01 0.41697986396E+01 0.37521797075E+01 0.35154643419E+01 0.34467890610E+01
 0.35409414070E+01 0.38027155582E+01 0.42456371066E+01 0.48870408627E+01 0.57394130711E+01
 0.67982119524E+01 0.80289025308E+01 0.93595104061E+01 0.10684616714E+02 0.11819476102E+02
 0.11561705200E+02 0.12272188430E+02 0.12466481543E+02 0.12185748614E+02 0.11639036082E+02
 0.11114870212E+02 0.10853890716E+02 0.10941540109E+02 0.11273501460E+02 0.11609830093E+02
 0.11687742164E+02 0.11336942463E+02 0.10547585656E+02 0.94680850336E+01 0.82997742842E+01
 0.71528358002E+01 0.61075547915E+01 0.52193482693E+01 0.45148542295E+01 0.39973214094E+01
 0.36566994254E+01 0.34794288220E+01 0.34555244335E+01 0.35826277371E+01 0.38670883928E+01
 0.43220478076E+01 0.49624958793E+01 0.57971177988E+01 0.68174175203E+01 0.79871793191E+01
 0.92378881178E+01 0.10474632541E+02 0.10143262468E+02 0.11163923693E+02 0.11915904280E+02
 0.12289939519E+02 0.12312817902E+02 0.12128420440E+02 0.11923253572E+02 0.11832825652E+02
 0.11875735837E+02 0.11948617420E+02 0.11882443010E+02 0.11529104105E+02 0.10835366885E+02
 0.98721392125E+01 0.87883565125E+01 0.76837164518E+01 0.66349889419E+01 0.57038921385E+01
 0.49288307941E+01 0.43247743647E+01 0.38895871028E+01 0.36126444988E+01 0.34823674877E+01
 0.34914453090E+01 0.36396001713E+01 0.39338075781E+01 0.43859761470E+01 0.50081660907E+01
 0.58052902458E+01 0.67659596274E+01 0.78543587882E+01 0.90078059405E+01 0.86798824221E+01
 0.97051128983E+01 0.10638968103E+02 0.11393100694E+02 0.11883365258E+02 0.12115996795E+02
 0.12174722236E+02 0.12163848339E+02 0.12145367940E+02 0.12104211225E+02 0.11959359861E+02
 0.11612776176E+02 0.11008859327E+02 0.10174312021E+02 0.92051913133E+01 0.81793506550E+01
 0.71655298168E+01 0.62260106423E+01 0.54070290828E+01 0.47346578989E+01 0.42167391515E+01
 0.38488279917E+01 0.36211408470E+01 0.35243933941E+01 0.35536629820E+01 0.37100628095E+01
 0.40003080298E+01 0.44343833834E+01 0.50212993835E+01 0.57627967448E+01 0.66458391452E+01
 0.76366423510E+01 0.73446555504E+01 0.82699971282E+01 0.91805237662E+01 0.10017181059E+02
 0.10729723255E+02 0.11267726019E+02 0.11618148431E+02 0.11816218758E+02 0.11906935044E+02
 0.11907300896E+02 0.11792272743E+02 0.11511684499E+02 0.11027134395E+02 0.10347330390E+02
 0.95263619249E+01 0.86176222792E+01 0.76796615682E+01 0.67710230317E+01 0.59413427744E+01
 0.52253446379E+01 0.46411719149E+01 0.41929562593E+01 0.38759606152E+01 0.36821509723E+01
 0.36046607975E+01 0.36405041776E+01 0.37914939198E+01 0.40635602093E+01 0.44646007072E+01
 0.50007794611E+01 0.56713181571E+01 0.64627247410E+01 0.62258126964E+01 0.69932263624E+01
 0.77982933818E+01 0.85940800026E+01 0.93338828011E+01 0.99798651437E+01 0.10507861340E+02
 0.10902633186E+02 0.11165717950E+02 0.11304441520E+02 0.11312592021E+02 0.11168331159E+02
 0.10850597993E+02 0.10361493723E+02 0.97233511501E+01 0.89713064305E+01 0.81523714542E+01
 0.73182157877E+01 0.65176543631E+01 0.57904157024E+01 0.51634344286E+01 0.46503714749E+01
 0.42540794542E+01 0.39708222539E+01 0.37947349532E+01 0.37212958526E+01 0.37492033005E+01
 0.38806930870E+01 0.41206747270E+01 0.44749186753E+01 0.49471603341E+01 0.55350606410E+01
 0.53610080902E+01 0.59471759636E+01 0.65997229877E+01 0.72873915422E+01 0.79733990002E+01
 0.86216185399E+01 0.92026065499E+01 0.96966399218E+01 0.10092081964E+02 0.10380069049E+02
 0.10549145253E+02 0.10583865080E+02 0.10468795721E+02 0.10195677038E+02 0.97695910923E+01
 0.92111135589E+01 0.85540522667E+01 0.78403419993E+01 0.71140251591E+01 0.64156572212E+01
 0.57779229246E+01 0.52230736904E+01 0.47626787653E+01 0.43997052983E+01 0.41321261576E+01
 0.39566418251E+01 0.38712554323E+01 0.38762871928E+01 0.39742315822E+01 0.41689956350E+01
 0.44645925131E+01 0.48629822261E+01 0.47525866396E+01 0.51578418407E+01 0.56404841307E+01
 0.61830895329E+01 0.67613176321E+01 0.73472219852E+01 0.79138139010E+01 0.84387508240E+01
 0.89052764451E+01 0.92999789166E+01 0.96089407506E+01 0.98151919983E+01 0.98998347298E+01
 0.98468333462E+01 0.96489751993E+01 0.93118589043E+01 0.88542734884E+01 0.83054627154E+01
 0.77008390755E+01 0.70774193905E+01 0.64695511065E+01 0.59053064603E+01 0.54042169935E+01
 0.49770791131E+01 0.46279049600E+01 0.43570895945E+01 0.41643574796E+01 0.40504577989E+01
 0.40174966700E+01 0.40684694815E+01 0.42065727757E+01 0.44343900749E+01 0.43859841953E+01
 0.46214778932E+01 0.49355617275E+01 0.53203445917E+01 0.57623103925E+01 0.62433192669E+01
 0.67432199380E+01 0.72427960649E+01 0.77254743480E+01 0.81768250413E+01 0.85821725069E+01
 0.89240290738E+01 0.91815727730E+01 0.93332984957E+01 0.93618807068E+01 0.92588663573E+01
 0.90271704022E+01 0.86808848146E+01 0.82431534733E+01 0.77430457773E+01 0.72119364557E+01
 0.66796947366E+01 0.61712673415E+01 0.57045832102E+01 0.52905263085E+01 0.49348746930E+01
 0.46411090558E+01 0.44126321084E+01 0.42535336268E+01 0.41681151249E+01 0.41600893644E+01
 0.42321753664E+01 0.42450545102E+01 0.43220734927E+01 0.44761384146E+01 0.47044030042E+01
 0.50006874852E+01 0.53550644696E+01 0.57548157989E+01 0.61863721167E+01 0.66369491139E+01
 0.70946595838E+01 0.75468690548E+01 0.79778177763E+01 0.83672407717E+01 0.86913364543E+01
 0.89261093794E+01 0.90517577385E+01 0.90563787739E+01 0.89379562124E+01 0.87045766343E+01
 0.83732735617E+01 0.79677585182E+01 0.75151383749E+01 0.70420172846E+01 0.65709972199E+01
 0.61188548576E+01 0.56970439347E+01 0.53139059626E+01 0.49770380873E+01 0.46944368751E+01
 0.44741111170E+01 0.43229166836E+01 0.42456669747E+01 0.43220431468E+01 0.42450888114E+01
 0.42457132655E+01 0.43229119995E+01 0.44740763057E+01 0.46944369937E+01 0.49770778897E+01
 0.53139304960E+01 0.56970319634E+01 0.61188446982E+01 0.65710135452E+01 0.70420329581E+01
 0.75151285711E+01 0.79677432524E+01 0.83732790600E+01 0.87045909003E+01 0.89379528127E+01
 0.90563608526E+01 0.90517500535E+01 0.89261192681E+01 0.86913465441E+01 0.83672374926E+01
 0.79778100269E+01 0.75468727751E+01 0.70946707703E+01 0.66369445637E+01 0.61863443845E+01
 0.57547939145E+01 0.53550762741E+01 0.50007087942E+01 0.47043825562E+01 0.44760793993E+01
 0.46215010834E+01 0.43859668594E+01 0.42321307608E+01 0.41600635345E+01 0.41681260154E+01
 0.42535565420E+01 0.44126378937E+01 0.46410994447E+01 0.49348738560E+01 0.52905432701E+01
 0.57045970927E+01 0.61712595435E+01 0.66796810801E+01 0.72119438026E+01 0.77430659273E+01
 0.82431537702E+01 0.86808631117E+01 0.90271593709E+01 0.92588758736E+01 0.93618805451E+01
 0.93332759464E+01 0.91815614989E+01 0.89240515402E+01 0.85821964892E+01 0.81768163265E+01
 0.77254556732E+01 0.72428059939E+01 0.67432414660E+01 0.62433046517E+01 0.57622629181E+01