unknown system                          
   1.00000000000000     
    -2.450000    2.450000    1.274000
     2.450000   -2.450000    1.274000
     2.450000    2.450000   -1.274000
   Si
     2
Direct
  0.250000  0.750000  0.500000
  0.000000  0.000000  0.000000
 
   32   32   32
 -.53486883078E+01 -.41730931486E+01 -.10165228605E+01 0.31662994861E+01 0.72177657751E+01
 0.10190779451E+02 0.11617779313E+02 0.11563552076E+02 0.10492300190E+02 0.90269992929E+01
 0.75827922440E+01 0.63039714103E+01 0.52633202084E+01 0.44822724909E+01 0.39499688061E+01
 0.36436873163E+01 0.35440486595E+01 0.36436560730E+01 0.39498923069E+01 0.44821755376E+01
 0.52632551257E+01 0.63039496523E+01 0.75827831718E+01 0.90269929020E+01 0.10492311389E+02
 0.11563569204E+02 0.11617772396E+02 0.10190755090E+02 0.72177513831E+01 0.31662822386E+01
 -.10165731027E+01 -.41731490954E+01 -.41731490954E+01 -.47805821185E+01 -.31119949704E+01
 0.30515707025E+00 0.44471979357E+01 0.81959848639E+01 0.10722880846E+02 0.11702788241E+02
 0.11315706984E+02 0.10082939005E+02 0.86056597302E+01 0.72002731692E+01 0.59844694948E+01
 0.50158579195E+01 0.43054462436E+01 0.38377290802E+01 0.35897259465E+01 0.35442741874E+01
 0.36972868006E+01 0.40593945151E+01 0.46517977963E+01 0.54959363529E+01 0.65968623128E+01
 0.79227137157E+01 0.93876816078E+01 0.10815698800E+02 0.11720254603E+02 0.11496128505E+02
 0.97572302123E+01 0.65550548848E+01 0.24725331076E+01 -.14796006462E+01 -.10165731027E+01
 -.31120373591E+01 -.31561417207E+01 -.11400103918E+01 0.22941302275E+01 0.61208078339E+01
 0.93257082127E+01 0.11239614203E+02 0.11691139409E+02 0.10962091991E+02 0.96027586618E+01
 0.81406658992E+01 0.67915204675E+01 0.56519760133E+01 0.47639470881E+01 0.41288762917E+01
 0.37276121433E+01 0.35376763223E+01 0.35447336167E+01 0.37482562473E+01 0.41616699612E+01
 0.48069580911E+01 0.57033326497E+01 0.68498450388E+01 0.82051719306E+01 0.96730952149E+01
 0.11046745973E+02 0.11807108535E+02 0.11395446751E+02 0.95148576234E+01 0.63208886086E+01
 0.24725331076E+01 0.31662822386E+01 0.30512945779E+00 -.11400316820E+01 -.70224491645E+00
 0.14681522977E+01 0.46698714785E+01 0.79413226708E+01 0.10423152332E+02 0.11628812583E+02
 0.11535892521E+02 0.10503538574E+02 0.90755109715E+01 0.76502892286E+01 0.63731196678E+01
 0.53201251251E+01 0.45178517674E+01 0.39594445459E+01 0.36235481528E+01 0.34892240048E+01
 0.35452650924E+01 0.37943395148E+01 0.42520222585E+01 0.49404115791E+01 0.58758671735E+01
 0.70512895888E+01 0.84172467044E+01 0.98707503024E+01 0.11184479130E+02 0.11844575982E+02
 0.11357026717E+02 0.95148576234E+01 0.65550548848E+01 0.72177513831E+01 0.44471979997E+01
 0.22941271974E+01 0.14681513944E+01 0.22478778458E+01 0.43629634562E+01 0.71129543995E+01
 0.96560288617E+01 0.11320290867E+02 0.11805115838E+02 0.11217109043E+02 0.99607304515E+01
 0.85225089803E+01 0.71539823275E+01 0.59619114559E+01 0.50018083023E+01 0.42865495362E+01
 0.38030837371E+01 0.35292026579E+01 0.34459958688E+01 0.35454535109E+01 0.38332426608E+01
 0.43264366194E+01 0.50462250670E+01 0.60054145862E+01 0.71913158248E+01 0.85487412864E+01
 0.99718804101E+01 0.11230237722E+02 0.11844575982E+02 0.11395446751E+02 0.97572302123E+01
 0.10190755090E+02 0.81959831472E+01 0.61208206982E+01 0.46698879020E+01 0.43629774343E+01
 0.53135623539E+01 0.71813347674E+01 0.93220904153E+01 0.11052151188E+02 0.11897376004E+02
 0.11727910285E+02 0.10748783623E+02 0.93739196035E+01 0.79658595341E+01 0.66715901454E+01
 0.55735308871E+01 0.47084582070E+01 0.40780874440E+01 0.36650726452E+01 0.34474947679E+01
 0.34091134018E+01 0.35451497653E+01 0.38635506870E+01 0.43818088681E+01 0.51194404667E+01
 0.60856621949E+01 0.72631551324E+01 0.85933773889E+01 0.99718804101E+01 0.11184479130E+02
 0.11807108535E+02 0.11496128505E+02 0.11617772396E+02 0.10722874432E+02 0.93257163551E+01
 0.79413430903E+01 0.71129797090E+01 0.71813542069E+01 0.81335465705E+01 0.96105308845E+01
 0.11066277609E+02 0.11992514061E+02 0.12103075551E+02 0.11409799347E+02 0.10179065743E+02
 0.87817997222E+01 0.74286710610E+01 0.62220502890E+01 0.52222486128E+01 0.44501054764E+01
 0.38990201807E+01 0.35494681904E+01 0.33809312447E+01 0.33799898616E+01 0.35445727188E+01
 0.38841305811E+01 0.44158247341E+01 0.51568933824E+01 0.61129015305E+01 0.72631551324E+01
 0.85487412864E+01 0.98707503024E+01 0.11046745973E+02 0.11720254603E+02 0.11563569204E+02
 0.11702799990E+02 0.11239624527E+02 0.10423164838E+02 0.96560464286E+01 0.93221138543E+01
 0.96105499919E+01 0.10426912761E+02 0.11437270679E+02 0.12218268184E+02 0.12434113932E+02
 0.11960506039E+02 0.10912924404E+02 0.95787400967E+01 0.82123733477E+01 0.69338848187E+01
 0.58226745105E+01 0.49200154203E+01 0.42346064131E+01 0.37545632473E+01 0.34597941328E+01
 0.33317178788E+01 0.33597111366E+01 0.35439557179E+01 0.38945406098E+01 0.44273465286E+01
 0.51568933824E+01 0.60856621949E+01 0.71913158248E+01 0.84172467044E+01 0.96730952149E+01
 0.10815698800E+02 0.10492311389E+02 0.11315730657E+02 0.11691162919E+02 0.11628828500E+02
 0.11320301064E+02 0.11052164013E+02 0.11066296909E+02 0.11437286668E+02 0.12032325512E+02
 0.12573420989E+02 0.12765729963E+02 0.12426214939E+02 0.11556215689E+02 0.10334062601E+02
 0.90011798587E+01 0.76932761985E+01 0.65021344111E+01 0.54876375457E+01 0.46762233743E+01
 0.40681729521E+01 0.36487299226E+01 0.33985298948E+01 0.33014265612E+01 0.33493128745E+01
 0.35437454506E+01 0.38945406098E+01 0.44158247341E+01 0.51194404667E+01 0.60054145862E+01
 0.70512895888E+01 0.82051719306E+01 0.93876816078E+01 0.90269929020E+01 0.10082947133E+02
 0.10962110754E+02 0.11535914973E+02 0.11805134906E+02 0.11897387418E+02 0.11992522035E+02
 0.12218280097E+02 0.12573433016E+02 0.12921138090E+02 0.13054598429E+02 0.12797771329E+02
 0.12090069374E+02 0.11018017698E+02 0.97686995700E+01 0.84800062104E+01 0.72491056257E+01
 0.61503357722E+01 0.52279572923E+01 0.44977622198E+01 0.39549957220E+01 0.35841450039E+01
 0.33674733204E+01 0.32912411250E+01 0.33493128745E+01 0.35439557179E+01 0.38841305811E+01
 0.43818088681E+01 0.50462250670E+01 0.58758671735E+01 0.68498450388E+01 0.79227137157E+01
 0.75827831718E+01 0.86056532482E+01 0.96027582765E+01 0.10503550354E+02 0.11217131250E+02
 0.11727930063E+02 0.12103082464E+02 0.12434114842E+02 0.12765738114E+02 0.13054610194E+02
 0.13182461888E+02 0.13015241571E+02 0.12475035566E+02 0.11587989043E+02 0.10478248081E+02
 0.92651088884E+01 0.80445348059E+01 0.68998608555E+01 0.58910690427E+01 0.50510732226E+01
 0.43890138933E+01 0.38977905676E+01 0.35624794620E+01 0.33674733204E+01 0.33014265612E+01
 0.33597111366E+01 0.35445727188E+01 0.38635506870E+01 0.43264366194E+01 0.49404115791E+01
 0.57033326497E+01 0.65968623128E+01 0.63039496523E+01 0.72002686550E+01 0.81406656226E+01
 0.90755109871E+01 0.99607350714E+01 0.10748796305E+02 0.11409812646E+02 0.11960510587E+02
 0.12426215730E+02 0.12797779606E+02 0.13015253011E+02 0.12989666140E+02 0.12650320228E+02
 0.11990665743E+02 0.11080782851E+02 0.10007166916E+02 0.88575249782E+01 0.77178476862E+01
 0.66597178559E+01 0.57324784192E+01 0.49615920445E+01 0.43525364576E+01 0.38977905676E+01
 0.35841450039E+01 0.33985298948E+01 0.33317178788E+01 0.33799898616E+01 0.35451497653E+01
 0.38332426608E+01 0.42520222585E+01 0.48069580911E+01 0.54959363529E+01 0.52632551257E+01
 0.59844553609E+01 0.67915344242E+01 0.76502999998E+01 0.85225029646E+01 0.93739117936E+01
 0.10179073074E+02 0.10912938926E+02 0.11556220345E+02 0.12090067461E+02 0.12475041508E+02
 0.12650330671E+02 0.12556987388E+02 0.12171710466E+02 0.11519832046E+02 0.10652887079E+02
 0.96431373304E+01 0.85717598351E+01 0.75157679639E+01 0.65375828692E+01 0.56791716912E+01
 0.49615920445E+01 0.43890138933E+01 0.39549957220E+01 0.36487299226E+01 0.34597941328E+01
 0.33809312447E+01 0.34091134018E+01 0.35454535109E+01 0.37943395148E+01 0.41616699612E+01
 0.46517977963E+01 0.44821755376E+01 0.50158185208E+01 0.56519850391E+01 0.63731466777E+01
 0.71539947633E+01 0.79658519453E+01 0.87817934043E+01 0.95787485241E+01 0.10334073247E+02
 0.11018016839E+02 0.11587984779E+02 0.11990670605E+02 0.12171718472E+02 0.12092710866E+02
 0.11742957083E+02 0.11143869868E+02 0.10344871497E+02 0.94137361634E+01 0.84247747434E+01
 0.74474639045E+01 0.65375828692E+01 0.57324784192E+01 0.50510732226E+01 0.44977622198E+01
 0.40681729521E+01 0.37545632473E+01 0.35494681904E+01 0.34474947679E+01 0.34459958688E+01
 0.35452650924E+01 0.37482562473E+01 0.40593945151E+01 0.39498923069E+01 0.43054112341E+01
 0.47639469691E+01 0.53201542712E+01 0.59619496192E+01 0.66716099812E+01 0.74286669309E+01
 0.82123656508E+01 0.90011840445E+01 0.97687074562E+01 0.10478247542E+02 0.11080778048E+02
 0.11519832137E+02 0.11742959852E+02 0.11715070482E+02 0.11427878135E+02 0.10902271446E+02
 0.10184064796E+02 0.93354908669E+01 0.84247747434E+01 0.75157679639E+01 0.66597178559E+01
 0.58910690427E+01 0.52279572923E+01 0.46762233743E+01 0.42346064131E+01 0.38990201807E+01
 0.36650726452E+01 0.35292026579E+01 0.34892240048E+01 0.35447336167E+01 0.36972868006E+01
 0.36436560730E+01 0.38377453208E+01 0.41289114109E+01 0.45178973964E+01 0.50018615168E+01
 0.55735738079E+01 0.62220640196E+01 0.69338760641E+01 0.76932700004E+01 0.84800132271E+01
 0.92651167718E+01 0.10007164433E+02 0.10652879403E+02 0.11143865765E+02 0.11427877292E+02
 0.11470270252E+02 0.11261523690E+02 0.10819097655E+02 0.10184064796E+02 0.94137361634E+01
 0.85717598351E+01 0.77178476862E+01 0.68998608555E+01 0.61503357722E+01 0.54876375457E+01
 0.49200154203E+01 0.44501054764E+01 0.40780874440E+01 0.38030837371E+01 0.36235481528E+01
 0.35376763223E+01 0.35442741874E+01 0.35440486595E+01 0.35897977328E+01 0.37277201976E+01
 0.39595488468E+01 0.42866301144E+01 0.47085119807E+01 0.52222766199E+01 0.58226806156E+01
 0.65021292319E+01 0.72491014905E+01 0.80445362444E+01 0.88575279494E+01 0.96431368695E+01
 0.10344867087E+02 0.10902265924E+02 0.11261520098E+02 0.11385652655E+02 0.11261523690E+02
 0.10902271446E+02 0.10344871497E+02 0.96431373304E+01 0.88575249782E+01 0.80445348059E+01
 0.72491056257E+01 0.65021344111E+01 0.58226745105E+01 0.52222486128E+01 0.47084582070E+01
 0.42865495362E+01 0.39594445459E+01 0.37276121433E+01 0.35897259465E+01 0.36436873163E+01
 0.35443773316E+01 0.35378374282E+01 0.36237184605E+01 0.38032174210E+01 0.40781697784E+01
 0.44501475852E+01 0.49200324372E+01 0.54876370679E+01 0.61503231769E+01 0.68998469362E+01
 0.77178438754E+01 0.85717662301E+01 0.94137414445E+01 0.10184061274E+02 0.10819090236E+02
 0.11261520098E+02 0.11470270252E+02 0.11427878135E+02 0.11143869868E+02 0.10652887079E+02
 0.10007166916E+02 0.92651088884E+01 0.84800062104E+01 0.76932761985E+01 0.69338848187E+01
 0.62220502890E+01 0.55735308871E+01 0.50018083023E+01 0.45178517674E+01 0.41288762917E+01
 0.38377290802E+01 0.39499688061E+01 0.36974146975E+01 0.35449086110E+01 0.34894192538E+01
 0.35293814584E+01 0.36652054625E+01 0.38990945378E+01 0.42346300838E+01 0.46762172781E+01
 0.52279397651E+01 0.58910486234E+01 0.66597010366E+01 0.75157627251E+01 0.84247804565E+01
 0.93354956518E+01 0.10184061274E+02 0.10902265924E+02 0.11427877292E+02 0.11715070482E+02
 0.11742957083E+02 0.11519832046E+02 0.11080782851E+02 0.10478248081E+02 0.97686995700E+01
 0.90011798587E+01 0.82123733477E+01 0.74286710610E+01 0.66715901454E+01 0.59619114559E+01
 0.53201251251E+01 0.47639470881E+01 0.43054462436E+01 0.44822724909E+01 0.40595397249E+01
 0.37484322939E+01 0.35454548313E+01 0.34461841066E+01 0.34476602484E+01 0.35495813303E+01
 0.37546068075E+01 0.40681637446E+01 0.44977363231E+01 0.50510496528E+01 0.57324537262E+01
 0.65375584247E+01 0.74474534762E+01 0.84247804565E+01 0.94137414445E+01 0.10344867087E+02
 0.11143865765E+02 0.11742959852E+02 0.12092710866E+02 0.12171710466E+02 0.11990665743E+02
 0.11587989043E+02 0.11018017698E+02 0.10334062601E+02 0.95787400967E+01 0.87817997222E+01
 0.79658595341E+01 0.71539823275E+01 0.63731196678E+01 0.56519760133E+01 0.50158579195E+01
 0.52633202084E+01 0.46519182350E+01 0.41618339304E+01 0.37945238559E+01 0.35456345584E+01
 0.34092753433E+01 0.33810591265E+01 0.34598680771E+01 0.36487420818E+01 0.39549669344E+01
 0.43889759101E+01 0.49615577340E+01 0.56791389817E+01 0.65375584247E+01 0.75157627251E+01
 0.85717662301E+01 0.96431368695E+01 0.10652879403E+02 0.11519832137E+02 0.12171718472E+02
 0.12556987388E+02 0.12650320228E+02 0.12475035566E+02 0.12090069374E+02 0.11556215689E+02
 0.10912924404E+02 0.10179065743E+02 0.93739196035E+01 0.85225089803E+01 0.76502892286E+01
 0.67915204675E+01 0.59844694948E+01 0.63039714103E+01 0.54959962457E+01 0.48070735225E+01
 0.42521846964E+01 0.38334154447E+01 0.35453001360E+01 0.33801117597E+01 0.33318115036E+01
 0.33985783405E+01 0.35841346645E+01 0.38977414883E+01 0.43524864498E+01 0.49615577340E+01
 0.57324537262E+01 0.66597010366E+01 0.77178438754E+01 0.88575279494E+01 0.10007164433E+02
 0.11080778048E+02 0.11990670605E+02 0.12650330671E+02 0.12989666140E+02 0.13015241571E+02
 0.12797771329E+02 0.12426214939E+02 0.11960506039E+02 0.11409799347E+02 0.10748783623E+02
 0.99607304515E+01 0.90755109715E+01 0.81406658992E+01 0.72002731692E+01 0.75827922440E+01
 0.65968822173E+01 0.57033847506E+01 0.49405131025E+01 0.43265768197E+01 0.38636953628E+01
 0.35446968121E+01 0.33598114358E+01 0.33014979200E+01 0.33674972130E+01 0.35624521179E+01
 0.38977414883E+01 0.43889759101E+01 0.50510496528E+01 0.58910486234E+01 0.68998469362E+01
 0.80445362444E+01 0.92651167718E+01 0.10478247542E+02 0.11587984779E+02 0.12475041508E+02
 0.13015253011E+02 0.13182461888E+02 0.13054598429E+02 0.12765729963E+02 0.12434113932E+02
 0.12103075551E+02 0.11727910285E+02 0.11217109043E+02 0.10503538574E+02 0.96027586618E+01
 0.86056597302E+01 0.90269992929E+01 0.79227302049E+01 0.68498664412E+01 0.58759050079E+01
 0.50463022322E+01 0.43819275907E+01 0.38842605138E+01 0.35440643872E+01 0.33493926900E+01
 0.32912957697E+01 0.33674972130E+01 0.35841346645E+01 0.39549669344E+01 0.44977363231E+01
 0.52279397651E+01 0.61503231769E+01 0.72491014905E+01 0.84800132271E+01 0.97687074562E+01
 0.11018016839E+02 0.12090067461E+02 0.12797779606E+02 0.13054610194E+02 0.12921138090E+02
 0.12573420989E+02 0.12218268184E+02 0.11992514061E+02 0.11897376004E+02 0.11805115838E+02
 0.11535892521E+02 0.10962091991E+02 0.10082939005E+02 0.10492300190E+02 0.93876888376E+01
 0.82051883445E+01 0.70513052369E+01 0.60054422409E+01 0.51195062843E+01 0.44159301607E+01
 0.38946540225E+01 0.35438404728E+01 0.33493926900E+01 0.33014979200E+01 0.33985783405E+01
 0.36487420818E+01 0.40681637446E+01 0.46762172781E+01 0.54876370679E+01 0.65021292319E+01
 0.76932700004E+01 0.90011840445E+01 0.10334073247E+02 0.11556220345E+02 0.12426215730E+02
 0.12765738114E+02 0.12573433016E+02 0.12032325512E+02 0.11437270679E+02 0.11066277609E+02
 0.11052151188E+02 0.11320290867E+02 0.11628812583E+02 0.11691139409E+02 0.11315706984E+02
 0.11563552076E+02 0.10815681741E+02 0.96730917585E+01 0.84172592141E+01 0.71913332780E+01
 0.60856862532E+01 0.51569463872E+01 0.44274397394E+01 0.38946540225E+01 0.35440643872E+01
 0.33598114358E+01 0.33318115036E+01 0.34598680771E+01 0.37546068075E+01 0.42346300838E+01
 0.49200324372E+01 0.58226806156E+01 0.69338760641E+01 0.82123656508E+01 0.95787485241E+01
 0.10912938926E+02 0.11960510587E+02 0.12434114842E+02 0.12218280097E+02 0.11437286668E+02
 0.10426912761E+02 0.96105308845E+01 0.93220904153E+01 0.96560288617E+01 0.10423152332E+02
 0.11239614203E+02 0.11702788241E+02 0.11617779313E+02 0.11720242640E+02 0.11046721038E+02
 0.98707394695E+01 0.85487518480E+01 0.72631686979E+01 0.61129184607E+01 0.51569463872E+01
 0.44159301607E+01 0.38842605138E+01 0.35446968121E+01 0.33801117597E+01 0.33810591265E+01
 0.35495813303E+01 0.38990945378E+01 0.44501475852E+01 0.52222766199E+01 0.62220640196E+01
 0.74286669309E+01 0.87817934043E+01 0.10179073074E+02 0.11409812646E+02 0.12103082464E+02
 0.11992522035E+02 0.11066296909E+02 0.96105499919E+01 0.81335465705E+01 0.71813347674E+01
 0.71129543995E+01 0.79413226708E+01 0.93257082127E+01 0.10722880846E+02 0.10190779451E+02
 0.11496155574E+02 0.11807106288E+02 0.11184450701E+02 0.99718613134E+01 0.85933824563E+01
 0.72631686979E+01 0.60856862532E+01 0.51195062843E+01 0.43819275907E+01 0.38636953628E+01
 0.35453001360E+01 0.34092753433E+01 0.34476602484E+01 0.36652054625E+01 0.40781697784E+01
 0.47085119807E+01 0.55735738079E+01 0.66716099812E+01 0.79658519453E+01 0.93739117936E+01
 0.10748796305E+02 0.11727930063E+02 0.11897387418E+02 0.11052164013E+02 0.93221138543E+01
 0.71813542069E+01 0.53135623539E+01 0.43629634562E+01 0.46698714785E+01 0.61208078339E+01
 0.81959848639E+01 0.72177657751E+01 0.97572753710E+01 0.11395493267E+02 0.11844578815E+02
 0.11230205022E+02 0.99718613134E+01 0.85487518480E+01 0.71913332780E+01 0.60054422409E+01
 0.50463022322E+01 0.43265768197E+01 0.38334154447E+01 0.35456345584E+01 0.34461841066E+01
 0.35293814584E+01 0.38032174210E+01 0.42866301144E+01 0.50018615168E+01 0.59619496192E+01
 0.71539947633E+01 0.85225029646E+01 0.99607350714E+01 0.11217131250E+02 0.11805134906E+02
 0.11320301064E+02 0.96560464286E+01 0.71129797090E+01 0.43629774343E+01 0.22478778458E+01
 0.14681522977E+01 0.22941302275E+01 0.44471979357E+01 0.31662994861E+01 0.65550835728E+01
 0.95149160934E+01 0.11357079183E+02 0.11844578815E+02 0.11184450701E+02 0.98707394695E+01
 0.84172592141E+01 0.70513052369E+01 0.58759050079E+01 0.49405131025E+01 0.42521846964E+01
 0.37945238559E+01 0.35454548313E+01 0.34894192538E+01 0.36237184605E+01 0.39595488468E+01
 0.45178973964E+01 0.53201542712E+01 0.63731466777E+01 0.76502999998E+01 0.90755109871E+01
 0.10503550354E+02 0.11535914973E+02 0.11628828500E+02 0.10423164838E+02 0.79413430903E+01
 0.46698879020E+01 0.14681513944E+01 -.70224491645E+00 -.11400103918E+01 0.30515707025E+00
 -.10165228605E+01 0.24725626872E+01 0.63209224277E+01 0.95149160934E+01 0.11395493267E+02
 0.11807106288E+02 0.11046721038E+02 0.96730917585E+01 0.82051883445E+01 0.68498664412E+01
 0.57033847506E+01 0.48070735225E+01 0.41618339304E+01 0.37484322939E+01 0.35449086110E+01
 0.35378374282E+01 0.37277201976E+01 0.41289114109E+01 0.47639469691E+01 0.56519850391E+01
 0.67915344242E+01 0.81406656226E+01 0.96027582765E+01 0.10962110754E+02 0.11691162919E+02
 0.11239624527E+02 0.93257163551E+01 0.61208206982E+01 0.22941271974E+01 -.11400316820E+01
 -.31561417207E+01 -.31119949704E+01 -.41730931486E+01 -.14795416683E+01 0.24725626872E+01
 0.65550835728E+01 0.97572753710E+01 0.11496155574E+02 0.11720242640E+02 0.10815681741E+02
 0.93876888376E+01 0.79227302049E+01 0.65968822173E+01 0.54959962457E+01 0.46519182350E+01
 0.40595397249E+01 0.36974146975E+01 0.35443773316E+01 0.35897977328E+01 0.38377453208E+01
 0.43054112341E+01 0.50158185208E+01 0.59844553609E+01 0.72002686550E+01 0.86056532482E+01
 0.10082947133E+02 0.11315730657E+02 0.11702799990E+02 0.10722874432E+02 0.81959831472E+01
 0.44471979997E+01 0.30512945779E+00 -.31120373591E+01 -.47805821185E+01 -.41729557266E+01
 -.33106316977E+01 -.53170813695E+00 0.33146706963E+01 0.71410280818E+01 0.10016205430E+02
 0.11442395939E+02 0.11432361213E+02 0.10402495518E+02 0.89508774807E+01 0.75042805701E+01
 0.62138779168E+01 0.51565074981E+01 0.43564712099E+01 0.38037929545E+01 0.34750804895E+01
 0.33494316538E+01 0.34175728289E+01 0.36851375893E+01 0.41707080308E+01 0.48982084566E+01
 0.58826502297E+01 0.71100031368E+01 0.85172636929E+01 0.99791852874E+01 0.11153281609E+02
 0.11444777363E+02 0.10373274505E+02 0.78178189742E+01 0.41575029237E+01 0.24090014528E+00
 -.28485097530E+01 -.33106738832E+01 -.41730435921E+01 -.28485204497E+01 0.24099010567E+00
 0.41575816651E+01 0.78178026383E+01 0.10373218217E+02 0.11444774231E+02 0.11153316867E+02
 0.99791700430E+01 0.85171871028E+01 0.71099605321E+01 0.58827022773E+01 0.48982911490E+01
 0.41707318863E+01 0.36851152407E+01 0.34175728148E+01 0.33494424225E+01 0.34750191482E+01
 0.38036533047E+01 0.43563633682E+01 0.51565080578E+01 0.62139242758E+01 0.75042804157E+01
 0.89508542804E+01 0.10402531968E+02 0.11432439765E+02 0.11442409564E+02 0.10016128366E+02
 0.71409646461E+01 0.33146946330E+01 -.53166789301E+00 -.43740621855E+00 -.27461767791E+01
 -.31118372898E+01 -.14271114399E+01 0.17640208092E+01 0.54927338186E+01 0.87419943619E+01
 0.10792110901E+02 0.11402632627E+02 0.10797235699E+02 0.94972744067E+01 0.80487311327E+01
 0.66967850622E+01 0.55456619639E+01 0.46430604877E+01 0.39931163116E+01 0.35769145226E+01
 0.33710153242E+01 0.33597438131E+01 0.35412605252E+01 0.39282005901E+01 0.45430371541E+01
 0.54075522966E+01 0.65258692492E+01 0.78638357284E+01 0.93332468806E+01 0.10754778105E+02
 0.11649158391E+02 0.11448475392E+02 0.98149859495E+01 0.68376050592E+01 0.31004133936E+01
 0.35530622961E+01 0.51255015765E+00 -.12348220742E+01 -.11399644929E+01 0.75007097942E+00
 0.38133093829E+01 0.71110403714E+01 0.97475328350E+01 0.11164269711E+02 0.11264650946E+02
 0.10358076093E+02 0.89767968537E+01 0.75621784794E+01 0.62802804619E+01 0.52156874316E+01
 0.44004962761E+01 0.38299910498E+01 0.34827493307E+01 0.33368679777E+01 0.33799799209E+01
 0.36138102288E+01 0.40537215748E+01 0.47229363405E+01 0.56407954947E+01 0.68052044578E+01
 0.81731879233E+01 0.96483614394E+01 0.11028247322E+02 0.11818306817E+02 0.11503244580E+02
 0.98289199826E+01 0.69688763131E+01 0.75203625556E+01 0.46067951160E+01 0.21811685263E+01
 0.10102436410E+01 0.14682661293E+01 0.33799356608E+01 0.60974616961E+01 0.87691929159E+01
 0.10661598753E+02 0.11391808799E+02 0.10996723289E+02 0.98450215310E+01 0.84374701637E+01
 0.70747498557E+01 0.58758318640E+01 0.49046311992E+01 0.41787819016E+01 0.36866662627E+01
 0.34057331174E+01 0.33161705576E+01 0.34090728527E+01 0.36896027302E+01 0.41751802830E+01
 0.48886169048E+01 0.58458830843E+01 0.70389133373E+01 0.84178639730E+01 0.98817630959E+01
 0.11217212298E+02 0.11947388438E+02 0.11623070902E+02 0.10069764307E+02 0.10499533196E+02
 0.84042604212E+01 0.61036541211E+01 0.43310534439E+01 0.36810176792E+01 0.43630414997E+01
 0.61133362768E+01 0.83112574250E+01 0.10236722128E+02 0.11339871021E+02 0.11409513180E+02
 0.10593092583E+02 0.92863852273E+01 0.78975728432E+01 0.66038642532E+01 0.54975756013E+01
 0.46229016130E+01 0.39851171316E+01 0.35676082583E+01 0.33479631347E+01 0.33091744972E+01
 0.34458554808E+01 0.37659029057E+01 0.42876852067E+01 0.50326900233E+01 0.60131942805E+01
 0.72157486093E+01 0.85856682750E+01 0.10021153758E+02 0.11315062341E+02 0.12032970199E+02
 0.11796717708E+02 0.11986647655E+02 0.11037849248E+02 0.94769449308E+01 0.78231651051E+01
 0.66665014538E+01 0.64285274754E+01 0.71813785230E+01 0.86184686640E+01 0.10191190939E+02
 0.11337874635E+02 0.11694014144E+02 0.11200094943E+02 0.10081733941E+02 0.87199366420E+01
 0.73767038916E+01 0.61664985832E+01 0.51585688719E+01 0.43795543278E+01 0.38251439527E+01
 0.34759868711E+01 0.33110019380E+01 0.33161611888E+01 0.34891253889E+01 0.38397755848E+01
 0.43865687059E+01 0.51488226683E+01 0.61347635747E+01 0.73265037918E+01 0.86672003156E+01
 0.10058137260E+02 0.11314443995E+02 0.12060273147E+02 0.12006341624E+02 0.12138027978E+02
 0.11578797981E+02 0.10565727523E+02 0.95216762569E+01 0.88863352402E+01 0.89251899451E+01
 0.96106136813E+01 0.10636896693E+02 0.11558886379E+02 0.11980813994E+02 0.11707002996E+02
 0.10797589151E+02 0.95197564459E+01 0.81716703399E+01 0.68954336360E+01 0.57786906611E+01
 0.48698777485E+01 0.41816494097E+01 0.37032682599E+01 0.34144160056E+01 0.32959614177E+01
 0.33368874975E+01 0.35374761526E+01 0.39086618001E+01 0.44678713082E+01 0.52315808995E+01
 0.62042634910E+01 0.73650551240E+01 0.86574753170E+01 0.99890478028E+01 0.11207645233E+02
 0.10989924037E+02 0.11846952196E+02 0.12190907581E+02 0.12011747263E+02 0.11501666706E+02
 0.10977308300E+02 0.10736800093E+02 0.10919008168E+02 0.11437299525E+02 0.12021771774E+02
 0.12345123909E+02 0.12166961047E+02 0.11430855437E+02 0.10278525152E+02 0.89675227148E+01
 0.76666793473E+01 0.64733250129E+01 0.54540991040E+01 0.46404282533E+01 0.40348082541E+01
 0.36227618439E+01 0.33844715015E+01 0.33033063068E+01 0.33709978817E+01 0.35895563004E+01
 0.39699554406E+01 0.45279225670E+01 0.52769001585E+01 0.62180324257E+01 0.73288966355E+01
 0.85558594608E+01 0.98154449296E+01 0.95444578677E+01 0.10662555493E+02 0.11563753057E+02
 0.12094831559E+02 0.12245171431E+02 0.12151789763E+02 0.12028002642E+02 0.12051539067E+02
 0.12269881149E+02 0.12573498806E+02 0.12750016910E+02 0.12588448499E+02 0.11980137109E+02
 0.10970797181E+02 0.97406579021E+01 0.84597552920E+01 0.72290559576E+01 0.61274112814E+01
 0.52038095711E+01 0.44769120759E+01 0.39427924229E+01 0.35856312874E+01 0.33871148382E+01
 0.33331114977E+01 0.34175629057E+01 0.36434774004E+01 0.40211323566E+01 0.45639773566E+01
 0.52823402071E+01 0.61748540767E+01 0.72192589149E+01 0.83667858270E+01 0.80990088011E+01
 0.91875849932E+01 0.10236359105E+02 0.11152738984E+02 0.11822520229E+02 0.12225452559E+02
 0.12442465169E+02 0.12596619730E+02 0.12772610446E+02 0.12960404326E+02 0.13054623473E+02
 0.12908785771E+02 0.12413910091E+02 0.11561152010E+02 0.10458163482E+02 0.92472590260E+01
 0.80262323075E+01 0.68797996509E+01 0.58710835102E+01 0.50356337569E+01 0.43836976457E+01
 0.39080174417E+01 0.35929943763E+01 0.34223781879E+01 0.33845217581E+01 0.34750749351E+01
 0.36972212530E+01 0.40598423331E+01 0.45739438071E+01 0.52471922022E+01 0.60766486430E+01
 0.70414640299E+01 0.68040168751E+01 0.77650963254E+01 0.87606399797E+01 0.97335179173E+01
 0.10629113596E+02 0.11378276126E+02 0.11948537013E+02 0.12370987611E+02 0.12697232005E+02
 0.12947256481E+02 0.13081661591E+02 0.13015267826E+02 0.12663915737E+02 0.11997957146E+02
 0.11073117091E+02 0.99899432381E+01 0.88347184164E+01 0.76921747784E+01 0.66348378687E+01
 0.57135611779E+01 0.49546396688E+01 0.43633812982E+01 0.39314600425E+01 0.36447308288E+01
 0.34894189945E+01 0.34560828674E+01 0.35414428644E+01 0.37483219417E+01 0.40839894858E+01
 0.45570737714E+01 0.51729788868E+01 0.59280618310E+01 0.57363906087E+01 0.65185937533E+01
 0.73806673146E+01 0.82822858599E+01 0.91785901442E+01 0.10029108333E+02 0.10800703591E+02
 0.11460519464E+02 0.12000891703E+02 0.12422695749E+02 0.12706019118E+02 0.12801648078E+02
 0.12650298798E+02 0.12218383219E+02 0.11527613348E+02 0.10635473176E+02 0.96108004298E+01
 0.85323467882E+01 0.74762554395E+01 0.65049636975E+01 0.56604681379E+01 0.49633344488E+01
 0.44167005312E+01 0.40128569473E+01 0.37398436881E+01 0.35864845313E+01 0.35453723738E+01
 0.36139960160E+01 0.37944733160E+01 0.40922637589E+01 0.45138394011E+01 0.50630474729E+01
 0.49229401917E+01 0.55110549069E+01 0.61985733689E+01 0.69630483803E+01 0.77735765812E+01
 0.85959162404E+01 0.93985801616E+01 0.10156228855E+02 0.10847160705E+02 0.11445117873E+02
 0.11919042382E+02 0.12227964674E+02 0.12324087602E+02 0.12171694341E+02 0.11764493389E+02
 0.11124159469E+02 0.10298483448E+02 0.93532697891E+01 0.83611853940E+01 0.73905121389E+01
 0.64960516212E+01 0.57140695260E+01 0.50621211038E+01 0.45429907958E+01 0.41506675431E+01
 0.38760314713E+01 0.37107855159E+01 0.36494326773E+01 0.36899113052E+01 0.38334923077E+01
 0.40840328812E+01 0.44462720381E+01 0.43577833198E+01 0.47593411040E+01 0.52625692438E+01
 0.58586097358E+01 0.65308776859E+01 0.72567658846E+01 0.80112997671E+01 0.87705495649E+01
 0.95122040366E+01 0.10212178854E+02 0.10839151515E+02 0.11351491519E+02 0.11700636344E+02
 0.11841109729E+02 0.11742936087E+02 0.11400796731E+02 0.10836621729E+02 0.10095823394E+02
 0.92393159174E+01 0.83335601736E+01 0.74405576002E+01 0.66097890165E+01 0.58739612988E+01
 0.52493407783E+01 0.47397192528E+01 0.43418059389E+01 0.40498841811E+01 0.38586809643E+01
 0.37646145242E+01 0.37661480136E+01 0.38638136776E+01 0.40599547791E+01 0.40212893238E+01
 0.42526004724E+01 0.45800105303E+01 0.50023103796E+01 0.55135168325E+01 0.61024203608E+01
 0.67538698920E+01 0.74508383323E+01 0.81755238677E+01 0.89079371938E+01 0.96219815253E+01
 0.10281420218E+02 0.10839501804E+02 0.11244604645E+02 0.11450624493E+02 0.11427856226E+02
 0.11170154127E+02 0.10696564870E+02 0.10047941620E+02 0.92799098944E+01 0.84536603787E+01
 0.76264174285E+01 0.68438891925E+01 0.61366421495E+01 0.55208944547E+01 0.50024568224E+01
 0.45815447190E+01 0.42564679197E+01 0.40254332568E+01 0.38869757581E+01 0.38400588923E+01
 0.38844722391E+01 0.38948498141E+01 0.39701649290E+01 0.41357959835E+01 0.43928987505E+01
 0.47411578122E+01 0.51773559492E+01 0.56950979478E+01 0.62856395066E+01 0.69386511587E+01
 0.76414121210E+01 0.83757877555E+01 0.91140746778E+01 0.98163769383E+01 0.10432279120E+02
 0.10907661236E+02 0.11194700873E+02 0.11261513458E+02 0.11098474082E+02 0.10720022899E+02
 0.10162070722E+02 0.94756279407E+01 0.87177928697E+01 0.79421955848E+01 0.71916683688E+01
 0.64952737372E+01 0.58698501505E+01 0.53241621953E+01 0.48629954894E+01 0.44894853768E+01
 0.42056552793E+01 0.40122434248E+01 0.39088703738E+01 0.39701311367E+01 0.38948969858E+01
 0.39089350898E+01 0.40122527001E+01 0.42056385172E+01 0.44895212590E+01 0.48630816768E+01
 0.53242208979E+01 0.58698511398E+01 0.64952679555E+01 0.71916911604E+01 0.79422141226E+01
 0.87177756359E+01 0.94756024043E+01 0.10162074250E+02 0.10720041921E+02 0.11098472308E+02
 0.11261491747E+02 0.11194691537E+02 0.10907677148E+02 0.10432299557E+02 0.98163821586E+01
 0.91140730283E+01 0.83757992930E+01 0.76414325634E+01 0.69386482249E+01 0.62855968943E+01
 0.56950483357E+01 0.51773402847E+01 0.47411586383E+01 0.43928608331E+01 0.41357218211E+01
 0.42526344957E+01 0.40212802821E+01 0.38844337239E+01 0.38400456540E+01 0.38870095294E+01
 0.40254867890E+01 0.42565092435E+01 0.45815729928E+01 0.50024903956E+01 0.55209344392E+01
 0.61366636591E+01 0.68438778930E+01 0.76263991533E+01 0.84536686380E+01 0.92799332217E+01
 0.10047940351E+02 0.10696538313E+02 0.11170143817E+02 0.11427873794E+02 0.11450630843E+02
 0.11244583396E+02 0.10839496597E+02 0.10281461114E+02 0.96220270863E+01 0.89079403751E+01
 0.81755099735E+01 0.74508554728E+01 0.67538966850E+01 0.61023956255E+01 0.55134456596E+01