   2   2   0   0
  0.1529437E+02  0.3691622E-09  0.3691622E-09  0.3691622E-09  0.5000000E-15
  1.000000000000000E-004
  CAR 
 unknown system                          
     23.07886934     -6.55528400  301      9.06872161      1.00000000
     -6.555  0.0000E+00  0.0000E+00
     -6.457  0.0000E+00  0.0000E+00
     -6.358  0.0000E+00  0.0000E+00
     -6.259  0.0000E+00  0.0000E+00
     -6.160  0.0000E+00  0.0000E+00
     -6.061  0.0000E+00  0.0000E+00
     -5.963  0.0000E+00  0.0000E+00
     -5.864  0.0000E+00  0.0000E+00
     -5.765  0.0000E+00  0.0000E+00
     -5.666  0.1079E-16  0.1066E-17
     -5.567  0.2211E-14  0.2194E-15
     -5.469  0.2827E-12  0.2814E-13
     -5.370  0.2238E-10  0.2239E-11
     -5.271  0.1099E-08  0.1108E-09
     -5.172  0.3351E-07  0.3421E-08
     -5.074  0.6359E-06  0.6623E-07
     -4.975  0.7536E-05  0.8107E-06
     -4.876  0.5615E-04  0.6358E-05
     -4.777  0.2672E-03  0.3275E-04
     -4.678  0.8433E-03  0.1160E-03
     -4.580  0.1924E-02  0.3061E-03
     -4.481  0.3621E-02  0.6638E-03
     -4.382  0.6045E-02  0.1261E-02
     -4.283  0.8515E-02  0.2102E-02
     -4.185  0.9632E-02  0.3054E-02
     -4.086  0.9381E-02  0.3980E-02
     -3.987  0.9710E-02  0.4939E-02
     -3.888  0.1188E-01  0.6113E-02
     -3.789  0.1427E-01  0.7523E-02
     -3.691  0.1477E-01  0.8982E-02
     -3.592  0.1417E-01  0.1038E-01
     -3.493  0.1463E-01  0.1183E-01
     -3.394  0.1639E-01  0.1345E-01
     -3.296  0.1825E-01  0.1525E-01
     -3.197  0.1935E-01  0.1716E-01
     -3.098  0.1925E-01  0.1906E-01
     -2.999  0.1889E-01  0.2093E-01
     -2.900  0.1926E-01  0.2283E-01
     -2.802  0.1888E-01  0.2469E-01
     -2.703  0.1686E-01  0.2636E-01
     -2.604  0.1574E-01  0.2791E-01
     -2.505  0.1830E-01  0.2972E-01
     -2.407  0.2369E-01  0.3206E-01
     -2.308  0.2851E-01  0.3488E-01
     -2.209  0.3100E-01  0.3794E-01
     -2.110  0.3168E-01  0.4107E-01
     -2.011  0.2983E-01  0.4402E-01
     -1.913  0.2365E-01  0.4635E-01
     -1.814  0.1615E-01  0.4795E-01
     -1.715  0.1404E-01  0.4934E-01
     -1.616  0.1964E-01  0.5128E-01
     -1.517  0.2856E-01  0.5410E-01
     -1.419  0.3365E-01  0.5742E-01
     -1.320  0.3183E-01  0.6056E-01
     -1.221  0.2758E-01  0.6329E-01
     -1.122  0.2702E-01  0.6596E-01
     -1.024  0.2965E-01  0.6889E-01
     -0.925  0.3123E-01  0.7197E-01
     -0.826  0.3170E-01  0.7510E-01
     -0.727  0.3275E-01  0.7834E-01
     -0.628  0.3318E-01  0.8161E-01
     -0.530  0.3172E-01  0.8475E-01
     -0.431  0.2968E-01  0.8768E-01
     -0.332  0.2916E-01  0.9056E-01
     -0.233  0.3076E-01  0.9360E-01
     -0.135  0.3353E-01  0.9691E-01
     -0.036  0.3528E-01  0.1004E+00
      0.063  0.3532E-01  0.1039E+00
      0.162  0.3680E-01  0.1075E+00
      0.261  0.4130E-01  0.1116E+00
      0.359  0.4441E-01  0.1160E+00
      0.458  0.4223E-01  0.1202E+00
      0.557  0.3696E-01  0.1238E+00
      0.656  0.3249E-01  0.1270E+00
      0.754  0.2982E-01  0.1300E+00
      0.853  0.2909E-01  0.1328E+00
      0.952  0.3102E-01  0.1359E+00
      1.051  0.3436E-01  0.1393E+00
      1.150  0.3749E-01  0.1430E+00
      1.248  0.4179E-01  0.1471E+00
      1.347  0.4679E-01  0.1517E+00
      1.446  0.4820E-01  0.1565E+00
      1.545  0.4540E-01  0.1610E+00
      1.643  0.4242E-01  0.1652E+00
      1.742  0.4169E-01  0.1693E+00
      1.841  0.4338E-01  0.1736E+00
      1.940  0.4458E-01  0.1780E+00
      2.039  0.3896E-01  0.1818E+00
      2.137  0.2666E-01  0.1845E+00
      2.236  0.1735E-01  0.1862E+00
      2.335  0.1803E-01  0.1880E+00
      2.434  0.2596E-01  0.1905E+00
      2.533  0.3415E-01  0.1939E+00
      2.631  0.3875E-01  0.1977E+00
      2.730  0.4026E-01  0.2017E+00
      2.829  0.4184E-01  0.2058E+00
      2.928  0.4602E-01  0.2104E+00
      3.026  0.5068E-01  0.2154E+00
      3.125  0.5137E-01  0.2205E+00
      3.224  0.4761E-01  0.2252E+00
      3.323  0.4146E-01  0.2293E+00
      3.422  0.3460E-01  0.2327E+00
      3.520  0.3122E-01  0.2358E+00
      3.619  0.3496E-01  0.2392E+00
      3.718  0.4178E-01  0.2434E+00
      3.817  0.4566E-01  0.2479E+00
      3.915  0.4631E-01  0.2524E+00
      4.014  0.4531E-01  0.2569E+00
      4.113  0.4243E-01  0.2611E+00
      4.212  0.3878E-01  0.2649E+00
      4.311  0.3916E-01  0.2688E+00
      4.409  0.4791E-01  0.2735E+00
      4.508  0.6043E-01  0.2795E+00
      4.607  0.6625E-01  0.2860E+00
      4.706  0.6161E-01  0.2921E+00
      4.804  0.5197E-01  0.2973E+00
      4.903  0.4426E-01  0.3016E+00
      5.002  0.4092E-01  0.3057E+00
      5.101  0.4101E-01  0.3097E+00
      5.200  0.4311E-01  0.3140E+00
      5.298  0.4505E-01  0.3184E+00
      5.397  0.4553E-01  0.3229E+00
      5.496  0.4684E-01  0.3276E+00
      5.595  0.5162E-01  0.3327E+00
      5.693  0.5589E-01  0.3382E+00
      5.792  0.5367E-01  0.3435E+00
      5.891  0.4880E-01  0.3483E+00
      5.990  0.5052E-01  0.3533E+00
      6.089  0.5903E-01  0.3591E+00
      6.187  0.6551E-01  0.3656E+00
      6.286  0.6489E-01  0.3720E+00
      6.385  0.6086E-01  0.3780E+00
      6.484  0.5941E-01  0.3839E+00
      6.583  0.6120E-01  0.3899E+00
      6.681  0.6186E-01  0.3960E+00
      6.780  0.6001E-01  0.4020E+00
      6.879  0.5864E-01  0.4078E+00
      6.978  0.5773E-01  0.4135E+00
      7.076  0.5638E-01  0.4190E+00
      7.175  0.5685E-01  0.4247E+00
      7.274  0.6012E-01  0.4306E+00
      7.373  0.6598E-01  0.4371E+00
      7.472  0.7415E-01  0.4444E+00
      7.570  0.8148E-01  0.4525E+00
      7.669  0.8219E-01  0.4606E+00
      7.768  0.7415E-01  0.4679E+00
      7.867  0.6220E-01  0.4741E+00
      7.965  0.5116E-01  0.4791E+00
      8.064  0.4256E-01  0.4833E+00
      8.163  0.3816E-01  0.4871E+00
      8.262  0.3841E-01  0.4909E+00
      8.361  0.4210E-01  0.4950E+00
      8.459  0.4774E-01  0.4998E+00
      8.558  0.5330E-01  0.5050E+00
      8.657  0.5768E-01  0.5107E+00
      8.756  0.5962E-01  0.5166E+00
      8.854  0.5677E-01  0.5222E+00
      8.953  0.5146E-01  0.5273E+00
      9.052  0.5168E-01  0.5324E+00
      9.151  0.5753E-01  0.5381E+00
      9.250  0.5726E-01  0.5438E+00
      9.348  0.4584E-01  0.5483E+00
      9.447  0.3184E-01  0.5514E+00
      9.546  0.2452E-01  0.5538E+00
      9.645  0.2758E-01  0.5566E+00
      9.744  0.3913E-01  0.5604E+00
      9.842  0.5090E-01  0.5655E+00
      9.941  0.5463E-01  0.5709E+00
     10.040  0.4981E-01  0.5758E+00
     10.139  0.4261E-01  0.5800E+00
     10.237  0.4182E-01  0.5841E+00
     10.336  0.5274E-01  0.5893E+00
     10.435  0.6956E-01  0.5962E+00
     10.534  0.7865E-01  0.6040E+00
     10.633  0.7242E-01  0.6111E+00
     10.731  0.5720E-01  0.6168E+00
     10.830  0.4568E-01  0.6213E+00
     10.929  0.4449E-01  0.6257E+00
     11.028  0.5007E-01  0.6306E+00
     11.126  0.5415E-01  0.6360E+00
     11.225  0.5186E-01  0.6411E+00
     11.324  0.4649E-01  0.6457E+00
     11.423  0.4622E-01  0.6503E+00
     11.522  0.5373E-01  0.6556E+00
     11.620  0.6288E-01  0.6618E+00
     11.719  0.6597E-01  0.6683E+00
     11.818  0.6268E-01  0.6745E+00
     11.917  0.6098E-01  0.6805E+00
     12.015  0.6476E-01  0.6869E+00
     12.114  0.6618E-01  0.6934E+00
     12.213  0.6006E-01  0.6994E+00
     12.312  0.5397E-01  0.7047E+00
     12.411  0.5505E-01  0.7101E+00
     12.509  0.6019E-01  0.7161E+00
     12.608  0.6553E-01  0.7226E+00
     12.707  0.7283E-01  0.7298E+00
     12.806  0.8176E-01  0.7378E+00
     12.904  0.8654E-01  0.7464E+00
     13.003  0.8351E-01  0.7546E+00
     13.102  0.7514E-01  0.7621E+00
     13.201  0.6823E-01  0.7688E+00
     13.300  0.6850E-01  0.7756E+00
     13.398  0.7414E-01  0.7829E+00
     13.497  0.7845E-01  0.7906E+00
     13.596  0.7838E-01  0.7984E+00
     13.695  0.7368E-01  0.8057E+00
     13.794  0.6445E-01  0.8120E+00
     13.892  0.5765E-01  0.8177E+00
     13.991  0.6067E-01  0.8237E+00
     14.090  0.6706E-01  0.8303E+00
     14.189  0.6793E-01  0.8370E+00
     14.287  0.6838E-01  0.8438E+00
     14.386  0.7455E-01  0.8512E+00
     14.485  0.7869E-01  0.8589E+00
     14.584  0.7185E-01  0.8660E+00
     14.683  0.5856E-01  0.8718E+00
     14.781  0.4887E-01  0.8766E+00
     14.880  0.4644E-01  0.8812E+00
     14.979  0.4962E-01  0.8861E+00
     15.078  0.5672E-01  0.8917E+00
     15.176  0.6690E-01  0.8983E+00
     15.275  0.7730E-01  0.9060E+00
     15.374  0.8053E-01  0.9139E+00
     15.473  0.7193E-01  0.9210E+00
     15.572  0.5873E-01  0.9268E+00
     15.670  0.5266E-01  0.9320E+00
     15.769  0.5527E-01  0.9375E+00
     15.868  0.5765E-01  0.9432E+00
     15.967  0.5419E-01  0.9486E+00
     16.065  0.4850E-01  0.9533E+00
     16.164  0.4613E-01  0.9579E+00
     16.263  0.4741E-01  0.9626E+00
     16.362  0.4914E-01  0.9674E+00
     16.461  0.5059E-01  0.9724E+00
     16.559  0.5198E-01  0.9776E+00
     16.658  0.5079E-01  0.9826E+00
     16.757  0.4638E-01  0.9872E+00
     16.856  0.4154E-01  0.9913E+00
     16.954  0.3672E-01  0.9949E+00
     17.053  0.3058E-01  0.9979E+00
     17.152  0.2504E-01  0.1000E+01
     17.251  0.2241E-01  0.1003E+01
     17.350  0.2210E-01  0.1005E+01
     17.448  0.2459E-01  0.1007E+01
     17.547  0.3037E-01  0.1010E+01
     17.646  0.3487E-01  0.1014E+01
     17.745  0.3443E-01  0.1017E+01
     17.844  0.3321E-01  0.1020E+01
     17.942  0.3499E-01  0.1024E+01
     18.041  0.3633E-01  0.1027E+01
     18.140  0.3356E-01  0.1031E+01
     18.239  0.2872E-01  0.1034E+01
     18.337  0.2529E-01  0.1036E+01
     18.436  0.2294E-01  0.1038E+01
     18.535  0.2051E-01  0.1040E+01
     18.634  0.1899E-01  0.1042E+01
     18.733  0.1831E-01  0.1044E+01
     18.831  0.1752E-01  0.1046E+01
     18.930  0.1832E-01  0.1048E+01
     19.029  0.2202E-01  0.1050E+01
     19.128  0.2506E-01  0.1052E+01
     19.226  0.2344E-01  0.1055E+01
     19.325  0.1862E-01  0.1056E+01
     19.424  0.1424E-01  0.1058E+01
     19.523  0.1124E-01  0.1059E+01
     19.622  0.8813E-02  0.1060E+01
     19.720  0.6814E-02  0.1060E+01
     19.819  0.5832E-02  0.1061E+01
     19.918  0.5953E-02  0.1062E+01
     20.017  0.6688E-02  0.1062E+01
     20.115  0.7400E-02  0.1063E+01
     20.214  0.7014E-02  0.1064E+01
     20.313  0.5048E-02  0.1064E+01
     20.412  0.2599E-02  0.1064E+01
     20.511  0.1038E-02  0.1065E+01
     20.609  0.7307E-03  0.1065E+01
     20.708  0.1352E-02  0.1065E+01
     20.807  0.2379E-02  0.1065E+01
     20.906  0.3356E-02  0.1065E+01
     21.004  0.4100E-02  0.1066E+01
     21.103  0.4207E-02  0.1066E+01
     21.202  0.3210E-02  0.1066E+01
     21.301  0.1657E-02  0.1067E+01
     21.400  0.5535E-03  0.1067E+01
     21.498  0.1174E-03  0.1067E+01
     21.597  0.1568E-04  0.1067E+01
     21.696  0.1312E-05  0.1067E+01
     21.795  0.6864E-07  0.1067E+01
     21.894  0.2238E-08  0.1067E+01
     21.992  0.4536E-10  0.1067E+01
     22.091  0.5708E-12  0.1067E+01
     22.190  0.4453E-14  0.1067E+01
     22.289  0.2158E-16  0.1067E+01
     22.387  0.0000E+00  0.1067E+01
     22.486  0.0000E+00  0.1067E+01
     22.585  0.0000E+00  0.1067E+01
     22.684  0.0000E+00  0.1067E+01
     22.783  0.0000E+00  0.1067E+01
     22.881  0.0000E+00  0.1067E+01
     22.980  0.0000E+00  0.1067E+01
     23.079  0.0000E+00  0.1067E+01
