    2    2   15    1
  0.1529437E+02  0.3691622E-09  0.3691622E-09  0.3691622E-09  0.5000000E-15
  1.000000000000000E-004
  CAR 
 unknown system                          
      8     99      8
 
  0.5000000E-01  0.5000000E-01  0.5000000E-01  0.8000000E-02
    1       -4.272957   1.000000
    2        4.728622   1.000000
    3        6.599054   1.000000
    4        7.734452   1.000000
    5       11.472858   0.000000
    6       15.010632   0.000000
    7       16.059005   0.000000
    8       16.982948   0.000000
 
  0.1500000E+00  0.5000000E-01  0.5000000E-01  0.1600000E-01
    1       -3.428804   1.000000
    2        4.455526   1.000000
    3        6.854234   1.000000
    4        9.132838   0.325141
    5       12.582905   0.000000
    6       13.027916   0.000000
    7       13.399645   0.000000
    8       15.370068   0.000000
 
  0.2500000E+00  0.5000000E-01  0.5000000E-01  0.1600000E-01
    1       -2.031729   1.000000
    2        4.663115   1.000000
    3        7.168453   1.000000
    4        8.580861   0.999719
    5       10.688746   0.000000
    6       12.001305   0.000000
    7       13.673409   0.000000
    8       14.421151   0.000000
 
  0.3500000E+00  0.5000000E-01  0.5000000E-01  0.1600000E-01
    1       -0.099997   1.000000
    2        5.113630   1.000000
    3        5.605203   1.000000
    4        7.592213   1.000000
    5        8.883727   0.904581
    6       11.780913   0.000000
    7       13.732312   0.000000
    8       14.164212   0.000000
 
  0.4500000E+00  0.5000000E-01  0.5000000E-01  0.8000000E-02
    1        2.087954   1.000000
    2        2.643510   1.000000
    3        6.515256   1.000000
    4        6.662083   1.000000
    5        8.801435   0.970621
    6       10.762792   0.000000
    7       13.552022   0.000000
    8       14.499985   0.000000
 
 -0.5000000E-01  0.5000000E-01  0.5000000E-01  0.4000000E-02
    1       -4.555284   1.000000
    2        5.169209   1.000000
    3        6.052032   1.000000
    4        7.417176   1.000000
    5       10.878934   0.000000
    6       15.460850   0.000000
    7       17.415626   0.000000
    8       17.997141   0.000000
 
  0.1500000E+00  0.1500000E+00  0.5000000E-01  0.8000000E-02
    1       -2.148852   1.000000
    2        4.624544   1.000000
    3        8.154476   1.000000
    4        9.060454   0.523310
    5       10.130863   0.000000
    6       10.983213   0.000000
    7       14.491171   0.000000
    8       14.507553   0.000000
 
  0.2500000E+00  0.1500000E+00  0.5000000E-01  0.1600000E-01
    1       -0.330081   1.000000
    2        5.220065   1.000000
    3        6.199790   1.000000
    4        7.126852   1.000000
    5        9.776208   0.000000
    6       12.371494   0.000000
    7       12.806881   0.000000
    8       13.674444   0.000000
 
  0.3500000E+00  0.1500000E+00  0.5000000E-01  0.1600000E-01
    1        1.958297   1.000000
    2        3.215189   1.000000
    3        5.339081   1.000000
    4        6.371083   1.000000
    5        9.863645   0.000000
    6       11.735444   0.000000
    7       12.808161   0.000000
    8       15.272998   0.000000
 
  0.4500000E+00  0.1500000E+00  0.5000000E-01  0.1600000E-01
    1        0.589569   1.000000
    2        3.899369   1.000000
    3        4.954361   1.000000
    4        7.637886   1.000000
    5        9.190240   0.195098
    6       12.163784   0.000000
    7       13.429633   0.000000
    8       15.175067   0.000000
 
 -0.4500000E+00  0.1500000E+00  0.5000000E-01  0.1600000E-01
    1       -1.446408   1.000000
    2        3.093855   1.000000
    3        7.562261   1.000000
    4        8.193797   1.000000
    5       10.330285   0.000000
    6       12.539685   0.000000
    7       12.818005   0.000000
    8       15.293241   0.000000
 
 -0.3500000E+00  0.1500000E+00  0.5000000E-01  0.1600000E-01
    1       -2.956009   1.000000
    2        2.766514   1.000000
    3        7.266717   1.000000
    4        9.806449   0.000000
    5       11.979959   0.000000
    6       12.477687   0.000000
    7       14.026204   0.000000
    8       15.501965   0.000000
 
 -0.2500000E+00  0.1500000E+00  0.5000000E-01  0.8000000E-02
    1       -3.916447   1.000000
    2        2.956118   1.000000
    3        6.927913   1.000000
    4        8.548746   0.999882
    5       13.195543   0.000000
    6       13.474413   0.000000
    7       14.947996   0.000000
    8       16.469444   0.000000
 
 -0.1500000E+00  0.1500000E+00  0.5000000E-01  0.8000000E-02
    1       -4.317211   1.000000
    2        3.620495   1.000000
    3        6.084906   1.000000
    4        8.463340   0.999991
    5       12.192096   0.000000
    6       13.682816   0.000000
    7       16.239918   0.000000
    8       19.367347   0.000000
 
 -0.5000000E-01  0.1500000E+00  0.5000000E-01  0.8000000E-02
    1       -4.154110   1.000000
    2        4.407338   1.000000
    3        5.684988   1.000000
    4        8.854937   0.934693
    5       11.999583   0.000000
    6       13.804075   0.000000
    7       15.899967   0.000000
    8       17.635019   0.000000
 
  0.2500000E+00  0.2500000E+00  0.5000000E-01  0.8000000E-02
    1        1.864837   1.000000
    2        4.135673   1.000000
    3        4.219880   1.000000
    4        6.293380   1.000000
    5       10.510136   0.000000
    6       11.658237   0.000000
    7       13.503579   0.000000
    8       14.170790   0.000000
 
  0.3500000E+00  0.2500000E+00  0.5000000E-01  0.1600000E-01
    1        1.498981   1.000000
    2        2.615568   1.000000
    3        4.710381   1.000000
    4        7.613181   1.000000
    5        9.782311   0.000000
    6       11.155319   0.000000
    7       14.820366   0.000000
    8       15.738111   0.000000
 
  0.4500000E+00  0.2500000E+00  0.5000000E-01  0.1600000E-01
    1       -0.631996   1.000000
    2        1.654480   1.000000
    3        7.731751   1.000000
    4        8.348146   1.000000
    5        9.924490   0.000000
    6       11.649309   0.000000
    7       13.409274   0.000000
    8       15.396911   0.000000
 
 -0.4500000E+00  0.2500000E+00  0.5000000E-01  0.1600000E-01
    1       -2.249867   1.000000
    2        1.210169   1.000000
    3        7.901377   1.000000
    4       10.312418   0.000000
    5       11.042646   0.000000
    6       12.083070   0.000000
    7       13.438037   0.000000
    8       14.449073   0.000000
 
 -0.3500000E+00  0.2500000E+00  0.5000000E-01  0.8000000E-02
    1       -3.324283   1.000000
    2        1.300462   1.000000
    3        7.475067   1.000000
    4        9.278351   0.069129
    5       11.783866   0.000000
    6       13.611594   0.000000
    7       15.390083   0.000000
    8       16.064115   0.000000
 
 -0.2500000E+00  0.2500000E+00  0.5000000E-01  0.8000000E-02
    1       -3.842220   1.000000
    2        1.914221   1.000000
    3        6.510392   1.000000
    4        9.224834   0.134822
    5       11.988482   0.000000
    6       14.378306   0.000000
    7       14.747078   0.000000
    8       19.063591   0.000000
 
 -0.1500000E+00  0.2500000E+00  0.5000000E-01  0.1600000E-01
    1       -3.798185   1.000000
    2        2.994979   1.000000
    3        5.657515   1.000000
    4        9.902064   0.000000
    5       12.116050   0.000000
    6       13.594932   0.000000
    7       15.291897   0.000000
    8       16.943070   0.000000
 
 -0.5000000E-01  0.2500000E+00  0.5000000E-01  0.8000000E-02
    1       -3.192551   1.000000
    2        4.174704   1.000000
    3        5.633217   1.000000
    4       10.301585   0.000000
    5       12.320664   0.000000
    6       12.572525   0.000000
    7       13.753987   0.000000
    8       15.055371   0.000000
 
  0.3500000E+00  0.3500000E+00  0.5000000E-01  0.8000000E-02
    1        0.401222   1.000000
    2        0.409386   1.000000
    3        7.672616   1.000000
    4        8.737667   0.990382
    5        9.620336   0.000048
    6       11.228595   0.000000
    7       14.024020   0.000000
    8       14.795906   0.000000
 
  0.4500000E+00  0.3500000E+00  0.5000000E-01  0.1600000E-01
    1       -1.314770   1.000000
    2       -0.157591   1.000000
    3        8.732845   0.991226
    4        9.720192   0.000002
    5       10.916262   0.000000
    6       12.119027   0.000000
    7       13.162351   0.000000
    8       13.488890   0.000000
 
 -0.4500000E+00  0.3500000E+00  0.5000000E-01  0.8000000E-02
    1       -2.499727   1.000000
    2       -0.176360   1.000000
    3        8.238573   1.000000
    4       10.114337   0.000000
    5       10.413618   0.000000
    6       12.310977   0.000000
    7       15.796217   0.000000
    8       15.814101   0.000000
 
 -0.3500000E+00  0.3500000E+00  0.5000000E-01  0.8000000E-02
    1       -3.132897   1.000000
    2        0.346272   1.000000
    3        7.172297   1.000000
    4       10.010335   0.000000
    5       10.472569   0.000000
    6       13.328736   0.000000
    7       16.881036   0.000000
    8       18.856243   0.000000
 
 -0.2500000E+00  0.3500000E+00  0.5000000E-01  0.1600000E-01
    1       -3.207097   1.000000
    2        1.391747   1.000000
    3        6.159096   1.000000
    4       10.511534   0.000000
    5       10.719440   0.000000
    6       14.406681   0.000000
    7       15.718894   0.000000
    8       16.195708   0.000000
 
 -0.1500000E+00  0.3500000E+00  0.5000000E-01  0.1600000E-01
    1       -2.721358   1.000000
    2        2.893796   1.000000
    3        5.632857   1.000000
    4       10.468575   0.000000
    5       11.073381   0.000000
    6       12.689102   0.000000
    7       14.579658   0.000000
    8       15.790628   0.000000
 
 -0.5000000E-01  0.3500000E+00  0.5000000E-01  0.8000000E-02
    1       -1.681042   1.000000
    2        4.466914   1.000000
    3        6.003178   1.000000
    4        7.940729   1.000000
    5       10.899565   0.000000
    6       12.951454   0.000000
    7       13.690784   0.000000
    8       13.821332   0.000000
 
  0.4500000E+00  0.4500000E+00  0.5000000E-01  0.4000000E-02
    1       -1.447573   1.000000
    2       -1.447573   1.000000
    3        9.215148   0.150243
    4        9.215149   0.150241
    5       11.138618   0.000000
    6       11.138622   0.000000
    7       15.737371   0.000000
    8       15.737374   0.000000
 
 -0.4500000E+00  0.4500000E+00  0.5000000E-01  0.8000000E-02
    1       -2.193222   1.000000
    2       -1.029815   1.000000
    3        8.057075   1.000000
    4        9.159327   0.260867
    5       10.944302   0.000000
    6       12.051692   0.000000
    7       18.560691   0.000000
    8       18.669871   0.000000
 
 -0.3500000E+00  0.4500000E+00  0.5000000E-01  0.1600000E-01
    1       -2.384251   1.000000
    2       -0.070172   1.000000
    3        6.922875   1.000000
    4        9.120776   0.356408
    5       11.527016   0.000000
    6       13.515386   0.000000
    7       15.337537   0.000000
    8       16.759298   0.000000
 
 -0.2500000E+00  0.4500000E+00  0.5000000E-01  0.1600000E-01
    1       -2.018094   1.000000
    2        1.406558   1.000000
    3        6.217238   1.000000
    4        9.400228   0.009536
    5       10.553633   0.000000
    6       13.286887   0.000000
    7       14.334771   0.000000
    8       16.324595   0.000000
 
 -0.1500000E+00  0.4500000E+00  0.5000000E-01  0.1600000E-01
    1       -1.099276   1.000000
    2        3.320584   1.000000
    3        6.061373   1.000000
    4        7.444563   1.000000
    5       10.027098   0.000000
    6       12.423287   0.000000
    7       14.363774   0.000000
    8       15.174706   0.000000
 
 -0.5000000E-01  0.4500000E+00  0.5000000E-01  0.8000000E-02
    1        0.358005   1.000000
    2        4.561250   1.000000
    3        5.438184   1.000000
    4        6.784538   1.000000
    5        9.258369   0.089958
    6       11.745693   0.000000
    7       12.405325   0.000000
    8       15.597818   0.000000
 
 -0.4500000E+00 -0.4500000E+00  0.5000000E-01  0.8000000E-02
    1       -1.336099   1.000000
    2       -1.334490   1.000000
    3        7.905306   1.000000
    4        7.924232   1.000000
    5       12.296566   0.000000
    6       12.679224   0.000000
    7       15.160457   0.000000
    8       16.735120   0.000000
 
 -0.3500000E+00 -0.4500000E+00  0.5000000E-01  0.1600000E-01
    1       -1.087957   1.000000
    2        0.059924   1.000000
    3        7.073291   1.000000
    4        8.149175   1.000000
    5       10.392937   0.000000
    6       14.028115   0.000000
    7       14.191752   0.000000
    8       15.331513   0.000000
 
 -0.2500000E+00 -0.4500000E+00  0.5000000E-01  0.1600000E-01
    1       -0.291005   1.000000
    2        1.959101   1.000000
    3        6.665013   1.000000
    4        7.184625   1.000000
    5        8.844801   0.943330
    6       12.069191   0.000000
    7       15.338823   0.000000
    8       16.453408   0.000000
 
 -0.1500000E+00 -0.4500000E+00  0.5000000E-01  0.1600000E-01
    1        1.038371   1.000000
    2        3.984039   1.000000
    3        4.556751   1.000000
    4        6.940404   1.000000
    5        9.135643   0.318032
    6       11.178792   0.000000
    7       12.848615   0.000000
    8       16.689797   0.000000
 
 -0.5000000E-01 -0.4500000E+00  0.5000000E-01  0.8000000E-02
    1        1.730792   1.000000
    2        2.995883   1.000000
    3        6.591317   1.000000
    4        7.695827   1.000000
    5        7.893042   1.000000
    6       10.533967   0.000000
    7       12.462077   0.000000
    8       15.535666   0.000000
 
 -0.3500000E+00 -0.3500000E+00  0.5000000E-01  0.8000000E-02
    1        0.726478   1.000000
    2        0.743410   1.000000
    3        6.912707   1.000000
    4        7.602544   1.000000
    5        7.889102   1.000000
    6       11.951904   0.000000
    7       15.929485   0.000000
    8       16.942176   0.000000
 
 -0.2500000E+00 -0.3500000E+00  0.5000000E-01  0.1600000E-01
    1        1.928000   1.000000
    2        2.994885   1.000000
    3        4.097821   1.000000
    4        7.586498   1.000000
    5        8.549735   0.999879
    6       10.558469   0.000000
    7       14.418440   0.000000
    8       16.220835   0.000000
 
 -0.1500000E+00 -0.3500000E+00  0.5000000E-01  0.1600000E-01
    1        1.416049   1.000000
    2        3.741277   1.000000
    3        5.786377   1.000000
    4        7.495084   1.000000
    5        8.680996   0.996943
    6       10.950393   0.000000
    7       11.695843   0.000000
    8       15.084467   0.000000
 
 -0.5000000E-01 -0.3500000E+00  0.5000000E-01  0.8000000E-02
    1       -0.562621   1.000000
    2        5.884223   1.000000
    3        6.654063   1.000000
    4        7.715706   1.000000
    5        8.656653   0.998215
    6       11.177991   0.000000
    7       12.801591   0.000000
    8       14.033599   0.000000
 
 -0.2500000E+00 -0.2500000E+00  0.5000000E-01  0.8000000E-02
    1        1.307046   1.000000
    2        4.672729   1.000000
    3        4.724972   1.000000
    4        7.503414   1.000000
    5        9.141314   0.303868
    6       10.424454   0.000000
    7       12.804877   0.000000
    8       13.668223   0.000000
 
 -0.1500000E+00 -0.2500000E+00  0.5000000E-01  0.1600000E-01
    1       -0.794841   1.000000
    2        6.649358   1.000000
    3        6.918801   1.000000
    4        7.599429   1.000000
    5        9.116866   0.366765
    6       11.572471   0.000000
    7       11.626381   0.000000
    8       12.751857   0.000000
 
 -0.5000000E-01 -0.2500000E+00  0.5000000E-01  0.8000000E-02
    1       -2.384288   1.000000
    2        6.027856   1.000000
    3        7.198335   1.000000
    4        8.992450   0.705168
    5       10.657732   0.000000
    6       11.492082   0.000000
    7       12.966996   0.000000
    8       14.285762   0.000000
 
 -0.1500000E+00 -0.1500000E+00  0.5000000E-01  0.8000000E-02
    1       -2.502007   1.000000
    2        6.331950   1.000000
    3        7.966134   1.000000
    4        8.861261   0.928808
    5       10.468626   0.000000
    6       11.039811   0.000000
    7       13.030423   0.000000
    8       13.748124   0.000000
 
 -0.5000000E-01 -0.1500000E+00  0.5000000E-01  0.8000000E-02
    1       -3.665841   1.000000
    2        5.981161   1.000000
    3        6.817275   1.000000
    4        8.149750   1.000000
    5       11.752563   0.000000
    6       13.338704   0.000000
    7       13.702486   0.000000
    8       16.057573   0.000000
 
 -0.5000000E-01 -0.5000000E-01  0.5000000E-01  0.2000000E-02
    1       -4.391959   1.000000
    2        6.398961   1.000000
    3        6.489366   1.000000
    4        6.489373   1.000000
    5       10.746028   0.000000
    6       16.261193   0.000000
    7       16.488298   0.000000
    8       17.316727   0.000000
 
  0.1500000E+00  0.1500000E+00  0.1500000E+00  0.8000000E-02
    1       -1.562455   1.000000
    2        3.003838   1.000000
    3        8.341062   1.000000
    4        8.859926   0.930083
    5       10.067892   0.000000
    6       11.325161   0.000000
    7       13.983717   0.000000
    8       14.715954   0.000000
 
  0.2500000E+00  0.1500000E+00  0.1500000E+00  0.1600000E-01
    1        0.363239   1.000000
    2        3.737303   1.000000
    3        5.774634   1.000000
    4        6.773416   1.000000
    5       10.516396   0.000000
    6       13.196655   0.000000
    7       13.642357   0.000000
    8       14.478040   0.000000
 
  0.3500000E+00  0.1500000E+00  0.1500000E+00  0.8000000E-02
    1        2.547595   1.000000
    2        3.069246   1.000000
    3        4.896594   1.000000
    4        5.219754   1.000000
    5       11.145158   0.000000
    6       12.876540   0.000000
    7       14.063184   0.000000
    8       14.320895   0.000000
 
 -0.1500000E+00  0.1500000E+00  0.1500000E+00  0.4000000E-02
    1       -4.079882   1.000000
    2        3.332910   1.000000
    3        4.828143   1.000000
    4       10.025356   0.000000
    5       11.954315   0.000000
    6       13.014188   0.000000
    7       17.905066   0.000000
    8       19.047816   0.000000
 
  0.2500000E+00  0.2500000E+00  0.1500000E+00  0.8000000E-02
    1        2.617708   1.000000
    2        3.765796   1.000000
    3        3.942775   1.000000
    4        5.006097   1.000000
    5       11.908692   0.000000
    6       13.285819   0.000000
    7       14.377395   0.000000
    8       14.424417   0.000000
 
  0.3500000E+00  0.2500000E+00  0.1500000E+00  0.1600000E-01
    1        1.279715   1.000000
    2        2.410187   1.000000
    3        5.561048   1.000000
    4        6.586159   1.000000
    5       11.378556   0.000000
    6       12.647435   0.000000
    7       13.947197   0.000000
    8       15.012047   0.000000
 
  0.4500000E+00  0.2500000E+00  0.1500000E+00  0.8000000E-02
    1       -0.746179   1.000000
    2        1.549631   1.000000
    3        8.417425   0.999998
    4        8.619664   0.999252
    5       10.478791   0.000000
    6       11.835556   0.000000
    7       12.755886   0.000000
    8       13.985322   0.000000
 
 -0.2500000E+00  0.2500000E+00  0.1500000E+00  0.8000000E-02
    1       -3.606561   1.000000
    2        2.040882   1.000000
    3        4.823700   1.000000
    4       10.254275   0.000000
    5       11.151109   0.000000
    6       14.841342   0.000000
    7       16.547783   0.000000
    8       18.473696   0.000000
 
 -0.1500000E+00  0.2500000E+00  0.1500000E+00  0.8000000E-02
    1       -3.444087   1.000000
    2        2.791117   1.000000
    3        4.398566   1.000000
    4       10.384089   0.000000
    5       11.510330   0.000000
    6       14.631725   0.000000
    7       14.889766   0.000000
    8       18.105405   0.000000
 
  0.3500000E+00  0.3500000E+00  0.1500000E+00  0.4000000E-02
    1        0.294274   1.000000
    2        0.294274   1.000000
    3        8.474276   0.999987
    4        8.474283   0.999987
    5       11.274574   0.000000
    6       11.274578   0.000000
    7       13.053986   0.000000
    8       13.053998   0.000000
 
 -0.3500000E+00  0.3500000E+00  0.1500000E+00  0.8000000E-02
    1       -2.900129   1.000000
    2        0.543276   1.000000
    3        5.417102   1.000000
    4        8.726420   0.992249
    5       12.043180   0.000000
    6       15.255594   0.000000
    7       17.149763   0.000000
    8       18.298161   0.000000
 
 -0.2500000E+00  0.3500000E+00  0.1500000E+00  0.1600000E-01
    1       -2.856460   1.000000
    2        1.621279   1.000000
    3        4.462137   1.000000
    4        8.775515   0.980927
    5       12.488344   0.000000
    6       14.564089   0.000000
    7       16.590855   0.000000
    8       17.609147   0.000000
 
 -0.1500000E+00  0.3500000E+00  0.1500000E+00  0.8000000E-02
    1       -2.253711   1.000000
    2        2.790974   1.000000
    3        4.451942   1.000000
    4        9.239424   0.113707
    5       10.406576   0.000000
    6       14.141133   0.000000
    7       15.626108   0.000000
    8       16.236701   0.000000
 
 -0.4500000E+00  0.4500000E+00  0.1500000E+00  0.8000000E-02
    1       -1.965438   1.000000
    2       -0.811416   1.000000
    3        6.291067   1.000000
    4        7.399556   1.000000
    5       12.984817   0.000000
    6       14.055365   0.000000
    7       18.023879   0.000000
    8       18.114245   0.000000
 
 -0.3500000E+00  0.4500000E+00  0.1500000E+00  0.1600000E-01
    1       -2.039527   1.000000
    2        0.238106   1.000000
    3        5.153603   1.000000
    4        7.349250   1.000000
    5       12.979012   0.000000
    6       14.637217   0.000000
    7       16.584984   0.000000
    8       17.894278   0.000000
 
 -0.2500000E+00  0.4500000E+00  0.1500000E+00  0.1600000E-01
    1       -1.557135   1.000000
    2        1.744928   1.000000
    3        4.603466   1.000000
    4        7.771357   1.000000
    5       10.034458   0.000000
    6       15.227162   0.000000
    7       15.724276   0.000000
    8       17.643068   0.000000
 
 -0.1500000E+00  0.4500000E+00  0.1500000E+00  0.8000000E-02
    1       -0.524307   1.000000
    2        3.322847   1.000000
    3        5.002938   1.000000
    4        6.907956   1.000000
    5        8.690582   0.996251
    6       13.182389   0.000000
    7       14.741714   0.000000
    8       16.554734   0.000000
 
 -0.4500000E+00 -0.4500000E+00  0.1500000E+00  0.8000000E-02
    1       -1.003627   1.000000
    2       -1.000422   1.000000
    3        6.132077   1.000000
    4        6.136415   1.000000
    5       13.102718   0.000000
    6       14.937395   0.000000
    7       15.961573   0.000000
    8       17.921757   0.000000
 
 -0.3500000E+00 -0.4500000E+00  0.1500000E+00  0.1600000E-01
    1       -0.639366   1.000000
    2        0.481483   1.000000
    3        5.393680   1.000000
    4        6.471884   1.000000
    5        9.839817   0.000000
    6       15.463747   0.000000
    7       16.309207   0.000000
    8       17.550700   0.000000
 
 -0.2500000E+00 -0.4500000E+00  0.1500000E+00  0.1600000E-01
    1        0.270681   1.000000
    2        2.405276   1.000000
    3        5.240922   1.000000
    4        6.564277   1.000000
    5        7.374527   1.000000
    6       13.355675   0.000000
    7       15.847811   0.000000
    8       17.588353   0.000000
 
 -0.1500000E+00 -0.4500000E+00  0.1500000E+00  0.8000000E-02
    1        1.698204   1.000000
    2        3.669117   1.000000
    3        4.573876   1.000000
    4        6.030943   1.000000
    5        8.449164   0.999994
    6       11.519527   0.000000
    7       12.845152   0.000000
    8       17.063482   0.000000
 
 -0.3500000E+00 -0.3500000E+00  0.1500000E+00  0.8000000E-02
    1        1.254185   1.000000
    2        1.281498   1.000000
    3        6.011731   1.000000
    4        6.125181   1.000000
    5        6.657854   1.000000
    6       13.328300   0.000000
    7       17.213930   0.000000
    8       17.256772   0.000000
 
 -0.2500000E+00 -0.3500000E+00  0.1500000E+00  0.1600000E-01
    1        2.523980   1.000000
    2        3.336614   1.000000
    3        3.922529   1.000000
    4        6.388648   1.000000
    5        7.341886   1.000000
    6       11.652892   0.000000
    7       14.030657   0.000000
    8       15.898181   0.000000
 
 -0.1500000E+00 -0.3500000E+00  0.1500000E+00  0.8000000E-02
    1        1.080765   1.000000
    2        4.480674   1.000000
    3        6.031251   1.000000
    4        7.404092   1.000000
    5        8.407289   0.999999
    6       10.660709   0.000000
    7       11.486270   0.000000
    8       14.172572   0.000000
 
 -0.2500000E+00 -0.2500000E+00  0.1500000E+00  0.8000000E-02
    1        0.968115   1.000000
    2        5.336245   1.000000
    3        5.391123   1.000000
    4        7.674387   1.000000
    5        7.929644   1.000000
    6       10.597019   0.000000
    7       12.391512   0.000000
    8       13.034749   0.000000
 
 -0.1500000E+00 -0.2500000E+00  0.1500000E+00  0.8000000E-02
    1       -1.027926   1.000000
    2        7.466748   1.000000
    3        7.762755   1.000000
    4        8.358744   1.000000
    5        8.462105   0.999991
    6       10.549328   0.000000
    7       11.399448   0.000000
    8       11.977234   0.000000
 
 -0.1500000E+00 -0.1500000E+00  0.1500000E+00  0.2000000E-02
    1       -2.619912   1.000000
    2        7.892484   1.000000
    3        7.892490   1.000000
    4        7.905573   1.000000
    5       10.684121   0.000000
    6       11.151078   0.000000
    7       12.523672   0.000000
    8       13.357004   0.000000
 
  0.2500000E+00  0.2500000E+00  0.2500000E+00  0.2000000E-02
    1        3.398366   1.000000
    2        3.398367   1.000000
    3        4.063456   1.000000
    4        4.063457   1.000000
    5       13.211707   0.000000
    6       13.211711   0.000000
    7       15.026507   0.000000
    8       15.026508   0.000000
 
 -0.2500000E+00  0.2500000E+00  0.2500000E+00  0.4000000E-02
    1       -3.136913   1.000000
    2        1.933433   1.000000
    3        3.626897   1.000000
    4        8.539263   0.999909
    5       12.894561   0.000000
    6       16.028715   0.000000
    7       17.255290   0.000000
    8       18.277808   0.000000
 
 -0.3500000E+00  0.3500000E+00  0.2500000E+00  0.8000000E-02
    1       -2.436978   1.000000
    2        0.881454   1.000000
    3        3.776619   1.000000
    4        6.999640   1.000000
    5       14.096641   0.000000
    6       16.670532   0.000000
    7       17.709842   0.000000
    8       18.422361   0.000000
 
 -0.2500000E+00  0.3500000E+00  0.2500000E+00  0.8000000E-02
    1       -2.275547   1.000000
    2        1.620472   1.000000
    3        3.358669   1.000000
    4        7.146677   1.000000
    5       13.066934   0.000000
    6       15.455923   0.000000
    7       17.831968   0.000000
    8       18.946558   0.000000
 
 -0.4500000E+00  0.4500000E+00  0.2500000E+00  0.8000000E-02
    1       -1.514706   1.000000
    2       -0.388350   1.000000
    3        4.574705   1.000000
    4        5.669330   1.000000
    5       15.037883   0.000000
    6       15.901697   0.000000
    7       17.844168   0.000000
    8       18.059286   0.000000
 
 -0.3500000E+00  0.4500000E+00  0.2500000E+00  0.1600000E-01
    1       -1.471787   1.000000
    2        0.689039   1.000000
    3        3.606436   1.000000
    4        5.713409   1.000000
    5       12.981648   0.000000
    6       16.539897   0.000000
    7       18.685794   0.000000
    8       19.108633   0.000000
 
 -0.2500000E+00  0.4500000E+00  0.2500000E+00  0.8000000E-02
    1       -0.873697   1.000000
    2        1.856327   1.000000
    3        3.607592   1.000000
    4        6.263764   1.000000
    5        9.642082   0.000025
    6       16.460187   0.000000
    7       17.471348   0.000000
    8       17.987778   0.000000
 
 -0.4500000E+00 -0.4500000E+00  0.2500000E+00  0.8000000E-02
    1       -0.465537   1.000000
    2       -0.460567   1.000000
    3        4.510826   1.000000
    4        4.511801   1.000000
    5       12.922473   0.000000
    6       17.239572   0.000000
    7       18.049876   0.000000
    8       19.150088   0.000000
 
 -0.3500000E+00 -0.4500000E+00  0.2500000E+00  0.1600000E-01
    1        0.014698   1.000000
    2        1.046386   1.000000
    3        3.958429   1.000000
    4        4.966205   1.000000
    5        9.438493   0.004466
    6       16.869143   0.000000
    7       18.359329   0.000000
    8       19.066156   0.000000
 
 -0.2500000E+00 -0.4500000E+00  0.2500000E+00  0.8000000E-02
    1        1.035738   1.000000
    2        2.627275   1.000000
    3        4.372346   1.000000
    4        5.853754   1.000000
    5        6.384607   1.000000
    6       14.537768   0.000000
    7       16.019547   0.000000
    8       18.137401   0.000000
 
 -0.3500000E+00 -0.3500000E+00  0.2500000E+00  0.8000000E-02
    1        1.921526   1.000000
    2        1.963901   1.000000
    3        4.804999   1.000000
    4        4.828334   1.000000
    5        6.220279   1.000000
    6       14.856016   0.000000
    7       16.923926   0.000000
    8       17.354197   0.000000
 
 -0.2500000E+00 -0.3500000E+00  0.2500000E+00  0.8000000E-02
    1        2.976766   1.000000
    2        3.578334   1.000000
    3        4.151260   1.000000
    4        5.629381   1.000000
    5        6.194401   1.000000
    6       12.939351   0.000000
    7       14.032538   0.000000
    8       15.064237   0.000000
 
 -0.2500000E+00 -0.2500000E+00  0.2500000E+00  0.2000000E-02
    1        0.854580   1.000000
    2        5.778020   1.000000
    3        5.871241   1.000000
    4        7.263782   1.000000
    5        7.263784   1.000000
    6       11.592212   0.000000
    7       12.256260   0.000000
    8       12.256263   0.000000
 