unknown system                          
   1.00000000000000     
    -2.450000    2.450000    1.274000
     2.450000   -2.450000    1.274000
     2.450000    2.450000   -1.274000
   Si
     2
Direct
  0.250000  0.750000  0.500000
  0.000000  0.000000  0.000000
 
   28   28   28
 -5.5847     -4.0432     -.28372E-01  4.9372      9.1531      11.484      11.734      10.518      8.7931      7.1594    
  5.7949      4.7593      4.0489      3.6380      3.5037      3.6379      4.0488      4.7592      5.7949      7.1594    
  8.7932      10.518      11.734      11.484      9.1531      4.9372     -.28434E-01 -4.0432     -4.0432     -4.8499    
 -2.6971      1.5573      6.3128      9.9888      11.690      11.453      10.017      8.2975      6.7345      5.4627    
  4.5211      3.8973      3.5647      3.5037      3.7099      4.1952      4.9842      6.1004      7.5368      9.2138    
  10.904      11.893      11.260      8.5497      4.1691     -.59315     -.28434E-01 -2.6972     -2.7788     -.25073    
  3.8647      8.0151      10.851      11.769      11.026      9.4298      7.7559      6.2871      5.1229      4.2830    
  3.7486      3.4941      3.5037      3.7768      4.3282      5.1830      6.3607      7.8434      9.5340      11.162    
  11.966      11.119      8.3300      4.1691      4.9372      1.5573     -.25073     0.26003      2.8622      6.4751    
  9.7125      11.532      11.638      10.459      8.7966      7.1986      5.8420      4.7938      4.0575      3.6105    
  3.4299      3.5038      3.8350      4.4402      5.3437      6.5595      8.0595      9.7343      11.290      11.986    
  11.119      8.5497      9.1531      6.3128      3.8647      2.8622      3.7477      6.1197      8.9481      11.103    
  11.883      11.267      9.7947      8.1522      6.6551      5.4220      4.4915      3.8552      3.4895      3.3750    
  3.5038      3.8814      4.5249      5.4565      6.6841      8.1711      9.8025      11.290      11.966      11.260    
  11.484      9.9888      8.0151      6.4752      6.1198      7.1323      9.0277      10.919      11.980      11.841    
  10.692      9.1016      7.5301      6.1521      5.0464      4.2291      3.6846      3.3906      3.3318      3.5038    
  3.9136      4.5777      5.5147      6.7266      8.1711      9.7343      11.162      11.893      11.734      11.690    
  10.851      9.7126      8.9482      9.0278      9.9461      11.222      12.171      12.277      11.447      10.006    
  8.4310      6.9612      5.7121      4.7304      4.0166      3.5520      3.3176      3.3021      3.5038      3.9300    
  4.5956      5.5147      6.6841      8.0595      9.5340      10.904      10.518      11.453      11.769      11.532    
  11.103      10.919      11.222      11.896      12.531      12.667      12.064      10.828      9.3204      7.8210    
  6.4726      5.3529      4.4851      3.8607      3.4617      3.2729      3.2870      3.5037      3.9300      4.5777    
  5.4565      6.5595      7.8434      9.2138      8.7932      10.017      11.026      11.638      11.883      11.981    
  12.171      12.531      12.903      12.988      12.537      11.520      10.155      8.6973      7.3063      6.0866    
  5.0876      4.3179      3.7658      3.4159      3.2579      3.2870      3.5038      3.9136      4.5249      5.3437    
  6.3607      7.5368      7.1594      8.2975      9.4298      10.459      11.267      11.841      12.277      12.667    
  12.988      13.091      12.796      12.023      10.876      9.5443      8.1831      6.9162      5.8198      4.9251    
  4.2333      3.7339      3.4159      3.2729      3.3021      3.5038      3.8814      4.4402      5.1830      6.1004    
  5.7949      6.7344      7.7559      8.7966      9.7947      10.692      11.447      12.064      12.537      12.796    
  12.729      12.257      11.410      10.300      9.0588      7.8168      6.6729      5.6837      4.8704      4.2333    
  3.7658      3.4617      3.3176      3.3318      3.5038      3.8350      4.3282      4.9842      4.7592      5.4626    
  6.2870      7.1985      8.1522      9.1016      10.006      10.828      11.520      12.023      12.257      12.148    
  11.678      10.887      9.8704      8.7467      7.6264      6.5902      5.6837      4.9251      4.3179      3.8607    
  3.5520      3.3906      3.3750      3.5038      3.7768      4.1952      4.0488      4.5210      5.1229      5.8420    
  6.6551      7.5300      8.4310      9.3204      10.155      10.876      11.410      11.678      11.621      11.227    
  10.539      9.6413      8.6390      7.6264      6.6729      5.8198      5.0876      4.4851      4.0166      3.6846    
  3.4895      3.4299      3.5037      3.7099      3.6379      3.8973      4.2830      4.7938      5.4220      6.1520    
  6.9611      7.8210      8.6973      9.5443      10.300      10.887      11.227      11.264      10.982      10.417    
  9.6413      8.7467      7.8168      6.9162      6.0866      5.3529      4.7304      4.2291      3.8552      3.6105    
  3.4941      3.5037      3.5037      3.5647      3.7487      4.0575      4.4915      5.0464      5.7120      6.4726    
  7.3063      8.1831      9.0588      9.8704      10.539      10.982      11.137      10.982      10.539      9.8704    
  9.0588      8.1831      7.3063      6.4726      5.7121      5.0464      4.4915      4.0575      3.7486      3.5647    
  3.6380      3.5038      3.4943      3.6107      3.8552      4.2291      4.7303      5.3528      6.0865      6.9162    
  7.8168      8.7467      9.6413      10.417      10.982      11.264      11.227      10.887      10.300      9.5443    
  8.6973      7.8210      6.9612      6.1521      5.4220      4.7938      4.2830      3.8973      4.0489      3.7101    
  3.5040      3.4301      3.4896      3.6847      4.0166      4.4850      5.0875      5.8198      6.6729      7.6264    
  8.6390      9.6413      10.539      11.227      11.621      11.678      11.410      10.876      10.155      9.3204    
  8.4310      7.5301      6.6551      5.8420      5.1229      4.5211      4.7593      4.1954      3.7770      3.5041    
  3.3752      3.3908      3.5521      3.8607      4.3178      4.9250      5.6836      6.5902      7.6264      8.7467    
  9.8704      10.887      11.678      12.148      12.257      12.023      11.520      10.828      10.006      9.1016    
  8.1522      7.1986      6.2871      5.4627      5.7949      4.9843      4.3283      3.8352      3.5041      3.3320    
  3.3177      3.4617      3.7657      4.2332      4.8703      5.6836      6.6729      7.8168      9.0588      10.300    
  11.410      12.257      12.729      12.796      12.537      12.064      11.447      10.692      9.7947      8.7966    
  7.7559      6.7345      7.1594      6.1004      5.1831      4.4403      3.8816      3.5040      3.3023      3.2730    
  3.4159      3.7338      4.2332      4.9250      5.8198      6.9162      8.1831      9.5443      10.876      12.023    
  12.796      13.091      12.988      12.667      12.277      11.841      11.267      10.459      9.4298      8.2975    
  8.7931      7.5368      6.3606      5.3437      4.5250      3.9137      3.5039      3.2871      3.2580      3.4159    
  3.7657      4.3178      5.0875      6.0865      7.3063      8.6973      10.155      11.520      12.537      12.988    
  12.903      12.531      12.171      11.980      11.883      11.638      11.026      10.017      10.518      9.2137    
  7.8432      6.5594      5.4565      4.5777      3.9301      3.5039      3.2871      3.2730      3.4617      3.8607    
  4.4850      5.3528      6.4726      7.8210      9.3204      10.828      12.064      12.667      12.531      11.896    
  11.222      10.919      11.103      11.532      11.769      11.453      11.734      10.904      9.5339      8.0593    
  6.6840      5.5146      4.5956      3.9301      3.5039      3.3023      3.3177      3.5521      4.0166      4.7303    
  5.7120      6.9611      8.4310      10.006      11.447      12.277      12.171      11.222      9.9461      9.0277    
  8.9481      9.7125      10.851      11.690      11.484      11.893      11.162      9.7342      8.1710      6.7264    
  5.5146      4.5777      3.9137      3.5040      3.3320      3.3908      3.6847      4.2291      5.0464      6.1520    
  7.5300      9.1016      10.692      11.841      11.981      10.919      9.0278      7.1323      6.1197      6.4751    
  8.0151      9.9888      9.1531      11.261      11.966      11.290      9.8024      8.1710      6.6840      5.4565    
  4.5250      3.8816      3.5041      3.3752      3.4896      3.8552      4.4915      5.4220      6.6551      8.1522    
  9.7947      11.267      11.883      11.103      8.9482      6.1198      3.7477      2.8622      3.8647      6.3128    
  4.9372      8.5497      11.119      11.986      11.290      9.7342      8.0593      6.5594      5.3437      4.4403    
  3.8352      3.5041      3.4301      3.6107      4.0575      4.7938      5.8420      7.1985      8.7966      10.459    
  11.638      11.532      9.7126      6.4752      2.8622     0.26003     -.25073      1.5573     -.28372E-01  4.1691    
  8.3301      11.119      11.966      11.162      9.5339      7.8432      6.3606      5.1831      4.3283      3.7770    
  3.5040      3.4943      3.7487      4.2830      5.1229      6.2870      7.7559      9.4298      11.026      11.769    
  10.851      8.0151      3.8647     -.25073     -2.7788     -2.6971     -4.0432     -.59308      4.1691      8.5497    
  11.261      11.893      10.904      9.2137      7.5368      6.1004      4.9843      4.1954      3.7101      3.5038    
  3.5647      3.8973      4.5210      5.4626      6.7344      8.2975      10.017      11.453      11.690      9.9888    
  6.3128      1.5573     -2.6972     -4.8499     -4.0432     -2.9210     0.59333      5.1385      9.1030      11.348    
  11.610      10.428      8.7107      7.0700      5.6895      4.6324      3.8968      3.4564      3.2869      3.3777    
  3.7351      4.3804      5.3408      6.6267      8.1946      9.9021      11.276      11.416      9.6522      6.0388    
  1.5268     -2.3286     -2.9210     -4.0432     -2.3286      1.5268      6.0388      9.6523      11.416      11.276    
  9.9021      8.1945      6.6267      5.3408      4.3805      3.7352      3.3777      3.2868      3.4562      3.8966    
  4.6323      5.6896      7.0701      8.7108      10.428      11.610      11.348      9.1029      5.1384     0.59329    
 0.69276     -2.2226     -2.6972     -.55919      3.3051      7.4017      10.345      11.438      10.840      9.3072    
  7.6449      6.1717      4.9952      4.1400      3.5887      3.3152      3.3019      3.5473      4.0655      4.8829    
  6.0230      7.4774      9.1651      10.859      11.864      11.326      8.8595      4.9035      5.3968      1.8127    
 -.36049     -.25085      2.0602      5.5854      8.9365      10.987      11.324      10.295      8.6790      7.0900    
  5.7284      4.6698      3.9223      3.4643      3.2717      3.3317      3.6466      4.2335      5.1189      6.3222    
  7.8247      9.5304      11.180      12.059      11.414      9.0070      9.5282      6.5243      3.7429      2.3279    
  2.8620      5.0660      7.9524      10.337      11.406      11.022      9.6651      8.0494      6.5564      5.3175    
  4.3794      3.7372      3.3674      3.2495      3.3750      3.7496      4.3920      5.3272      6.5692      8.0897    
  9.7829      11.379      12.204      11.623      11.910      10.307      8.0591      6.1256      5.3734      6.1195    
  7.9644      10.015      11.358      11.498      10.533      9.0039      7.4468      6.0679      4.9568      4.1361    
  3.5922      3.3021      3.2496      3.4300      3.8514      4.5326      5.4957      6.7482      8.2544      9.9042    
  11.444      12.283      12.261      12.184      11.161      9.6971      8.5406      8.2823      9.0275      10.340    
  11.491      11.864      11.251      9.9160      8.3643      6.8981      5.6449      4.6602      3.9489      3.4926    
  3.2709      3.2719      3.4942      3.9471      4.6477      5.6139      6.8470      8.3061      9.8834      11.362    
  11.124      12.098      12.338      11.886      11.132      10.601      10.643      11.222      11.935      12.260    
  11.857      10.746      9.2724      7.7793      6.4272      5.3037      4.4381      3.8238      3.4414      3.2745    
  3.3153      3.5647      4.0316      4.7303      5.6738      6.8578      8.2396      9.7191      9.4201      10.732    
  11.762      12.281      12.316      12.126      12.035      12.207      12.531      12.690      12.371      11.460    
  10.129      8.6755      7.2799      6.0548      5.0567      4.2971      3.7639      3.4396      3.3124      3.3778    
  3.6379      4.1001      4.7752      5.6709      6.7791      8.0582      7.7734      9.0053      10.208      11.248    
  11.967      12.358      12.561      12.736      12.920      12.988      12.729      12.008      10.876      9.5388    
  8.1689      6.8943      5.7973      4.9124      4.2411      3.7703      3.4866      3.3826      3.4563      3.7099    
  4.1485      4.7790      5.6048      6.6154      6.3777      7.4047      8.5020      9.5908      10.590      11.412    
  12.020      12.456      12.765      12.914      12.796      12.305      11.435      10.304      9.0455      7.7920    
  6.6459      5.6668      4.8761      4.2712      3.8421      3.5804      3.4823      3.5474      3.7769      4.1736    
  4.7409      5.4792      5.3025      6.0819      6.9766      7.9426      8.9215      9.8542      10.693      11.399    
  11.950      12.318      12.445      12.257      11.724      10.890      9.8427      8.7011      7.5766      6.5515    
  5.6707      4.9494      4.3867      3.9773      3.7179      3.6077      3.6466      3.8351      4.1736      4.6632    
  4.5507      5.0861      5.7475      6.5166      7.3615      8.2402      9.1082      9.9255      10.655      11.254    
  11.665      11.824      11.678      11.216      10.480      9.5554      8.5450      7.5440      6.6201      5.8109    
  5.1312      4.5847      4.1722      3.8948      3.7538      3.7496      3.8815      4.1486      4.1003      4.4107    
  4.8441      5.3954      6.0521      6.7920      7.5850      8.3977      9.1954      9.9388      10.577      11.046    
  11.279      11.227      10.879      10.273      9.4830      8.5989      7.7023      6.8523      6.0845      5.4171    
  4.8603      4.4211      4.1049      3.9148      3.8515      3.9137      3.9302      4.0317      4.2519      4.5908    
  5.0456      5.6080      6.2630      6.9897      7.7633      8.5543      9.3241      10.019      10.571      10.910    
  10.982      10.770      10.303      9.6415      8.8649      8.0457      7.2393      6.4824      5.7987      5.2053    
  4.7159      4.3403      4.0836      3.9472      4.0318      3.9302      3.9472      4.0837      4.3403      4.7159    
  5.2053      5.7987      6.4824      7.2393      8.0457      8.8649      9.6415      10.303      10.770      10.982    
  10.910      10.571      10.019      9.3241      8.5543      7.7633      6.9897      6.2630      5.6080      5.0455    
  4.5908      4.2519      4.4108      4.1003      3.9138      3.8515      3.9149      4.1049      4.4211      4.8603    
  5.4171      6.0845      6.8523      7.7023      8.5989      9.4830      10.273      10.879      11.227      11.279    
  11.046      10.577      9.9387      9.1953      8.3976      7.5849      6.7919      6.0521      5.3953      4.8440    
  5.0862      4.5508      4.1487      3.8816      3.7497      3.7539      3.8948      4.1722      4.5847      5.1312    
  5.8109      6.6201      7.5440      8.5449      9.5553      10.480      11.216      11.677      11.823      11.665    
  11.254      10.655      9.9254      9.1081      8.2401      7.3615      6.5166      5.7475      6.0819      5.3025    
  4.6633      4.1737      3.8352      3.6468      3.6078      3.7180      3.9773      4.3866      4.9494      5.6706    
  6.5514      7.5766      8.7010      9.8427      10.889      11.724      12.257      12.445      12.318      11.950    
  11.399      10.693      9.8541      8.9215      7.9426      6.9766      7.4047      6.3777      5.4793      4.7410    
  4.1737      3.7770      3.5475      3.4824      3.5805      3.8421      4.2712      4.8760      5.6668      6.6459    
  7.7920      9.0454      10.303      11.435      12.305      12.796      12.914      12.765      12.456      12.020    
  11.412      10.590      9.5907      8.5020      9.0054      7.7735      6.6155      5.6048      4.7791      4.1486    
  3.7100      3.4565      3.3827      3.4866      3.7702      4.2410      4.9124      5.7973      6.8943      8.1689    
  9.5387      10.876      12.008      12.729      12.988      12.920      12.736      12.561      12.358      11.967    
  11.248      10.208      10.732      9.4201      8.0582      6.7792      5.6710      4.7753      4.1002      3.6380    
  3.3779      3.3124      3.4396      3.7638      4.2971      5.0566      6.0547      7.2798      8.6754      10.129    
  11.460      12.371      12.691      12.531      12.207      12.035      12.126      12.316      12.281      11.761    
  12.098      11.124      9.7191      8.2396      6.8578      5.6738      4.7303      4.0316      3.5648      3.3154    
  3.2745      3.4414      3.8237      4.4380      5.3036      6.4272      7.7792      9.2723      10.746      11.857    
  12.260      11.935      11.222      10.644      10.601      11.132      11.886      12.338      12.184      12.261    
  11.362      9.8834      8.3060      6.8469      5.6138      4.6477      3.9471      3.4943      3.2719      3.2710    
  3.4926      3.9489      4.6602      5.6448      6.8980      8.3642      9.9160      11.251      11.864      11.492    
  10.340      9.0279      8.2826      8.5408      9.6972      11.161      10.307      11.910      12.283      11.444    
  9.9041      8.2542      6.7481      5.4956      4.5326      3.8515      3.4301      3.2497      3.3022      3.5922    
  4.1361      4.9567      6.0678      7.4468      9.0039      10.533      11.498      11.358      10.015      7.9648    
  6.1199      5.3737      6.1257      8.0591      6.5244      9.5282      11.623      12.204      11.379      9.7828    
  8.0896      6.5690      5.3272      4.3920      3.7497      3.3752      3.2497      3.3675      3.7372      4.3794    
  5.3175      6.5563      8.0493      9.6651      11.022      11.406      10.338      7.9527      5.0663      2.8623    
  2.3281      3.7430      1.8128      5.3968      9.0070      11.414      12.059      11.180      9.5303      7.8245    
  6.3220      5.1189      4.2336      3.6467      3.3319      3.2719      3.4644      3.9223      4.6697      5.7283    
  7.0899      8.6789      10.295      11.324      10.987      8.9365      5.5855      2.0605     -.25066     -.36036    
 -2.2226     0.69281      4.9035      8.8596      11.326      11.864      10.859      9.1650      7.4773      6.0229    
  4.8829      4.0657      3.5475      3.3021      3.3153      3.5888      4.1399      4.9952      6.1717      7.6449    
  9.3072      10.840      11.438      10.345      7.4017      3.3052     -.55909     -2.6971     -.28404E-01 0.69277    
  3.4107      7.0233      10.161      11.830      11.786      10.502      8.7837      7.1527      5.7745      4.7084    
  3.9528      3.4824      3.2728      3.3123      3.6040      4.1652      5.0216      6.1888      7.6413      9.2741    
  10.793      11.462      10.606      8.1196      4.6735      1.5268     0.59331     -.59312     0.59330      3.6521    
  7.3412      10.296      11.649      11.326      9.9143      8.2239      6.6715      5.3913      4.4256      3.7648    
  3.3826      3.2577      3.3825      3.7647      4.4255      5.3913      6.6715      8.2239      9.9142      11.325    
  11.649      10.296      7.3411      3.6521      3.4108     0.69276     -.28430E-01  1.5268      4.6735      8.1197    
  10.606      11.462      10.793      9.2742      7.6413      6.1889      5.0216      4.1653      3.6040      3.3123    
  3.2728      3.4823      3.9528      4.7084      5.7745      7.1527      8.7837      10.502      11.786      11.830    
  10.161      7.0233      7.2671      4.0145      1.8127      1.5572      3.3051      6.2521      9.1564      10.952    
  11.204      10.189      8.6169      7.0649      5.7279      4.6824      3.9387      3.4771      3.2744      3.3175    
  3.6077      4.1603      5.0010      6.1523      7.6069      9.2897      11.006      12.178      12.055      10.294    
  10.705      8.0433      5.3542      3.7428      3.8645      5.5853      8.0639      10.201      11.186      10.828    
  9.5335      7.9724      6.5201      5.3086      4.3877      3.7552      3.3895      3.2708      3.3906      3.7539    
  4.3782      5.2890      6.5043      8.0073      9.7101      11.400      12.497      12.339      12.651      11.321    
  9.1991      7.1725      6.1255      6.4748      7.9523      9.7637      11.023      11.199      10.319      8.8665    
  7.3664      6.0291      4.9478      4.1490      3.6218      3.3448      3.3021      3.4896      3.9149      4.5963    
  5.5571      6.8095      8.3276      10.015      11.658      12.722      12.819      12.920      12.003      10.497    
  9.1269      8.5404      8.9478      10.015      11.066      11.466      10.950      9.7134      8.2329      6.8218    
  5.6102      4.6583      3.9748      3.5435      3.3449      3.3675      3.6107      4.0836      4.8036      5.7899    
  7.0480      8.5443      10.179      11.755      11.673      12.748      13.058      12.583      11.673      10.871    
  10.601      10.918      11.491      11.808      11.484      10.479      9.0876      7.6594      6.3592      5.2780    
  4.4497      3.8706      3.5226      3.3896      3.4644      3.7487      4.2518      4.9884      5.9725      7.2026    
  8.6399      10.187      10.034      11.406      12.478      12.984      12.908      12.504      12.134      12.035    
  12.170      12.260      11.973      11.146      9.8949      8.5082      7.1710      5.9960      5.0434      4.3280    
  3.8390      3.5594      3.4772      3.5888      3.8973      4.4106      5.1396      6.0921      7.2610      8.6051    
  8.4406      9.7289      10.967      12.004      12.653      12.887      12.858      12.773      12.735      12.667    
  12.371      11.682      10.604      9.3232      8.0114      6.7916      5.7467      4.9139      4.2962      3.8802    
  3.6520      3.6040      3.7352      4.0489      4.5507      5.2468      6.1398      7.2177      7.0752      8.1582    
  9.2941      10.392      11.354      12.073      12.507      12.720      12.800      12.765      12.537      12.008    
  11.145      10.043      8.8315      7.6316      6.5420      5.6222      4.8941      4.3547      3.9921      3.7967    
  3.7647      3.8967      4.1953      4.6633      5.3026      6.1112      6.0082      6.8437      7.7786      8.7610    
  9.7218      10.590      11.310      11.842      12.187      12.354      12.318      12.024      11.436      10.590    
  9.5663      8.4680      7.3994      6.4389      5.6298      4.9853      4.5018      4.1712      3.9884      3.9527    
  4.0656      4.3284      4.7411      5.3027      5.2471      5.8381      6.5402      7.3293      8.1668      9.0024    
  9.7841      10.470      11.029      11.437      11.663      11.666      11.410      10.890      10.140      9.2364    
  8.2732      7.3380      6.4934      5.7726      5.1864      4.7337      4.4119      4.2203      4.1603      4.2336    
  4.4404      4.7792      4.7755      5.1399      5.6132      6.1860      6.8409      7.5503      8.2786      8.9882    
  9.6449      10.217      10.671      10.963      11.046      10.887      10.480      9.8620      9.0998      8.2749    
  7.4608      6.7094      6.0495      5.4931      5.0446      4.7070      4.4838      4.3783      4.3921      4.5252    
  4.5779      4.7306      4.9887      5.3489      5.8045      6.3436      6.9473      7.5912      8.2484      8.8913    
  9.4888      10.001      10.379      10.571      10.539      10.273      9.8023      9.1834      8.4851      7.7699    
  7.0835      6.4541      5.8978      5.4257      5.0467      4.7686      4.5965      4.5328      4.6479      4.5958    
  4.6479      4.8037      5.0618      5.4181      5.8644      6.3885      6.9743      7.6035      8.2545      8.8977    
  9.4909      9.9788      10.303      10.416      10.303      9.9788      9.4908      8.8977      8.2545      7.6035    
  6.9742      6.3884      5.8644      5.4181      5.0619      4.8038      4.9887      4.7306      4.5778      4.5327    
  4.5964      4.7685      5.0467      5.4257      5.8979      6.4541      7.0835      7.7699      8.4851      9.1835    
  9.8023      10.273      10.539      10.571      10.379      10.001      9.4887      8.8912      8.2484      7.5912    
  6.9473      6.3436      5.8045      5.3488      5.6131      5.1398      4.7754      4.5250      4.3920      4.3781    
  4.4838      4.7071      5.0447      5.4931      6.0495      6.7094      7.4608      8.2749      9.0998      9.8620    
  10.480      10.887      11.046      10.963      10.671      10.217      9.6448      8.9881      8.2785      7.5503    
  6.8409      6.1860      6.5402      5.8381      5.2470      4.7791      4.4402      4.2335      4.1602      4.2203    
  4.4120      4.7338      5.1864      5.7727      6.4934      7.3380      8.2732      9.2363      10.140      10.889    
  11.410      11.665      11.663      11.437      11.029      10.470      9.7840      9.0023      8.1668      7.3293    
  7.7786      6.8437      6.0082      5.3026      4.7410      4.3282      4.0655      3.9527      3.9884      4.1712    
  4.5019      4.9854      5.6298      6.4389      7.3994      8.4680      9.5662      10.590      11.435      12.024    
  12.318      12.354      12.187      11.842      11.310      10.590      9.7217      8.7610      9.2942      8.1583    
  7.0753      6.1112      5.3025      4.6631      4.1952      3.8966      3.7647      3.7967      3.9922      4.3547    
  4.8941      5.6222      6.5420      7.6316      8.8315      10.043      11.145      12.008      12.537      12.765    
  12.800      12.720      12.507      12.073      11.353      10.392      10.967      9.7290      8.4407      7.2178    
  6.1398      5.2468      4.5506      4.0488      3.7351      3.6039      3.6519      3.8802      4.2962      4.9140    
  5.7467      6.7915      8.0113      9.3231      10.604      11.681      12.371      12.667      12.736      12.774    
  12.858      12.887      12.653      12.004      12.478      11.406      10.034      8.6052      7.2611      6.0922    
  5.1395      4.4105      3.8972      3.5887      3.4771      3.5593      3.8390      4.3280      5.0434      5.9960    
  7.1710      8.5081      9.8948      11.146      11.973      12.261      12.171      12.035      12.134      12.504    
  12.908      12.984      13.058      12.747      11.673      10.187      8.6400      7.2027      5.9725      4.9884    
  4.2517      3.7486      3.4643      3.3895      3.5226      3.8706      4.4497      5.2780      6.3592      7.6593    
  9.0875      10.479      11.485      11.808      11.492      10.919      10.601      10.871      11.673      12.583    
  12.003      12.920      12.819      11.755      10.179      8.5444      7.0480      5.7899      4.8035      4.0835    
  3.6106      3.3674      3.3448      3.5435      3.9749      4.6584      5.6102      6.8218      8.2328      9.7133    
  10.950      11.466      11.066      10.015      8.9482      8.5407      9.1271      10.497      9.1990      11.321    
  12.651      12.722      11.658      10.015      8.3276      6.8095      5.5571      4.5962      3.9148      3.4896    
  3.3022      3.3449      3.6219      4.1490      4.9478      6.0291      7.3663      8.8664      10.319      11.199    
  11.023      9.7639      7.9526      6.4751      6.1257      7.1725      5.3542      8.0432      10.705      12.339    
  12.497      11.400      9.7101      8.0073      6.5043      5.2889      4.3782      3.7539      3.3907      3.2709    
  3.3896      3.7552      4.3877      5.3086      6.5201      7.9723      9.5334      10.827      11.186      10.202    
  8.0641      5.5855      3.8646      3.7429      1.8127      4.0145      7.2671      10.294      12.055      12.178    
  11.006      9.2897      7.6069      6.1523      5.0009      4.1603      3.6078      3.3176      3.2745      3.4772    
  3.9387      4.6823      5.7278      7.0648      8.6168      10.189      11.204      10.952      9.1564      6.2521    
  3.3051      1.5573      4.9371      5.3966      7.2670      9.7399      11.775      12.619      12.116      10.688    
  8.9937      7.4017      6.0500      4.9901      4.2203      3.7180      3.4616      3.4395      3.6520      4.1110    
  4.8374      5.8489      7.1353      8.6265      10.159      11.273      11.362      10.189      8.1196      6.0387    
  5.1384      4.1691      4.9035      7.0233      9.5913      11.542      12.197      11.524      10.033      8.3806    
  6.8696      5.6167      4.6594      3.9885      3.5804      3.4158      3.4865      3.7968      4.3625      5.2068    
  6.3438      7.7506      9.3332      10.864      11.756      11.427      9.7745      7.3410      7.0233      4.9035    
  4.1691      5.1385      7.3411      9.7746      11.427      11.756      10.864      9.3332      7.7506      6.3438    
  5.2068      4.3625      3.7968      3.4865      3.4158      3.5804      3.9885      4.6594      5.6167      6.8695    
  8.3806      10.033      11.524      12.197      11.542      9.5912      9.7400      7.2671      5.3967      4.9372    
  6.0388      8.1197      10.189      11.363      11.273      10.159      8.6265      7.1354      5.8490      4.8374    