   2   2   0   0
  0.1529437E+02  0.3691622E-09  0.3691622E-09  0.3691622E-09  0.5000000E-15
  1.000000000000000E-004
  CAR 
 unknown system                          
     22.01053833     -6.24070883  301      9.25971009      1.00000000
     -6.241  0.0000E+00  0.0000E+00
     -6.147  0.0000E+00  0.0000E+00
     -6.052  0.0000E+00  0.0000E+00
     -5.958  0.0000E+00  0.0000E+00
     -5.864  0.0000E+00  0.0000E+00
     -5.770  0.0000E+00  0.0000E+00
     -5.676  0.0000E+00  0.0000E+00
     -5.582  0.0000E+00  0.0000E+00
     -5.487  0.0000E+00  0.0000E+00
     -5.393  0.1474E-16  0.1388E-17
     -5.299  0.3193E-14  0.3021E-15
     -5.205  0.4071E-12  0.3864E-13
     -5.111  0.3356E-10  0.3199E-11
     -5.016  0.1789E-08  0.1717E-09
     -4.922  0.6179E-07  0.5991E-08
     -4.828  0.1383E-05  0.1362E-06
     -4.734  0.2009E-04  0.2028E-05
     -4.640  0.1896E-03  0.1988E-04
     -4.546  0.1164E-02  0.1295E-03
     -4.451  0.4650E-02  0.5673E-03
     -4.357  0.1210E-01  0.1707E-02
     -4.263  0.2055E-01  0.3642E-02
     -4.169  0.2274E-01  0.5784E-02
     -4.075  0.1642E-01  0.7331E-02
     -3.981  0.7734E-02  0.8059E-02
     -3.886  0.2374E-02  0.8282E-02
     -3.792  0.4757E-03  0.8327E-02
     -3.698  0.7826E-04  0.8334E-02
     -3.604  0.1481E-03  0.8348E-02
     -3.510  0.8026E-03  0.8424E-02
     -3.416  0.2934E-02  0.8700E-02
     -3.321  0.6999E-02  0.9359E-02
     -3.227  0.1095E-01  0.1039E-01
     -3.133  0.1173E-01  0.1150E-01
     -3.039  0.1111E-01  0.1254E-01
     -2.945  0.1653E-01  0.1410E-01
     -2.851  0.3178E-01  0.1709E-01
     -2.756  0.4875E-01  0.2168E-01
     -2.662  0.5685E-01  0.2704E-01
     -2.568  0.5792E-01  0.3249E-01
     -2.474  0.5590E-01  0.3775E-01
     -2.380  0.4533E-01  0.4202E-01
     -2.286  0.2665E-01  0.4453E-01
     -2.191  0.1072E-01  0.4554E-01
     -2.097  0.3970E-02  0.4592E-01
     -2.003  0.6207E-02  0.4650E-01
     -1.909  0.1767E-01  0.4816E-01
     -1.815  0.3529E-01  0.5149E-01
     -1.721  0.4629E-01  0.5585E-01
     -1.626  0.4076E-01  0.5969E-01
     -1.532  0.2757E-01  0.6228E-01
     -1.438  0.2180E-01  0.6434E-01
     -1.344  0.2355E-01  0.6655E-01
     -1.250  0.2234E-01  0.6866E-01
     -1.155  0.1465E-01  0.7004E-01
     -1.061  0.6320E-02  0.7063E-01
     -0.967  0.1780E-02  0.7080E-01
     -0.873  0.3305E-03  0.7083E-01
     -0.779  0.9451E-04  0.7084E-01
     -0.685  0.4980E-03  0.7089E-01
     -0.590  0.2869E-02  0.7116E-01
     -0.496  0.1083E-01  0.7218E-01
     -0.402  0.2664E-01  0.7468E-01
     -0.308  0.4289E-01  0.7872E-01
     -0.214  0.4603E-01  0.8306E-01
     -0.120  0.3680E-01  0.8652E-01
     -0.025  0.3284E-01  0.8962E-01
      0.069  0.4391E-01  0.9375E-01
      0.163  0.6215E-01  0.9960E-01
      0.257  0.8080E-01  0.1072E+00
      0.351  0.9807E-01  0.1164E+00
      0.445  0.9952E-01  0.1258E+00
      0.540  0.7456E-01  0.1328E+00
      0.634  0.4207E-01  0.1368E+00
      0.728  0.2572E-01  0.1392E+00
      0.822  0.2459E-01  0.1415E+00
      0.916  0.2512E-01  0.1439E+00
      1.010  0.2498E-01  0.1463E+00
      1.105  0.3201E-01  0.1493E+00
      1.199  0.4384E-01  0.1534E+00
      1.293  0.4542E-01  0.1577E+00
      1.387  0.3170E-01  0.1607E+00
      1.481  0.1517E-01  0.1621E+00
      1.575  0.7663E-02  0.1628E+00
      1.670  0.1058E-01  0.1638E+00
      1.764  0.1855E-01  0.1656E+00
      1.858  0.2293E-01  0.1677E+00
      1.952  0.1879E-01  0.1695E+00
      2.046  0.1088E-01  0.1705E+00
      2.140  0.8027E-02  0.1713E+00
      2.235  0.1590E-01  0.1728E+00
      2.329  0.3347E-01  0.1759E+00
      2.423  0.5001E-01  0.1806E+00
      2.517  0.5404E-01  0.1857E+00
      2.611  0.4746E-01  0.1902E+00
      2.706  0.4073E-01  0.1940E+00
      2.800  0.4156E-01  0.1979E+00
      2.894  0.4991E-01  0.2026E+00
      2.988  0.5828E-01  0.2081E+00
      3.082  0.6666E-01  0.2144E+00
      3.176  0.8292E-01  0.2222E+00
      3.271  0.9629E-01  0.2313E+00
      3.365  0.8593E-01  0.2394E+00
      3.459  0.5945E-01  0.2450E+00
      3.553  0.4257E-01  0.2490E+00
      3.647  0.4104E-01  0.2528E+00
      3.741  0.4199E-01  0.2568E+00
      3.836  0.3854E-01  0.2604E+00
      3.930  0.3724E-01  0.2639E+00
      4.024  0.4369E-01  0.2680E+00
      4.118  0.4828E-01  0.2726E+00
      4.212  0.3906E-01  0.2763E+00
      4.306  0.2123E-01  0.2783E+00
      4.401  0.7936E-02  0.2790E+00
      4.495  0.3937E-02  0.2794E+00
      4.589  0.8450E-02  0.2802E+00
      4.683  0.2150E-01  0.2822E+00
      4.777  0.4098E-01  0.2861E+00
      4.871  0.5875E-01  0.2916E+00
      4.966  0.6541E-01  0.2978E+00
      5.060  0.6193E-01  0.3036E+00
      5.154  0.6065E-01  0.3093E+00
      5.248  0.6699E-01  0.3156E+00
      5.342  0.7202E-01  0.3224E+00
      5.436  0.6995E-01  0.3290E+00
      5.531  0.6451E-01  0.3351E+00
      5.625  0.5460E-01  0.3402E+00
      5.719  0.3742E-01  0.3437E+00
      5.813  0.2303E-01  0.3459E+00
      5.907  0.2701E-01  0.3484E+00
      6.001  0.5416E-01  0.3535E+00
      6.096  0.9117E-01  0.3621E+00
      6.190  0.1177E+00  0.3732E+00
      6.284  0.1273E+00  0.3852E+00
      6.378  0.1206E+00  0.3966E+00
      6.472  0.9249E-01  0.4053E+00
      6.567  0.5151E-01  0.4101E+00
      6.661  0.1953E-01  0.4120E+00
      6.755  0.4906E-02  0.4124E+00
      6.849  0.8087E-03  0.4125E+00
      6.943  0.1143E-03  0.4125E+00
      7.037  0.3039E-03  0.4125E+00
      7.132  0.2105E-02  0.4127E+00
      7.226  0.9829E-02  0.4137E+00
      7.320  0.3042E-01  0.4165E+00
      7.414  0.6265E-01  0.4224E+00
      7.508  0.8637E-01  0.4306E+00
      7.602  0.8043E-01  0.4381E+00
      7.697  0.5164E-01  0.4430E+00
      7.791  0.2588E-01  0.4454E+00
      7.885  0.1963E-01  0.4473E+00
      7.979  0.3257E-01  0.4503E+00
      8.073  0.5313E-01  0.4553E+00
      8.167  0.6891E-01  0.4618E+00
      8.262  0.7790E-01  0.4692E+00
      8.356  0.8262E-01  0.4770E+00
      8.450  0.8019E-01  0.4845E+00
      8.544  0.6936E-01  0.4910E+00
      8.638  0.6175E-01  0.4968E+00
      8.732  0.7212E-01  0.5036E+00
      8.827  0.9049E-01  0.5122E+00
      8.921  0.8781E-01  0.5204E+00
      9.015  0.5901E-01  0.5260E+00
      9.109  0.3033E-01  0.5288E+00
      9.203  0.2463E-01  0.5312E+00
      9.297  0.4442E-01  0.5353E+00
      9.392  0.7603E-01  0.5425E+00
      9.486  0.9875E-01  0.5518E+00
      9.580  0.1020E+00  0.5614E+00
      9.674  0.9198E-01  0.5701E+00
      9.768  0.7698E-01  0.5773E+00
      9.863  0.5693E-01  0.5827E+00
      9.957  0.3297E-01  0.5858E+00
     10.051  0.1359E-01  0.5871E+00
     10.145  0.3940E-02  0.5874E+00
     10.239  0.1871E-02  0.5876E+00
     10.333  0.5680E-02  0.5882E+00
     10.428  0.1744E-01  0.5898E+00
     10.522  0.3594E-01  0.5932E+00
     10.616  0.5101E-01  0.5980E+00
     10.710  0.5572E-01  0.6032E+00
     10.804  0.5693E-01  0.6086E+00
     10.898  0.6097E-01  0.6143E+00
     10.993  0.7078E-01  0.6210E+00
     11.087  0.9902E-01  0.6303E+00
     11.181  0.1453E+00  0.6440E+00
     11.275  0.1726E+00  0.6603E+00
     11.369  0.1486E+00  0.6743E+00
     11.463  0.9216E-01  0.6829E+00
     11.558  0.4782E-01  0.6874E+00
     11.652  0.3665E-01  0.6909E+00
     11.746  0.4578E-01  0.6952E+00
     11.840  0.5131E-01  0.7000E+00
     11.934  0.4526E-01  0.7043E+00
     12.028  0.3768E-01  0.7078E+00
     12.123  0.3844E-01  0.7115E+00
     12.217  0.4974E-01  0.7161E+00
     12.311  0.6608E-01  0.7224E+00
     12.405  0.7496E-01  0.7294E+00
     12.499  0.6999E-01  0.7360E+00
     12.593  0.6098E-01  0.7418E+00
     12.688  0.6059E-01  0.7475E+00
     12.782  0.6504E-01  0.7536E+00
     12.876  0.6036E-01  0.7593E+00
     12.970  0.4331E-01  0.7634E+00
     13.064  0.2319E-01  0.7655E+00
     13.158  0.9012E-02  0.7664E+00
     13.253  0.2460E-02  0.7666E+00
     13.347  0.4904E-03  0.7667E+00
     13.441  0.4170E-03  0.7667E+00
     13.535  0.2558E-02  0.7669E+00
     13.629  0.1197E-01  0.7681E+00
     13.724  0.3750E-01  0.7716E+00
     13.818  0.7954E-01  0.7791E+00
     13.912  0.1165E+00  0.7901E+00
     14.006  0.1211E+00  0.8015E+00
     14.100  0.9363E-01  0.8103E+00
     14.194  0.6499E-01  0.8164E+00
     14.289  0.6625E-01  0.8226E+00
     14.383  0.9911E-01  0.8320E+00
     14.477  0.1315E+00  0.8444E+00
     14.571  0.1327E+00  0.8569E+00
     14.665  0.1134E+00  0.8675E+00
     14.759  0.1052E+00  0.8774E+00
     14.854  0.1099E+00  0.8878E+00
     14.948  0.1061E+00  0.8978E+00
     15.042  0.8992E-01  0.9063E+00
     15.136  0.7103E-01  0.9129E+00
     15.230  0.5294E-01  0.9179E+00
     15.324  0.4127E-01  0.9218E+00
     15.419  0.4280E-01  0.9258E+00
     15.513  0.4797E-01  0.9304E+00
     15.607  0.4119E-01  0.9342E+00
     15.701  0.2512E-01  0.9366E+00
     15.795  0.1474E-01  0.9380E+00
     15.889  0.1618E-01  0.9395E+00
     15.984  0.2209E-01  0.9416E+00
     16.078  0.2205E-01  0.9437E+00
     16.172  0.1459E-01  0.9450E+00
     16.266  0.6686E-02  0.9457E+00
     16.360  0.4107E-02  0.9461E+00
     16.454  0.9139E-02  0.9469E+00
     16.549  0.2319E-01  0.9491E+00
     16.643  0.4363E-01  0.9532E+00
     16.737  0.5980E-01  0.9588E+00
     16.831  0.5926E-01  0.9644E+00
     16.925  0.4220E-01  0.9684E+00
     17.019  0.2341E-01  0.9706E+00
     17.114  0.1448E-01  0.9720E+00
     17.208  0.1279E-01  0.9732E+00
     17.302  0.1132E-01  0.9742E+00
     17.396  0.1126E-01  0.9753E+00
     17.490  0.2252E-01  0.9774E+00
     17.585  0.5157E-01  0.9823E+00
     17.679  0.8404E-01  0.9902E+00
     17.773  0.9037E-01  0.9987E+00
     17.867  0.6464E-01  0.1005E+01
     17.961  0.3502E-01  0.1008E+01
     18.055  0.2620E-01  0.1011E+01
     18.150  0.3819E-01  0.1014E+01
     18.244  0.5904E-01  0.1020E+01
     18.338  0.7817E-01  0.1027E+01
     18.432  0.8623E-01  0.1035E+01
     18.526  0.7534E-01  0.1042E+01
     18.620  0.4923E-01  0.1047E+01
     18.715  0.2309E-01  0.1049E+01
     18.809  0.7657E-02  0.1050E+01
     18.903  0.2294E-02  0.1050E+01
     18.997  0.3043E-02  0.1050E+01
     19.091  0.8651E-02  0.1051E+01
     19.185  0.1743E-01  0.1053E+01
     19.280  0.2298E-01  0.1055E+01
     19.374  0.1975E-01  0.1057E+01
     19.468  0.1108E-01  0.1058E+01
     19.562  0.4111E-02  0.1058E+01
     19.656  0.1439E-02  0.1058E+01
     19.750  0.2523E-02  0.1059E+01
     19.845  0.7749E-02  0.1059E+01
     19.939  0.1642E-01  0.1061E+01
     20.033  0.2274E-01  0.1063E+01
     20.127  0.2055E-01  0.1065E+01
     20.221  0.1210E-01  0.1066E+01
     20.315  0.4650E-02  0.1067E+01
     20.410  0.1164E-02  0.1067E+01
     20.504  0.1896E-03  0.1067E+01
     20.598  0.2009E-04  0.1067E+01
     20.692  0.1383E-05  0.1067E+01
     20.786  0.6179E-07  0.1067E+01
     20.880  0.1789E-08  0.1067E+01
     20.975  0.3356E-10  0.1067E+01
     21.069  0.4071E-12  0.1067E+01
     21.163  0.3183E-14  0.1067E+01
     21.257  0.1965E-16  0.1067E+01
     21.351  0.0000E+00  0.1067E+01
     21.446  0.0000E+00  0.1067E+01
     21.540  0.0000E+00  0.1067E+01
     21.634  0.0000E+00  0.1067E+01
     21.728  0.0000E+00  0.1067E+01
     21.822  0.0000E+00  0.1067E+01
     21.916  0.0000E+00  0.1067E+01
     22.011  0.0000E+00  0.1067E+01
