    2    2   15    1
  0.1529437E+02  0.3691622E-09  0.3691622E-09  0.3691622E-09  0.5000000E-15
  1.000000000000000E-004
  CAR 
 unknown system                          
      8     11      8
 
  0.1250000E+00  0.1250000E+00  0.1250000E+00  0.1250000E+00
    1       -2.486353   1.000000
    2        3.225838   1.000000
    3        8.070972   1.000000
    4        9.573120   0.013341
    5       11.213710   0.000000
    6       11.327121   0.000000
    7       14.385254   0.000000
    8       15.111384   0.000000
 
  0.3750000E+00  0.1250000E+00  0.1250000E+00  0.1250000E+00
    1        2.404190   1.000000
    2        2.925662   1.000000
    3        5.309880   1.000000
    4        5.560910   1.000000
    5       10.582284   0.000000
    6       12.311039   0.000000
    7       13.899780   0.000000
    8       14.490220   0.000000
 
 -0.1250000E+00  0.1250000E+00  0.1250000E+00  0.6250000E-01
    1       -4.240709   1.000000
    2        3.755205   1.000000
    3        5.171150   1.000000
    4        9.359320   0.240607
    5       12.444292   0.000000
    6       12.893728   0.000000
    7       18.163190   0.000000
    8       19.246279   0.000000
 
  0.3750000E+00  0.3750000E+00  0.1250000E+00  0.6250000E-01
    1       -0.298078   1.000000
    2       -0.298077   1.000000
    3        9.426624   0.118949
    4        9.426634   0.118934
    5       11.168553   0.000000
    6       11.168563   0.000000
    7       12.739384   0.000000
    8       12.739401   0.000000
 
 -0.3750000E+00  0.3750000E+00  0.1250000E+00  0.1250000E+00
    1       -2.764521   1.000000
    2        0.120871   1.000000
    3        6.075864   1.000000
    4        8.854591   0.997912
    5       11.763172   0.000000
    6       14.499465   0.000000
    7       17.690037   0.000000
    8       18.412701   0.000000
 
 -0.1250000E+00  0.3750000E+00  0.1250000E+00  0.1250000E+00
    1       -1.755999   1.000000
    2        3.268843   1.000000
    3        4.925670   1.000000
    4        8.803872   0.999366
    5        9.774681   0.000136
    6       13.857126   0.000000
    7       14.887423   0.000000
    8       15.486445   0.000000
 
 -0.3750000E+00 -0.3750000E+00  0.1250000E+00  0.1250000E+00
    1        0.382329   1.000000
    2        0.396208   1.000000
    3        6.356763   1.000000
    4        6.360309   1.000000
    5        8.290909   1.000000
    6       14.021576   0.000000
    7       16.775709   0.000000
    8       17.698760   0.000000
 
 -0.1250000E+00 -0.3750000E+00  0.1250000E+00  0.1250000E+00
    1        1.214327   1.000000
    2        4.079278   1.000000
    3        6.146929   1.000000
    4        7.496422   1.000000
    5        8.469141   1.000000
    6       10.871915   0.000000
    7       11.250462   0.000000
    8       14.804361   0.000000
 
 -0.1250000E+00 -0.1250000E+00  0.1250000E+00  0.3125000E-01
    1       -3.224285   1.000000
    2        7.436852   1.000000
    3        7.462272   1.000000
    4        7.462283   1.000000
    5       11.987233   0.000000
    6       12.105221   0.000000
    7       12.489846   0.000000
    8       14.727277   0.000000
 
 -0.3750000E+00  0.3750000E+00  0.3750000E+00  0.6250000E-01
    1       -1.340264   1.000000
    2        0.827866   1.000000
    3        2.633222   1.000000
    4        4.766220   1.000000
    5       15.986331   0.000000
    6       16.629009   0.000000
    7       18.510181   0.000000
    8       20.010538   0.000000
 
 -0.3750000E+00 -0.3750000E+00  0.3750000E+00  0.3125000E-01
    1        1.794647   1.000000
    2        1.829883   1.000000
    3        3.601712   1.000000
    4        3.601712   1.000000
    5        7.602959   1.000000
    6       17.184861   0.000000
    7       18.283768   0.000000
    8       18.283802   0.000000
