   2   2   0   0
  0.1529437E+02  0.3691622E-09  0.3691622E-09  0.3691622E-09  0.5000000E-15
  1.000000000000000E-004
  CAR 
 unknown system                          
     22.88649886     -6.52428280  301      9.06341742      1.00000000
     -6.524  0.0000E+00  0.0000E+00
     -6.426  0.0000E+00  0.0000E+00
     -6.328  0.0000E+00  0.0000E+00
     -6.230  0.0000E+00  0.0000E+00
     -6.132  0.0000E+00  0.0000E+00
     -6.034  0.0000E+00  0.0000E+00
     -5.936  0.0000E+00  0.0000E+00
     -5.838  0.0000E+00  0.0000E+00
     -5.740  0.0000E+00  0.0000E+00
     -5.642  0.1416E-16  0.1388E-17
     -5.544  0.2960E-14  0.2915E-15
     -5.446  0.3788E-12  0.3743E-13
     -5.348  0.3023E-10  0.3001E-11
     -5.250  0.1506E-08  0.1507E-09
     -5.152  0.4691E-07  0.4750E-08
     -5.054  0.9144E-06  0.9439E-07
     -4.956  0.1117E-04  0.1190E-05
     -4.858  0.8572E-04  0.9594E-05
     -4.760  0.4141E-03  0.5019E-04
     -4.662  0.1268E-02  0.1745E-03
     -4.564  0.2516E-02  0.4211E-03
     -4.466  0.3527E-02  0.7669E-03
     -4.367  0.4525E-02  0.1211E-02
     -4.269  0.6988E-02  0.1896E-02
     -4.171  0.1100E-01  0.2974E-02
     -4.073  0.1401E-01  0.4348E-02
     -3.975  0.1418E-01  0.5738E-02
     -3.877  0.1250E-01  0.6964E-02
     -3.779  0.1033E-01  0.7977E-02
     -3.681  0.8962E-02  0.8856E-02
     -3.583  0.1058E-01  0.9892E-02
     -3.485  0.1564E-01  0.1143E-01
     -3.387  0.2079E-01  0.1346E-01
     -3.289  0.2197E-01  0.1562E-01
     -3.191  0.1945E-01  0.1752E-01
     -3.093  0.1661E-01  0.1915E-01
     -2.995  0.1520E-01  0.2064E-01
     -2.897  0.1626E-01  0.2224E-01
     -2.799  0.1990E-01  0.2419E-01
     -2.701  0.2259E-01  0.2640E-01
     -2.603  0.2269E-01  0.2863E-01
     -2.505  0.2389E-01  0.3097E-01
     -2.407  0.2695E-01  0.3361E-01
     -2.309  0.2675E-01  0.3623E-01
     -2.211  0.2231E-01  0.3842E-01
     -2.113  0.2029E-01  0.4041E-01
     -2.015  0.2403E-01  0.4277E-01
     -1.917  0.2799E-01  0.4551E-01
     -1.819  0.2693E-01  0.4815E-01
     -1.721  0.2259E-01  0.5036E-01
     -1.622  0.1828E-01  0.5216E-01
     -1.524  0.1531E-01  0.5366E-01
     -1.426  0.1626E-01  0.5525E-01
     -1.328  0.2267E-01  0.5747E-01
     -1.230  0.3097E-01  0.6051E-01
     -1.132  0.3668E-01  0.6411E-01
     -1.034  0.3934E-01  0.6796E-01
     -0.936  0.4019E-01  0.7190E-01
     -0.838  0.3954E-01  0.7578E-01
     -0.740  0.4021E-01  0.7972E-01
     -0.642  0.4407E-01  0.8404E-01
     -0.544  0.4391E-01  0.8835E-01
     -0.446  0.3321E-01  0.9160E-01
     -0.348  0.1868E-01  0.9343E-01
     -0.250  0.1024E-01  0.9444E-01
     -0.152  0.1015E-01  0.9543E-01
     -0.054  0.1740E-01  0.9714E-01
      0.044  0.3047E-01  0.1001E+00
      0.142  0.4345E-01  0.1044E+00
      0.240  0.4878E-01  0.1092E+00
      0.338  0.4661E-01  0.1137E+00
      0.436  0.4211E-01  0.1179E+00
      0.534  0.3649E-01  0.1214E+00
      0.632  0.3105E-01  0.1245E+00
      0.730  0.3308E-01  0.1277E+00
      0.828  0.4382E-01  0.1320E+00
      0.926  0.5086E-01  0.1370E+00
      1.024  0.4641E-01  0.1416E+00
      1.123  0.3886E-01  0.1454E+00
      1.221  0.3704E-01  0.1490E+00
      1.319  0.3927E-01  0.1529E+00
      1.417  0.4081E-01  0.1569E+00
      1.515  0.3962E-01  0.1607E+00
      1.613  0.3500E-01  0.1642E+00
      1.711  0.2798E-01  0.1669E+00
      1.809  0.2337E-01  0.1692E+00
      1.907  0.2598E-01  0.1717E+00
      2.005  0.3387E-01  0.1751E+00
      2.103  0.4115E-01  0.1791E+00
      2.201  0.4585E-01  0.1836E+00
      2.299  0.4737E-01  0.1882E+00
      2.397  0.4380E-01  0.1925E+00
      2.495  0.3830E-01  0.1963E+00
      2.593  0.3639E-01  0.1999E+00
      2.691  0.3757E-01  0.2035E+00
      2.789  0.3912E-01  0.2074E+00
      2.887  0.4101E-01  0.2114E+00
      2.985  0.4292E-01  0.2156E+00
      3.083  0.4243E-01  0.2198E+00
      3.181  0.3796E-01  0.2235E+00
      3.279  0.3236E-01  0.2267E+00
      3.377  0.3297E-01  0.2299E+00
      3.475  0.4216E-01  0.2340E+00
      3.573  0.4983E-01  0.2389E+00
      3.671  0.4504E-01  0.2433E+00
      3.769  0.3111E-01  0.2464E+00
      3.868  0.2060E-01  0.2484E+00
      3.966  0.2138E-01  0.2505E+00
      4.064  0.3258E-01  0.2537E+00
      4.162  0.4861E-01  0.2585E+00
      4.260  0.6188E-01  0.2645E+00
      4.358  0.6522E-01  0.2709E+00
      4.456  0.5767E-01  0.2766E+00
      4.554  0.4756E-01  0.2812E+00
      4.652  0.4699E-01  0.2858E+00
      4.750  0.5983E-01  0.2917E+00
      4.848  0.7287E-01  0.2988E+00
      4.946  0.6907E-01  0.3056E+00
      5.044  0.5040E-01  0.3106E+00
      5.142  0.3264E-01  0.3138E+00
      5.240  0.2659E-01  0.3164E+00
      5.338  0.3611E-01  0.3199E+00
      5.436  0.5646E-01  0.3254E+00
      5.534  0.7112E-01  0.3324E+00
      5.632  0.6800E-01  0.3391E+00
      5.730  0.5348E-01  0.3443E+00
      5.828  0.4087E-01  0.3483E+00
      5.926  0.3762E-01  0.3520E+00
      6.024  0.4540E-01  0.3565E+00
      6.122  0.5858E-01  0.3622E+00
      6.220  0.6547E-01  0.3686E+00
      6.318  0.6290E-01  0.3748E+00
      6.416  0.5868E-01  0.3805E+00
      6.514  0.5719E-01  0.3862E+00
      6.613  0.5941E-01  0.3920E+00
      6.711  0.6599E-01  0.3984E+00
      6.809  0.7004E-01  0.4053E+00
      6.907  0.6399E-01  0.4116E+00
      7.005  0.5268E-01  0.4168E+00
      7.103  0.4610E-01  0.4213E+00
      7.201  0.4531E-01  0.4257E+00
      7.299  0.4346E-01  0.4300E+00
      7.397  0.4018E-01  0.4339E+00
      7.495  0.4641E-01  0.4385E+00
      7.593  0.6690E-01  0.4450E+00
      7.691  0.8942E-01  0.4538E+00
      7.789  0.1005E+00  0.4636E+00
      7.887  0.9929E-01  0.4734E+00
      7.985  0.8965E-01  0.4822E+00
      8.083  0.7104E-01  0.4891E+00
      8.181  0.4602E-01  0.4936E+00
      8.279  0.2512E-01  0.4961E+00
      8.377  0.1601E-01  0.4977E+00
      8.475  0.1735E-01  0.4994E+00
      8.573  0.2702E-01  0.5020E+00
      8.671  0.4410E-01  0.5063E+00
      8.769  0.6129E-01  0.5123E+00
      8.867  0.6973E-01  0.5192E+00
      8.965  0.7149E-01  0.5262E+00
      9.063  0.7284E-01  0.5333E+00
      9.161  0.7140E-01  0.5403E+00
      9.260  0.6428E-01  0.5466E+00
      9.358  0.5711E-01  0.5522E+00
      9.456  0.5501E-01  0.5576E+00
      9.554  0.5550E-01  0.5631E+00
      9.652  0.5311E-01  0.5683E+00
      9.750  0.4651E-01  0.5728E+00
      9.848  0.3995E-01  0.5768E+00
      9.946  0.3554E-01  0.5802E+00
     10.044  0.3079E-01  0.5833E+00
     10.142  0.2598E-01  0.5858E+00
     10.240  0.2450E-01  0.5882E+00
     10.338  0.2568E-01  0.5907E+00
     10.436  0.2643E-01  0.5933E+00
     10.534  0.2866E-01  0.5961E+00
     10.632  0.3614E-01  0.5997E+00
     10.730  0.4851E-01  0.6044E+00
     10.828  0.6252E-01  0.6105E+00
     10.926  0.7389E-01  0.6178E+00
     11.024  0.7827E-01  0.6255E+00
     11.122  0.7203E-01  0.6325E+00
     11.220  0.5667E-01  0.6381E+00
     11.318  0.4110E-01  0.6421E+00
     11.416  0.3241E-01  0.6453E+00
     11.514  0.3096E-01  0.6483E+00
     11.612  0.3658E-01  0.6519E+00
     11.710  0.5047E-01  0.6569E+00
     11.808  0.7171E-01  0.6639E+00
     11.906  0.9449E-01  0.6732E+00
     12.005  0.1083E+00  0.6838E+00
     12.103  0.1077E+00  0.6943E+00
     12.201  0.1019E+00  0.7043E+00
     12.299  0.1014E+00  0.7143E+00
     12.397  0.9895E-01  0.7240E+00
     12.495  0.8662E-01  0.7325E+00
     12.593  0.7225E-01  0.7395E+00
     12.691  0.6144E-01  0.7456E+00
     12.789  0.5146E-01  0.7506E+00
     12.887  0.4570E-01  0.7551E+00
     12.985  0.4681E-01  0.7597E+00
     13.083  0.4708E-01  0.7643E+00
     13.181  0.4240E-01  0.7684E+00
     13.279  0.3835E-01  0.7722E+00
     13.377  0.3904E-01  0.7760E+00
     13.475  0.4604E-01  0.7805E+00
     13.573  0.5982E-01  0.7864E+00
     13.671  0.7295E-01  0.7936E+00
     13.769  0.7817E-01  0.8012E+00
     13.867  0.8059E-01  0.8091E+00
     13.965  0.8781E-01  0.8177E+00
     14.063  0.9564E-01  0.8271E+00
     14.161  0.9170E-01  0.8361E+00
     14.259  0.7568E-01  0.8435E+00
     14.357  0.6255E-01  0.8497E+00
     14.455  0.5850E-01  0.8554E+00
     14.553  0.5603E-01  0.8609E+00
     14.651  0.5332E-01  0.8661E+00
     14.750  0.5777E-01  0.8718E+00
     14.848  0.7264E-01  0.8789E+00
     14.946  0.9104E-01  0.8878E+00
     15.044  0.1001E+00  0.8976E+00
     15.142  0.9184E-01  0.9066E+00
     15.240  0.7367E-01  0.9139E+00
     15.338  0.5801E-01  0.9195E+00
     15.436  0.4720E-01  0.9242E+00
     15.534  0.3949E-01  0.9280E+00
     15.632  0.3636E-01  0.9316E+00
     15.730  0.3727E-01  0.9353E+00
     15.828  0.3843E-01  0.9390E+00
     15.926  0.3784E-01  0.9427E+00
     16.024  0.3911E-01  0.9466E+00
     16.122  0.4787E-01  0.9513E+00
     16.220  0.6166E-01  0.9573E+00
     16.318  0.6893E-01  0.9641E+00
     16.416  0.6519E-01  0.9705E+00
     16.514  0.5806E-01  0.9761E+00
     16.612  0.5195E-01  0.9812E+00
     16.710  0.4546E-01  0.9857E+00
     16.808  0.3947E-01  0.9896E+00
     16.906  0.3472E-01  0.9930E+00
     17.004  0.2933E-01  0.9958E+00
     17.102  0.2267E-01  0.9981E+00
     17.200  0.1698E-01  0.9997E+00
     17.298  0.1513E-01  0.1001E+01
     17.396  0.1711E-01  0.1003E+01
     17.495  0.2033E-01  0.1005E+01
     17.593  0.2566E-01  0.1007E+01
     17.691  0.3565E-01  0.1011E+01
     17.789  0.4609E-01  0.1015E+01
     17.887  0.5131E-01  0.1020E+01
     17.985  0.5213E-01  0.1026E+01
     18.083  0.4981E-01  0.1030E+01
     18.181  0.4268E-01  0.1035E+01
     18.279  0.3186E-01  0.1038E+01
     18.377  0.2192E-01  0.1040E+01
     18.475  0.1604E-01  0.1041E+01
     18.573  0.1432E-01  0.1043E+01
     18.671  0.1572E-01  0.1044E+01
     18.769  0.1942E-01  0.1046E+01
     18.867  0.2365E-01  0.1049E+01
     18.965  0.2549E-01  0.1051E+01
     19.063  0.2354E-01  0.1053E+01
     19.161  0.1897E-01  0.1055E+01
     19.259  0.1393E-01  0.1057E+01
     19.357  0.1047E-01  0.1058E+01
     19.455  0.9203E-02  0.1059E+01
     19.553  0.9973E-02  0.1060E+01
     19.651  0.1187E-01  0.1061E+01
     19.749  0.1221E-01  0.1062E+01
     19.847  0.9873E-02  0.1063E+01
     19.945  0.6825E-02  0.1064E+01
     20.043  0.4597E-02  0.1064E+01
     20.141  0.3013E-02  0.1064E+01
     20.240  0.1714E-02  0.1064E+01
     20.338  0.7797E-03  0.1065E+01
     20.436  0.4450E-03  0.1065E+01
     20.534  0.9050E-03  0.1065E+01
     20.632  0.2230E-02  0.1065E+01
     20.730  0.3919E-02  0.1065E+01
     20.828  0.4892E-02  0.1066E+01
     20.926  0.4433E-02  0.1066E+01
     21.024  0.2886E-02  0.1066E+01
     21.122  0.1302E-02  0.1067E+01
     21.220  0.3918E-03  0.1067E+01
     21.318  0.7652E-04  0.1067E+01
     21.416  0.9545E-05  0.1067E+01
     21.514  0.7536E-06  0.1067E+01
     21.612  0.3746E-07  0.1067E+01
     21.710  0.1169E-08  0.1067E+01
     21.808  0.2284E-10  0.1067E+01
     21.906  0.2790E-12  0.1067E+01
     22.004  0.2128E-14  0.1067E+01
     22.102  0.1003E-16  0.1067E+01
     22.200  0.0000E+00  0.1067E+01
     22.298  0.0000E+00  0.1067E+01
     22.396  0.0000E+00  0.1067E+01
     22.494  0.0000E+00  0.1067E+01
     22.592  0.0000E+00  0.1067E+01
     22.690  0.0000E+00  0.1067E+01
     22.788  0.0000E+00  0.1067E+01
     22.886  0.0000E+00  0.1067E+01
