       N       E                     dE             d eps       ncg     rms          rms(c)
DAV:   1    -0.102021144018E+02   -0.10202E+02   -0.30400E-06   512   0.169E-02    0.486E-04
DAV:   2    -0.102021144278E+02   -0.25998E-07   -0.23424E-07   472   0.437E-03
   1 F= -.10202114E+02 E0= -.10191149E+02  d E =-.102021E+02
