       N       E                     dE             d eps       ncg     rms          rms(c)
DAV:   1    -0.443108995651E+00   -0.44311E+00   -0.25053E+03   904   0.508E+02
DAV:   2    -0.101159256149E+02   -0.96728E+01   -0.92775E+01  1384   0.594E+01
DAV:   3    -0.102108161193E+02   -0.94891E-01   -0.94603E-01  1192   0.716E+00
DAV:   4    -0.102110417567E+02   -0.22564E-03   -0.22563E-03  1416   0.329E-01
DAV:   5    -0.102110419016E+02   -0.14488E-06   -0.14641E-06  1184   0.647E-03    0.149E+00
DAV:   6    -0.102061493430E+02    0.48926E-02   -0.18562E-03  1168   0.328E-01    0.930E-01
DAV:   7    -0.102021288366E+02    0.40205E-02   -0.54014E-03   912   0.571E-01    0.334E-02
DAV:   8    -0.102021139087E+02    0.14928E-04   -0.81190E-05   608   0.766E-02
   1 F= -.10202114E+02 E0= -.10191149E+02  d E =-.102021E+02
