 running on    8 total cores
 distrk:  each k-point on    8 cores,    1 groups
 distr:  one band on    1 cores,    8 groups
 using from now: INCAR     
 vasp.5.4.4.18Apr17-6-g9f103f2a35 (build Dec 09 2018 21:25:21) complex          
  
 POSCAR found type information on POSCAR  Si
 POSCAR found :  1 types and       2 ions
 scaLAPACK will be used

 ----------------------------------------------------------------------------- 
|                                                                             |
|           W    W    AA    RRRRR   N    N  II  N    N   GGGG   !!!           |
|           W    W   A  A   R    R  NN   N  II  NN   N  G    G  !!!           |
|           W    W  A    A  R    R  N N  N  II  N N  N  G       !!!           |
|           W WW W  AAAAAA  RRRRR   N  N N  II  N  N N  G  GGG   !            |
|           WW  WW  A    A  R   R   N   NN  II  N   NN  G    G                |
|           W    W  A    A  R    R  N    N  II  N    N   GGGG   !!!           |
|                                                                             |
|      For optimal performance we recommend to set                            |
|        NCORE= 4 - approx SQRT( number of cores)                             |
|      NCORE specifies how many cores store one orbital (NPAR=cpu/NCORE).     |
|      This setting can  greatly improve the performance of VASP for DFT.     |
|      The default,   NCORE=1            might be grossly inefficient         |
|      on modern multi-core architectures or massively parallel machines.     |
|      Do your own testing !!!!                                               |
|      Unfortunately you need to use the default for GW and RPA calculations. |
|      (for HF NCORE is supported but not extensively tested yet)             |
|                                                                             |
 ----------------------------------------------------------------------------- 

 LDA part: xc-table for Pade appr. of Perdew
 POSCAR, INCAR and KPOINTS ok, starting setup
 FFT: planning ...
 WAVECAR not read
 entering main loop
       N       E                     dE             d eps       ncg     rms          rms(c)
DAV:   1    -0.443108995651E+00   -0.44311E+00   -0.25053E+03   904   0.508E+02
DAV:   2    -0.101159256149E+02   -0.96728E+01   -0.92775E+01  1384   0.594E+01
DAV:   3    -0.102108161193E+02   -0.94891E-01   -0.94603E-01  1192   0.716E+00
DAV:   4    -0.102110417567E+02   -0.22564E-03   -0.22563E-03  1416   0.329E-01
DAV:   5    -0.102110419016E+02   -0.14488E-06   -0.14641E-06  1184   0.647E-03    0.149E+00
DAV:   6    -0.102061493430E+02    0.48926E-02   -0.18562E-03  1168   0.328E-01    0.930E-01
DAV:   7    -0.102021288366E+02    0.40205E-02   -0.54014E-03   912   0.571E-01    0.334E-02
DAV:   8    -0.102021139087E+02    0.14928E-04   -0.81190E-05   608   0.766E-02
   1 F= -.10202114E+02 E0= -.10191149E+02  d E =-.102021E+02
 curvature:   0.00 expect dE= 0.000E+00 dE for cont linesearch  0.000E+00
 trial: gam= 0.00000 g(F)=  0.782E-49 g(S)=  0.000E+00 ort = 0.000E+00 (trialstep = 0.100E+01)
 search vector abs. value=  0.100E-09
 reached required accuracy - stopping structural energy minimisation
 writing wavefunctions
