unknown system                          
   1.00000000000000     
    -2.317315    2.317315    1.388582
     2.317315   -2.317315    1.388582
     2.317315    2.317315   -1.388582
   Si
     2
Direct
  0.250000  0.750000  0.500000
  0.000000  0.000000  0.000000
 
   32   32   32
 -5.3578     -4.1795     -1.0193      3.1592      7.1953      10.149      11.565      11.515      10.461      9.0111    
  7.5736      6.2931      5.2451      4.4547      3.9139      3.6019      3.5003      3.6019      3.9139      4.4546    
  5.2451      6.2931      7.5736      9.0111      10.461      11.515      11.565      10.149      7.1953      3.1592    
 -1.0193     -4.1795     -4.1795     -4.8037     -3.1449     0.26675      4.4012      8.1385      10.656      11.638    
  11.266      10.054      8.5928      7.1928      5.9739      4.9971      4.2771      3.8011      3.5478      3.5007    
  3.6560      4.0240      4.6249      5.4780      6.5852      7.9116      9.3692      10.783      11.676      11.457    
  9.7378      6.5589      2.4885     -1.4691     -1.0193     -3.1450     -3.2167     -1.2177      2.2084      6.0310    
  9.2342      11.153      11.619      10.914      9.5785      8.1309      6.7853      5.6413      4.7445      4.0999    
  3.6907      3.4957      3.5014      3.7074      4.1269      4.7805      5.6852      6.8371      8.1921      9.6526    
  11.014      11.768      11.367      9.5088      6.3346      2.4885      3.1592     0.26675     -1.2177     -.81220    
  1.3406      4.5382      7.8140      10.307      11.530      11.463      10.461      9.0563      7.6433      6.3677    
  5.3090      4.4976      3.9298      3.5863      3.4472      3.5021      3.7540      4.2177      4.9141      5.8573    
  7.0373      8.4026      9.8489      11.152      11.809      11.333      9.5088      6.5589      7.1953      4.4012    
  2.2084      1.3406      2.0904      4.1935      6.9473      9.5050      11.192      11.705      11.150      9.9250    
  8.5083      7.1492      5.9567      4.9899      4.2654      3.7727      3.4915      3.4038      3.5024      3.7931    
  4.2924      5.0199      5.9862      7.1763      8.5330      9.9494      11.198      11.809      11.367      9.7378    
  10.149      8.1385      6.0310      4.5382      4.1935      5.1219      6.9864      9.1398      10.893      11.769    
  11.635      10.691      9.3459      7.9560      6.6684      5.5682      4.6957      4.0560      3.6339      3.4092    
  3.3665      3.5020      3.8236      4.3479      5.0930      6.0660      7.2476      8.5773      9.9494      11.152    
  11.768      11.457      11.565      10.656      9.2342      7.8140      6.9473      6.9864      7.9264      9.4090    
  10.884      11.840      11.985      11.328      10.132      8.7610      7.4225      6.2199      5.2164      4.4363    
  3.8759      3.5174      3.3418      3.3369      3.5013      3.8442      4.3819      5.1303      6.0931      7.2476    
  8.5330      9.8489      11.014      11.676      11.515      11.638      11.153      10.307      9.5050      9.1398    
  9.4090      10.222      11.245      12.049      12.296      11.857      10.845      9.5420      8.1977      6.9305    
  5.8211      4.9136      4.2199      3.7304      3.4267      3.2918      3.3161      3.5004      3.8546      4.3934    
  5.1303      6.0660      7.1763      8.4026      9.6526      10.783      10.461      11.266      11.619      11.530    
  11.192      10.893      10.884      11.245      11.843      12.399      12.616      12.306      11.468      10.279    
  8.9733      7.6837      6.5009      5.4864      4.6693      4.0526      3.6236      3.3646      3.2609      3.3054    
  3.5001      3.8546      4.3819      5.0930      5.9862      7.0373      8.1921      9.3692      9.0111      10.054    
  10.914      11.463      11.705      11.769      11.840      12.049      12.399      12.754      12.903      12.668    
  11.987      10.945      9.7246      8.4595      7.2436      6.1508      5.2270      4.4904      3.9387      3.5583    
  3.3331      3.2505      3.3054      3.5004      3.8442      4.3479      5.0199      5.8573      6.8371      7.9116    
  7.5736      8.5928      9.5785      10.461      11.150      11.635      11.985      12.296      12.616      12.903    
  13.037      12.884      12.363      11.500      10.418      9.2302      8.0300      6.8976      5.8929      5.0503    
  4.3814      3.8812      3.5365      3.3331      3.2609      3.3161      3.5013      3.8236      4.2924      4.9141    
  5.6852      6.5852      6.2931      7.1928      8.1309      9.0563      9.9250      10.691      11.328      11.857    
  12.306      12.668      12.884      12.864      12.536      11.893      11.005      9.9565      8.8299      7.7078    
  6.6598      5.7351      4.9610      4.3449      3.8812      3.5583      3.3646      3.2918      3.3369      3.5020    
  3.7931      4.2177      4.7805      5.4780      5.2451      5.9739      6.7854      7.6433      8.5083      9.3459    
  10.132      10.845      11.468      11.987      12.363      12.536      12.446      12.070      11.434      10.587    
  9.5999      8.5492      7.5086      6.5388      5.6821      4.9610      4.3814      3.9387      3.6236      3.4267    
  3.3418      3.3665      3.5024      3.7540      4.1269      4.6249      4.4546      4.9971      5.6413      6.3677    
  7.1492      7.9560      8.7610      9.5420      10.279      10.945      11.500      11.893      12.070      11.993    
  11.651      11.066      10.286      9.3751      8.4048      7.4412      6.5388      5.7351      5.0503      4.4904    
  4.0526      3.7304      3.5174      3.4092      3.4038      3.5021      3.7074      4.0240      3.9139      4.2771    
  4.7445      5.3090      5.9568      6.6684      7.4225      8.1977      8.9733      9.7246      10.418      11.005    
  11.434      11.651      11.624      11.343      10.830      10.128      9.2985      8.4048      7.5086      6.6598    
  5.8929      5.2270      4.6693      4.2199      3.8759      3.6339      3.4915      3.4472      3.5014      3.6560    
  3.6019      3.8012      4.0999      4.4976      4.9900      5.5682      6.2199      6.9305      7.6837      8.4595    
  9.2303      9.9565      10.587      11.066      11.343      11.384      11.180      10.748      10.128      9.3751    
  8.5492      7.7078      6.8976      6.1508      5.4864      4.9136      4.4363      4.0560      3.7727      3.5863    
  3.4957      3.5007      3.5003      3.5478      3.6907      3.9298      4.2654      4.6957      5.2164      5.8211    
  6.5009      7.2436      8.0300      8.8299      9.5999      10.286      10.830      11.180      11.301      11.180    
  10.830      10.286      9.5999      8.8299      8.0300      7.2436      6.5009      5.8211      5.2164      4.6957    
  4.2654      3.9298      3.6907      3.5478      3.6019      3.5007      3.4958      3.5863      3.7728      4.0560    
  4.4364      4.9136      5.4864      6.1508      6.8976      7.7078      8.5492      9.3752      10.128      10.748    
  11.180      11.384      11.343      11.066      10.587      9.9565      9.2302      8.4595      7.6837      6.9305    
  6.2199      5.5682      4.9899      4.4976      4.0999      3.8011      3.9139      3.6560      3.5014      3.4472    
  3.4915      3.6340      3.8759      4.2199      4.6693      5.2270      5.8929      6.6598      7.5086      8.4048    
  9.2985      10.128      10.830      11.343      11.624      11.651      11.434      11.005      10.418      9.7246    
  8.9733      8.1977      7.4225      6.6684      5.9567      5.3090      4.7445      4.2771      4.4547      4.0240    
  3.7075      3.5022      3.4038      3.4092      3.5174      3.7304      4.0526      4.4904      5.0503      5.7351    
  6.5388      7.4412      8.4048      9.3752      10.286      11.066      11.651      11.993      12.070      11.893    
  11.500      10.945      10.279      9.5420      8.7610      7.9560      7.1492      6.3677      5.6413      4.9971    
  5.2451      4.6249      4.1269      3.7540      3.5024      3.3665      3.3418      3.4267      3.6236      3.9387    
  4.3814      4.9610      5.6821      6.5388      7.5086      8.5492      9.5999      10.587      11.434      12.070    
  12.446      12.536      12.363      11.987      11.468      10.845      10.132      9.3459      8.5083      7.6433    
  6.7853      5.9739      6.2931      5.4780      4.7805      4.2178      3.7932      3.5020      3.3369      3.2918    
  3.3646      3.5583      3.8812      4.3448      4.9610      5.7351      6.6598      7.7078      8.8299      9.9565    
  11.005      11.893      12.536      12.864      12.884      12.668      12.306      11.857      11.328      10.691    
  9.9250      9.0563      8.1309      7.1928      7.5736      6.5852      5.6852      4.9141      4.2924      3.8236    
  3.5012      3.3161      3.2608      3.3330      3.5364      3.8812      4.3814      5.0503      5.8929      6.8976    
  8.0300      9.2303      10.418      11.500      12.363      12.884      13.037      12.903      12.616      12.296    
  11.985      11.635      11.150      10.461      9.5785      8.5928      9.0111      7.9116      6.8371      5.8573    
  5.0199      4.3479      3.8442      3.5004      3.3053      3.2504      3.3330      3.5583      3.9387      4.4904    
  5.2270      6.1508      7.2436      8.4595      9.7246      10.945      11.987      12.668      12.903      12.754    
  12.399      12.049      11.840      11.769      11.705      11.463      10.914      10.054      10.461      9.3692    
  8.1922      7.0374      5.9863      5.0930      4.3819      3.8545      3.5001      3.3053      3.2608      3.3646    
  3.6236      4.0526      4.6693      5.4864      6.5009      7.6837      8.9733      10.279      11.468      12.306    
  12.616      12.399      11.843      11.245      10.884      10.893      11.192      11.530      11.619      11.266    
  11.515      10.783      9.6526      8.4026      7.1764      6.0660      5.1303      4.3934      3.8545      3.5004    
  3.3161      3.2918      3.4267      3.7304      4.2199      4.9136      5.8211      6.9305      8.1977      9.5420    
  10.845      11.857      12.296      12.049      11.245      10.222      9.4090      9.1398      9.5050      10.307    
  11.153      11.638      11.565      11.676      11.014      9.8489      8.5330      7.2476      6.0931      5.1303    
  4.3819      3.8442      3.5012      3.3369      3.3418      3.5174      3.8759      4.4364      5.2164      6.2199    
  7.4225      8.7610      10.132      11.328      11.985      11.840      10.884      9.4090      7.9264      6.9864    
  6.9473      7.8140      9.2342      10.656      10.149      11.457      11.768      11.152      9.9494      8.5773    
  7.2476      6.0660      5.0930      4.3479      3.8236      3.5020      3.3665      3.4092      3.6340      4.0560    
  4.6957      5.5682      6.6684      7.9560      9.3459      10.691      11.635      11.769      10.893      9.1398    
  6.9864      5.1219      4.1935      4.5382      6.0310      8.1385      7.1953      9.7378      11.367      11.809    
  11.198      9.9494      8.5330      7.1764      5.9863      5.0199      4.2924      3.7932      3.5024      3.4038    
  3.4915      3.7728      4.2654      4.9900      5.9568      7.1492      8.5083      9.9250      11.150      11.705    
  11.192      9.5050      6.9473      4.1935      2.0904      1.3406      2.2084      4.4012      3.1592      6.5589    
  9.5088      11.333      11.809      11.152      9.8489      8.4026      7.0374      5.8573      4.9141      4.2178    
  3.7540      3.5022      3.4472      3.5863      3.9298      4.4976      5.3090      6.3677      7.6433      9.0563    
  10.461      11.463      11.530      10.307      7.8140      4.5382      1.3406     -.81220     -1.2177     0.26675    
 -1.0193      2.4885      6.3346      9.5088      11.367      11.768      11.014      9.6526      8.1922      6.8371    
  5.6852      4.7805      4.1269      3.7075      3.5014      3.4958      3.6907      4.0999      4.7445      5.6413    
  6.7854      8.1309      9.5785      10.914      11.619      11.153      9.2342      6.0310      2.2084     -1.2177    
 -3.2167     -3.1449     -4.1795     -1.4691      2.4885      6.5589      9.7378      11.457      11.676      10.783    
  9.3692      7.9116      6.5852      5.4780      4.6249      4.0240      3.6560      3.5007      3.5478      3.8012    
  4.2771      4.9971      5.9739      7.1928      8.5928      10.054      11.266      11.638      10.656      8.1385    
  4.4012     0.26675     -3.1450     -4.8037     -4.1793     -3.3078     -.52613      3.3107      7.1152      9.9653    
  11.376      11.369      10.357      8.9229      7.4858      6.1965      5.1342      4.3266      3.7668      3.4330    
  3.3055      3.3751      3.6473      4.1397      4.8748      5.8646      7.0916      8.4895      9.9319      11.082    
  11.359      10.289      7.7497      4.1098     0.21068     -2.8657     -3.3079     -4.1794     -2.8658     0.21076    
  4.1099      7.7497      10.289      11.359      11.082      9.9319      8.4894      7.0915      5.8646      4.8748    
  4.1397      3.6472      3.3751      3.3056      3.4330      3.7667      4.3266      5.1343      6.1966      7.4858    
  8.9228      10.356      11.369      11.376      9.9651      7.1151      3.3108     -.52604     -.42026     -2.7506    
 -3.1447     -1.4866      1.6826      5.3938      8.6313      10.680      11.304      10.724      9.4516      8.0225    
  6.6787      5.5270      4.6186      3.9613      3.5386      3.3285      3.3162      3.5000      3.8923      4.5146    
  5.3865      6.5093      7.8459      9.3064      10.713      11.598      11.404      9.7938      6.8439      3.1222    
  3.5773     0.51549     -1.2704     -1.2177     0.63780      3.6785      6.9656      9.6032      11.034      11.161    
  10.287      8.9350      7.5383      6.2629      5.1966      4.3753      3.7976      3.4442      3.2945      3.3369    
  3.5734      4.0190      4.6958      5.6209      6.7897      8.1566      9.6242      10.993      11.779      11.477    
  9.8278      6.9898      7.5369      4.6119      2.1504     0.93013      1.3407      3.2183      5.9193      8.5912    
  10.498      11.256      10.896      9.7806      8.4009      7.0536      5.8592      4.8853      4.1532      3.6540    
  3.3672      3.2741      3.3665      3.6500      4.1416      4.8626      5.8271      7.0247      8.4034      9.8616    
  11.189      11.919      11.608      10.075      10.499      8.4012      6.0760      4.2586      3.5562      4.1935    
  5.9166      8.1077      10.045      11.173      11.279      10.502      9.2310      7.8668      6.5856      5.4819    
  4.6036      3.9593      3.5348      3.3093      3.2671      3.4037      3.7270      4.2550      5.0077      5.9957    
  7.2033      8.5742      10.006      11.293      12.012      11.785      11.972      11.022      9.4471      7.7599    
  6.5561      6.2699      6.9863      8.4062      9.9819      11.149      11.537      11.082      10.004      8.6742    
  7.3517      6.1510      5.1440      4.3605      3.7993      3.4430      3.2721      3.2740      3.4471      3.8014    
  4.3546      5.1249      6.1187      7.3164      8.6595      10.048      11.299      12.043      11.991      12.117    
  11.547      10.510      9.4294      8.7502      8.7494      9.4089      10.428      11.360      11.807      11.567    
  10.697      9.4554      8.1352      6.8760      5.7660      4.8565      4.1630      3.6774      3.3811      3.2567    
  3.2945      3.4955      3.8706      4.4366      5.2086      6.1899      7.3578      8.6541      9.9848      11.198    
  10.985      11.832      12.164      11.966      11.428      10.868      10.590      10.743      11.245      11.829    
  12.166      12.014      11.312      10.195      8.9163      7.6390      6.4590      5.4442      4.6284      4.0167    
  3.5969      3.3509      3.2637      3.3285      3.5477      3.9322      4.4972      5.2551      6.2057      7.3249    
  8.5570      9.8166      9.5507      10.663      11.552      12.066      12.193      12.071      11.914      11.908    
  12.105      12.399      12.580      12.434      11.850      10.872      9.6736      8.4204      7.2093      6.1180    
  5.1967      4.4664      3.9254      3.5600      3.3535      3.2935      3.3751      3.6018      3.9837      4.5339    
  5.2617      6.1645      7.2184      8.3722      8.1081      9.1983      10.241      11.145      11.795      12.174    
  12.363      12.489      12.641      12.813      12.903      12.762      12.282      11.452      10.377      9.1946    
  7.9975      6.8673      5.8663      5.0314      4.3749      3.8916      3.5679      3.3892      3.3453      3.4330    
  3.6559      4.0228      4.5443      5.2275      6.0681      7.0433      6.8078      7.7769      8.7749      9.7431    
  10.626      11.356      11.902      12.299      12.600      12.831      12.953      12.884      12.538      11.885    
  10.982      9.9243      8.7945      7.6727      6.6288      5.7132      4.9533      4.3565      3.9164      3.6207    
  3.4572      3.4178      3.5001      3.7074      4.0472      4.5277      5.1539      5.9208      5.7296      6.5234    
  7.3941      8.2990      9.1918      10.031      10.785      11.422      11.938      12.338      12.605      12.690    
  12.536      12.109      11.431      10.559      9.5580      8.5024      7.4645      6.5045      5.6640      4.9648    
  4.4120      3.9996      3.7174      3.5557      3.5083      3.5735      3.7540      4.0555      4.4845      5.0442    
  4.9038      5.5040      6.2033      6.9768      7.7916      8.6116      9.4048      10.146      10.817      11.392    
  11.846      12.139      12.225      12.070      11.668      11.040      10.234      9.3104      8.3392      7.3848    
  6.5000      5.7210      5.0664      4.5407      4.1396      3.8556      3.6818      3.6138      3.6503      3.7933    
  4.0471      4.4166      4.3276      4.7394      5.2546      5.8624      6.5439      7.2747      8.0282      8.7796    
  9.5072      10.188      10.795      11.288      11.622      11.752      11.651      11.314      10.762      10.039    
  9.2033      8.3170      7.4390      6.6171      5.8838      5.2563      4.7400      4.3332      4.0318      3.8316    
  3.7302      3.7271      3.8237      4.0228      3.9838      4.2218      4.5591      4.9929      5.5155      6.1137    
  6.7706      7.4677      8.1862      8.9064      9.6034      10.244      10.783      11.173      11.369      11.343    
  11.090      10.628      9.9963      9.2477      8.4399      7.6272      6.8534      6.1489      5.5306      5.0056    
  4.5758      4.2408      4.0002      3.8537      3.8015      3.8443      3.8546      3.9323      4.1043      4.3707    
  4.7299      5.1770      5.7040      6.3004      6.9546      7.6526      8.3764      9.0991      9.7830      10.380    
  10.840      11.117      11.180      11.021      10.654      10.112      9.4442      8.7045      7.9436      7.2025    
  6.5096      5.8822      5.3303      4.8600      4.4761      4.1820      3.9799      3.8707      3.9323      3.8547    
  3.8707      3.9799      4.1820      4.4761      4.8601      5.3303      5.8822      6.5096      7.2025      7.9436    
  8.7045      9.4442      10.112      10.654      11.021      11.180      11.117      10.840      10.380      9.7829    
  9.0991      8.3764      7.6527      6.9546      6.3004      5.7040      5.1770      4.7299      4.3707      4.1042    
  4.2218      3.9838      3.8443      3.8015      3.8537      4.0002      4.2408      4.5757      5.0056      5.5306    
  6.1489      6.8534      7.6272      8.4399      9.2478      9.9963      10.628      11.090      11.343      11.369    
  11.173      10.783      10.244      9.6035      8.9064      8.1862      7.4677      6.7707      6.1137      5.5155    
  4.9929      4.5591      4.7394      4.3276      4.0227      3.8237      3.7272      3.7302      3.8316      4.0318    
  4.3333      4.7401      5.2563      5.8838      6.6171      7.4390      8.3170      9.2033      10.039      10.762    
  11.314      11.651      11.752      11.622      11.288      10.795      10.188      9.5072      8.7797      8.0282    
  7.2747      6.5439      5.8624      5.2547      5.5040      4.9037      4.4166      4.0472      3.7933      3.6502    
  3.6137      3.6818      3.8556      4.1396      4.5406      5.0664      5.7210      6.5000      7.3848      8.3392    
  9.3104      10.234      11.040      11.668      12.070      12.225      12.139      11.846      11.392      10.817    
  10.146      9.4048      8.6116      7.7916      6.9769      6.2033      6.5234      5.7297      5.0442      4.4845    
  4.0554      3.7540      3.5735      3.5083      3.5557      3.7174      3.9996      4.4120      4.9648      5.6640    
  6.5045      7.4645      8.5024      9.5580      10.559      11.431      12.109      12.536      12.690      12.605    
  12.338      11.938      11.422      10.785      10.031      9.1919      8.2990      7.3940      7.7769      6.8079    
  5.9208      5.1539      4.5277      4.0472      3.7074      3.5000      3.4177      3.4572      3.6207      3.9164    
  4.3565      4.9533      5.7132      6.6288      7.6727      8.7945      9.9243      10.982      11.885      12.538    
  12.884      12.953      12.831      12.600      12.299      11.902      11.356      10.626      9.7430      8.7749    
  9.1983      8.1080      7.0433      6.0681      5.2275      4.5443      4.0227      3.6559      3.4330      3.3453    
  3.3892      3.5679      3.8916      4.3749      5.0314      5.8663      6.8673      7.9976      9.1947      10.377    
  11.452      12.282      12.762      12.903      12.813      12.641      12.489      12.363      12.174      11.795    
  11.145      10.241      10.663      9.5506      8.3722      7.2185      6.1646      5.2616      4.5338      3.9838    
  3.6018      3.3751      3.2935      3.3535      3.5600      3.9254      4.4663      5.1967      6.1180      7.2093    
  8.4204      9.6736      10.872      11.850      12.434      12.580      12.399      12.105      11.908      11.914    
  12.071      12.193      12.066      11.552      11.832      10.985      9.8167      8.5570      7.3249      6.2057    
  5.2551      4.4972      3.9322      3.5476      3.3284      3.2638      3.3510      3.5969      4.0167      4.6284    
  5.4442      6.4590      7.6389      8.9163      10.195      11.312      12.014      12.166      11.829      11.245    
  10.743      10.590      10.868      11.428      11.966      12.164      12.117      11.991      11.198      9.9847    
  8.6541      7.3579      6.1900      5.2086      4.4365      3.8706      3.4955      3.2945      3.2567      3.3811    
  3.6774      4.1630      4.8564      5.7660      6.8760      8.1353      9.4554      10.697      11.567      11.807    
  11.360      10.428      9.4088      8.7494      8.7503      9.4295      10.510      11.547      11.022      11.972    
  12.043      11.299      10.048      8.6596      7.3164      6.1186      5.1248      4.3547      3.8014      3.4471    
  3.2740      3.2722      3.4431      3.7992      4.3604      5.1440      6.1511      7.3517      8.6741      10.004    
  11.082      11.537      11.148      9.9818      8.4062      6.9864      6.2699      6.5561      7.7599      9.4471    
  8.4012      10.499      11.785      12.012      11.293      10.006      8.5742      7.2033      5.9957      5.0077    
  4.2550      3.7270      3.4037      3.2672      3.3094      3.5348      3.9593      4.6037      5.4819      6.5855    
  7.8668      9.2310      10.502      11.279      11.173      10.045      8.1078      5.9167      4.1935      3.5562    
  4.2586      6.0761      4.6118      7.5368      10.075      11.608      11.919      11.189      9.8616      8.4035    
  7.0247      5.8271      4.8626      4.1416      3.6501      3.3665      3.2740      3.3672      3.6541      4.1532    
  4.8853      5.8592      7.0536      8.4010      9.7806      10.896      11.256      10.498      8.5913      5.9193    
  3.2183      1.3407     0.93026      2.1505     0.51544      3.5773      6.9899      9.8278      11.477      11.779    
  10.993      9.6243      8.1565      6.7896      5.6209      4.6958      4.0191      3.5734      3.3369      3.2946    
  3.4443      3.7976      4.3752      5.1966      6.2629      7.5383      8.9350      10.287      11.161      11.034    
  9.6031      6.9655      3.6785     0.63793     -1.2176     -1.2705     -2.7506     -.42014      3.1222      6.8438    
  9.7938      11.404      11.598      10.713      9.3064      7.8459      6.5094      5.3865      4.5145      3.8923    
  3.5001      3.3162      3.3285      3.5385      3.9613      4.6186      5.5270      6.6787      8.0224      9.4517    
  10.724      11.303      10.680      8.6313      5.3939      1.6827     -1.4867     -3.1448     -1.0189     -.41998    
  1.8225      5.0000      8.1735      10.526      11.615      11.446      10.381      8.9502      7.5221      6.2365    
  5.1705      4.3518      3.7744      3.4176      3.2608      3.2934      3.5184      3.9513      4.6140      5.5218    
  6.6652      7.9917      9.3956      10.646      11.243      10.724      8.9123      6.0609      2.8515     0.21094    
 -.52587     -1.4688     -.52586      1.9928      5.2902      8.4078      10.575      11.432      11.070      9.9093    
  8.4831      7.0988      5.8781      4.8867      4.1432      3.6366      3.3452      3.2505      3.3452      3.6366    
  4.1432      4.8867      5.8781      7.0988      8.4831      9.9093      11.070      11.432      10.575      8.4078    
  5.2902      1.9928      1.8225     -.41998     -1.0189     0.21095      2.8515      6.0609      8.9124      10.724    
  11.243      10.646      9.3956      7.9917      6.6652      5.5218      4.6140      3.9514      3.5184      3.2934    
  3.2609      3.4176      3.7744      4.3518      5.1705      6.2365      7.5220      8.9501      10.381      11.446    
  11.615      10.526      8.1735      5.0000      5.2470      2.3715     0.51568     0.26699      1.6827      4.2659    
  7.1782      9.5747      10.897      11.010      10.170      8.8588      7.4925      6.2366      5.1804      4.3622    
  3.7826      3.4232      3.2637      3.2918      3.5082      3.9268      4.5694      5.4548      6.5832      7.9183    
  9.3747      10.796      11.777      11.820      10.628      8.2717      8.7040      6.0028      3.5642      2.1505    
  2.2086      3.6786      6.0224      8.4548      10.255      11.008      10.701      9.6487      8.3160      7.0012    
  5.8274      4.8652      4.1389      3.6417      3.3538      3.2568      3.3418      3.6136      4.0884      4.7878    
  5.7280      6.9033      8.2704      9.7380      11.138      12.060      12.056      10.894      11.296      9.4111    
  7.1594      5.2331      4.2587      4.5382      5.9192      7.8649      9.6864      10.814      10.989      10.300    
  9.0988      7.7819      6.5331      5.4504      4.5858      3.9507      3.5327      3.3117      3.2722      3.4092    
  3.7302      4.2529      4.9981      5.9782      7.1824      8.5614      10.021      11.392      12.286      12.310    
  12.550      11.772      10.285      8.5492      7.1465      6.5560      6.9471      8.1076      9.5428      10.692    
  11.149      10.799      9.8150      8.5493      7.2721      6.1027      5.1174      4.3502      3.8023      3.4577    
  3.2976      3.3094      3.4915      3.8537      4.4141      5.1914      6.1943      7.4067      8.7756      10.208    
  11.543      12.435      12.482      12.729      12.238      11.189      9.9727      9.0484      8.7501      9.1396    
  9.9817      10.857      11.348      11.209      10.446      9.2854      8.0212      6.8036      5.7242      4.8382    
  4.1647      3.6973      3.4186      3.3118      3.3673      3.5863      3.9800      4.5656      5.3593      6.3655    
  7.5642      8.9007      10.284      11.576      11.480      12.404      12.796      12.603      11.979      11.234    
  10.702      10.590      10.884      11.360      11.693      11.612      11.008      9.9797      8.7625      7.5348    
  6.3937      5.4100      4.6210      4.0340      3.6382      3.4163      3.3539      3.4443      3.6906      4.1043    
  4.7010      5.4937      6.4830      7.6458      8.9280      10.245      10.088      11.252      12.184      12.709    
  12.786      12.534      12.176      11.932      11.908      12.049      12.166      12.039      11.522      10.619    
  9.4799      8.2782      7.1117      6.0583      5.1707      4.4719      3.9615      3.6266      3.4513      3.4234    
  3.5386      3.8011      4.2219      4.8143      5.5880      6.5402      7.6463      8.8547      8.6832      9.8211    
  10.900      11.818      12.442      12.736      12.776      12.705      12.647      12.641      12.615      12.433    
  11.969      11.183      10.151      9.0123      7.8599      6.7719      5.8107      5.0141      4.3952      3.9494    
  3.6633      3.5230      3.5185      3.6473      3.9138      4.3277      4.8999      5.6369      6.5335      7.5647    
  7.4045      8.4216      9.4561      10.443      11.317      11.996      12.440      12.684      12.805      12.855    
  12.831      12.668      12.282      11.627      10.736      9.7054      8.6126      7.5324      6.5319      5.6605    
  4.9454      4.3935      3.9985      3.7480      3.6300      3.6369      3.7668      4.0240      4.4167      4.9532    
  5.6375      6.4624      6.3304      7.1737      8.0830      9.0105      9.9036      10.715      11.402      11.930    
  12.300      12.537      12.647      12.605      12.363      11.885      11.183      10.312      9.3321      8.3109    