   2   2   0   0
  0.2001288E+02  0.3839590E-09  0.3839590E-09  0.3839590E-09  0.5000000E-15
  1.000000000000000E-004
  CAR 
 unknown system                          
     17.05975789     -8.14389145  301      5.96729676      1.00000000
     -8.144  0.0000E+00  0.0000E+00
     -8.060  0.0000E+00  0.0000E+00
     -7.976  0.0000E+00  0.0000E+00
     -7.892  0.0000E+00  0.0000E+00
     -7.808  0.0000E+00  0.0000E+00
     -7.724  0.0000E+00  0.0000E+00
     -7.640  0.0000E+00  0.0000E+00
     -7.556  0.0000E+00  0.0000E+00
     -7.472  0.0000E+00  0.0000E+00
     -7.388  0.0000E+00  0.0000E+00
     -7.304  0.6883E-18  0.5782E-19
     -7.220  0.8604E-16  0.7286E-17
     -7.136  0.7135E-14  0.6067E-15
     -7.052  0.4185E-12  0.3576E-13
     -6.968  0.1736E-10  0.1494E-11
     -6.884  0.5100E-09  0.4434E-10
     -6.800  0.1064E-07  0.9378E-09
     -6.716  0.1579E-06  0.1420E-07
     -6.632  0.1677E-05  0.1551E-06
     -6.548  0.1284E-04  0.1234E-05
     -6.464  0.7168E-04  0.7256E-05
     -6.380  0.2964E-03  0.3216E-04
     -6.296  0.9283E-03  0.1102E-03
     -6.212  0.2258E-02  0.2998E-03
     -6.128  0.4384E-02  0.6682E-03
     -6.044  0.7007E-02  0.1257E-02
     -5.960  0.9594E-02  0.2063E-02
     -5.876  0.1188E-01  0.3061E-02
     -5.792  0.1404E-01  0.4240E-02
     -5.708  0.1613E-01  0.5595E-02
     -5.624  0.1773E-01  0.7085E-02
     -5.540  0.1860E-01  0.8647E-02
     -5.456  0.1950E-01  0.1029E-01
     -5.371  0.2148E-01  0.1209E-01
     -5.287  0.2409E-01  0.1411E-01
     -5.203  0.2562E-01  0.1627E-01
     -5.119  0.2557E-01  0.1841E-01
     -5.035  0.2550E-01  0.2056E-01
     -4.951  0.2679E-01  0.2281E-01
     -4.867  0.2901E-01  0.2524E-01
     -4.783  0.3121E-01  0.2787E-01
     -4.699  0.3333E-01  0.3067E-01
     -4.615  0.3527E-01  0.3363E-01
     -4.531  0.3629E-01  0.3668E-01
     -4.447  0.3591E-01  0.3969E-01
     -4.363  0.3500E-01  0.4263E-01
     -4.279  0.3595E-01  0.4565E-01
     -4.195  0.4074E-01  0.4908E-01
     -4.111  0.4780E-01  0.5309E-01
     -4.027  0.5304E-01  0.5755E-01
     -3.943  0.5469E-01  0.6214E-01
     -3.859  0.5462E-01  0.6673E-01
     -3.775  0.5483E-01  0.7134E-01
     -3.691  0.5479E-01  0.7594E-01
     -3.607  0.5266E-01  0.8037E-01
     -3.523  0.4865E-01  0.8445E-01
     -3.439  0.4647E-01  0.8836E-01
     -3.355  0.4928E-01  0.9250E-01
     -3.271  0.5462E-01  0.9709E-01
     -3.187  0.5626E-01  0.1018E+00
     -3.103  0.5091E-01  0.1061E+00
     -3.019  0.4110E-01  0.1095E+00
     -2.935  0.3180E-01  0.1122E+00
     -2.851  0.2610E-01  0.1144E+00
     -2.767  0.2487E-01  0.1165E+00
     -2.683  0.2798E-01  0.1188E+00
     -2.599  0.3380E-01  0.1217E+00
     -2.515  0.3836E-01  0.1249E+00
     -2.431  0.3737E-01  0.1280E+00
     -2.347  0.2982E-01  0.1306E+00
     -2.263  0.1896E-01  0.1321E+00
     -2.179  0.9377E-02  0.1329E+00
     -2.095  0.3553E-02  0.1332E+00
     -2.011  0.1222E-02  0.1333E+00
     -1.927  0.1455E-02  0.1335E+00
     -1.843  0.4793E-02  0.1339E+00
     -1.759  0.1303E-01  0.1350E+00
     -1.675  0.2578E-01  0.1371E+00
     -1.591  0.3746E-01  0.1403E+00
     -1.507  0.4123E-01  0.1437E+00
     -1.423  0.3738E-01  0.1469E+00
     -1.339  0.3397E-01  0.1497E+00
     -1.255  0.3844E-01  0.1530E+00
     -1.171  0.5102E-01  0.1572E+00
     -1.087  0.6570E-01  0.1628E+00
     -1.003  0.7607E-01  0.1692E+00
     -0.919  0.7977E-01  0.1759E+00
     -0.835  0.7696E-01  0.1823E+00
     -0.751  0.6789E-01  0.1880E+00
     -0.667  0.5583E-01  0.1927E+00
     -0.583  0.4749E-01  0.1967E+00
     -0.499  0.4559E-01  0.2005E+00
     -0.415  0.4446E-01  0.2043E+00
     -0.331  0.3774E-01  0.2074E+00
     -0.247  0.2770E-01  0.2098E+00
     -0.163  0.2209E-01  0.2116E+00
     -0.079  0.2456E-01  0.2137E+00
      0.005  0.3182E-01  0.2164E+00
      0.089  0.3763E-01  0.2195E+00
      0.173  0.3730E-01  0.2227E+00
      0.257  0.3070E-01  0.2252E+00
      0.341  0.2223E-01  0.2271E+00
      0.425  0.1704E-01  0.2285E+00
      0.509  0.1767E-01  0.2300E+00
      0.593  0.2276E-01  0.2319E+00
      0.677  0.2719E-01  0.2342E+00
      0.761  0.2581E-01  0.2364E+00
      0.845  0.1886E-01  0.2380E+00
      0.929  0.1180E-01  0.2390E+00
      1.013  0.9288E-02  0.2397E+00
      1.097  0.1169E-01  0.2407E+00
      1.181  0.1754E-01  0.2422E+00
      1.265  0.2669E-01  0.2444E+00
      1.349  0.3890E-01  0.2477E+00
      1.433  0.5064E-01  0.2520E+00
      1.518  0.5746E-01  0.2568E+00
      1.602  0.5972E-01  0.2618E+00
      1.686  0.6234E-01  0.2670E+00
      1.770  0.6791E-01  0.2727E+00
      1.854  0.7372E-01  0.2789E+00
      1.938  0.7643E-01  0.2854E+00
      2.022  0.7592E-01  0.2917E+00
      2.106  0.7399E-01  0.2980E+00
      2.190  0.7197E-01  0.3040E+00
      2.274  0.7021E-01  0.3099E+00
      2.358  0.6882E-01  0.3157E+00
      2.442  0.6873E-01  0.3215E+00
      2.526  0.7170E-01  0.3275E+00
      2.610  0.7943E-01  0.3342E+00
      2.694  0.9070E-01  0.3418E+00
      2.778  0.9919E-01  0.3501E+00
      2.862  0.9932E-01  0.3584E+00
      2.946  0.9453E-01  0.3664E+00
      3.030  0.9316E-01  0.3742E+00
      3.114  0.9642E-01  0.3823E+00
      3.198  0.9768E-01  0.3905E+00
      3.282  0.9332E-01  0.3984E+00
      3.366  0.8881E-01  0.4058E+00
      3.450  0.9189E-01  0.4135E+00
      3.534  0.1012E+00  0.4220E+00
      3.618  0.1056E+00  0.4309E+00
      3.702  0.9742E-01  0.4391E+00
      3.786  0.8162E-01  0.4460E+00
      3.870  0.7051E-01  0.4519E+00
      3.954  0.7165E-01  0.4579E+00
      4.038  0.8177E-01  0.4648E+00
      4.122  0.9071E-01  0.4724E+00
      4.206  0.9074E-01  0.4800E+00
      4.290  0.8199E-01  0.4869E+00
      4.374  0.7029E-01  0.4928E+00
      4.458  0.6177E-01  0.4980E+00
      4.542  0.5898E-01  0.5030E+00
      4.626  0.5866E-01  0.5079E+00
      4.710  0.5430E-01  0.5124E+00
      4.794  0.4385E-01  0.5161E+00
      4.878  0.3274E-01  0.5189E+00
      4.962  0.2720E-01  0.5212E+00
      5.046  0.2732E-01  0.5235E+00
      5.130  0.2794E-01  0.5258E+00
      5.214  0.2503E-01  0.5279E+00
      5.298  0.1944E-01  0.5295E+00
      5.382  0.1433E-01  0.5307E+00
      5.466  0.1098E-01  0.5317E+00
      5.550  0.8469E-02  0.5324E+00
      5.634  0.5873E-02  0.5329E+00
      5.718  0.3337E-02  0.5332E+00
      5.802  0.1473E-02  0.5333E+00
      5.886  0.4924E-03  0.5333E+00
      5.970  0.1451E-03  0.5333E+00
      6.054  0.1797E-03  0.5333E+00
      6.138  0.7187E-03  0.5334E+00
      6.222  0.2328E-02  0.5336E+00
      6.306  0.5498E-02  0.5341E+00
      6.390  0.9644E-02  0.5349E+00
      6.474  0.1318E-01  0.5360E+00
      6.558  0.1556E-01  0.5373E+00
      6.642  0.1855E-01  0.5388E+00
      6.726  0.2398E-01  0.5409E+00
      6.810  0.3060E-01  0.5434E+00
      6.894  0.3524E-01  0.5464E+00
      6.978  0.3755E-01  0.5495E+00
      7.062  0.4066E-01  0.5530E+00
      7.146  0.4559E-01  0.5568E+00
      7.230  0.4938E-01  0.5609E+00
      7.314  0.5067E-01  0.5652E+00
      7.398  0.5216E-01  0.5696E+00
      7.482  0.5665E-01  0.5743E+00
      7.566  0.6476E-01  0.5798E+00
      7.650  0.7659E-01  0.5862E+00
      7.734  0.9193E-01  0.5939E+00
      7.818  0.1067E+00  0.6029E+00
      7.902  0.1130E+00  0.6124E+00
      7.986  0.1076E+00  0.6214E+00
      8.070  0.9655E-01  0.6295E+00
      8.154  0.8817E-01  0.6370E+00
      8.238  0.8594E-01  0.6442E+00
      8.322  0.8679E-01  0.6515E+00
      8.407  0.8476E-01  0.6586E+00
      8.491  0.7810E-01  0.6651E+00
      8.575  0.7160E-01  0.6712E+00
      8.659  0.7129E-01  0.6772E+00
      8.743  0.8088E-01  0.6839E+00
      8.827  0.1006E+00  0.6924E+00
      8.911  0.1235E+00  0.7028E+00
      8.995  0.1372E+00  0.7143E+00
      9.079  0.1348E+00  0.7256E+00
      9.163  0.1217E+00  0.7358E+00
      9.247  0.1092E+00  0.7450E+00
      9.331  0.1045E+00  0.7538E+00
      9.415  0.1054E+00  0.7627E+00
      9.499  0.1052E+00  0.7715E+00
      9.583  0.1003E+00  0.7799E+00
      9.667  0.9275E-01  0.7877E+00
      9.751  0.8718E-01  0.7951E+00
      9.835  0.8611E-01  0.8023E+00
      9.919  0.8688E-01  0.8096E+00
     10.003  0.8550E-01  0.8168E+00
     10.087  0.8238E-01  0.8237E+00
     10.171  0.8081E-01  0.8305E+00
     10.255  0.8170E-01  0.8373E+00
     10.339  0.8378E-01  0.8444E+00
     10.423  0.8723E-01  0.8517E+00
     10.507  0.9325E-01  0.8595E+00
     10.591  0.9934E-01  0.8679E+00
     10.675  0.9907E-01  0.8762E+00
     10.759  0.8937E-01  0.8837E+00
     10.843  0.7495E-01  0.8900E+00
     10.927  0.6329E-01  0.8953E+00
     11.011  0.5755E-01  0.9002E+00
     11.095  0.5617E-01  0.9049E+00
     11.179  0.5854E-01  0.9098E+00
     11.263  0.6704E-01  0.9154E+00
     11.347  0.8133E-01  0.9223E+00
     11.431  0.9511E-01  0.9303E+00
     11.515  0.1018E+00  0.9388E+00
     11.599  0.9927E-01  0.9472E+00
     11.683  0.8798E-01  0.9545E+00
     11.767  0.7074E-01  0.9605E+00
     11.851  0.5394E-01  0.9650E+00
     11.935  0.4471E-01  0.9688E+00
     12.019  0.4482E-01  0.9725E+00
     12.103  0.4854E-01  0.9766E+00
     12.187  0.4853E-01  0.9807E+00
     12.271  0.4363E-01  0.9844E+00
     12.355  0.3962E-01  0.9877E+00
     12.439  0.4348E-01  0.9913E+00
     12.523  0.5769E-01  0.9962E+00
     12.607  0.7642E-01  0.1003E+01
     12.691  0.8755E-01  0.1010E+01
     12.775  0.8253E-01  0.1017E+01
     12.859  0.6391E-01  0.1022E+01
     12.943  0.4217E-01  0.1026E+01
     13.027  0.2749E-01  0.1028E+01
     13.111  0.2393E-01  0.1030E+01
     13.195  0.2763E-01  0.1032E+01
     13.279  0.3121E-01  0.1035E+01
     13.363  0.3119E-01  0.1038E+01
     13.447  0.2949E-01  0.1040E+01
     13.531  0.2861E-01  0.1043E+01
     13.615  0.2891E-01  0.1045E+01
     13.699  0.3053E-01  0.1048E+01
     13.783  0.3377E-01  0.1050E+01
     13.867  0.3653E-01  0.1053E+01
     13.951  0.3438E-01  0.1056E+01
     14.035  0.2566E-01  0.1059E+01
     14.119  0.1442E-01  0.1060E+01
     14.203  0.5949E-02  0.1060E+01
     14.287  0.1869E-02  0.1060E+01
     14.371  0.8742E-03  0.1060E+01
     14.455  0.1758E-02  0.1061E+01
     14.539  0.4143E-02  0.1061E+01
     14.623  0.7193E-02  0.1062E+01
     14.707  0.9118E-02  0.1062E+01
     14.791  0.9025E-02  0.1063E+01
     14.875  0.8303E-02  0.1064E+01
     14.959  0.8520E-02  0.1065E+01
     15.043  0.8956E-02  0.1065E+01
     15.127  0.7878E-02  0.1066E+01
     15.211  0.5234E-02  0.1066E+01
     15.296  0.2543E-02  0.1067E+01
     15.380  0.8950E-03  0.1067E+01
     15.464  0.2271E-03  0.1067E+01
     15.548  0.4142E-04  0.1067E+01
     15.632  0.5416E-05  0.1067E+01
     15.716  0.5064E-06  0.1067E+01
     15.800  0.3376E-07  0.1067E+01
     15.884  0.1602E-08  0.1067E+01
     15.968  0.5403E-10  0.1067E+01
     16.052  0.1292E-11  0.1067E+01
     16.136  0.2189E-13  0.1067E+01
     16.220  0.2622E-15  0.1067E+01
     16.304  0.2065E-17  0.1067E+01
     16.388  0.0000E+00  0.1067E+01
     16.472  0.0000E+00  0.1067E+01
     16.556  0.0000E+00  0.1067E+01
     16.640  0.0000E+00  0.1067E+01
     16.724  0.0000E+00  0.1067E+01
     16.808  0.0000E+00  0.1067E+01
     16.892  0.0000E+00  0.1067E+01
     16.976  0.0000E+00  0.1067E+01
     17.060  0.0000E+00  0.1067E+01
