    2    2   15    1
  0.2001288E+02  0.3839590E-09  0.3839590E-09  0.3839590E-09  0.5000000E-15
  1.000000000000000E-004
  CAR 
 unknown system                          
      8     60      8
 
  0.6250000E-01  0.6250000E-01  0.6250000E-01  0.3906250E-02
    1       -6.143891   1.000000
    2        5.110166   1.000000
    3        5.559367   0.998040
    4        5.559367   0.998040
    5        8.242979   0.000000
    6        8.323974   0.000000
    7        8.323974   0.000000
    8        9.188542   0.000000
 
  0.1875000E+00  0.6250000E-01  0.6250000E-01  0.1171875E-01
    1       -5.877302   1.000000
    2        3.605363   1.000000
    3        4.753937   1.000000
    4        5.440289   0.999903
    5        8.296177   0.000000
    6        8.567131   0.000000
    7        8.859237   0.000000
    8       10.659514   0.000000
 
  0.3125000E+00  0.6250000E-01  0.6250000E-01  0.1171875E-01
    1       -5.233760   1.000000
    2        1.388228   1.000000
    3        4.267215   1.000000
    4        4.979129   1.000000
    5        7.851974   0.000000
    6        9.059760   0.000000
    7        9.347301   0.000000
    8       12.200166   0.000000
 
  0.4375000E+00  0.6250000E-01  0.6250000E-01  0.1171875E-01
    1       -4.336547   1.000000
    2       -0.490823   1.000000
    3        4.050623   1.000000
    4        4.572933   1.000000
    5        7.538404   0.000000
    6        9.125329   0.000000
    7        9.139231   0.000000
    8       13.435024   0.000000
 
 -0.4375000E+00  0.6250000E-01  0.6250000E-01  0.1171875E-01
    1       -3.890885   1.000000
    2       -1.187638   1.000000
    3        4.100165   1.000000
    4        4.355231   1.000000
    5        7.457532   0.000000
    6        8.933088   0.000000
    7        9.203636   0.000000
    8       13.503056   0.000000
 
 -0.3125000E+00  0.6250000E-01  0.6250000E-01  0.1171875E-01
    1       -4.643794   1.000000
    2        0.064359   1.000000
    3        4.376355   1.000000
    4        4.386190   1.000000
    5        7.624837   0.000000
    6        8.937970   0.000000
    7        9.459772   0.000000
    8       12.569521   0.000000
 
 -0.1875000E+00  0.6250000E-01  0.6250000E-01  0.1171875E-01
    1       -5.486098   1.000000
    2        2.115044   1.000000
    3        4.652077   1.000000
    4        4.849269   1.000000
    5        7.977429   0.000000
    6        8.797409   0.000000
    7        9.515631   0.000000
    8       11.381578   0.000000
 
 -0.6250000E-01  0.6250000E-01  0.6250000E-01  0.1171875E-01
    1       -6.009877   1.000000
    2        4.358102   1.000000
    3        5.133399   1.000000
    4        5.291985   0.999999
    5        8.038799   0.000000
    6        8.611040   0.000000
    7        8.903350   0.000000
    8        9.926351   0.000000
 
  0.1875000E+00  0.1875000E+00  0.6250000E-01  0.1171875E-01
    1       -5.743079   1.000000
    2        3.464227   1.000000
    3        4.575969   1.000000
    4        4.659699   1.000000
    5        7.618672   0.000000
    6        9.367780   0.000000
    7        9.758978   0.000000
    8       10.274663   0.000000
 
  0.3125000E+00  0.1875000E+00  0.6250000E-01  0.2343750E-01
    1       -5.221347   1.000000
    2        1.967464   1.000000
    3        3.609549   1.000000
    4        4.401164   1.000000
    5        7.788018   0.000000
    6        9.479391   0.000000
    7       10.101669   0.000000
    8       10.555842   0.000000
 
  0.4375000E+00  0.1875000E+00  0.6250000E-01  0.2343750E-01
    1       -4.381000   1.000000
    2        0.116574   1.000000
    3        3.115480   1.000000
    4        3.991495   1.000000
    5        7.984630   0.000000
    6        9.407793   0.000000
    7       10.582758   0.000000
    8       10.854942   0.000000
 
 -0.4375000E+00  0.1875000E+00  0.6250000E-01  0.2343750E-01
    1       -3.623647   1.000000
    2       -1.086967   1.000000
    3        2.827602   1.000000
    4        3.898670   1.000000
    5        8.054426   0.000000
    6        9.102148   0.000000
    7       10.430701   0.000000
    8       12.871374   0.000000
 
 -0.3125000E+00  0.1875000E+00  0.6250000E-01  0.2343750E-01
    1       -4.078889   1.000000
    2       -0.400415   1.000000
    3        2.754676   1.000000
    4        4.182551   1.000000
    5        8.334371   0.000000
    6        9.014348   0.000000
    7       10.375437   0.000000
    8       12.125224   0.000000
 
 -0.1875000E+00  0.1875000E+00  0.6250000E-01  0.2343750E-01
    1       -4.974733   1.000000
    2        1.320050   1.000000
    3        3.055400   1.000000
    4        4.689001   1.000000
    5        8.645079   0.000000
    6        8.948218   0.000000
    7       10.253243   0.000000
    8       10.729110   0.000000
 
 -0.6250000E-01  0.1875000E+00  0.6250000E-01  0.2343750E-01
    1       -5.613429   1.000000
    2        2.790884   1.000000
    3        4.178363   1.000000
    4        5.062316   1.000000
    5        8.182871   0.000000
    6        8.847765   0.000000
    7        9.572101   0.000000
    8       10.802575   0.000000
 
  0.3125000E+00  0.3125000E+00  0.6250000E-01  0.1171875E-01
    1       -4.822897   1.000000
    2        1.464628   1.000000
    3        3.467661   1.000000
    4        3.589251   1.000000
    5        6.811249   0.000000
    6        8.472285   0.000000
    7       11.619820   0.000000
    8       11.762146   0.000000
 
  0.4375000E+00  0.3125000E+00  0.6250000E-01  0.2343750E-01
    1       -4.074821   1.000000
    2        0.232513   1.000000
    3        2.683712   1.000000
    4        3.243186   1.000000
    5        7.126356   0.000000
    6        8.310362   0.000000
    7       11.583476   0.000000
    8       12.757530   0.000000
 
 -0.4375000E+00  0.3125000E+00  0.6250000E-01  0.2343750E-01
    1       -3.181690   1.000000
    2       -0.959893   1.000000
    3        1.847021   1.000000
    4        3.211511   1.000000
    5        7.361510   0.000000
    6        9.967324   0.000000
    7       11.155145   0.000000
    8       12.666978   0.000000
 
 -0.3125000E+00  0.3125000E+00  0.6250000E-01  0.2343750E-01
    1       -3.252766   1.000000
    2       -0.866273   1.000000
    3        1.495575   1.000000
    4        3.554778   1.000000
    5        7.764311   0.000000
    6       10.698308   0.000000
    7       11.998720   0.000000
    8       12.301307   0.000000
 
 -0.1875000E+00  0.3125000E+00  0.6250000E-01  0.2343750E-01
    1       -4.144405   1.000000
    2        0.082580   1.000000
    3        2.097339   1.000000
    4        4.138201   1.000000
    5        8.394243   0.000000
    6        9.594216   0.000000
    7       11.021040   0.000000
    8       11.304704   0.000000
 
 -0.6250000E-01  0.3125000E+00  0.6250000E-01  0.2343750E-01
    1       -4.862114   1.000000
    2        0.717261   1.000000
    3        3.725051   1.000000
    4        4.590335   1.000000
    5        8.111892   0.000000
    6        8.963619   0.000000
    7        9.818571   0.000000
    8       11.504466   0.000000
 
  0.4375000E+00  0.4375000E+00  0.6250000E-01  0.1171875E-01
    1       -3.424384   1.000000
    2       -0.627112   1.000000
    3        2.781127   1.000000
    4        2.997325   1.000000
    5        6.420990   0.000668
    6        7.129873   0.000000
    7       13.915880   0.000000
    8       13.922514   0.000000
 
 -0.4375000E+00  0.4375000E+00  0.6250000E-01  0.2343750E-01
    1       -2.518928   1.000000
    2       -1.612080   1.000000
    3        2.225591   1.000000
    4        2.754726   1.000000
    5        6.851002   0.000000
    6        7.579222   0.000000
    7       13.661859   0.000000
    8       14.672611   0.000000
 
 -0.3125000E+00  0.4375000E+00  0.6250000E-01  0.2343750E-01
    1       -2.615720   1.000000
    2       -1.447206   1.000000
    3        1.499277   1.000000
    4        3.068585   1.000000
    5        7.214575   0.000000
    6        9.811421   0.000000
    7       12.137451   0.000000
    8       13.278432   0.000000
 
 -0.1875000E+00  0.4375000E+00  0.6250000E-01  0.2343750E-01
    1       -3.368955   1.000000
    2       -1.041522   1.000000
    3        2.050025   1.000000
    4        3.667838   1.000000
    5        7.884000   0.000000
    6        9.846280   0.000000
    7       11.386415   0.000000
    8       12.624272   0.000000
 
 -0.6250000E-01  0.4375000E+00  0.6250000E-01  0.2343750E-01
    1       -3.974996   1.000000
    2       -0.892191   1.000000
    3        3.550801   1.000000
    4        4.255161   1.000000
    5        7.910773   0.000000
    6        8.865290   0.000000
    7        9.640029   0.000000
    8       13.187334   0.000000
 
 -0.4375000E+00 -0.4375000E+00  0.6250000E-01  0.1171875E-01
    1       -2.570015   1.000000
    2       -1.629507   1.000000
    3        2.643652   1.000000
    4        2.876706   1.000000
    5        6.418076   0.000718
    6        6.776474   0.000000
    7       14.989003   0.000000
    8       15.059758   0.000000
 
 -0.3125000E+00 -0.4375000E+00  0.6250000E-01  0.2343750E-01
    1       -3.339283   1.000000
    2       -0.690360   1.000000
    3        2.382522   1.000000
    4        2.913703   1.000000
    5        6.938733   0.000000
    6        7.829619   0.000000
    7       12.595811   0.000000
    8       13.918458   0.000000
 
 -0.1875000E+00 -0.4375000E+00  0.6250000E-01  0.2343750E-01
    1       -3.808378   1.000000
    2       -0.430737   1.000000
    3        2.444017   1.000000
    4        3.510724   1.000000
    5        7.637806   0.000000
    6       10.155094   0.000000
    7       10.371329   0.000000
    8       11.599632   0.000000
 
 -0.3125000E+00 -0.3125000E+00  0.6250000E-01  0.1171875E-01
    1       -4.179592   1.000000
    2        0.414729   1.000000
    3        3.055811   1.000000
    4        3.236565   1.000000
    5        6.549880   0.000019
    6        7.707543   0.000000
    7       12.751793   0.000000
    8       12.830115   0.000000
 
 -0.1875000E+00 -0.3125000E+00  0.6250000E-01  0.2343750E-01
    1       -4.706082   1.000000
    2        1.120727   1.000000
    3        3.102177   1.000000
    4        3.751381   1.000000
    5        7.415362   0.000000
    6        8.986771   0.000000
    7       10.639111   0.000000
    8       11.625412   0.000000
 
 -0.1875000E+00 -0.1875000E+00  0.6250000E-01  0.1171875E-01
    1       -5.346048   1.000000
    2        2.491530   1.000000
    3        4.011983   1.000000
    4        4.043226   1.000000
    5        7.182124   0.000000
    6        9.334897   0.000000
    7       10.570281   0.000000
    8       10.733886   0.000000
 
  0.1875000E+00  0.1875000E+00  0.1875000E+00  0.3906250E-02
    1       -5.746290   1.000000
    2        2.883218   1.000000
    3        5.117764   1.000000
    4        5.117764   1.000000
    5        7.849406   0.000000
    6        8.940167   0.000000
    7        8.940167   0.000000
    8       11.305031   0.000000
 
  0.3125000E+00  0.1875000E+00  0.1875000E+00  0.1171875E-01
    1       -5.356019   1.000000
    2        2.045884   1.000000
    3        3.606906   1.000000
    4        5.135423   1.000000
    5        8.503644   0.000000
    6        9.059231   0.000000
    7        9.356484   0.000000
    8       11.359398   0.000000
 
  0.4375000E+00  0.1875000E+00  0.1875000E+00  0.1171875E-01
    1       -4.612241   1.000000
    2        0.681402   1.000000
    3        2.528506   1.000000
    4        4.630587   1.000000
    5        8.351284   0.000000
    6        9.814027   0.000000
    7       10.029305   0.000000
    8       11.642136   0.000000
 
 -0.4375000E+00  0.1875000E+00  0.1875000E+00  0.1171875E-01
    1       -3.721710   1.000000
    2       -0.802409   1.000000
    3        2.377299   1.000000
    4        4.100975   1.000000
    5        7.852506   0.000000
    6       10.001804   0.000000
    7       10.205575   0.000000
    8       13.500463   0.000000
 
 -0.3125000E+00  0.1875000E+00  0.1875000E+00  0.1171875E-01
    1       -3.706219   1.000000
    2       -0.830632   1.000000
    3        2.675748   1.000000
    4        3.783537   1.000000
    5        7.574878   0.000000
    6       10.074772   0.000000
    7       10.554093   0.000000
    8       11.539829   0.000000
 
 -0.1875000E+00  0.1875000E+00  0.1875000E+00  0.1171875E-01
    1       -4.595419   1.000000
    2        0.677779   1.000000
    3        3.286458   1.000000
    4        3.759748   1.000000
    5        7.505595   0.000000
    6        9.697617   0.000000
    7       10.352275   0.000000
    8       10.930313   0.000000
 
  0.3125000E+00  0.3125000E+00  0.1875000E+00  0.1171875E-01
    1       -5.100343   1.000000
    2        1.381949   1.000000
    3        4.112752   1.000000
    4        4.177534   1.000000
    5        7.899643   0.000000
    6        9.272611   0.000000
    7       10.186333   0.000000
    8       10.554372   0.000000
 
  0.4375000E+00  0.3125000E+00  0.1875000E+00  0.2343750E-01
    1       -4.476708   1.000000
    2        0.615756   1.000000
    3        2.584995   1.000000
    4        3.982117   1.000000
    5        8.389418   0.000000
    6        9.436203   0.000000
    7        9.919613   0.000000
    8       11.446649   0.000000
 
 -0.4375000E+00  0.3125000E+00  0.1875000E+00  0.2343750E-01
    1       -3.589275   1.000000
    2       -0.482120   1.000000
    3        1.797665   1.000000
    4        3.415152   1.000000
    5        8.843842   0.000000
    6        9.327958   0.000000
    7       10.608358   0.000000
    8       12.542375   0.000000
 
 -0.3125000E+00  0.3125000E+00  0.1875000E+00  0.2343750E-01
    1       -3.103695   1.000000
    2       -1.094020   1.000000
    3        1.801511   1.000000
    4        3.102801   1.000000
    5        8.372284   0.000000
    6        9.657288   0.000000
    7       11.388443   0.000000
    8       12.682996   0.000000
 
 -0.1875000E+00  0.3125000E+00  0.1875000E+00  0.2343750E-01
    1       -3.872808   1.000000
    2       -0.091575   1.000000
    3        2.222259   1.000000
    4        3.281880   1.000000
    5        8.103314   0.000000
    6        9.316617   0.000000
    7       10.191381   0.000000
    8       12.670287   0.000000
 
  0.4375000E+00  0.4375000E+00  0.1875000E+00  0.1171875E-01
    1       -3.981775   1.000000
    2       -0.035165   1.000000
    3        2.556002   1.000000
    4        3.429966   1.000000
    5        7.125332   0.000000
    6        9.152469   0.000000
    7       11.433204   0.000000
    8       11.751817   0.000000
 
 -0.4375000E+00  0.4375000E+00  0.1875000E+00  0.2343750E-01
    1       -3.181148   1.000000
    2       -0.829944   1.000000
    3        1.979327   1.000000
    4        2.746131   1.000000
    5        7.899238   0.000000
    6        8.911430   0.000000
    7       11.082481   0.000000
    8       13.890224   0.000000
 
 -0.3125000E+00  0.4375000E+00  0.1875000E+00  0.2343750E-01
    1       -2.376395   1.000000
    2       -1.582438   1.000000
    3        1.661091   1.000000
    4        2.245573   1.000000
    5        9.018988   0.000000
    6        9.945359   0.000000
    7       10.632808   0.000000
    8       11.634689   0.000000
 
 -0.1875000E+00  0.4375000E+00  0.1875000E+00  0.2343750E-01
    1       -2.976944   1.000000
    2       -1.036674   1.000000
    3        1.653762   1.000000
    4        2.720151   1.000000
    5        9.115144   0.000000
    6        9.542695   0.000000
    7       10.310751   0.000000
    8       12.794859   0.000000
 
 -0.4375000E+00 -0.4375000E+00  0.1875000E+00  0.1171875E-01
    1       -2.539194   1.000000
    2       -1.562079   1.000000
    3        1.765532   1.000000
    4        3.088171   1.000000
    5        6.693164   0.000000
    6        8.594377   0.000000
    7       13.570968   0.000000
    8       13.785339   0.000000
 
 -0.3125000E+00 -0.4375000E+00  0.1875000E+00  0.2343750E-01
    1       -2.439370   1.000000
    2       -1.591864   1.000000
    3        1.859072   1.000000
    4        2.460530   1.000000
    5        7.794153   0.000000
    6        8.708492   0.000000
    7       12.083598   0.000000
    8       13.193237   0.000000
 
 -0.3125000E+00 -0.3125000E+00  0.1875000E+00  0.1171875E-01
    1       -3.278228   1.000000
    2       -0.792540   1.000000
    3        2.031560   1.000000
    4        3.203142   1.000000
    5        6.842491   0.000000
    6        8.778326   0.000000
    7       12.595607   0.000000
    8       12.654139   0.000000
 
  0.3125000E+00  0.3125000E+00  0.3125000E+00  0.3906250E-02
    1       -4.993421   1.000000
    2        0.685550   1.000000
    3        4.704629   1.000000
    4        4.704629   1.000000
    5        7.400790   0.000000
    6        9.171741   0.000000
    7        9.171741   0.000000
    8       13.285331   0.000000
 
  0.4375000E+00  0.3125000E+00  0.3125000E+00  0.1171875E-01
    1       -4.515844   1.000000
    2        0.110394   1.000000
    3        3.241825   1.000000
    4        4.616855   1.000000
    5        8.116963   0.000000
    6        9.398366   0.000000
    7        9.439704   0.000000
    8       12.656026   0.000000
 
 -0.4375000E+00  0.3125000E+00  0.3125000E+00  0.1171875E-01
    1       -3.726641   1.000000
    2       -0.418179   1.000000
    3        1.717676   1.000000
    4        4.036501   1.000000
    5        7.775874   0.000000
    6       10.834207   0.000000
    7       11.019399   0.000000
    8       12.414717   0.000000
 
 -0.3125000E+00  0.3125000E+00  0.3125000E+00  0.1171875E-01
    1       -2.908438   1.000000
    2       -1.196875   1.000000
    3        1.380107   1.000000
    4        3.491129   1.000000
    5        7.159896   0.000000
    6       11.048939   0.000000
    7       12.107232   0.000000
    8       12.387926   0.000000
 
  0.4375000E+00  0.4375000E+00  0.3125000E+00  0.1171875E-01
    1       -4.202833   1.000000
    2       -0.445878   1.000000
    3        3.578195   1.000000
    4        4.054303   1.000000
    5        7.826185   0.000000
    6        9.176870   0.000000
    7        9.924155   0.000000
    8       11.966691   0.000000
 
 -0.4375000E+00  0.4375000E+00  0.3125000E+00  0.2343750E-01
    1       -3.585328   1.000000
    2       -0.803149   1.000000
    3        2.271615   1.000000
    4        3.579090   1.000000
    5        8.594437   0.000000
    6        8.941111   0.000000
    7       11.482488   0.000000
    8       11.710998   0.000000
 
 -0.3125000E+00  0.4375000E+00  0.3125000E+00  0.2343750E-01
    1       -2.770820   1.000000
    2       -1.261713   1.000000
    3        1.471717   1.000000
    4        2.867675   1.000000
    5        8.243937   0.000000
    6       10.490155   0.000000
    7       11.279682   0.000000
    8       11.807692   0.000000
 
 -0.4375000E+00 -0.4375000E+00  0.3125000E+00  0.1171875E-01
    1       -3.228018   1.000000
    2       -1.081001   1.000000
    3        1.879108   1.000000
    4        3.590701   1.000000
    5        7.308106   0.000000
    6       11.013871   0.000000
    7       11.317249   0.000000
    8       11.413927   0.000000
 
  0.4375000E+00  0.4375000E+00  0.4375000E+00  0.3906250E-02
    1       -4.107671   1.000000
    2       -0.953100   1.000000
    3        4.483937   1.000000
    4        4.483937   1.000000
    5        7.147851   0.000000
    6        9.034052   0.000000
    7        9.034052   0.000000
    8       13.390907   0.000000
 
 -0.4375000E+00  0.4375000E+00  0.4375000E+00  0.1171875E-01
    1       -3.758192   1.000000
    2       -1.127947   1.000000
    3        3.261725   1.000000
    4        4.215793   1.000000
    5        7.857988   0.000000
    6        9.168524   0.000000
    7        9.610419   0.000000
    8       13.787768   0.000000
