    2    2   15    1
  0.2001288E+02  0.3839590E-09  0.3839590E-09  0.3839590E-09  0.5000000E-15
  1.000000000000000E-004
  CAR 
 unknown system                          
      8     60      8
 
  0.6250000E-01  0.6250000E-01  0.6250000E-01  0.3906250E-02
    1       -6.083708   1.000000
    2        5.339355   1.000000
    3        5.790497   0.997735
    4        5.790497   0.997735
    5        8.515846   0.000000
    6        8.580821   0.000000
    7        8.580821   0.000000
    8        9.586776   0.000000
 
  0.1875000E+00  0.6250000E-01  0.6250000E-01  0.1171875E-01
    1       -5.812080   1.000000
    2        3.818067   1.000000
    3        4.958382   1.000000
    4        5.670144   0.999888
    5        8.600932   0.000000
    6        8.829200   0.000000
    7        9.142786   0.000000
    8       11.039218   0.000000
 
  0.3125000E+00  0.6250000E-01  0.6250000E-01  0.1171875E-01
    1       -5.155913   1.000000
    2        1.556813   1.000000
    3        4.463235   1.000000
    4        5.192981   1.000000
    5        8.167098   0.000000
    6        9.335226   0.000000
    7        9.639138   0.000000
    8       12.564447   0.000000
 
  0.4375000E+00  0.6250000E-01  0.6250000E-01  0.1171875E-01
    1       -4.237909   1.000000
    2       -0.362317   1.000000
    3        4.242455   1.000000
    4        4.774963   1.000000
    5        7.837196   0.000000
    6        9.407774   0.000000
    7        9.418684   0.000000
    8       13.738415   0.000000
 
 -0.4375000E+00  0.6250000E-01  0.6250000E-01  0.1171875E-01
    1       -3.778058   1.000000
    2       -1.078329   1.000000
    3        4.295608   1.000000
    4        4.550994   1.000000
    5        7.755809   0.000000
    6        9.210414   0.000000
    7        9.490187   0.000000
    8       13.781475   0.000000
 
 -0.3125000E+00  0.6250000E-01  0.6250000E-01  0.1171875E-01
    1       -4.552822   1.000000
    2        0.206300   1.000000
    3        4.570235   1.000000
    4        4.591574   1.000000
    5        7.928439   0.000000
    6        9.214214   0.000000
    7        9.751570   0.000000
    8       12.931936   0.000000
 
 -0.1875000E+00  0.6250000E-01  0.6250000E-01  0.1171875E-01
    1       -5.413332   1.000000
    2        2.297483   1.000000
    3        4.853183   1.000000
    4        5.065356   1.000000
    5        8.283234   0.000000
    6        9.078330   0.000000
    7        9.811256   0.000000
    8       11.737011   0.000000
 
 -0.6250000E-01  0.6250000E-01  0.6250000E-01  0.1171875E-01
    1       -5.947199   1.000000
    2        4.582219   1.000000
    3        5.349793   1.000000
    4        5.519456   0.999999
    5        8.291067   0.000000
    6        8.905070   0.000000
    7        9.179686   0.000000
    8       10.310066   0.000000
 
  0.1875000E+00  0.1875000E+00  0.6250000E-01  0.1171875E-01
    1       -5.675426   1.000000
    2        3.685384   1.000000
    3        4.774467   1.000000
    4        4.868800   1.000000
    5        7.864143   0.000000
    6        9.692567   0.000000
    7       10.066397   0.000000
    8       10.612711   0.000000
 
  0.3125000E+00  0.1875000E+00  0.6250000E-01  0.2343750E-01
    1       -5.143595   1.000000
    2        2.163861   1.000000
    3        3.785966   1.000000
    4        4.600598   1.000000
    5        8.042273   0.000000
    6        9.812566   0.000000
    7       10.402397   0.000000
    8       10.886201   0.000000
 
  0.4375000E+00  0.1875000E+00  0.6250000E-01  0.2343750E-01
    1       -4.285041   1.000000
    2        0.269921   1.000000
    3        3.290380   1.000000
    4        4.178015   1.000000
    5        8.251693   0.000000
    6        9.715831   0.000000
    7       10.906147   0.000000
    8       11.180826   0.000000
 
 -0.4375000E+00  0.1875000E+00  0.6250000E-01  0.2343750E-01
    1       -3.506040   1.000000
    2       -0.966864   1.000000
    3        2.996977   1.000000
    4        4.080269   1.000000
    5        8.327467   0.000000
    6        9.385876   0.000000
    7       10.757544   0.000000
    8       13.237574   0.000000
 
 -0.3125000E+00  0.1875000E+00  0.6250000E-01  0.2343750E-01
    1       -3.975294   1.000000
    2       -0.260070   1.000000
    3        2.919662   1.000000
    4        4.374493   1.000000
    5        8.627041   0.000000
    6        9.291918   0.000000
    7       10.699648   0.000000
    8       12.481328   0.000000
 
 -0.1875000E+00  0.1875000E+00  0.6250000E-01  0.2343750E-01
    1       -4.891850   1.000000
    2        1.501105   1.000000
    3        3.219130   1.000000
    4        4.896459   1.000000
    5        8.942077   0.000000
    6        9.243001   0.000000
    7       10.573728   0.000000
    8       11.052494   0.000000
 
 -0.6250000E-01  0.1875000E+00  0.6250000E-01  0.2343750E-01
    1       -5.543219   1.000000
    2        2.994447   1.000000
    3        4.368688   1.000000
    4        5.281954   1.000000
    5        8.449834   0.000000
    6        9.162566   0.000000
    7        9.875867   0.000000
    8       11.144076   0.000000
 
  0.3125000E+00  0.3125000E+00  0.6250000E-01  0.1171875E-01
    1       -4.737792   1.000000
    2        1.666838   1.000000
    3        3.637113   1.000000
    4        3.759668   1.000000
    5        7.040167   0.000000
    6        8.739057   0.000000
    7       11.977993   0.000000
    8       12.124440   0.000000
 
  0.4375000E+00  0.3125000E+00  0.6250000E-01  0.2343750E-01
    1       -3.974851   1.000000
    2        0.412466   1.000000
    3        2.833746   1.000000
    4        3.404250   1.000000
    5        7.363774   0.000000
    6        8.559279   0.000000
    7       11.941736   0.000000
    8       13.138514   0.000000
 
 -0.4375000E+00  0.3125000E+00  0.6250000E-01  0.2343750E-01
    1       -3.059349   1.000000
    2       -0.809690   1.000000
    3        1.978666   1.000000
    4        3.371880   1.000000
    5        7.601550   0.000000
    6       10.263651   0.000000
    7       11.495355   0.000000
    8       13.047810   0.000000
 
 -0.3125000E+00  0.3125000E+00  0.6250000E-01  0.2343750E-01
    1       -3.130832   1.000000
    2       -0.716067   1.000000
    3        1.616435   1.000000
    4        3.724397   1.000000
    5        8.017571   0.000000
    6       11.021157   0.000000
    7       12.347526   0.000000
    8       12.666094   0.000000
 
 -0.1875000E+00  0.3125000E+00  0.6250000E-01  0.2343750E-01
    1       -4.043521   1.000000
    2        0.246233   1.000000
    3        2.237217   1.000000
    4        4.327578   1.000000
    5        8.675210   0.000000
    6        9.895363   0.000000
    7       11.353300   0.000000
    8       11.653806   0.000000
 
 -0.6250000E-01  0.3125000E+00  0.6250000E-01  0.2343750E-01
    1       -4.776484   1.000000
    2        0.876083   1.000000
    3        3.911365   1.000000
    4        4.795289   1.000000
    5        8.414906   0.000000
    6        9.247646   0.000000
    7       10.121717   0.000000
    8       11.848449   0.000000
 
  0.4375000E+00  0.4375000E+00  0.6250000E-01  0.1171875E-01
    1       -3.312302   1.000000
    2       -0.460429   1.000000
    3        2.931510   1.000000
    4        3.153514   1.000000
    5        6.644746   0.000683
    6        7.350843   0.000000
    7       14.333538   0.000000
    8       14.336061   0.000000
 
 -0.4375000E+00  0.4375000E+00  0.6250000E-01  0.2343750E-01
    1       -2.387687   1.000000
    2       -1.463779   1.000000
    3        2.360636   1.000000
    4        2.903981   1.000000
    5        7.077045   0.000000
    6        7.818097   0.000000
    7       14.054798   0.000000
    8       15.082518   0.000000
 
 -0.3125000E+00  0.4375000E+00  0.6250000E-01  0.2343750E-01
    1       -2.480764   1.000000
    2       -1.300395   1.000000
    3        1.614901   1.000000
    4        3.225063   1.000000
    5        7.447677   0.000000
    6       10.099001   0.000000
    7       12.493935   0.000000
    8       13.654221   0.000000
 
 -0.1875000E+00  0.4375000E+00  0.6250000E-01  0.2343750E-01
    1       -3.247040   1.000000
    2       -0.910468   1.000000
    3        2.195129   1.000000
    4        3.841231   1.000000
    5        8.141412   0.000000
    6       10.150419   0.000000
    7       11.734953   0.000000
    8       12.994097   0.000000
 
 -0.6250000E-01  0.4375000E+00  0.6250000E-01  0.2343750E-01
    1       -3.866605   1.000000
    2       -0.771543   1.000000
    3        3.735647   1.000000
    4        4.448601   1.000000
    5        8.209209   0.000000
    6        9.133939   0.000000
    7        9.941718   0.000000
    8       13.541088   0.000000
 
 -0.4375000E+00 -0.4375000E+00  0.6250000E-01  0.1171875E-01
    1       -2.441135   1.000000
    2       -1.482712   1.000000
    3        2.790506   1.000000
    4        3.029468   1.000000
    5        6.632311   0.000923
    6        6.993985   0.000000
    7       15.409342   0.000000
    8       15.484357   0.000000
 
 -0.3125000E+00 -0.4375000E+00  0.6250000E-01  0.2343750E-01
    1       -3.224937   1.000000
    2       -0.524788   1.000000
    3        2.522298   1.000000
    4        3.066597   1.000000
    5        7.169345   0.000000
    6        8.069089   0.000000
    7       12.967344   0.000000
    8       14.324596   0.000000
 
 -0.1875000E+00 -0.4375000E+00  0.6250000E-01  0.2343750E-01
    1       -3.700130   1.000000
    2       -0.280068   1.000000
    3        2.599671   1.000000
    4        3.679551   1.000000
    5        7.887127   0.000000
    6       10.456905   0.000000
    7       10.695182   0.000000
    8       11.952809   0.000000
 
 -0.3125000E+00 -0.3125000E+00  0.6250000E-01  0.1171875E-01
    1       -4.082213   1.000000
    2        0.599800   1.000000
    3        3.213386   1.000000
    4        3.398344   1.000000
    5        6.778841   0.000017
    6        7.935488   0.000000
    7       13.145206   0.000000
    8       13.210981   0.000000
 
 -0.1875000E+00 -0.3125000E+00  0.6250000E-01  0.2343750E-01
    1       -4.618274   1.000000
    2        1.311309   1.000000
    3        3.264452   1.000000
    4        3.929227   1.000000
    5        7.661094   0.000000
    6        9.266140   0.000000
    7       10.980053   0.000000
    8       11.985248   0.000000
 
 -0.1875000E+00 -0.1875000E+00  0.6250000E-01  0.1171875E-01
    1       -5.270932   1.000000
    2        2.705635   1.000000
    3        4.198369   1.000000
    4        4.225369   1.000000
    5        7.418784   0.000000
    6        9.637843   0.000000
    7       10.902756   0.000000
    8       11.067080   0.000000
 
  0.1875000E+00  0.1875000E+00  0.1875000E+00  0.3906250E-02
    1       -5.678600   1.000000
    2        3.077288   1.000000
    3        5.332871   1.000000
    4        5.332871   1.000000
    5        8.158845   0.000000
    6        9.215611   0.000000
    7        9.215611   0.000000
    8       11.696543   0.000000
 
  0.3125000E+00  0.1875000E+00  0.1875000E+00  0.1171875E-01
    1       -5.280661   1.000000
    2        2.236238   1.000000
    3        3.784224   1.000000
    4        5.356497   1.000000
    5        8.818186   0.000000
    6        9.340346   0.000000
    7        9.660423   0.000000
    8       11.705953   0.000000
 
  0.4375000E+00  0.1875000E+00  0.1875000E+00  0.1171875E-01
    1       -4.521548   1.000000
    2        0.851655   1.000000
    3        2.679303   1.000000
    4        4.835375   1.000000
    5        8.642429   0.000000
    6       10.114023   0.000000
    7       10.351269   0.000000
    8       11.983461   0.000000
 
 -0.4375000E+00  0.1875000E+00  0.1875000E+00  0.1171875E-01
    1       -3.608615   1.000000
    2       -0.670563   1.000000
    3        2.532432   1.000000
    4        4.290440   1.000000
    5        8.116594   0.000000
    6       10.318475   0.000000
    7       10.519461   0.000000
    8       13.882894   0.000000
 
 -0.3125000E+00  0.1875000E+00  0.1875000E+00  0.1171875E-01
    1       -3.593108   1.000000
    2       -0.699224   1.000000
    3        2.839917   1.000000
    4        3.961610   1.000000
    5        7.823382   0.000000
    6       10.394108   0.000000
    7       10.873779   0.000000
    8       11.881286   0.000000
 
 -0.1875000E+00  0.1875000E+00  0.1875000E+00  0.1171875E-01
    1       -4.504972   1.000000
    2        0.848045   1.000000
    3        3.465730   1.000000
    4        3.934629   1.000000
    5        7.754654   0.000000
    6        9.992540   0.000000
    7       10.689033   0.000000
    8       11.261609   0.000000
 
  0.3125000E+00  0.3125000E+00  0.1875000E+00  0.1171875E-01
    1       -5.019965   1.000000
    2        1.557056   1.000000
    3        4.315021   1.000000
    4        4.366103   1.000000
    5        8.165167   0.000000
    6        9.594555   0.000000
    7       10.502130   0.000000
    8       10.867635   0.000000
 
  0.4375000E+00  0.3125000E+00  0.1875000E+00  0.2343750E-01
    1       -4.383540   1.000000
    2        0.792066   1.000000
    3        2.736603   1.000000
    4        4.167901   1.000000
    5        8.661203   0.000000
    6        9.750478   0.000000
    7       10.220337   0.000000
    8       11.799912   0.000000
 
 -0.4375000E+00  0.3125000E+00  0.1875000E+00  0.2343750E-01
    1       -3.475900   1.000000
    2       -0.322809   1.000000
    3        1.928150   1.000000
    4        3.581409   1.000000
    5        9.124464   0.000000
    6        9.621909   0.000000
    7       10.925066   0.000000
    8       12.923387   0.000000
 
 -0.3125000E+00  0.3125000E+00  0.1875000E+00  0.2343750E-01
    1       -2.977037   1.000000
    2       -0.952765   1.000000
    3        1.936336   1.000000
    4        3.259930   1.000000
    5        8.637594   0.000000
    6        9.955349   0.000000
    7       11.723531   0.000000
    8       13.061074   0.000000
 
 -0.1875000E+00  0.3125000E+00  0.1875000E+00  0.2343750E-01
    1       -3.767322   1.000000
    2        0.079036   1.000000
    3        2.362982   1.000000
    4        3.443521   1.000000
    5        8.362860   0.000000
    6        9.594248   0.000000
    7       10.515186   0.000000
    8       13.052380   0.000000
 
  0.4375000E+00  0.4375000E+00  0.1875000E+00  0.1171875E-01
    1       -3.878864   1.000000
    2        0.132522   1.000000
    3        2.708651   1.000000
    4        3.596910   1.000000
    5        7.360200   0.000000
    6        9.427957   0.000000
    7       11.788375   0.000000
    8       12.105974   0.000000
 
 -0.4375000E+00  0.4375000E+00  0.1875000E+00  0.2343750E-01
    1       -3.061342   1.000000
    2       -0.667639   1.000000
    3        2.110398   1.000000
    4        2.892945   1.000000
    5        8.151634   0.000000
    6        9.178454   0.000000
    7       11.420972   0.000000
    8       14.295238   0.000000
 
 -0.3125000E+00  0.4375000E+00  0.1875000E+00  0.2343750E-01
    1       -2.236921   1.000000
    2       -1.432242   1.000000
    3        1.780853   1.000000
    4        2.380235   1.000000
    5        9.295519   0.000000
    6       10.232764   0.000000
    7       10.965876   0.000000
    8       11.981014   0.000000
 
 -0.1875000E+00  0.4375000E+00  0.1875000E+00  0.2343750E-01
    1       -2.849897   1.000000
    2       -0.880928   1.000000
    3        1.777946   1.000000
    4        2.867122   1.000000
    5        9.392948   0.000000
    6        9.838332   0.000000
    7       10.627429   0.000000
    8       13.164313   0.000000
 
 -0.4375000E+00 -0.4375000E+00  0.1875000E+00  0.1171875E-01
    1       -2.405786   1.000000
    2       -1.414645   1.000000
    3        1.887850   1.000000
    4        3.245555   1.000000
    5        6.913377   0.000000
    6        8.854813   0.000000
    7       13.960236   0.000000
    8       14.183972   0.000000
 
 -0.3125000E+00 -0.4375000E+00  0.1875000E+00  0.2343750E-01
    1       -2.303789   1.000000
    2       -1.441521   1.000000
    3        1.984375   1.000000
    4        2.601158   1.000000
    5        8.041222   0.000000
    6        8.973958   0.000000
    7       12.439817   0.000000
    8       13.572721   0.000000
 
 -0.3125000E+00 -0.3125000E+00  0.1875000E+00  0.1171875E-01
    1       -3.161125   1.000000
    2       -0.632523   1.000000
    3        2.163652   1.000000
    4        3.363561   1.000000
    5        7.068238   0.000000
    6        9.042107   0.000000
    7       12.972902   0.000000
    8       13.025792   0.000000
 
  0.3125000E+00  0.3125000E+00  0.3125000E+00  0.3906250E-02
    1       -4.910212   1.000000
    2        0.840023   1.000000
    3        4.909772   1.000000
    4        4.909772   1.000000
    5        7.716279   0.000000
    6        9.454491   0.000000
    7        9.454491   0.000000
    8       13.627375   0.000000
 
  0.4375000E+00  0.3125000E+00  0.3125000E+00  0.1171875E-01
    1       -4.422289   1.000000
    2        0.257954   1.000000
    3        3.417987   1.000000
    4        4.820141   1.000000
    5        8.423131   0.000000
    6        9.688928   0.000000
    7        9.732092   0.000000
    8       13.005604   0.000000
 
 -0.4375000E+00  0.3125000E+00  0.3125000E+00  0.1171875E-01
    1       -3.616246   1.000000
    2       -0.263547   1.000000
    3        1.846436   1.000000
    4        4.221315   1.000000
    5        8.032948   0.000000
    6       11.161540   0.000000
    7       11.356844   0.000000
    8       12.770677   0.000000
 
 -0.3125000E+00  0.3125000E+00  0.3125000E+00  0.1171875E-01
    1       -2.778358   1.000000
    2       -1.050953   1.000000
    3        1.495087   1.000000
    4        3.658292   1.000000
    5        7.391833   0.000000
    6       11.369665   0.000000
    7       12.461947   0.000000
    8       12.757758   0.000000
 
  0.4375000E+00  0.4375000E+00  0.3125000E+00  0.1171875E-01
    1       -4.101771   1.000000
    2       -0.311983   1.000000
    3        3.767205   1.000000
    4        4.239030   1.000000
    5        8.099900   0.000000
    6        9.473247   0.000000
    7       10.228684   0.000000
    8       12.312998   0.000000
 
 -0.4375000E+00  0.4375000E+00  0.3125000E+00  0.2343750E-01
    1       -3.470072   1.000000
    2       -0.665657   1.000000
    3        2.423764   1.000000
    4        3.749265   1.000000
    5        8.875865   0.000000
    6        9.218916   0.000000
    7       11.830432   0.000000
    8       12.054565   0.000000
 
 -0.3125000E+00  0.4375000E+00  0.3125000E+00  0.2343750E-01
    1       -2.638283   1.000000
    2       -1.112680   1.000000
    3        1.588978   1.000000
    4        3.018722   1.000000
    5        8.504013   0.000000
    6       10.797315   0.000000
    7       11.610742   0.000000
    8       12.156278   0.000000
 
 -0.4375000E+00 -0.4375000E+00  0.3125000E+00  0.1171875E-01
    1       -3.104116   1.000000
    2       -0.945559   1.000000
    3        2.015372   1.000000
    4        3.760856   1.000000
    5        7.545297   0.000000
    6       11.336803   0.000000
    7       11.652588   0.000000
    8       11.761410   0.000000
 
  0.4375000E+00  0.4375000E+00  0.4375000E+00  0.3906250E-02
    1       -4.001535   1.000000
    2       -0.837592   1.000000
    3        4.684301   1.000000
    4        4.684301   1.000000
    5        7.445793   0.000000
    6        9.317008   0.000000
    7        9.317008   0.000000
    8       13.654797   0.000000
 
 -0.4375000E+00  0.4375000E+00  0.4375000E+00  0.1171875E-01
    1       -3.642841   1.000000
    2       -1.013178   1.000000
    3        3.440319   1.000000
    4        4.408729   1.000000
    5        8.141267   0.000000
    6        9.457088   0.000000
    7        9.911064   0.000000
    8       14.109936   0.000000
