unknown system                          
   1.00000000000000     
    -2.421158    2.421158    1.306278
     2.421158   -2.421158    1.306278
     2.421158    2.421158   -1.306278
   Si
     2
Direct
  0.250000  0.750000  0.500000
  0.000000  0.000000  0.000000
 
   32   32   32
 -5.3486     -4.1715     -1.0108      3.1772      7.2329      10.208      11.634      11.577      10.502      9.0326    
  7.5856      6.3050      5.2634      4.4818      3.9492      3.6426      3.5429      3.6426      3.9492      4.4818    
  5.2634      6.3050      7.5856      9.0326      10.502      11.577      11.634      10.208      7.2329      3.1772    
 -1.0108     -4.1715     -4.1715     -4.7833     -3.1157     0.30354      4.4495      8.2023      10.732      11.712    
  11.324      10.089      8.6102      7.2031      5.9863      5.0170      4.3060      3.8377      3.5891      3.5432    
  3.6959      4.0580      4.6505      5.4952      6.5974      7.9258      9.3947      10.828      11.738      11.518    
  9.7807      6.5763      2.4882     -1.4712     -1.0108     -3.1157     -3.1666     -1.1533      2.2818      6.1122    
  9.3219      11.240      11.694      10.966      9.6070      8.1444      6.7947      5.6546      4.7661      4.1304    
  3.7283      3.5374      3.5436      3.7465      4.1596      4.8049      5.7019      6.8501      8.2087      9.6816    
  11.061      11.828      11.421      9.5418      6.3443      2.4882      3.1772     0.30353     -1.1534     -.72399    
  1.4427      4.6453      7.9213      10.409      11.621      11.533      10.504      9.0781      7.6537      6.3768    
  5.3237      4.5210      3.9618      3.6248      3.4892      3.5441      3.7923      4.2494      4.9378      5.8739    
  7.0514      8.4212      9.8805      11.201      11.868      11.384      9.5418      6.5763      7.2329      4.4495    
  2.2818      1.4427      2.2133      4.3248      7.0767      9.6258      11.298      11.791      11.210      9.9590    
  8.5241      7.1574      5.9662      5.0063      4.2906      3.8062      3.5310      3.4462      3.5442      3.8310    
  4.3235      5.0432      6.0032      7.1914      8.5531      9.9823      11.247      11.868      11.421      9.7807    
  10.208      8.2023      6.1122      4.6453      4.3248      5.2667      7.1319      9.2760      11.014      11.869    
  11.710      10.739      9.3707      7.9669      6.6752      5.5784      4.7137      4.0829      3.6689      3.4497    
  3.4095      3.5440      3.8612      4.3787      5.1162      6.0834      7.2633      8.5979      9.9823      11.201    
  11.828      11.518      11.634      10.732      9.3219      7.9213      7.0767      7.1319      8.0765      9.5525    
  11.013      11.949      12.071      11.389      10.168      8.7777      7.4295      6.2258      5.2276      4.4560    
  3.9045      3.5538      3.3835      3.3806      3.5435      3.8818      4.4127      5.1536      6.1106      7.2633    
  8.5531      9.8805      11.061      11.738      11.577      11.712      11.240      10.409      9.6258      9.2760    
  9.5525      10.363      11.374      12.162      12.388      11.927      10.891      9.5666      8.2079      6.9346    
  5.8267      4.9258      4.2410      3.7606      3.4645      3.3346      3.3605      3.5430      3.8922      4.4242    
  5.1536      6.0834      7.1914      8.4212      9.6816      10.828      10.502      11.324      11.694      11.621    
  11.298      11.014      11.013      11.374      11.965      12.508      12.708      12.379      11.522      10.311    
  8.9886      7.6885      6.5028      5.4918      4.6824      4.0750      3.6551      3.4035      3.3044      3.3502    
  3.5428      3.8922      4.4127      5.1162      6.0032      7.0514      8.2087      9.3947      9.0326      10.089    
  10.966      11.533      11.791      11.869      11.949      12.162      12.508      12.853      12.989      12.740    
  12.044      10.983      9.7458      8.4672      7.2442      6.1510      5.2323      4.5042      3.9622      3.5908    
  3.3726      3.2943      3.3502      3.5430      3.8818      4.3787      5.0432      5.8739      6.8501      7.9258    
  7.5856      8.6101      9.6070      10.504      11.210      11.710      12.071      12.388      12.708      12.989    
  13.115      12.952      12.419      11.542      10.444      9.2422      8.0315      6.8947      5.8917      5.0555    
  4.3956      3.9051      3.5692      3.3726      3.3044      3.3605      3.5435      3.8612      4.3235      4.9378    
  5.7019      6.5974      6.3050      7.2031      8.1444      9.0781      9.9590      10.739      11.389      11.927    
  12.379      12.740      12.952      12.925      12.588      11.936      11.036      9.9731      8.8345      7.7046    
  6.6545      5.7331      4.9661      4.3592      3.9051      3.5908      3.4035      3.3346      3.3806      3.5440    
  3.8310      4.2494      4.8049      5.4952      5.2634      5.9863      6.7947      7.6537      8.5241      9.3707    
  10.168      10.891      11.522      12.044      12.419      12.588      12.494      12.111      11.466      10.608    
  9.6091      8.5486      7.5024      6.5323      5.6798      4.9661      4.3956      3.9622      3.6551      3.4645    
  3.3835      3.4095      3.5442      3.7923      4.1596      4.6505      4.4818      5.0169      5.6546      6.3768    
  7.1574      7.9669      8.7777      9.5666      10.311      10.983      11.542      11.936      12.111      12.031    
  11.684      11.091      10.300      9.3797      8.4015      7.4340      6.5323      5.7331      5.0555      4.5042    
  4.0750      3.7606      3.5538      3.4497      3.4462      3.5441      3.7465      4.0580      3.9492      4.3060    
  4.7661      5.3237      5.9662      6.6752      7.4295      8.2079      8.9886      9.7459      10.444      11.036    
  11.466      11.684      11.654      11.369      10.849      10.140      9.3014      8.4015      7.5024      6.6545    
  5.8917      5.2323      4.6824      4.2410      3.9045      3.6689      3.5310      3.4892      3.5436      3.6959    
  3.6426      3.8377      4.1304      4.5210      5.0063      5.5784      6.2258      6.9346      7.6885      8.4672    
  9.2422      9.9731      10.608      11.091      11.369      11.410      11.203      10.766      10.140      9.3797    
  8.5486      7.7046      6.8947      6.1510      5.4918      4.9258      4.4560      4.0829      3.8062      3.6248    
  3.5374      3.5432      3.5429      3.5891      3.7283      3.9619      4.2906      4.7137      5.2276      5.8267    
  6.5028      7.2442      8.0315      8.8345      9.6091      10.300      10.849      11.203      11.325      11.203    
  10.849      10.300      9.6091      8.8345      8.0315      7.2442      6.5028      5.8267      5.2276      4.7137    
  4.2906      3.9618      3.7283      3.5891      3.6426      3.5432      3.5374      3.6249      3.8063      4.0829    
  4.4560      4.9258      5.4918      6.1510      6.8947      7.7046      8.5486      9.3797      10.140      10.766    
  11.203      11.410      11.369      11.091      10.608      9.9731      9.2422      8.4672      7.6885      6.9346    
  6.2258      5.5784      5.0063      4.5210      4.1304      3.8377      3.9492      3.6959      3.5436      3.4892    
  3.5310      3.6689      3.9045      4.2410      4.6824      5.2323      5.8917      6.6545      7.5024      8.4015    
  9.3014      10.140      10.849      11.369      11.654      11.684      11.466      11.036      10.444      9.7458    
  8.9886      8.2079      7.4295      6.6752      5.9662      5.3237      4.7661      4.3060      4.4818      4.0580    
  3.7465      3.5441      3.4462      3.4497      3.5538      3.7606      4.0750      4.5042      5.0556      5.7331    
  6.5323      7.4340      8.4015      9.3797      10.300      11.091      11.684      12.031      12.111      11.936    
  11.542      10.983      10.311      9.5666      8.7777      7.9669      7.1574      6.3768      5.6546      5.0170    
  5.2634      4.6506      4.1596      3.7923      3.5442      3.4095      3.3835      3.4645      3.6551      3.9622    
  4.3957      4.9662      5.6798      6.5323      7.5024      8.5486      9.6091      10.608      11.466      12.111    
  12.494      12.588      12.419      12.044      11.522      10.891      10.168      9.3707      8.5241      7.6537    
  6.7947      5.9863      6.3050      5.4952      4.8049      4.2495      3.8310      3.5440      3.3806      3.3345    
  3.4035      3.5908      3.9051      4.3592      4.9662      5.7331      6.6545      7.7046      8.8345      9.9731    
  11.036      11.936      12.588      12.925      12.952      12.740      12.379      11.927      11.389      10.739    
  9.9590      9.0781      8.1444      7.2031      7.5856      6.5974      5.7019      4.9378      4.3235      3.8612    
  3.5434      3.3605      3.3044      3.3726      3.5692      3.9051      4.3957      5.0556      5.8917      6.8947    
  8.0315      9.2422      10.444      11.542      12.419      12.952      13.115      12.989      12.708      12.388    
  12.071      11.710      11.210      10.504      9.6070      8.6102      9.0326      7.9258      6.8501      5.8739    
  5.0432      4.3787      3.8817      3.5429      3.3501      3.2943      3.3726      3.5908      3.9622      4.5042    
  5.2323      6.1510      7.2442      8.4672      9.7459      10.983      12.044      12.740      12.989      12.853    
  12.508      12.162      11.949      11.869      11.791      11.533      10.966      10.089      10.502      9.3948    
  8.2087      7.0514      6.0032      5.1162      4.4126      3.8921      3.5427      3.3501      3.3044      3.4035    
  3.6551      4.0750      4.6824      5.4918      6.5028      7.6885      8.9886      10.311      11.522      12.379    
  12.708      12.508      11.965      11.374      11.013      11.014      11.298      11.621      11.694      11.324    
  11.577      10.828      9.6816      8.4213      7.1915      6.0834      5.1536      4.4241      3.8921      3.5429    
  3.3605      3.3345      3.4645      3.7606      4.2410      4.9258      5.8267      6.9346      8.2079      9.5666    
  10.891      11.927      12.388      12.162      11.374      10.363      9.5525      9.2760      9.6258      10.409    
  11.240      11.712      11.634      11.738      11.061      9.8805      8.5532      7.2633      6.1106      5.1536    
  4.4126      3.8817      3.5434      3.3806      3.3835      3.5538      3.9045      4.4560      5.2276      6.2258    
  7.4295      8.7777      10.168      11.389      12.071      11.949      11.013      9.5525      8.0765      7.1319    
  7.0767      7.9213      9.3219      10.732      10.208      11.518      11.828      11.201      9.9823      8.5979    
  7.2633      6.0834      5.1162      4.3787      3.8612      3.5440      3.4095      3.4497      3.6689      4.0829    
  4.7137      5.5784      6.6752      7.9669      9.3707      10.739      11.710      11.869      11.014      9.2760    
  7.1319      5.2667      4.3248      4.6453      6.1122      8.2023      7.2329      9.7807      11.421      11.868    
  11.247      9.9823      8.5532      7.1915      6.0032      5.0432      4.3235      3.8310      3.5442      3.4462    
  3.5310      3.8063      4.2906      5.0063      5.9662      7.1574      8.5241      9.9590      11.210      11.791    
  11.298      9.6258      7.0767      4.3248      2.2133      1.4427      2.2818      4.4495      3.1772      6.5763    
  9.5419      11.384      11.868      11.201      9.8805      8.4213      7.0514      5.8739      4.9378      4.2495    
  3.7923      3.5441      3.4892      3.6249      3.9619      4.5210      5.3237      6.3768      7.6537      9.0781    
  10.504      11.533      11.621      10.409      7.9213      4.6453      1.4427     -.72399     -1.1533     0.30354    
 -1.0108      2.4882      6.3443      9.5419      11.421      11.828      11.061      9.6816      8.2087      6.8501    
  5.7019      4.8049      4.1596      3.7465      3.5436      3.5374      3.7283      4.1304      4.7661      5.6546    
  6.7947      8.1444      9.6070      10.966      11.694      11.240      9.3219      6.1122      2.2818     -1.1534    
 -3.1666     -3.1157     -4.1715     -1.4712      2.4882      6.5763      9.7807      11.518      11.738      10.828    
  9.3948      7.9258      6.5974      5.4952      4.6506      4.0580      3.6959      3.5432      3.5891      3.8377    
  4.3060      5.0169      5.9863      7.2031      8.6101      10.089      11.324      11.712      10.732      8.2023    
  4.4495     0.30353     -3.1157     -4.7833     -4.1714     -3.3062     -.52172      3.3311      7.1624      10.039    
  11.464      11.450      10.415      8.9590      7.5091      6.2166      5.1582      4.3576      3.8046      3.4758    
  3.3503      3.4188      3.6868      4.1729      4.9010      5.8862      7.1149      8.5243      9.9891      11.166    
  11.460      10.390      7.8326      4.1683     0.24685     -2.8462     -3.3063     -4.1715     -2.8463     0.24688    
  4.1683      7.8326      10.390      11.460      11.166      9.9892      8.5243      7.1149      5.8863      4.9010    
  4.1729      3.6868      3.4188      3.3503      3.4758      3.8046      4.3575      5.1582      6.2167      7.5091    
  8.9589      10.415      11.450      11.464      10.039      7.1623      3.3312     -.52164     -.42842     -2.7451    
 -3.1156     -1.4319      1.7615      5.4944      8.7478      10.801      11.412      10.806      9.5050      8.0551    
  6.7020      5.5501      4.6469      3.9962      3.5793      3.3725      3.3606      3.5416      3.9283      4.5432    
  5.4083      6.5279      7.8686      9.3424      10.769      11.670      11.474      9.8420      6.8619      3.1180    
  3.5670     0.51553     -1.2418     -1.1534     0.73456      3.7997      7.1019      9.7436      11.165      11.268    
  10.363      8.9826      7.5681      6.2860      5.2210      4.4053      3.8340      3.4857      3.3386      3.3806    
  3.6137      4.0531      4.7222      5.6407      6.8067      8.1781      9.6584      11.045      11.841      11.530    
  9.8566      6.9919      7.5380      4.6130      2.1743     0.99193      1.4426      3.3521      6.0720      8.7493    
  10.648      11.385      10.995      9.8473      8.4420      7.0805      5.8821      4.9108      4.1844      3.6914    
  3.4091      3.3180      3.4095      3.6890      4.1739      4.8872      5.8450      7.0400      8.4228      9.8923    
  11.234      11.970      11.649      10.095      10.518      8.4135      6.0992      4.3121      3.6500      4.3248    
  6.0734      8.2749      10.207      11.319      11.397      10.588      9.2866      7.9013      6.6096      5.5043    
  4.6297      3.9915      3.5728      3.3516      3.3110      3.4461      3.7649      4.2859      5.0306      6.0118    
  7.2165      8.5904      10.031      11.331      12.054      11.819      12.004      11.049      9.4760      7.8071    
  6.6353      6.3854      7.1318      8.5685      10.146      11.302      11.668      11.184      10.074      8.7188    
  7.3799      6.1723      5.1656      4.3869      3.8320      3.4816      3.3148      3.3180      3.4891      3.8384    
  4.3843      5.1462      6.1329      7.3268      8.6715      10.068      11.329      12.078      12.020      12.148    
  11.581      10.555      9.4947      8.8444      8.8723      9.5525      10.580      11.508      11.940      11.678    
  10.779      9.5107      8.1697      6.8983      5.7845      4.8772      4.1894      3.7105      3.4202      3.2998    
  3.3386      3.5372      3.9069      4.4651      5.2285      6.2019      7.3649      8.6611      9.9972      11.220    
  10.999      11.855      12.195      12.006      11.481      10.941      10.687      10.859      11.374      11.961    
  12.292      12.124      11.400      10.259      8.9576      7.6642      6.4759      5.4599      4.6479      4.0428    
  3.6301      3.3903      3.3071      3.3725      3.5890      3.9678      4.5248      5.2735      6.2154      7.3283    
  8.5586      9.8219      9.5492      10.668      11.568      12.093      12.232      12.125      11.986      11.997    
  12.207      12.508      12.688      12.534      11.937      10.939      9.7204      8.4492      7.2261      6.1297    
  5.2095      4.4844      3.9508      3.5930      3.3928      3.3366      3.4187      3.6425      4.0186      4.5605    
  5.2786      6.1720      7.2184      8.3688      8.1004      9.1908      10.240      11.153      11.816      12.207    
  12.411      12.551      12.716      12.897      12.989      12.847      12.360      11.518      10.426      9.2266    
  8.0152      6.8763      5.8730      5.0411      4.3911      3.9159      3.6001      3.4278      3.3877      3.4758    
  3.6958      4.0569      4.5702      5.2434      6.0738      7.0405      6.8033      7.7662      8.7629      9.7349    
  10.627      11.368      11.927      12.337      12.650      12.890      13.019      12.952      12.604      11.945    
  11.030      9.9581      8.8137      7.6806      6.6309      5.7152      4.9599      4.3706      3.9391      3.6515    
  3.4944      3.4587      3.5417      3.7465      4.0808      4.5532      5.1694      5.9256      5.7345      6.5184    
  7.3819      8.2840      9.1788      10.025      10.789      11.438      11.966      12.376      12.650      12.741    
  12.588      12.160      11.476      10.593      9.5788      8.5108      7.4642      6.5006      5.6618      4.9683    
  4.4235      4.0200      3.7461      3.5909      3.5475      3.6137      3.7923      4.0889      4.5102      5.0599    
  4.9206      5.5100      6.1991      6.9647      7.7752      8.5955      9.3934      10.143      10.824      11.410    
  11.873      12.174      12.265      12.111      11.707      11.073      10.256      9.3210      8.3393      7.3781    
  6.4913      5.7150      5.0667      4.5493      4.1573      3.8817      3.7146      3.6509      3.6891      3.8311    
  4.0808      4.4431      4.3552      4.7578      5.2626      5.8600      6.5331      7.2586      8.0108      8.7650    
  9.4990      10.189      10.805      11.307      11.648      11.783      11.684      11.344      10.786      10.053    
  9.2067      8.3113      7.4278      6.6048      5.8746      5.2534      4.7455      4.3477      4.0547      3.8617    
  3.7654      3.7650      3.8613      4.0569      4.0186      4.2507      4.5795      5.0033      5.5159      6.1054    
  6.7561      7.4504      8.1700      8.8947      9.5990      10.248      10.796      11.193      11.393      11.369    
  11.114      10.645      10.005      9.2470      8.4311      7.6134      6.8386      6.1369      5.5245      5.0076    
  4.5867      4.2605      4.0276      3.8871      3.8385      3.8819      3.8923      3.9679      4.1346      4.3933    
  4.7432      5.1807      5.6988      6.2883      6.9384      7.6359      8.3626      9.0913      9.7830      10.389    
  10.856      11.138      11.203      11.042      10.669      10.119      9.4425      8.6951      7.9291      7.1863    
  6.4953      5.8730      5.3286      4.8673      4.4926      4.2070      4.0117      3.9069      3.9678      3.8923    
  3.9070      4.0117      4.2069      4.4926      4.8673      5.3286      5.8730      6.4952      7.1863      7.9291    
  8.6951      9.4425      10.119      10.669      11.042      11.203      11.138      10.856      10.389      9.7830    
  9.0913      8.3626      7.6359      6.9384      6.2883      5.6988      5.1807      4.7433      4.3933      4.1345    
  4.2507      4.0186      3.8818      3.8385      3.8872      4.0276      4.2605      4.5867      5.0076      5.5245    
  6.1369      6.8386      7.6134      8.4311      9.2470      10.005      10.645      11.114      11.369      11.393    
  11.193      10.796      10.248      9.5991      8.8947      8.1699      7.4504      6.7561      6.1054      5.5158    
  5.0033      4.5795      4.7579      4.3551      4.0568      3.8612      3.7650      3.7654      3.8616      4.0547    
  4.3477      4.7455      5.2534      5.8745      6.6048      7.4278      8.3113      9.2067      10.053      10.786    
  11.344      11.684      11.783      11.648      11.307      10.805      10.189      9.4990      8.7651      8.0108    
  7.2586      6.5331      5.8600      5.2626      5.5100      4.9205      4.4431      4.0808      3.8310      3.6891    
  3.6508      3.7145      3.8817      4.1573      4.5493      5.0667      5.7150      6.4913      7.3780      8.3393    
  9.3210      10.256      11.073      11.707      12.111      12.265      12.174      11.873      11.410      10.824    
  10.143      9.3934      8.5955      7.7752      6.9647      6.1991      6.5183      5.7346      5.0600      4.5102    
  4.0888      3.7922      3.6137      3.5474      3.5909      3.7461      4.0200      4.4236      4.9683      5.6617    
  6.5006      7.4642      8.5109      9.5788      10.593      11.476      12.160      12.588      12.741      12.650    
  12.376      11.966      11.438      10.789      10.025      9.1788      8.2840      7.3818      7.7663      6.8033    
  5.9256      5.1693      4.5532      4.0807      3.7465      3.5416      3.4587      3.4944      3.6515      3.9391    
  4.3706      4.9599      5.7152      6.6309      7.6806      8.8137      9.9581      11.030      11.945      12.604    
  12.952      13.019      12.890      12.650      12.337      11.927      11.368      10.627      9.7349      8.7629    
  9.1909      8.1004      7.0405      6.0738      5.2434      4.5702      4.0569      3.6958      3.4758      3.3877    
  3.4278      3.6001      3.9159      4.3911      5.0412      5.8730      6.8763      8.0152      9.2266      10.426    
  11.518      12.360      12.847      12.989      12.897      12.716      12.551      12.411      12.207      11.815    
  11.153      10.240      10.668      9.5492      8.3688      7.2184      6.1720      5.2786      4.5604      4.0186    
  3.6425      3.4187      3.3366      3.3929      3.5930      3.9508      4.4844      5.2095      6.1297      7.2261    
  8.4492      9.7204      10.939      11.937      12.534      12.688      12.508      12.207      11.997      11.986    
  12.125      12.232      12.093      11.568      11.855      10.999      9.8219      8.5587      7.3283      6.2153    
  5.2735      4.5248      3.9678      3.5890      3.3725      3.3071      3.3904      3.6301      4.0427      4.6479    
  5.4599      6.4759      7.6641      8.9576      10.259      11.400      12.124      12.292      11.961      11.374    
  10.859      10.687      10.941      11.482      12.006      12.194      12.148      12.020      11.220      9.9972    
  8.6610      7.3649      6.2020      5.2285      4.4651      3.9069      3.5373      3.3386      3.2998      3.4202    
  3.7105      4.1894      4.8772      5.7845      6.8983      8.1698      9.5107      10.779      11.678      11.940    
  11.508      10.580      9.5525      8.8723      8.8445      9.4948      10.554      11.581      11.049      12.004    
  12.078      11.329      10.068      8.6715      7.3268      6.1328      5.1462      4.3843      3.8384      3.4891    
  3.3180      3.3149      3.4817      3.8320      4.3869      5.1656      6.1724      7.3800      8.7188      10.074    
  11.184      11.668      11.302      10.146      8.5686      7.1319      6.3855      6.6353      7.8071      9.4760    
  8.4135      10.518      11.819      12.054      11.331      10.031      8.5904      7.2165      6.0118      5.0306    
  4.2859      3.7649      3.4462      3.3111      3.3516      3.5728      3.9915      4.6298      5.5043      6.6096    
  7.9013      9.2866      10.588      11.397      11.319      10.207      8.2750      6.0735      4.3248      3.6500    
  4.3122      6.0993      4.6129      7.5380      10.095      11.649      11.970      11.234      9.8923      8.4228    
  7.0401      5.8450      4.8871      4.1740      3.6891      3.4096      3.3180      3.4091      3.6914      4.1845    
  4.9107      5.8820      7.0805      8.4421      9.8472      10.995      11.385      10.649      8.7493      6.0720    
  3.3521      1.4428     0.99211      2.1743     0.51553      3.5671      6.9920      9.8566      11.530      11.841    
  11.045      9.6585      8.1781      6.8067      5.6407      4.7223      4.0531      3.6137      3.3807      3.3387    
  3.4857      3.8340      4.4052      5.2210      6.2860      7.5681      8.9826      10.363      11.268      11.165    
  9.7436      7.1019      3.7998     0.73472     -1.1533     -1.2417     -2.7449     -.42831      3.1180      6.8618    
  9.8420      11.474      11.670      10.769      9.3424      7.8687      6.5280      5.4083      4.5432      3.9283    
  3.5417      3.3606      3.3725      3.5792      3.9962      4.6469      5.5501      6.7020      8.0551      9.5050    
  10.806      11.412      10.801      8.7479      5.4945      1.7616     -1.4320     -3.1156     -1.0105     -.42824    
  1.8142      5.0096      8.2132      10.595      11.698      11.522      10.436      8.9831      7.5425      6.2540    
  5.1918      4.3802      3.8101      3.4586      3.3044      3.3366      3.5583      3.9859      4.6426      5.5463    
  6.6915      8.0295      9.4565      10.738      11.362      10.856      9.0364      6.1615      2.9204     0.24700    
 -.52156     -1.4711     -.52155      2.0163      5.3423      8.4901      10.678      11.537      11.157      9.9690    
  8.5195      7.1227      5.8994      4.9119      4.1750      3.6747      3.3876      3.2943      3.3876      3.6747    
  4.1750      4.9119      5.8994      7.1227      8.5195      9.9690      11.157      11.537      10.678      8.4901    
  5.3423      2.0163      1.8142     -.42825     -1.0105     0.24701      2.9204      6.1615      9.0364      10.856    
  11.363      10.738      9.4564      8.0295      6.6916      5.5463      4.6426      3.9859      3.5583      3.3366    
  3.3044      3.4586      3.8101      4.3803      5.1919      6.2540      7.5425      8.9831      10.436      11.522    
  11.698      10.595      8.2132      5.0097      5.2289      2.3509     0.51565     0.30366      1.7616      4.3830    
  7.3228      9.7311      11.046      11.136      10.262      8.9176      7.5300      6.2645      5.2075      4.3933    
  3.8190      3.4642      3.3071      3.3346      3.5474      3.9597      4.5943      5.4720      6.5964      7.9343    
  9.4020      10.842      11.837      11.877      10.664      8.2765      8.6871      5.9750      3.5505      2.1743    
  2.2819      3.7998      6.1795      8.6301      10.429      11.163      10.823      9.7334      8.3704      7.0373    
  5.8560      4.8940      4.1717      3.6795      3.3954      3.2998      3.3835      3.6508      4.1183      4.8091    
  5.7411      6.9119      8.2807      9.7575      11.172      12.102      12.089      10.903      11.288      9.3869    
  7.1376      5.2391      4.3122      4.6454      6.0719      8.0457      9.8744      10.990      11.136      10.410    
  9.1736      7.8304      6.5667      5.4789      4.6154      3.9844      3.5710      3.3534      3.3149      3.4497    
  3.7654      4.2801      5.0159      5.9872      7.1858      8.5649      10.031      11.413      12.310      12.323    
  12.549      11.757      10.265      8.5426      7.1759      6.6352      7.0765      8.2748      9.7283      10.875    
  11.312      10.930      9.9102      8.6129      7.3140      6.1333      5.1449      4.3798      3.8363      3.4963    
  3.3393      3.3517      3.5310      3.8871      4.4388      5.2059      6.1990      7.4044      8.7714      10.207    
  11.549      12.442      12.476      12.718      12.223      11.178      9.9828      9.0965      8.8444      9.2759    
  10.146      11.031      11.513      11.351      10.557      9.3636      8.0732      6.8386      5.7511      4.8639    
  4.1935      3.7311      3.4572      3.3535      3.4091      3.6248      4.0118      4.5879      5.3706      6.3659    
  7.5560      8.8881      10.273      11.568      11.460      12.387      12.780      12.589      11.977      11.257    
  10.760      10.687      11.013      11.508      11.845      11.752      11.126      10.069      8.8241      7.5755    
  6.4215      5.4327      4.6443      4.0616      3.6714      3.4547      3.3954      3.4858      3.7283      4.1346    
  4.7212      5.5020      6.4792      7.6317      8.9072      10.222      10.056      11.222      12.158      12.688    
  12.773      12.537      12.203      11.990      11.997      12.161      12.292      12.164      11.635      10.711    
  9.5481      8.3242      7.1413      6.0788      5.1887      4.4923      3.9873      3.6589      3.4891      3.4644    
  3.5793      3.8377      4.2508      4.8326      5.5936      6.5324      7.6266      8.8264      8.6489      9.7816    
  10.861      11.783      12.416      12.722      12.779      12.730      12.698      12.716      12.708      12.534    
  12.068      11.270      10.220      9.0616      7.8913      6.7908      5.8236      5.0269      4.4122      3.9729    
  3.6941      3.5596      3.5584      3.6868      3.9491      4.3552      4.9165      5.6403      6.5225      7.5405    
  7.3773      8.3833      9.4113      10.397      11.276      11.965      12.422      12.684      12.825      12.896    
  12.890      12.740      12.360      11.703      10.802      9.7549      8.6449      7.5502      6.5405      5.6658    
  4.9527      4.4066      4.0192      3.7764      3.6647      3.6749      3.8047      4.0580      4.4431      4.9688    
  5.6395      6.4495      6.3169      7.1455      8.0429      8.9631      9.8545      10.670      11.367      11.908    
  12.295      12.550      12.677      12.650      12.419      11.945      11.240      10.358      9.3639      8.3280    