 vasp.5.4.4.18Apr17-6-g9f103f2a35 (build Dec 09 2018 21:25:21) complex          
  
 executed on IFC18.0.1.163_CrayMP date 2019.03.20  09:26:20
 running on    8 total cores
 distrk:  each k-point on    8 cores,    1 groups
 distr:  one band on NCORES_PER_BAND=   1 cores,    8 groups


--------------------------------------------------------------------------------------------------------


 INCAR:
 POTCAR:   PAW_PBE Si 05Jan2001                   

 ----------------------------------------------------------------------------- 
|                                                                             |
|           W    W    AA    RRRRR   N    N  II  N    N   GGGG   !!!           |
|           W    W   A  A   R    R  NN   N  II  NN   N  G    G  !!!           |
|           W    W  A    A  R    R  N N  N  II  N N  N  G       !!!           |
|           W WW W  AAAAAA  RRRRR   N  N N  II  N  N N  G  GGG   !            |
|           WW  WW  A    A  R   R   N   NN  II  N   NN  G    G                |
|           W    W  A    A  R    R  N    N  II  N    N   GGGG   !!!           |
|                                                                             |
|      For optimal performance we recommend to set                            |
|        NCORE= 4 - approx SQRT( number of cores)                             |
|      NCORE specifies how many cores store one orbital (NPAR=cpu/NCORE).     |
|      This setting can  greatly improve the performance of VASP for DFT.     |
|      The default,   NCORE=1            might be grossly inefficient         |
|      on modern multi-core architectures or massively parallel machines.     |
|      Do your own testing !!!!                                               |
|      Unfortunately you need to use the default for GW and RPA calculations. |
|      (for HF NCORE is supported but not extensively tested yet)             |
|                                                                             |
 ----------------------------------------------------------------------------- 

 POTCAR:   PAW_PBE Si 05Jan2001                   
   VRHFIN =Si: s2p2                                                             
   LEXCH  = PE                                                                  
   EATOM  =   103.0669 eV,    7.5752 Ry                                         
                                                                                
   TITEL  = PAW_PBE Si 05Jan2001                                                
   LULTRA =        F    use ultrasoft PP ?                                      
   IUNSCR =        1    unscreen: 0-lin 1-nonlin 2-no                           
   RPACOR =    1.500    partial core radius                                     
   POMASS =   28.085; ZVAL   =    4.000    mass and valenz                      
   RCORE  =    1.900    outmost cutoff radius                                   
   RWIGS  =    2.480; RWIGS  =    1.312    wigner-seitz radius (au A)           
   ENMAX  =  245.345; ENMIN  =  184.009 eV                                      
   ICORE  =        2    local potential                                         
   LCOR   =        T    correct aug charges                                     
   LPAW   =        T    paw PP                                                  
   EAUG   =  322.069                                                            
   DEXC   =    -.007                                                            
   RMAX   =    2.944    core radius for proj-oper                               
   RAUG   =    1.300    factor for augmentation sphere                          
   RDEP   =    1.993    radius for radial grids                                 
   QCUT   =   -4.246; QGAM   =    8.493    optimization parameters              
                                                                                
   Description                                                                  
     l     E      TYP  RCUT    TYP  RCUT                                        
     0   .000     23  1.900                                                     
     0   .000     23  1.900                                                     
     1   .000     23  1.900                                                     
     1   .000     23  1.900                                                     
     2   .000      7  1.900                                                     
  local pseudopotential read in
  partial core-charges read in
  atomic valenz-charges read in
  non local Contribution for L=           0  read in
    real space projection operators read in
  non local Contribution for L=           0  read in
    real space projection operators read in
  non local Contribution for L=           1  read in
    real space projection operators read in
  non local Contribution for L=           1  read in
    real space projection operators read in
    PAW grid and wavefunctions read in
 
   number of l-projection  operators is LMAX  =           4
   number of lm-projection operators is LMMAX =           8
 
 PAW_PBE Si 05Jan2001                   :
 energy of atom  1       EATOM= -103.0669
 kinetic energy error for atom=    0.0021 (will be added to EATOM!!)
 
 
 POSCAR: Si2                                     
  positions in direct lattice
  No initial velocities read in
 exchange correlation table for  LEXCH =        8
   RHO(1)=    0.500       N(1)  =     2000
   RHO(2)=  100.500       N(2)  =     4000
 


--------------------------------------------------------------------------------------------------------


 ion  position               nearest neighbor table
   1  0.250  0.750  0.500-   2 2.53   2 2.53   2 2.53   2 2.53   2 3.11   2 3.11   2 3.11   2 3.11

   2  0.000  0.000  0.000-   1 2.53   1 2.53   1 2.53   1 2.53   1 3.11   1 3.11   1 3.11   1 3.11

 
  LATTYP: Found a body centered tetragonal cell.
 ALAT       =     4.9000000000
 C/A-ratio  =     0.5200000000
  
  Lattice vectors:
  
 A1 = (  -2.4500000000,   2.4500000000,   1.2740000000)
 A2 = (   2.4500000000,  -2.4500000000,   1.2740000000)
 A3 = (   2.4500000000,   2.4500000000,  -1.2740000000)


Analysis of symmetry for initial positions (statically):
=====================================================================
 Subroutine PRICEL returns:
 Original cell was already a primitive cell.
 

 Routine SETGRP: Setting up the symmetry group for a 
 body centered tetragonal supercell.


 Subroutine GETGRP returns: Found 16 space group operations
 (whereof  8 operations were pure point group operations)
 out of a pool of 16 trial point group operations.


The static configuration has the point symmetry D_2d.
 The point group associated with its full space group is D_4h.


Analysis of symmetry for dynamics (positions and initial velocities):
=====================================================================
 Subroutine PRICEL returns:
 Original cell was already a primitive cell.
 

 Routine SETGRP: Setting up the symmetry group for a 
 body centered tetragonal supercell.


 Subroutine GETGRP returns: Found 16 space group operations
 (whereof  8 operations were pure point group operations)
 out of a pool of 16 trial point group operations.


The dynamic configuration has the point symmetry D_2d.
 The point group associated with its full space group is D_4h.


 Subroutine INISYM returns: Found 16 space group operations
 (whereof  8 operations are pure point group operations),
 and found     1 'primitive' translations

 
 
 KPOINTS: Automatic kpoint scheme                 

Automatic generation of k-mesh.
Space group operators:
 irot       det(A)        alpha          n_x          n_y          n_z        tau_x        tau_y        tau_z
    1     1.000000     0.000000     1.000000     0.000000     0.000000     0.000000     0.000000     0.000000
    2    -1.000000    90.000000    -0.000000    -0.000000    -1.000000     0.000000     0.000000     0.000000
    3     1.000000   180.000000    -0.000000    -0.000000    -1.000000     0.000000     0.000000     0.000000
    4    -1.000000    90.000000    -0.000000     0.000000     1.000000     0.000000     0.000000     0.000000
    5    -1.000000   180.000000     0.000000    -1.000000     0.000000     0.000000     0.000000     0.000000
    6     1.000000   180.000000     0.707107     0.707107    -0.000000     0.000000     0.000000     0.000000
    7    -1.000000   180.000000     1.000000     0.000000     0.000000     0.000000     0.000000     0.000000
    8     1.000000   180.000000     0.707107    -0.707107     0.000000     0.000000     0.000000     0.000000
    9    -1.000000     0.000000     1.000000     0.000000     0.000000     0.250000     0.750000     0.500000
   10     1.000000    90.000000    -0.000000    -0.000000    -1.000000     0.250000     0.750000     0.500000
   11    -1.000000   180.000000    -0.000000    -0.000000    -1.000000     0.250000     0.750000     0.500000
   12     1.000000    90.000000    -0.000000     0.000000     1.000000     0.250000     0.750000     0.500000
   13     1.000000   180.000000     0.000000    -1.000000     0.000000     0.250000     0.750000     0.500000
   14    -1.000000   180.000000     0.707107     0.707107    -0.000000     0.250000     0.750000     0.500000
   15     1.000000   180.000000     1.000000     0.000000     0.000000     0.250000     0.750000     0.500000
   16    -1.000000   180.000000     0.707107    -0.707107     0.000000     0.250000     0.750000     0.500000
 
 Subroutine IBZKPT returns following result:
 ===========================================
 
 Found    159 irreducible k-points:
 
 Following reciprocal coordinates:
            Coordinates               Weight
  0.041667  0.041667  0.041667    128.000000
  0.125000  0.041667  0.041667    256.000000
  0.208333  0.041667  0.041667    256.000000
  0.291667  0.041667  0.041667    256.000000
  0.375000  0.041667  0.041667    256.000000
  0.458333  0.041667  0.041667    128.000000
 -0.041667  0.041667  0.041667     64.000000
  0.125000  0.125000  0.041667    128.000000
  0.208333  0.125000  0.041667    256.000000
  0.291667  0.125000  0.041667    256.000000
  0.375000  0.125000  0.041667    256.000000
  0.458333  0.125000  0.041667    256.000000
 -0.458333  0.125000  0.041667    256.000000
 -0.375000  0.125000  0.041667    256.000000
 -0.291667  0.125000  0.041667    256.000000
 -0.208333  0.125000  0.041667    128.000000
 -0.125000  0.125000  0.041667    128.000000
 -0.041667  0.125000  0.041667    128.000000
  0.208333  0.208333  0.041667    128.000000
  0.291667  0.208333  0.041667    256.000000
  0.375000  0.208333  0.041667    256.000000
  0.458333  0.208333  0.041667    256.000000
 -0.458333  0.208333  0.041667    256.000000
 -0.375000  0.208333  0.041667    256.000000
 -0.291667  0.208333  0.041667    128.000000
 -0.208333  0.208333  0.041667    128.000000
 -0.125000  0.208333  0.041667    256.000000
 -0.041667  0.208333  0.041667    128.000000
  0.291667  0.291667  0.041667    128.000000
  0.375000  0.291667  0.041667    256.000000
  0.458333  0.291667  0.041667    256.000000
 -0.458333  0.291667  0.041667    256.000000
 -0.375000  0.291667  0.041667    128.000000
 -0.291667  0.291667  0.041667    128.000000
 -0.208333  0.291667  0.041667    256.000000
 -0.125000  0.291667  0.041667    256.000000
 -0.041667  0.291667  0.041667    128.000000
  0.375000  0.375000  0.041667    128.000000
  0.458333  0.375000  0.041667    256.000000
 -0.458333  0.375000  0.041667    128.000000
 -0.375000  0.375000  0.041667    128.000000
 -0.291667  0.375000  0.041667    256.000000
 -0.208333  0.375000  0.041667    256.000000
 -0.125000  0.375000  0.041667    256.000000
 -0.041667  0.375000  0.041667    128.000000
  0.458333  0.458333  0.041667     64.000000
 -0.458333  0.458333  0.041667    128.000000
 -0.375000  0.458333  0.041667    256.000000
 -0.291667  0.458333  0.041667    256.000000
 -0.208333  0.458333  0.041667    256.000000
 -0.125000  0.458333  0.041667    256.000000
 -0.041667  0.458333  0.041667    128.000000
 -0.458333 -0.458333  0.041667    128.000000
 -0.375000 -0.458333  0.041667    256.000000
 -0.291667 -0.458333  0.041667    256.000000
 -0.208333 -0.458333  0.041667    256.000000
 -0.125000 -0.458333  0.041667    256.000000
 -0.041667 -0.458333  0.041667    128.000000
 -0.375000 -0.375000  0.041667    128.000000
 -0.291667 -0.375000  0.041667    256.000000
 -0.208333 -0.375000  0.041667    256.000000
 -0.125000 -0.375000  0.041667    256.000000
 -0.041667 -0.375000  0.041667    128.000000
 -0.291667 -0.291667  0.041667    128.000000
 -0.208333 -0.291667  0.041667    256.000000
 -0.125000 -0.291667  0.041667    256.000000
 -0.041667 -0.291667  0.041667    128.000000
 -0.208333 -0.208333  0.041667    128.000000
 -0.125000 -0.208333  0.041667    256.000000
 -0.041667 -0.208333  0.041667    128.000000
 -0.125000 -0.125000  0.041667    128.000000
 -0.041667 -0.125000  0.041667    128.000000
 -0.041667 -0.041667  0.041667     32.000000
  0.125000  0.125000  0.125000    128.000000
  0.208333  0.125000  0.125000    256.000000
  0.291667  0.125000  0.125000    256.000000
  0.375000  0.125000  0.125000    128.000000
 -0.125000  0.125000  0.125000     64.000000
  0.208333  0.208333  0.125000    128.000000
  0.291667  0.208333  0.125000    256.000000
  0.375000  0.208333  0.125000    256.000000
  0.458333  0.208333  0.125000    256.000000
 -0.458333  0.208333  0.125000    128.000000
 -0.208333  0.208333  0.125000    128.000000
 -0.125000  0.208333  0.125000    128.000000
  0.291667  0.291667  0.125000    128.000000
  0.375000  0.291667  0.125000    256.000000
  0.458333  0.291667  0.125000    128.000000
 -0.291667  0.291667  0.125000    128.000000
 -0.208333  0.291667  0.125000    256.000000
 -0.125000  0.291667  0.125000    128.000000
  0.375000  0.375000  0.125000     64.000000
 -0.375000  0.375000  0.125000    128.000000
 -0.291667  0.375000  0.125000    256.000000
 -0.208333  0.375000  0.125000    256.000000
 -0.125000  0.375000  0.125000    128.000000
 -0.458333  0.458333  0.125000    128.000000
 -0.375000  0.458333  0.125000    256.000000
 -0.291667  0.458333  0.125000    256.000000
 -0.208333  0.458333  0.125000    256.000000
 -0.125000  0.458333  0.125000    128.000000
 -0.458333 -0.458333  0.125000    128.000000
 -0.375000 -0.458333  0.125000    256.000000
 -0.291667 -0.458333  0.125000    256.000000
 -0.208333 -0.458333  0.125000    256.000000
 -0.125000 -0.458333  0.125000    128.000000
 -0.375000 -0.375000  0.125000    128.000000
 -0.291667 -0.375000  0.125000    256.000000
 -0.208333 -0.375000  0.125000    256.000000
 -0.125000 -0.375000  0.125000    128.000000
 -0.291667 -0.291667  0.125000    128.000000
 -0.208333 -0.291667  0.125000    256.000000
 -0.125000 -0.291667  0.125000    128.000000
 -0.208333 -0.208333  0.125000    128.000000
 -0.125000 -0.208333  0.125000    128.000000
 -0.125000 -0.125000  0.125000     32.000000
  0.208333  0.208333  0.208333    128.000000
  0.291667  0.208333  0.208333    128.000000
 -0.208333  0.208333  0.208333     64.000000
  0.291667  0.291667  0.208333     64.000000
 -0.291667  0.291667  0.208333    128.000000
 -0.208333  0.291667  0.208333    128.000000
 -0.375000  0.375000  0.208333    128.000000
 -0.291667  0.375000  0.208333    256.000000
 -0.208333  0.375000  0.208333    128.000000
 -0.458333  0.458333  0.208333    128.000000
 -0.375000  0.458333  0.208333    256.000000
 -0.291667  0.458333  0.208333    256.000000
 -0.208333  0.458333  0.208333    128.000000
 -0.458333 -0.458333  0.208333    128.000000
 -0.375000 -0.458333  0.208333    256.000000
 -0.291667 -0.458333  0.208333    256.000000
 -0.208333 -0.458333  0.208333    128.000000
 -0.375000 -0.375000  0.208333    128.000000
 -0.291667 -0.375000  0.208333    256.000000
 -0.208333 -0.375000  0.208333    128.000000
 -0.291667 -0.291667  0.208333    128.000000
 -0.208333 -0.291667  0.208333    128.000000
 -0.208333 -0.208333  0.208333     32.000000
 -0.291667  0.291667  0.291667     64.000000
 -0.375000  0.375000  0.291667    128.000000
 -0.291667  0.375000  0.291667    128.000000
 -0.458333  0.458333  0.291667    128.000000
 -0.375000  0.458333  0.291667    256.000000
 -0.291667  0.458333  0.291667    128.000000
 -0.458333 -0.458333  0.291667    128.000000
 -0.375000 -0.458333  0.291667    256.000000
 -0.291667 -0.458333  0.291667    128.000000
 -0.375000 -0.375000  0.291667    128.000000
 -0.291667 -0.375000  0.291667    128.000000
 -0.291667 -0.291667  0.291667     32.000000
 -0.375000  0.375000  0.375000     64.000000
 -0.458333  0.458333  0.375000    128.000000
 -0.375000  0.458333  0.375000    128.000000
 -0.458333 -0.458333  0.375000    128.000000
 -0.375000 -0.458333  0.375000    128.000000
 -0.375000 -0.375000  0.375000     32.000000
 -0.458333  0.458333  0.458333     64.000000
 -0.458333 -0.458333  0.458333     32.000000
 
 Following cartesian coordinates:
            Coordinates               Weight
  0.017007  0.017007  0.032705    128.000000
  0.017007  0.034014  0.065411    256.000000
  0.017007  0.051020  0.098116    256.000000
  0.017007  0.068027  0.130822    256.000000
  0.017007  0.085034  0.163527    256.000000
  0.017007  0.102041  0.196232    128.000000
  0.017007 -0.000000  0.000000     64.000000
  0.034014  0.034014  0.098116    128.000000
  0.034014  0.051020  0.130822    256.000000
  0.034014  0.068027  0.163527    256.000000
  0.034014  0.085034  0.196232    256.000000
  0.034014  0.102041  0.228938    256.000000
  0.034014 -0.085034 -0.130822    256.000000
  0.034014 -0.068027 -0.098116    256.000000
  0.034014 -0.051020 -0.065411    256.000000
  0.034014 -0.034014 -0.032705    128.000000
  0.034014 -0.017007  0.000000    128.000000
  0.034014  0.000000  0.032705    128.000000
  0.051020  0.051020  0.163527    128.000000
  0.051020  0.068027  0.196232    256.000000
  0.051020  0.085034  0.228938    256.000000
  0.051020  0.102041  0.261643    256.000000
  0.051020 -0.085034 -0.098116    256.000000
  0.051020 -0.068027 -0.065411    256.000000
  0.051020 -0.051020 -0.032705    128.000000
  0.051020 -0.034014 -0.000000    128.000000
  0.051020 -0.017007  0.032705    256.000000
  0.051020  0.000000  0.065411    128.000000
  0.068027  0.068027  0.228938    128.000000
  0.068027  0.085034  0.261643    256.000000
  0.068027  0.102041  0.294349    256.000000
  0.068027 -0.085034 -0.065411    256.000000
  0.068027 -0.068027 -0.032705    128.000000
  0.068027 -0.051020 -0.000000    128.000000
  0.068027 -0.034014  0.032705    256.000000
  0.068027 -0.017007  0.065411    256.000000
  0.068027  0.000000  0.098116    128.000000
  0.085034  0.085034  0.294349    128.000000
  0.085034  0.102041  0.327054    256.000000
  0.085034 -0.085034 -0.032705    128.000000
  0.085034 -0.068027  0.000000    128.000000
  0.085034 -0.051020  0.032705    256.000000
  0.085034 -0.034014  0.065411    256.000000
  0.085034 -0.017007  0.098116    256.000000
  0.085034  0.000000  0.130822    128.000000
  0.102041  0.102041  0.359759     64.000000
  0.102041 -0.085034 -0.000000    128.000000
  0.102041 -0.068027  0.032705    256.000000
  0.102041 -0.051020  0.065411    256.000000
  0.102041 -0.034014  0.098116    256.000000
  0.102041 -0.017007  0.130822    256.000000
  0.102041  0.000000  0.163527    128.000000
 -0.085034 -0.085034 -0.359759    128.000000
 -0.085034 -0.068027 -0.327054    256.000000
 -0.085034 -0.051020 -0.294349    256.000000
 -0.085034 -0.034014 -0.261643    256.000000
 -0.085034 -0.017007 -0.228938    256.000000
 -0.085034 -0.000000 -0.196232    128.000000
 -0.068027 -0.068027 -0.294349    128.000000
 -0.068027 -0.051020 -0.261643    256.000000
 -0.068027 -0.034014 -0.228938    256.000000
 -0.068027 -0.017007 -0.196232    256.000000
 -0.068027 -0.000000 -0.163527    128.000000
 -0.051020 -0.051020 -0.228938    128.000000
 -0.051020 -0.034014 -0.196232    256.000000
 -0.051020 -0.017007 -0.163527    256.000000
 -0.051020 -0.000000 -0.130822    128.000000
 -0.034014 -0.034014 -0.163527    128.000000
 -0.034014 -0.017007 -0.130822    256.000000
 -0.034014  0.000000 -0.098116    128.000000
 -0.017007 -0.017007 -0.098116    128.000000
 -0.017007 -0.000000 -0.065411    128.000000
 -0.000000  0.000000 -0.032705     32.000000
  0.051020  0.051020  0.098116    128.000000
  0.051020  0.068027  0.130822    256.000000
  0.051020  0.085034  0.163527    256.000000
  0.051020  0.102041  0.196232    128.000000
  0.051020  0.000000  0.000000     64.000000
  0.068027  0.068027  0.163527    128.000000
  0.068027  0.085034  0.196232    256.000000
  0.068027  0.102041  0.228938    256.000000
  0.068027  0.119048  0.261643    256.000000
  0.068027 -0.068027 -0.098116    128.000000
  0.068027 -0.017007 -0.000000    128.000000
  0.068027  0.000000  0.032705    128.000000
  0.085034  0.085034  0.228938    128.000000
  0.085034  0.102041  0.261643    256.000000
  0.085034  0.119048  0.294349    128.000000
  0.085034 -0.034014 -0.000000    128.000000
  0.085034 -0.017007  0.032705    256.000000
  0.085034  0.000000  0.065411    128.000000
  0.102041  0.102041  0.294349     64.000000
  0.102041 -0.051020  0.000000    128.000000
  0.102041 -0.034014  0.032705    256.000000
  0.102041 -0.017007  0.065411    256.000000
  0.102041  0.000000  0.098116    128.000000
  0.119048 -0.068027 -0.000000    128.000000
  0.119048 -0.051020  0.032705    256.000000
  0.119048 -0.034014  0.065411    256.000000
  0.119048 -0.017007  0.098116    256.000000
  0.119048  0.000000  0.130822    128.000000
 -0.068027 -0.068027 -0.359759    128.000000
 -0.068027 -0.051020 -0.327054    256.000000
 -0.068027 -0.034014 -0.294349    256.000000
 -0.068027 -0.017007 -0.261643    256.000000
 -0.068027  0.000000 -0.228938    128.000000
 -0.051020 -0.051020 -0.294349    128.000000
 -0.051020 -0.034014 -0.261643    256.000000
 -0.051020 -0.017007 -0.228938    256.000000
 -0.051020  0.000000 -0.196232    128.000000
 -0.034014 -0.034014 -0.228938    128.000000
 -0.034014 -0.017007 -0.196232    256.000000
 -0.034014  0.000000 -0.163527    128.000000
 -0.017007 -0.017007 -0.163527    128.000000
 -0.017007  0.000000 -0.130822    128.000000
 -0.000000  0.000000 -0.098116     32.000000
  0.085034  0.085034  0.163527    128.000000
  0.085034  0.102041  0.196232    128.000000
  0.085034 -0.000000 -0.000000     64.000000
  0.102041  0.102041  0.228938     64.000000
  0.102041 -0.017007  0.000000    128.000000
  0.102041 -0.000000  0.032705    128.000000
  0.119048 -0.034014  0.000000    128.000000
  0.119048 -0.017007  0.032705    256.000000
  0.119048 -0.000000  0.065411    128.000000
  0.136054 -0.051020 -0.000000    128.000000
  0.136054 -0.034014  0.032705    256.000000
  0.136054 -0.017007  0.065411    256.000000
  0.136054  0.000000  0.098116    128.000000
 -0.051020 -0.051020 -0.359759    128.000000
 -0.051020 -0.034014 -0.327054    256.000000
 -0.051020 -0.017007 -0.294349    256.000000
 -0.051020 -0.000000 -0.261643    128.000000
 -0.034014 -0.034014 -0.294349    128.000000
 -0.034014 -0.017007 -0.261643    256.000000
 -0.034014 -0.000000 -0.228938    128.000000
 -0.017007 -0.017007 -0.228938    128.000000
 -0.017007  0.000000 -0.196232    128.000000
 -0.000000  0.000000 -0.163527     32.000000
  0.119048  0.000000  0.000000     64.000000
  0.136054 -0.017007  0.000000    128.000000
  0.136054  0.000000  0.032705    128.000000
  0.153061 -0.034014 -0.000000    128.000000
  0.153061 -0.017007  0.032705    256.000000
  0.153061  0.000000  0.065411    128.000000
 -0.034014 -0.034014 -0.359759    128.000000
 -0.034014 -0.017007 -0.327054    256.000000
 -0.034014  0.000000 -0.294349    128.000000
 -0.017007 -0.017007 -0.294349    128.000000
 -0.017007  0.000000 -0.261643    128.000000
  0.000000  0.000000 -0.228938     32.000000
  0.153061  0.000000  0.000000     64.000000
  0.170068 -0.017007 -0.000000    128.000000
  0.170068  0.000000  0.032705    128.000000
 -0.017007 -0.017007 -0.359759    128.000000
 -0.017007  0.000000 -0.327054    128.000000
 -0.000000  0.000000 -0.294349     32.000000
  0.187075  0.000000 -0.000000     64.000000
  0.000000  0.000000 -0.359759     32.000000
 


--------------------------------------------------------------------------------------------------------




 Dimension of arrays:
   k-points           NKPTS =    159   k-points in BZ     NKDIM =    159   number of bands    NBANDS=      8
   number of dos      NEDOS =    301   number of ions     NIONS =      2
   non local maximal  LDIM  =      4   non local SUM 2l+1 LMDIM =      8
   total plane-waves  NPLWV =   4096
   max r-space proj   IRMAX =      1   max aug-charges    IRDMAX=   4676
   dimension x,y,z NGX =    16 NGY =   16 NGZ =   16
   dimension x,y,z NGXF=    32 NGYF=   32 NGZF=   32
   support grid    NGXF=    32 NGYF=   32 NGZF=   32
   ions per type =               2
   NGX,Y,Z   is equivalent  to a cutoff of   7.21,  7.21,  7.21 a.u.
   NGXF,Y,Z  is equivalent  to a cutoff of  14.41, 14.41, 14.41 a.u.

 SYSTEM =  unknown system                          
 POSCAR =  Si2                                     

 Startparameter for this run:
   NWRITE =      2    write-flag & timer
   PREC   = normal    normal or accurate (medium, high low for compatibility)
   ISTART =      0    job   : 0-new  1-cont  2-samecut
   ICHARG =      2    charge: 1-file 2-atom 10-const
   ISPIN  =      1    spin polarized calculation?
   LNONCOLLINEAR =      F non collinear calculations
   LSORBIT =      F    spin-orbit coupling
   INIWAV =      1    electr: 0-lowe 1-rand  2-diag
   LASPH  =      F    aspherical Exc in radial PAW
   METAGGA=      F    non-selfconsistent MetaGGA calc.

 Electronic Relaxation 1
   ENCUT  =  300.0 eV  22.05 Ry    4.70 a.u.   5.21  5.21  5.21*2*pi/ulx,y,z
   ENINI  =  300.0     initial cutoff
   ENAUG  =  322.1 eV  augmentation charge cutoff
   NELM   =     60;   NELMIN=  2; NELMDL= -5     # of ELM steps 
   EDIFF  = 0.4E-03   stopping-criterion for ELM
   LREAL  =      F    real-space projection
   NLSPLINE    = F    spline interpolate recip. space projectors
   LCOMPAT=      F    compatible to vasp.4.4
   GGA_COMPAT  = T    GGA compatible to vasp.4.4-vasp.4.6
   LMAXPAW     = -100 max onsite density
   LMAXMIX     =    2 max onsite mixed and CHGCAR
   VOSKOWN=      0    Vosko Wilk Nusair interpolation
   ROPT   =    0.00000
 Ionic relaxation
   EDIFFG = -.1E-01   stopping-criterion for IOM
   NSW    =     15    number of steps for IOM
   NBLOCK =      1;   KBLOCK =     15    inner block; outer block 
   IBRION =      2    ionic relax: 0-MD 1-quasi-New 2-CG
   NFREE  =      1    steps in history (QN), initial steepest desc. (CG)
   ISIF   =      3    stress and relaxation
   IWAVPR =     11    prediction:  0-non 1-charg 2-wave 3-comb
   ISYM   =      2    0-nonsym 1-usesym 2-fastsym
   LCORR  =      T    Harris-Foulkes like correction to forces

   POTIM  = 0.5000    time-step for ionic-motion
   TEIN   =    0.0    initial temperature
   TEBEG  =    0.0;   TEEND  =   0.0 temperature during run
   SMASS  =  -3.00    Nose mass-parameter (am)
   estimated Nose-frequenzy (Omega)   =  0.10E-29 period in steps =****** mass=  -0.311E-27a.u.
   SCALEE = 1.0000    scale energy and forces
   NPACO  =    256;   APACO  = 16.0  distance and # of slots for P.C.
   PSTRESS=    0.0 pullay stress

  Mass of Ions in am
   POMASS =  28.09
  Ionic Valenz
   ZVAL   =   4.00
  Atomic Wigner-Seitz radii
   RWIGS  =  -1.00
  virtual crystal weights 
   VCA    =   1.00
   NELECT =       8.0000    total number of electrons
   NUPDOWN=      -1.0000    fix difference up-down

 DOS related values:
   EMIN   =  10.00;   EMAX   =-10.00  energy-range for DOS
   EFERMI =   0.00
   ISMEAR =     0;   SIGMA  =   0.20  broadening in eV -4-tet -1-fermi 0-gaus

 Electronic relaxation 2 (details)
   IALGO  =     38    algorithm
   LDIAG  =      T    sub-space diagonalisation (order eigenvalues)
   LSUBROT=      F    optimize rotation matrix (better conditioning)
   TURBO    =      0    0=normal 1=particle mesh
   IRESTART =      0    0=no restart 2=restart with 2 vectors
   NREBOOT  =      0    no. of reboots
   NMIN     =      0    reboot dimension
   EREF     =   0.00    reference energy to select bands
   IMIX   =      4    mixing-type and parameters
     AMIX     =   0.40;   BMIX     =  1.00
     AMIX_MAG =   1.60;   BMIX_MAG =  1.00
     AMIN     =   0.10
     WC   =   100.;   INIMIX=   1;  MIXPRE=   1;  MAXMIX= -45

 Intra band minimization:
   WEIMIN = 0.0010     energy-eigenvalue tresh-hold
   EBREAK =  0.13E-04  absolut break condition
   DEPER  =   0.30     relativ break condition  

   TIME   =   0.40     timestep for ELM

  volume/ion in A,a.u.               =      15.29       103.21
  Fermi-wavevector in a.u.,A,eV,Ry     =   1.046930  1.978411 14.912834  1.096062
  Thomas-Fermi vector in A             =   2.181789
 
 Write flags
   LWAVE        =      T    write WAVECAR
   LDOWNSAMPLE  =      F    k-point downsampling of WAVECAR
   LCHARG       =      T    write CHGCAR
   LVTOT        =      F    write LOCPOT, total local potential
   LVHAR        =      F    write LOCPOT, Hartree potential only
   LELF         =      F    write electronic localiz. function (ELF)
   LORBIT       =      0    0 simple, 1 ext, 2 COOP (PROOUT), +10 PAW based schemes


 Dipole corrections
   LMONO  =      F    monopole corrections only (constant potential shift)
   LDIPOL =      F    correct potential (dipole corrections)
   IDIPOL =      0    1-x, 2-y, 3-z, 4-all directions 
   EPSILON=  1.0000000 bulk dielectric constant

 Exchange correlation treatment:
   GGA     =    --    GGA type
   LEXCH   =     8    internal setting for exchange type
   VOSKOWN=      0    Vosko Wilk Nusair interpolation
   LHFCALC =     F    Hartree Fock is set to
   LHFONE  =     F    Hartree Fock one center treatment
   AEXX    =    0.0000 exact exchange contribution

 Linear response parameters
   LEPSILON=     F    determine dielectric tensor
   LRPA    =     F    only Hartree local field effects (RPA)
   LNABLA  =     F    use nabla operator in PAW spheres
   LVEL    =     F    velocity operator in full k-point grid
   LINTERFAST=   F  fast interpolation
   KINTER  =     0    interpolate to denser k-point grid
   CSHIFT  =0.1000    complex shift for real part using Kramers Kronig
   OMEGAMAX=  -1.0    maximum frequency
   DEG_THRESHOLD= 0.2000000E-02 threshold for treating states as degnerate
   RTIME   =   -0.100 relaxation time in fs
  (WPLASMAI=    0.000 imaginary part of plasma frequency in eV, 0.658/RTIME)
   DFIELD  = 0.0000000 0.0000000 0.0000000 field for delta impulse in time
 
 Orbital magnetization related:
   ORBITALMAG=     F  switch on orbital magnetization
   LCHIMAG   =     F  perturbation theory with respect to B field
   DQ        =  0.001000  dq finite difference perturbation B field
   LLRAUG    =     F  two centre corrections for induced B field



--------------------------------------------------------------------------------------------------------


 conjugate gradient relaxation of ions
 charge density and potential will be updated during run
 non-spin polarized calculation
 Variant of blocked Davidson
 Davidson routine will perform the subspace rotation
 perform sub-space diagonalisation
    after iterative eigenvector-optimisation
 modified Broyden-mixing scheme, WC =      100.0
 initial mixing is a Kerker type mixing with AMIX =  0.4000 and BMIX =      1.0000
 Hartree-type preconditioning will be used
 using additional bands            4
 reciprocal scheme for non local part
 use partial core corrections
 calculate Harris-corrections to forces 
   (improved forces if not selfconsistent)
 use gradient corrections 
 use of overlap-Matrix (Vanderbilt PP)
 Gauss-broadening in eV      SIGMA  =   0.20


--------------------------------------------------------------------------------------------------------


  energy-cutoff  :      300.00
  volume of cell :       30.59
      direct lattice vectors                 reciprocal lattice vectors
    -2.450000000  2.450000000  1.274000000     0.000000000  0.204081633  0.392464678
     2.450000000 -2.450000000  1.274000000     0.204081633  0.000000000  0.392464678
     2.450000000  2.450000000 -1.274000000     0.204081633  0.204081633 -0.000000000

  length of vectors
     3.691622408  3.691622408  3.691622408     0.442354876  0.442354876  0.288615013


 
 k-points in units of 2pi/SCALE and weight: Automatic kpoint scheme                 
   0.01700680  0.01700680  0.03270539       0.005
   0.01700680  0.03401361  0.06541078       0.009
   0.01700680  0.05102041  0.09811617       0.009
   0.01700680  0.06802721  0.13082156       0.009
   0.01700680  0.08503401  0.16352695       0.009
   0.01700680  0.10204082  0.19623234       0.005
   0.01700680 -0.00000000 -0.00000000       0.002
   0.03401361  0.03401361  0.09811617       0.005
   0.03401361  0.05102041  0.13082156       0.009
   0.03401361  0.06802721  0.16352695       0.009
   0.03401361  0.08503401  0.19623234       0.009
   0.03401361  0.10204082  0.22893773       0.009
   0.03401361 -0.08503401 -0.13082156       0.009
   0.03401361 -0.06802721 -0.09811617       0.009
   0.03401361 -0.05102041 -0.06541078       0.009
   0.03401361 -0.03401361 -0.03270539       0.005
   0.03401361 -0.01700680 -0.00000000       0.005
   0.03401361  0.00000000  0.03270539       0.005
   0.05102041  0.05102041  0.16352695       0.005
   0.05102041  0.06802721  0.19623234       0.009
   0.05102041  0.08503401  0.22893773       0.009
   0.05102041  0.10204082  0.26164312       0.009
   0.05102041 -0.08503401 -0.09811617       0.009
   0.05102041 -0.06802721 -0.06541078       0.009
   0.05102041 -0.05102041 -0.03270539       0.005
   0.05102041 -0.03401361 -0.00000000       0.005
   0.05102041 -0.01700680  0.03270539       0.009
   0.05102041  0.00000000  0.06541078       0.005
   0.06802721  0.06802721  0.22893773       0.005
   0.06802721  0.08503401  0.26164312       0.009
   0.06802721  0.10204082  0.29434851       0.009
   0.06802721 -0.08503401 -0.06541078       0.009
   0.06802721 -0.06802721 -0.03270539       0.005
   0.06802721 -0.05102041 -0.00000000       0.005
   0.06802721 -0.03401361  0.03270539       0.009
   0.06802721 -0.01700680  0.06541078       0.009
   0.06802721  0.00000000  0.09811617       0.005
   0.08503401  0.08503401  0.29434851       0.005
   0.08503401  0.10204082  0.32705390       0.009
   0.08503401 -0.08503401 -0.03270539       0.005
   0.08503401 -0.06802721  0.00000000       0.005
   0.08503401 -0.05102041  0.03270539       0.009
   0.08503401 -0.03401361  0.06541078       0.009
   0.08503401 -0.01700680  0.09811617       0.009
   0.08503401  0.00000000  0.13082156       0.005
   0.10204082  0.10204082  0.35975929       0.002
   0.10204082 -0.08503401 -0.00000000       0.005
   0.10204082 -0.06802721  0.03270539       0.009
   0.10204082 -0.05102041  0.06541078       0.009
   0.10204082 -0.03401361  0.09811617       0.009
   0.10204082 -0.01700680  0.13082156       0.009
   0.10204082  0.00000000  0.16352695       0.005
  -0.08503401 -0.08503401 -0.35975929       0.005
  -0.08503401 -0.06802721 -0.32705390       0.009
  -0.08503401 -0.05102041 -0.29434851       0.009
  -0.08503401 -0.03401361 -0.26164312       0.009
  -0.08503401 -0.01700680 -0.22893773       0.009
  -0.08503401 -0.00000000 -0.19623234       0.005
  -0.06802721 -0.06802721 -0.29434851       0.005
  -0.06802721 -0.05102041 -0.26164312       0.009
  -0.06802721 -0.03401361 -0.22893773       0.009
  -0.06802721 -0.01700680 -0.19623234       0.009
  -0.06802721 -0.00000000 -0.16352695       0.005
  -0.05102041 -0.05102041 -0.22893773       0.005
  -0.05102041 -0.03401361 -0.19623234       0.009
  -0.05102041 -0.01700680 -0.16352695       0.009
  -0.05102041 -0.00000000 -0.13082156       0.005
  -0.03401361 -0.03401361 -0.16352695       0.005
  -0.03401361 -0.01700680 -0.13082156       0.009
  -0.03401361 -0.00000000 -0.09811617       0.005
  -0.01700680 -0.01700680 -0.09811617       0.005
  -0.01700680 -0.00000000 -0.06541078       0.005
   0.00000000  0.00000000 -0.03270539       0.001
   0.05102041  0.05102041  0.09811617       0.005
   0.05102041  0.06802721  0.13082156       0.009
   0.05102041  0.08503401  0.16352695       0.009
   0.05102041  0.10204082  0.19623234       0.005
   0.05102041  0.00000000 -0.00000000       0.002
   0.06802721  0.06802721  0.16352695       0.005
   0.06802721  0.08503401  0.19623234       0.009
   0.06802721  0.10204082  0.22893773       0.009
   0.06802721  0.11904762  0.26164312       0.009
   0.06802721 -0.06802721 -0.09811617       0.005
   0.06802721 -0.01700680 -0.00000000       0.005
   0.06802721  0.00000000  0.03270539       0.005
   0.08503401  0.08503401  0.22893773       0.005
   0.08503401  0.10204082  0.26164312       0.009
   0.08503401  0.11904762  0.29434851       0.005
   0.08503401 -0.03401361 -0.00000000       0.005
   0.08503401 -0.01700680  0.03270539       0.009
   0.08503401  0.00000000  0.06541078       0.005
   0.10204082  0.10204082  0.29434851       0.002
   0.10204082 -0.05102041  0.00000000       0.005
   0.10204082 -0.03401361  0.03270539       0.009
   0.10204082 -0.01700680  0.06541078       0.009
   0.10204082  0.00000000  0.09811617       0.005
   0.11904762 -0.06802721 -0.00000000       0.005
   0.11904762 -0.05102041  0.03270539       0.009
   0.11904762 -0.03401361  0.06541078       0.009
   0.11904762 -0.01700680  0.09811617       0.009
   0.11904762  0.00000000  0.13082156       0.005
  -0.06802721 -0.06802721 -0.35975929       0.005
  -0.06802721 -0.05102041 -0.32705390       0.009
  -0.06802721 -0.03401361 -0.29434851       0.009
  -0.06802721 -0.01700680 -0.26164312       0.009
  -0.06802721  0.00000000 -0.22893773       0.005
  -0.05102041 -0.05102041 -0.29434851       0.005
  -0.05102041 -0.03401361 -0.26164312       0.009
  -0.05102041 -0.01700680 -0.22893773       0.009
  -0.05102041  0.00000000 -0.19623234       0.005
  -0.03401361 -0.03401361 -0.22893773       0.005
  -0.03401361 -0.01700680 -0.19623234       0.009
  -0.03401361 -0.00000000 -0.16352695       0.005
  -0.01700680 -0.01700680 -0.16352695       0.005
  -0.01700680 -0.00000000 -0.13082156       0.005
   0.00000000  0.00000000 -0.09811617       0.001
   0.08503401  0.08503401  0.16352695       0.005
   0.08503401  0.10204082  0.19623234       0.005
   0.08503401 -0.00000000 -0.00000000       0.002
   0.10204082  0.10204082  0.22893773       0.002
   0.10204082 -0.01700680 -0.00000000       0.005
   0.10204082 -0.00000000  0.03270539       0.005
   0.11904762 -0.03401361  0.00000000       0.005
   0.11904762 -0.01700680  0.03270539       0.009
   0.11904762 -0.00000000  0.06541078       0.005
   0.13605442 -0.05102041 -0.00000000       0.005
   0.13605442 -0.03401361  0.03270539       0.009
   0.13605442 -0.01700680  0.06541078       0.009
   0.13605442 -0.00000000  0.09811617       0.005
  -0.05102041 -0.05102041 -0.35975929       0.005
  -0.05102041 -0.03401361 -0.32705390       0.009
  -0.05102041 -0.01700680 -0.29434851       0.009
  -0.05102041 -0.00000000 -0.26164312       0.005
  -0.03401361 -0.03401361 -0.29434851       0.005
  -0.03401361 -0.01700680 -0.26164312       0.009
  -0.03401361 -0.00000000 -0.22893773       0.005
  -0.01700680 -0.01700680 -0.22893773       0.005
  -0.01700680 -0.00000000 -0.19623234       0.005
   0.00000000  0.00000000 -0.16352695       0.001
   0.11904762  0.00000000 -0.00000000       0.002
   0.13605442 -0.01700680  0.00000000       0.005
   0.13605442  0.00000000  0.03270539       0.005
   0.15306122 -0.03401361 -0.00000000       0.005
   0.15306122 -0.01700680  0.03270539       0.009
   0.15306122  0.00000000  0.06541078       0.005
  -0.03401361 -0.03401361 -0.35975929       0.005
  -0.03401361 -0.01700680 -0.32705390       0.009
  -0.03401361 -0.00000000 -0.29434851       0.005
  -0.01700680 -0.01700680 -0.29434851       0.005
  -0.01700680  0.00000000 -0.26164312       0.005
   0.00000000  0.00000000 -0.22893773       0.001
   0.15306122  0.00000000  0.00000000       0.002
   0.17006803 -0.01700680 -0.00000000       0.005
   0.17006803  0.00000000  0.03270539       0.005
  -0.01700680 -0.01700680 -0.35975929       0.005
  -0.01700680  0.00000000 -0.32705390       0.005
   0.00000000 -0.00000000 -0.29434851       0.001
   0.18707483  0.00000000 -0.00000000       0.002
   0.00000000 -0.00000000 -0.35975929       0.001
 
 k-points in reciprocal lattice and weights: Automatic kpoint scheme                 
   0.04166667  0.04166667  0.04166667       0.005
   0.12500000  0.04166667  0.04166667       0.009
   0.20833333  0.04166667  0.04166667       0.009
   0.29166667  0.04166667  0.04166667       0.009
   0.37500000  0.04166667  0.04166667       0.009
   0.45833333  0.04166667  0.04166667       0.005
  -0.04166667  0.04166667  0.04166667       0.002
   0.12500000  0.12500000  0.04166667       0.005
   0.20833333  0.12500000  0.04166667       0.009
   0.29166667  0.12500000  0.04166667       0.009
   0.37500000  0.12500000  0.04166667       0.009
   0.45833333  0.12500000  0.04166667       0.009
  -0.45833333  0.12500000  0.04166667       0.009
  -0.37500000  0.12500000  0.04166667       0.009
  -0.29166667  0.12500000  0.04166667       0.009
  -0.20833333  0.12500000  0.04166667       0.005
  -0.12500000  0.12500000  0.04166667       0.005
  -0.04166667  0.12500000  0.04166667       0.005
   0.20833333  0.20833333  0.04166667       0.005
   0.29166667  0.20833333  0.04166667       0.009
   0.37500000  0.20833333  0.04166667       0.009
   0.45833333  0.20833333  0.04166667       0.009
  -0.45833333  0.20833333  0.04166667       0.009
  -0.37500000  0.20833333  0.04166667       0.009
  -0.29166667  0.20833333  0.04166667       0.005
  -0.20833333  0.20833333  0.04166667       0.005
  -0.12500000  0.20833333  0.04166667       0.009
  -0.04166667  0.20833333  0.04166667       0.005
   0.29166667  0.29166667  0.04166667       0.005
   0.37500000  0.29166667  0.04166667       0.009
   0.45833333  0.29166667  0.04166667       0.009
  -0.45833333  0.29166667  0.04166667       0.009
  -0.37500000  0.29166667  0.04166667       0.005
  -0.29166667  0.29166667  0.04166667       0.005
  -0.20833333  0.29166667  0.04166667       0.009
  -0.12500000  0.29166667  0.04166667       0.009
  -0.04166667  0.29166667  0.04166667       0.005
   0.37500000  0.37500000  0.04166667       0.005
   0.45833333  0.37500000  0.04166667       0.009
  -0.45833333  0.37500000  0.04166667       0.005
  -0.37500000  0.37500000  0.04166667       0.005
  -0.29166667  0.37500000  0.04166667       0.009
  -0.20833333  0.37500000  0.04166667       0.009
  -0.12500000  0.37500000  0.04166667       0.009
  -0.04166667  0.37500000  0.04166667       0.005
   0.45833333  0.45833333  0.04166667       0.002
  -0.45833333  0.45833333  0.04166667       0.005
  -0.37500000  0.45833333  0.04166667       0.009
  -0.29166667  0.45833333  0.04166667       0.009
  -0.20833333  0.45833333  0.04166667       0.009
  -0.12500000  0.45833333  0.04166667       0.009
  -0.04166667  0.45833333  0.04166667       0.005
  -0.45833333 -0.45833333  0.04166667       0.005
  -0.37500000 -0.45833333  0.04166667       0.009
  -0.29166667 -0.45833333  0.04166667       0.009
  -0.20833333 -0.45833333  0.04166667       0.009
  -0.12500000 -0.45833333  0.04166667       0.009
  -0.04166667 -0.45833333  0.04166667       0.005
  -0.37500000 -0.37500000  0.04166667       0.005
  -0.29166667 -0.37500000  0.04166667       0.009
  -0.20833333 -0.37500000  0.04166667       0.009
  -0.12500000 -0.37500000  0.04166667       0.009
  -0.04166667 -0.37500000  0.04166667       0.005
  -0.29166667 -0.29166667  0.04166667       0.005
  -0.20833333 -0.29166667  0.04166667       0.009
  -0.12500000 -0.29166667  0.04166667       0.009
  -0.04166667 -0.29166667  0.04166667       0.005
  -0.20833333 -0.20833333  0.04166667       0.005
  -0.12500000 -0.20833333  0.04166667       0.009
  -0.04166667 -0.20833333  0.04166667       0.005
  -0.12500000 -0.12500000  0.04166667       0.005
  -0.04166667 -0.12500000  0.04166667       0.005
  -0.04166667 -0.04166667  0.04166667       0.001
   0.12500000  0.12500000  0.12500000       0.005
   0.20833333  0.12500000  0.12500000       0.009
   0.29166667  0.12500000  0.12500000       0.009
   0.37500000  0.12500000  0.12500000       0.005
  -0.12500000  0.12500000  0.12500000       0.002
   0.20833333  0.20833333  0.12500000       0.005
   0.29166667  0.20833333  0.12500000       0.009
   0.37500000  0.20833333  0.12500000       0.009
   0.45833333  0.20833333  0.12500000       0.009
  -0.45833333  0.20833333  0.12500000       0.005
  -0.20833333  0.20833333  0.12500000       0.005
  -0.12500000  0.20833333  0.12500000       0.005
   0.29166667  0.29166667  0.12500000       0.005
   0.37500000  0.29166667  0.12500000       0.009
   0.45833333  0.29166667  0.12500000       0.005
  -0.29166667  0.29166667  0.12500000       0.005
  -0.20833333  0.29166667  0.12500000       0.009
  -0.12500000  0.29166667  0.12500000       0.005
   0.37500000  0.37500000  0.12500000       0.002
  -0.37500000  0.37500000  0.12500000       0.005
  -0.29166667  0.37500000  0.12500000       0.009
  -0.20833333  0.37500000  0.12500000       0.009
  -0.12500000  0.37500000  0.12500000       0.005
  -0.45833333  0.45833333  0.12500000       0.005
  -0.37500000  0.45833333  0.12500000       0.009
  -0.29166667  0.45833333  0.12500000       0.009
  -0.20833333  0.45833333  0.12500000       0.009
  -0.12500000  0.45833333  0.12500000       0.005
  -0.45833333 -0.45833333  0.12500000       0.005
  -0.37500000 -0.45833333  0.12500000       0.009
  -0.29166667 -0.45833333  0.12500000       0.009
  -0.20833333 -0.45833333  0.12500000       0.009
  -0.12500000 -0.45833333  0.12500000       0.005
  -0.37500000 -0.37500000  0.12500000       0.005
  -0.29166667 -0.37500000  0.12500000       0.009
  -0.20833333 -0.37500000  0.12500000       0.009
  -0.12500000 -0.37500000  0.12500000       0.005
  -0.29166667 -0.29166667  0.12500000       0.005
  -0.20833333 -0.29166667  0.12500000       0.009
  -0.12500000 -0.29166667  0.12500000       0.005
  -0.20833333 -0.20833333  0.12500000       0.005
  -0.12500000 -0.20833333  0.12500000       0.005
  -0.12500000 -0.12500000  0.12500000       0.001
   0.20833333  0.20833333  0.20833333       0.005
   0.29166667  0.20833333  0.20833333       0.005
  -0.20833333  0.20833333  0.20833333       0.002
   0.29166667  0.29166667  0.20833333       0.002
  -0.29166667  0.29166667  0.20833333       0.005
  -0.20833333  0.29166667  0.20833333       0.005
  -0.37500000  0.37500000  0.20833333       0.005
  -0.29166667  0.37500000  0.20833333       0.009
  -0.20833333  0.37500000  0.20833333       0.005
  -0.45833333  0.45833333  0.20833333       0.005
  -0.37500000  0.45833333  0.20833333       0.009
  -0.29166667  0.45833333  0.20833333       0.009
  -0.20833333  0.45833333  0.20833333       0.005
  -0.45833333 -0.45833333  0.20833333       0.005
  -0.37500000 -0.45833333  0.20833333       0.009
  -0.29166667 -0.45833333  0.20833333       0.009
  -0.20833333 -0.45833333  0.20833333       0.005
  -0.37500000 -0.37500000  0.20833333       0.005
  -0.29166667 -0.37500000  0.20833333       0.009
  -0.20833333 -0.37500000  0.20833333       0.005
  -0.29166667 -0.29166667  0.20833333       0.005
  -0.20833333 -0.29166667  0.20833333       0.005
  -0.20833333 -0.20833333  0.20833333       0.001
  -0.29166667  0.29166667  0.29166667       0.002
  -0.37500000  0.37500000  0.29166667       0.005
  -0.29166667  0.37500000  0.29166667       0.005
  -0.45833333  0.45833333  0.29166667       0.005
  -0.37500000  0.45833333  0.29166667       0.009
  -0.29166667  0.45833333  0.29166667       0.005
  -0.45833333 -0.45833333  0.29166667       0.005
  -0.37500000 -0.45833333  0.29166667       0.009
  -0.29166667 -0.45833333  0.29166667       0.005
  -0.37500000 -0.37500000  0.29166667       0.005
  -0.29166667 -0.37500000  0.29166667       0.005
  -0.29166667 -0.29166667  0.29166667       0.001
  -0.37500000  0.37500000  0.37500000       0.002
  -0.45833333  0.45833333  0.37500000       0.005
  -0.37500000  0.45833333  0.37500000       0.005
  -0.45833333 -0.45833333  0.37500000       0.005
  -0.37500000 -0.45833333  0.37500000       0.005
  -0.37500000 -0.37500000  0.37500000       0.001
  -0.45833333  0.45833333  0.45833333       0.002
  -0.45833333 -0.45833333  0.45833333       0.001
 
 position of ions in fractional coordinates (direct lattice) 
   0.25000000  0.75000000  0.50000000
   0.00000000  0.00000000  0.00000000
 
 position of ions in cartesian coordinates  (Angst):
   2.45000000  0.00000000  0.63700000
   0.00000000  0.00000000  0.00000000
 


--------------------------------------------------------------------------------------------------------


 k-point  1 :   0.0417 0.0417 0.0417  plane waves:     354
 k-point  2 :   0.1250 0.0417 0.0417  plane waves:     360
 k-point  3 :   0.2083 0.0417 0.0417  plane waves:     360
 k-point  4 :   0.2917 0.0417 0.0417  plane waves:     360
 k-point  5 :   0.3750 0.0417 0.0417  plane waves:     359
 k-point  6 :   0.4583 0.0417 0.0417  plane waves:     364
 k-point  7 :  -0.0417 0.0417 0.0417  plane waves:     355
 k-point  8 :   0.1250 0.1250 0.0417  plane waves:     360
 k-point  9 :   0.2083 0.1250 0.0417  plane waves:     359
 k-point 10 :   0.2917 0.1250 0.0417  plane waves:     358
 k-point 11 :   0.3750 0.1250 0.0417  plane waves:     362
 k-point 12 :   0.4583 0.1250 0.0417  plane waves:     360
 k-point 13 :  -0.4583 0.1250 0.0417  plane waves:     363
 k-point 14 :  -0.3750 0.1250 0.0417  plane waves:     363
 k-point 15 :  -0.2917 0.1250 0.0417  plane waves:     361
 k-point 16 :  -0.2083 0.1250 0.0417  plane waves:     362
 k-point 17 :  -0.1250 0.1250 0.0417  plane waves:     364
 k-point 18 :  -0.0417 0.1250 0.0417  plane waves:     360
 k-point 19 :   0.2083 0.2083 0.0417  plane waves:     361
 k-point 20 :   0.2917 0.2083 0.0417  plane waves:     359
 k-point 21 :   0.3750 0.2083 0.0417  plane waves:     359
 k-point 22 :   0.4583 0.2083 0.0417  plane waves:     358
 k-point 23 :  -0.4583 0.2083 0.0417  plane waves:     361
 k-point 24 :  -0.3750 0.2083 0.0417  plane waves:     365
 k-point 25 :  -0.2917 0.2083 0.0417  plane waves:     364
 k-point 26 :  -0.2083 0.2083 0.0417  plane waves:     360
 k-point 27 :  -0.1250 0.2083 0.0417  plane waves:     362
 k-point 28 :  -0.0417 0.2083 0.0417  plane waves:     358
 k-point 29 :   0.2917 0.2917 0.0417  plane waves:     363
 k-point 30 :   0.3750 0.2917 0.0417  plane waves:     360
 k-point 31 :   0.4583 0.2917 0.0417  plane waves:     361
 k-point 32 :  -0.4583 0.2917 0.0417  plane waves:     364
 k-point 33 :  -0.3750 0.2917 0.0417  plane waves:     366
 k-point 34 :  -0.2917 0.2917 0.0417  plane waves:     368
 k-point 35 :  -0.2083 0.2917 0.0417  plane waves:     364
 k-point 36 :  -0.1250 0.2917 0.0417  plane waves:     363
 k-point 37 :  -0.0417 0.2917 0.0417  plane waves:     360
 k-point 38 :   0.3750 0.3750 0.0417  plane waves:     364
 k-point 39 :   0.4583 0.3750 0.0417  plane waves:     361
 k-point 40 :  -0.4583 0.3750 0.0417  plane waves:     372
 k-point 41 :  -0.3750 0.3750 0.0417  plane waves:     372
 k-point 42 :  -0.2917 0.3750 0.0417  plane waves:     370
 k-point 43 :  -0.2083 0.3750 0.0417  plane waves:     364
 k-point 44 :  -0.1250 0.3750 0.0417  plane waves:     358
 k-point 45 :  -0.0417 0.3750 0.0417  plane waves:     359
 k-point 46 :   0.4583 0.4583 0.0417  plane waves:     370
 k-point 47 :  -0.4583 0.4583 0.0417  plane waves:     373
 k-point 48 :  -0.3750 0.4583 0.0417  plane waves:     367
 k-point 49 :  -0.2917 0.4583 0.0417  plane waves:     366
 k-point 50 :  -0.2083 0.4583 0.0417  plane waves:     361
 k-point 51 :  -0.1250 0.4583 0.0417  plane waves:     362
 k-point 52 :  -0.0417 0.4583 0.0417  plane waves:     363
 k-point 53 :  -0.4583-0.4583 0.0417  plane waves:     365
 k-point 54 :  -0.3750-0.4583 0.0417  plane waves:     363
 k-point 55 :  -0.2917-0.4583 0.0417  plane waves:     363
 k-point 56 :  -0.2083-0.4583 0.0417  plane waves:     360
 k-point 57 :  -0.1250-0.4583 0.0417  plane waves:     360
 k-point 58 :  -0.0417-0.4583 0.0417  plane waves:     356
 k-point 59 :  -0.3750-0.3750 0.0417  plane waves:     367
 k-point 60 :  -0.2917-0.3750 0.0417  plane waves:     359
 k-point 61 :  -0.2083-0.3750 0.0417  plane waves:     357
 k-point 62 :  -0.1250-0.3750 0.0417  plane waves:     356
 k-point 63 :  -0.0417-0.3750 0.0417  plane waves:     357
 k-point 64 :  -0.2917-0.2917 0.0417  plane waves:     359
 k-point 65 :  -0.2083-0.2917 0.0417  plane waves:     356
 k-point 66 :  -0.1250-0.2917 0.0417  plane waves:     357
 k-point 67 :  -0.0417-0.2917 0.0417  plane waves:     357
 k-point 68 :  -0.2083-0.2083 0.0417  plane waves:     351
 k-point 69 :  -0.1250-0.2083 0.0417  plane waves:     354
 k-point 70 :  -0.0417-0.2083 0.0417  plane waves:     355
 k-point 71 :  -0.1250-0.1250 0.0417  plane waves:     359
 k-point 72 :  -0.0417-0.1250 0.0417  plane waves:     360
 k-point 73 :  -0.0417-0.0417 0.0417  plane waves:     347
 k-point 74 :   0.1250 0.1250 0.1250  plane waves:     369
 k-point 75 :   0.2083 0.1250 0.1250  plane waves:     360
 k-point 76 :   0.2917 0.1250 0.1250  plane waves:     357
 k-point 77 :   0.3750 0.1250 0.1250  plane waves:     358
 k-point 78 :  -0.1250 0.1250 0.1250  plane waves:     369
 k-point 79 :   0.2083 0.2083 0.1250  plane waves:     355
 k-point 80 :   0.2917 0.2083 0.1250  plane waves:     359
 k-point 81 :   0.3750 0.2083 0.1250  plane waves:     358
 k-point 82 :   0.4583 0.2083 0.1250  plane waves:     360
 k-point 83 :  -0.4583 0.2083 0.1250  plane waves:     364
 k-point 84 :  -0.2083 0.2083 0.1250  plane waves:     362
 k-point 85 :  -0.1250 0.2083 0.1250  plane waves:     361
 k-point 86 :   0.2917 0.2917 0.1250  plane waves:     356
 k-point 87 :   0.3750 0.2917 0.1250  plane waves:     360
 k-point 88 :   0.4583 0.2917 0.1250  plane waves:     360
 k-point 89 :  -0.2917 0.2917 0.1250  plane waves:     364
 k-point 90 :  -0.2083 0.2917 0.1250  plane waves:     365
 k-point 91 :  -0.1250 0.2917 0.1250  plane waves:     364
 k-point 92 :   0.3750 0.3750 0.1250  plane waves:     360
 k-point 93 :  -0.3750 0.3750 0.1250  plane waves:     365
 k-point 94 :  -0.2917 0.3750 0.1250  plane waves:     365
 k-point 95 :  -0.2083 0.3750 0.1250  plane waves:     363
 k-point 96 :  -0.1250 0.3750 0.1250  plane waves:     356
 k-point 97 :  -0.4583 0.4583 0.1250  plane waves:     367
 k-point 98 :  -0.3750 0.4583 0.1250  plane waves:     360
 k-point 99 :  -0.2917 0.4583 0.1250  plane waves:     364
 k-point ** :  -0.2083 0.4583 0.1250  plane waves:     360
 k-point ** :  -0.1250 0.4583 0.1250  plane waves:     360
 k-point ** :  -0.4583-0.4583 0.1250  plane waves:     364
 k-point ** :  -0.3750-0.4583 0.1250  plane waves:     364
 k-point ** :  -0.2917-0.4583 0.1250  plane waves:     364
 k-point ** :  -0.2083-0.4583 0.1250  plane waves:     358
 k-point ** :  -0.1250-0.4583 0.1250  plane waves:     361
 k-point ** :  -0.3750-0.3750 0.1250  plane waves:     361
 k-point ** :  -0.2917-0.3750 0.1250  plane waves:     360
 k-point ** :  -0.2083-0.3750 0.1250  plane waves:     356
 k-point ** :  -0.1250-0.3750 0.1250  plane waves:     358
 k-point ** :  -0.2917-0.2917 0.1250  plane waves:     352
 k-point ** :  -0.2083-0.2917 0.1250  plane waves:     356
 k-point ** :  -0.1250-0.2917 0.1250  plane waves:     352
 k-point ** :  -0.2083-0.2083 0.1250  plane waves:     348
 k-point ** :  -0.1250-0.2083 0.1250  plane waves:     359
 k-point ** :  -0.1250-0.1250 0.1250  plane waves:     363
 k-point ** :   0.2083 0.2083 0.2083  plane waves:     357
 k-point ** :   0.2917 0.2083 0.2083  plane waves:     354
 k-point ** :  -0.2083 0.2083 0.2083  plane waves:     361
 k-point ** :   0.2917 0.2917 0.2083  plane waves:     354
 k-point ** :  -0.2917 0.2917 0.2083  plane waves:     362
 k-point ** :  -0.2083 0.2917 0.2083  plane waves:     367
 k-point ** :  -0.3750 0.3750 0.2083  plane waves:     362
 k-point ** :  -0.2917 0.3750 0.2083  plane waves:     361
 k-point ** :  -0.2083 0.3750 0.2083  plane waves:     362
 k-point ** :  -0.4583 0.4583 0.2083  plane waves:     361
 k-point ** :  -0.3750 0.4583 0.2083  plane waves:     361
 k-point ** :  -0.2917 0.4583 0.2083  plane waves:     362
 k-point ** :  -0.2083 0.4583 0.2083  plane waves:     361
 k-point ** :  -0.4583-0.4583 0.2083  plane waves:     361
 k-point ** :  -0.3750-0.4583 0.2083  plane waves:     363
 k-point ** :  -0.2917-0.4583 0.2083  plane waves:     361
 k-point ** :  -0.2083-0.4583 0.2083  plane waves:     359
 k-point ** :  -0.3750-0.3750 0.2083  plane waves:     362
 k-point ** :  -0.2917-0.3750 0.2083  plane waves:     359
 k-point ** :  -0.2083-0.3750 0.2083  plane waves:     356
 k-point ** :  -0.2917-0.2917 0.2083  plane waves:     360
 k-point ** :  -0.2083-0.2917 0.2083  plane waves:     351
 k-point ** :  -0.2083-0.2083 0.2083  plane waves:     348
 k-point ** :  -0.2917 0.2917 0.2917  plane waves:     359
 k-point ** :  -0.3750 0.3750 0.2917  plane waves:     360
 k-point ** :  -0.2917 0.3750 0.2917  plane waves:     362
 k-point ** :  -0.4583 0.4583 0.2917  plane waves:     362
 k-point ** :  -0.3750 0.4583 0.2917  plane waves:     364
 k-point ** :  -0.2917 0.4583 0.2917  plane waves:     363
 k-point ** :  -0.4583-0.4583 0.2917  plane waves:     363
 k-point ** :  -0.3750-0.4583 0.2917  plane waves:     364
 k-point ** :  -0.2917-0.4583 0.2917  plane waves:     363
 k-point ** :  -0.3750-0.3750 0.2917  plane waves:     364
 k-point ** :  -0.2917-0.3750 0.2917  plane waves:     362
 k-point ** :  -0.2917-0.2917 0.2917  plane waves:     364
 k-point ** :  -0.3750 0.3750 0.3750  plane waves:     361
 k-point ** :  -0.4583 0.4583 0.3750  plane waves:     362
 k-point ** :  -0.3750 0.4583 0.3750  plane waves:     364
 k-point ** :  -0.4583-0.4583 0.3750  plane waves:     364
 k-point ** :  -0.3750-0.4583 0.3750  plane waves:     366
 k-point ** :  -0.3750-0.3750 0.3750  plane waves:     360
 k-point ** :  -0.4583 0.4583 0.4583  plane waves:     361
 k-point ** :  -0.4583-0.4583 0.4583  plane waves:     364

 maximum and minimum number of plane-waves per node :       373      347

 maximum number of plane-waves:       373
 maximum index in each direction: 
   IXMAX=    5   IYMAX=    5   IZMAX=    5
   IXMIN=   -5   IYMIN=   -5   IZMIN=   -5


 serial   3D FFT for wavefunctions
 parallel 3D FFT for charge:
    minimum data exchange during FFTs selected (reduces bandwidth)


 total amount of memory used by VASP MPI-rank0    35373. kBytes
=======================================================================

   base      :      30000. kBytes
   nonl-proj :       3838. kBytes
   fftplans  :        160. kBytes
   grid      :        372. kBytes
   one-center:          6. kBytes
   wavefun   :        997. kBytes
 
     INWAV:  cpu time    0.0000: real time    0.0003
 Broyden mixing: mesh for mixing (old mesh)
   NGX = 11   NGY = 11   NGZ = 11
  (NGX  = 32   NGY  = 32   NGZ  = 32)
  gives a total of   1331 points

 initial charge density was supplied:
 charge density of overlapping atoms calculated
 number of electron       8.0000000 magnetization 
 keeping initial charge density in first step


--------------------------------------------------------------------------------------------------------


 Maximum index for augmentation-charges          547 (set IRDMAX)


--------------------------------------------------------------------------------------------------------


 First call to EWALD:  gamma=   0.567
 Maximum number of real-space cells 4x 4x 3
 Maximum number of reciprocal cells 3x 3x 3

    FEWALD:  cpu time    0.0080: real time    0.0071


--------------------------------------- Iteration      1(   1)  ---------------------------------------


    POTLOK:  cpu time    0.0320: real time    0.0418
    SETDIJ:  cpu time    0.0080: real time    0.0089
     EDDAV:  cpu time    1.3200: real time    1.3243
       DOS:  cpu time    0.0040: real time    0.0065
    --------------------------------------------
      LOOP:  cpu time    1.3640: real time    1.3824

 eigenvalue-minimisations  :  2600
 total energy-change (2. order) : 0.9377465E-01  (-0.2592602E+03)
 number of electron       8.0000000 magnetization 
 augmentation part        8.0000000 magnetization 

 Free energy of the ion-electron system (eV)
  ---------------------------------------------------
  alpha Z        PSCENC =         4.40202223
  Ewald energy   TEWEN  =      -265.18101312
  -Hartree energ DENC   =        -2.30415367
  -exchange      EXHF   =         0.00000000
  -V(xc)+E(xc)   XCENC  =       -17.81548033
  PAW double counting   =        65.95520812      -30.76852678
  entropy T*S    EENTRO =        -0.01689921
  eigenvalues    EBANDS =        39.69293154
  atomic energy  EATOM  =       206.12968587
  Solvation  Ediel_sol  =         0.00000000
  ---------------------------------------------------
  free energy    TOTEN  =         0.09377465 eV

  energy without entropy =        0.11067387  energy(sigma->0) =        0.10222426


--------------------------------------------------------------------------------------------------------




--------------------------------------- Iteration      1(   2)  ---------------------------------------


     EDDAV:  cpu time    2.0200: real time    2.0343
       DOS:  cpu time    0.0080: real time    0.0067
    --------------------------------------------
      LOOP:  cpu time    2.0280: real time    2.0408

 eigenvalue-minimisations  :  3872
 total energy-change (2. order) :-0.1023193E+02  (-0.9899042E+01)
 number of electron       8.0000000 magnetization 
 augmentation part        8.0000000 magnetization 

 Free energy of the ion-electron system (eV)
  ---------------------------------------------------
  alpha Z        PSCENC =         4.40202223
  Ewald energy   TEWEN  =      -265.18101312
  -Hartree energ DENC   =        -2.30415367
  -exchange      EXHF   =         0.00000000
  -V(xc)+E(xc)   XCENC  =       -17.81548033
  PAW double counting   =        65.95520812      -30.76852678
  entropy T*S    EENTRO =        -0.01378026
  eigenvalues    EBANDS =        29.45788505
  atomic energy  EATOM  =       206.12968587
  Solvation  Ediel_sol  =         0.00000000
  ---------------------------------------------------
  free energy    TOTEN  =       -10.13815289 eV

  energy without entropy =      -10.12437263  energy(sigma->0) =      -10.13126276


--------------------------------------------------------------------------------------------------------




--------------------------------------- Iteration      1(   3)  ---------------------------------------


     EDDAV:  cpu time    1.7600: real time    1.7670
       DOS:  cpu time    0.0040: real time    0.0068
    --------------------------------------------
      LOOP:  cpu time    1.7680: real time    1.7738

 eigenvalue-minimisations  :  3352
 total energy-change (2. order) :-0.1148495E+00  (-0.1147852E+00)
 number of electron       8.0000000 magnetization 
 augmentation part        8.0000000 magnetization 

 Free energy of the ion-electron system (eV)
  ---------------------------------------------------
  alpha Z        PSCENC =         4.40202223
  Ewald energy   TEWEN  =      -265.18101312
  -Hartree energ DENC   =        -2.30415367
  -exchange      EXHF   =         0.00000000
  -V(xc)+E(xc)   XCENC  =       -17.81548033
  PAW double counting   =        65.95520812      -30.76852678
  entropy T*S    EENTRO =        -0.01399315
  eigenvalues    EBANDS =        29.34324843
  atomic energy  EATOM  =       206.12968587
  Solvation  Ediel_sol  =         0.00000000
  ---------------------------------------------------
  free energy    TOTEN  =       -10.25300240 eV

  energy without entropy =      -10.23900924  energy(sigma->0) =      -10.24600582


--------------------------------------------------------------------------------------------------------




--------------------------------------- Iteration      1(   4)  ---------------------------------------


     EDDAV:  cpu time    2.0600: real time    2.0660
       DOS:  cpu time    0.0080: real time    0.0068
    --------------------------------------------
      LOOP:  cpu time    2.0640: real time    2.0728

 eigenvalue-minimisations  :  3912
 total energy-change (2. order) :-0.2842219E-03  (-0.2842193E-03)
 number of electron       8.0000000 magnetization 
 augmentation part        8.0000000 magnetization 

 Free energy of the ion-electron system (eV)
  ---------------------------------------------------
  alpha Z        PSCENC =         4.40202223
  Ewald energy   TEWEN  =      -265.18101312
  -Hartree energ DENC   =        -2.30415367
  -exchange      EXHF   =         0.00000000
  -V(xc)+E(xc)   XCENC  =       -17.81548033
  PAW double counting   =        65.95520812      -30.76852678
  entropy T*S    EENTRO =        -0.01399550
  eigenvalues    EBANDS =        29.34296656
  atomic energy  EATOM  =       206.12968587
  Solvation  Ediel_sol  =         0.00000000
  ---------------------------------------------------
  free energy    TOTEN  =       -10.25328662 eV

  energy without entropy =      -10.23929112  energy(sigma->0) =      -10.24628887


--------------------------------------------------------------------------------------------------------




--------------------------------------- Iteration      1(   5)  ---------------------------------------


     EDDAV:  cpu time    1.7560: real time    1.7636
       DOS:  cpu time    0.0080: real time    0.0069
    CHARGE:  cpu time    0.0360: real time    0.0360
    MIXING:  cpu time    0.0000: real time    0.0021
    --------------------------------------------
      LOOP:  cpu time    1.8000: real time    1.8085

 eigenvalue-minimisations  :  3344
 total energy-change (2. order) :-0.4171700E-06  (-0.4171354E-06)
 number of electron       7.9999991 magnetization 
 augmentation part       -0.4694991 magnetization 

 Broyden mixing:
  rms(total) = 0.14932E+00    rms(broyden)= 0.14932E+00
  rms(prec ) = 0.33415E+00
  weight for this iteration     100.00

 Free energy of the ion-electron system (eV)
  ---------------------------------------------------
  alpha Z        PSCENC =         4.40202223
  Ewald energy   TEWEN  =      -265.18101312
  -Hartree energ DENC   =        -2.30415367
  -exchange      EXHF   =         0.00000000
  -V(xc)+E(xc)   XCENC  =       -17.81548033
  PAW double counting   =        65.95520812      -30.76852678
  entropy T*S    EENTRO =        -0.01399550
  eigenvalues    EBANDS =        29.34296614
  atomic energy  EATOM  =       206.12968587
  Solvation  Ediel_sol  =         0.00000000
  ---------------------------------------------------
  free energy    TOTEN  =       -10.25328704 eV

  energy without entropy =      -10.23929154  energy(sigma->0) =      -10.24628929


--------------------------------------------------------------------------------------------------------




--------------------------------------- Iteration      1(   6)  ---------------------------------------


    POTLOK:  cpu time    0.0200: real time    0.0279
    SETDIJ:  cpu time    0.0080: real time    0.0084
     EDDAV:  cpu time    1.7880: real time    1.7867
       DOS:  cpu time    0.0080: real time    0.0070
    CHARGE:  cpu time    0.0320: real time    0.0344
    MIXING:  cpu time    0.0000: real time    0.0017
    --------------------------------------------
      LOOP:  cpu time    1.8600: real time    1.8661

 eigenvalue-minimisations  :  3376
 total energy-change (2. order) : 0.4695085E-02  (-0.1793976E-03)
 number of electron       7.9999991 magnetization 
 augmentation part       -0.4711098 magnetization 

 Broyden mixing:
  rms(total) = 0.93466E-01    rms(broyden)= 0.93465E-01
  rms(prec ) = 0.20937E+00
  weight for this iteration     100.00

 eigenvalues of (default mixing * dielectric matrix)
  average eigenvalue GAMMA=   2.6688
  2.6688

 Free energy of the ion-electron system (eV)
  ---------------------------------------------------
  alpha Z        PSCENC =         4.40202223
  Ewald energy   TEWEN  =      -265.18101312
  -Hartree energ DENC   =        -2.33114439
  -exchange      EXHF   =         0.00000000
  -V(xc)+E(xc)   XCENC  =       -17.73456305
  PAW double counting   =        67.72385208      -32.57391842
  entropy T*S    EENTRO =        -0.01400245
  eigenvalues    EBANDS =        29.33048929
  atomic energy  EATOM  =       206.12968587
  Solvation  Ediel_sol  =         0.00000000
  ---------------------------------------------------
  free energy    TOTEN  =       -10.24859195 eV

  energy without entropy =      -10.23458950  energy(sigma->0) =      -10.24159072


--------------------------------------------------------------------------------------------------------




--------------------------------------- Iteration      1(   7)  ---------------------------------------


    POTLOK:  cpu time    0.0240: real time    0.0285
    SETDIJ:  cpu time    0.0080: real time    0.0088
     EDDAV:  cpu time    1.4760: real time    1.4788
       DOS:  cpu time    0.0080: real time    0.0068
    CHARGE:  cpu time    0.0320: real time    0.0338
    MIXING:  cpu time    0.0040: real time    0.0017
    --------------------------------------------
      LOOP:  cpu time    1.5480: real time    1.5585

 eigenvalue-minimisations  :  2848
 total energy-change (2. order) : 0.3909446E-02  (-0.5294077E-03)
 number of electron       7.9999991 magnetization 
 augmentation part       -0.4741375 magnetization 

 Broyden mixing:
  rms(total) = 0.33251E-02    rms(broyden)= 0.33247E-02
  rms(prec ) = 0.85301E-02
  weight for this iteration     100.00

 eigenvalues of (default mixing * dielectric matrix)
  average eigenvalue GAMMA=   2.5966
  2.5966  2.5966

 Free energy of the ion-electron system (eV)
  ---------------------------------------------------
  alpha Z        PSCENC =         4.40202223
  Ewald energy   TEWEN  =      -265.18101312
  -Hartree energ DENC   =        -2.47197326
  -exchange      EXHF   =         0.00000000
  -V(xc)+E(xc)   XCENC  =       -17.58173037
  PAW double counting   =        70.54923157      -35.46210708
  entropy T*S    EENTRO =        -0.01401294
  eigenvalues    EBANDS =        29.38521458
  atomic energy  EATOM  =       206.12968587
  Solvation  Ediel_sol  =         0.00000000
  ---------------------------------------------------
  free energy    TOTEN  =       -10.24468251 eV

  energy without entropy =      -10.23066957  energy(sigma->0) =      -10.23767604


--------------------------------------------------------------------------------------------------------




--------------------------------------- Iteration      1(   8)  ---------------------------------------


    POTLOK:  cpu time    0.0160: real time    0.0690
    SETDIJ:  cpu time    0.0080: real time    0.0084
     EDDAV:  cpu time    1.0880: real time    1.0851
       DOS:  cpu time    0.0040: real time    0.0068
    --------------------------------------------
      LOOP:  cpu time    1.1160: real time    1.1692

 eigenvalue-minimisations  :  1888
 total energy-change (2. order) : 0.1473655E-04  (-0.7983787E-05)
 number of electron       7.9999991 magnetization 
 augmentation part       -0.4741375 magnetization 

 Free energy of the ion-electron system (eV)
  ---------------------------------------------------
  alpha Z        PSCENC =         4.40202223
  Ewald energy   TEWEN  =      -265.18101312
  -Hartree energ DENC   =        -2.49081232
  -exchange      EXHF   =         0.00000000
  -V(xc)+E(xc)   XCENC  =       -17.58250878
  PAW double counting   =        70.34963475      -35.26275945
  entropy T*S    EENTRO =        -0.01401088
  eigenvalues    EBANDS =        29.40509393
  atomic energy  EATOM  =       206.12968587
  Solvation  Ediel_sol  =         0.00000000
  ---------------------------------------------------
  free energy    TOTEN  =       -10.24466777 eV

  energy without entropy =      -10.23065689  energy(sigma->0) =      -10.23766233


--------------------------------------------------------------------------------------------------------




 average (electrostatic) potential at core
  the test charge radii are     0.9892
  (the norm of the test charge is              1.0000)
       1 -80.5495       2 -80.5495
 
 
 
 E-fermi :   9.0750     XC(G=0): -10.8922     alpha+bet :-15.6819


 k-point     1 :       0.0417    0.0417    0.0417
  band No.  band energies     occupation 
      1      -4.3787      2.00000
      2       4.9599      2.00000
      3       6.5073      2.00000
      4       7.4986      2.00000
      5      11.1938      0.00000
      6      15.3439      0.00000
      7      16.4698      0.00000
      8      17.2983      0.00000

 k-point     2 :       0.1250    0.0417    0.0417
  band No.  band energies     occupation 
      1      -3.7917      2.00000
      2       4.6334      2.00000
      3       6.6691      2.00000
      4       8.6222      1.99863
      5      12.2780      0.00000
      6      13.8729      0.00000
      7      14.1098      0.00000
      8      15.9908      0.00000

 k-point     3 :       0.2083    0.0417    0.0417
  band No.  band energies     occupation 
      1      -2.8180      2.00000
      2       4.6297      2.00000
      3       6.8373      2.00000
      4       9.6409      0.00006
      5      11.4647      0.00000
      6      12.0845      0.00000
      7      13.8215      0.00000
      8      14.7386      0.00000

 k-point     4 :       0.2917    0.0417    0.0417
  band No.  band energies     occupation 
      1      -1.4651      2.00000
      2       4.9672      2.00000
      3       7.1567      2.00000
      4       7.5390      2.00000
      5      10.0674      0.00000
      6      12.6322      0.00000
      7      13.1211      0.00000
      8      14.0804      0.00000

 k-point     5 :       0.3750    0.0417    0.0417
  band No.  band energies     occupation 
      1       0.2523      2.00000
      2       4.7282      2.00000
      3       5.7500      2.00000
      4       7.5420      2.00000
      5       8.6874      1.99388
      6      11.3995      0.00000
      7      13.6540      0.00000
      8      14.3754      0.00000

 k-point     6 :       0.4583    0.0417    0.0417
  band No.  band energies     occupation 
      1       2.0709      2.00000
      2       2.6237      2.00000
      3       6.5890      2.00000
      4       6.8268      2.00000
      5       8.6129      1.99891
      6      10.6508      0.00000
      7      13.5323      0.00000
      8      14.4990      0.00000

 k-point     7 :      -0.0417    0.0417    0.0417
  band No.  band energies     occupation 
      1      -4.5749      2.00000
      2       5.3370      2.00000
      3       6.1230      2.00000
      4       7.2121      2.00000
      5      10.7769      0.00000
      6      15.7374      0.00000
      7      17.3998      0.00000
      8      17.9253      0.00000

 k-point     8 :       0.1250    0.1250    0.0417
  band No.  band energies     occupation 
      1      -2.8998      2.00000
      2       4.6288      2.00000
      3       7.7228      2.00000
      4       9.1233      0.73267
      5      11.5298      0.00000
      6      11.6656      0.00000
      7      13.8364      0.00000
      8      15.2500      0.00000

 k-point     9 :       0.2083    0.1250    0.0417
  band No.  band energies     occupation 
      1      -1.6271      2.00000
      2       4.9216      2.00000
      3       7.9348      2.00000
      4       8.3039      2.00000
      5       9.6477      0.00005
      6      11.4445      0.00000
      7      13.5855      0.00000
      8      14.3123      0.00000

 k-point    10 :       0.2917    0.1250    0.0417
  band No.  band energies     occupation 
      1       0.0138      2.00000
      2       5.3056      2.00000
      3       5.7175      2.00000
      4       7.0884      2.00000
      5       9.4906      0.00330
      6      11.9392      0.00000
      7      13.0682      0.00000
      8      13.9922      0.00000

 k-point    11 :       0.3750    0.1250    0.0417
  band No.  band energies     occupation 
      1       1.9557      2.00000
      2       3.0464      2.00000
      3       5.6812      2.00000
      4       6.5167      2.00000
      5       9.5096      0.00212
      6      11.4146      0.00000
      7      12.8756      0.00000
      8      15.2472      0.00000

 k-point    12 :       0.4583    0.1250    0.0417
  band No.  band energies     occupation 
      1       0.8083      2.00000
      2       4.2133      2.00000
      3       4.7237      2.00000
      4       7.5223      2.00000
      5       9.0159      1.32401
      6      12.0871      0.00000
      7      13.0175      0.00000
      8      15.2665      0.00000

 k-point    13 :      -0.4583    0.1250    0.0417
  band No.  band energies     occupation 
      1      -0.9793      2.00000
      2       3.7046      2.00000
      3       7.0030      2.00000
      4       7.5962      2.00000
      5       9.8445      0.00000
      6      12.6752      0.00000
      7      13.2821      0.00000
      8      14.4999      0.00000

 k-point    14 :      -0.3750    0.1250    0.0417
  band No.  band energies     occupation 
      1      -2.4090      2.00000
      2       3.2722      2.00000
      3       7.1522      2.00000
      4       9.6431      0.00006
      5      11.4683      0.00000
      6      11.7166      0.00000
      7      13.5063      0.00000
      8      15.5815      0.00000

 k-point    15 :      -0.2917    0.1250    0.0417
  band No.  band energies     occupation 
      1      -3.4625      2.00000
      2       3.1962      2.00000
      3       6.9562      2.00000
      4       9.2670      0.17466
      5      12.7561      0.00000
      6      13.5407      0.00000
      7      13.9787      0.00000
      8      15.3898      0.00000

 k-point    16 :      -0.2083    0.1250    0.0417
  band No.  band energies     occupation 
      1      -4.1309      2.00000
      2       3.4721      2.00000
      3       6.7362      2.00000
      4       8.2429      2.00000
      5      12.5662      0.00000
      6      13.9026      0.00000
      7      15.4539      0.00000
      8      17.0507      0.00000

 k-point    17 :      -0.1250    0.1250    0.0417
  band No.  band energies     occupation 
      1      -4.4095      2.00000
      2       4.0556      2.00000
      3       6.1328      2.00000
      4       8.1206      2.00000
      5      11.7265      0.00000
      6      14.2527      0.00000
      7      16.4819      0.00000
      8      18.9904      0.00000

 k-point    18 :      -0.0417    0.1250    0.0417
  band No.  band energies     occupation 
      1      -4.2961      2.00000
      2       4.6511      2.00000
      3       5.8313      2.00000
      4       8.3721      2.00000
      5      11.5937      0.00000
      6      14.3510      0.00000
      7      16.5506      0.00000
      8      17.4844      0.00000

 k-point    19 :       0.2083    0.2083    0.0417
  band No.  band energies     occupation 
      1      -0.0659      2.00000
      2       5.4580      2.00000
      3       6.2499      2.00000
      4       6.3019      2.00000
      5      10.1903      0.00000
      6      12.4175      0.00000
      7      12.7122      0.00000
      8      12.9917      0.00000

 k-point    20 :       0.2917    0.2083    0.0417
  band No.  band energies     occupation 
      1       1.8270      2.00000
      2       3.7811      2.00000
      3       4.6769      2.00000
      4       6.4148      2.00000
      5      10.2399      0.00000
      6      11.6569      0.00000
      7      13.0265      0.00000
      8      14.5929      0.00000

 k-point    21 :       0.3750    0.2083    0.0417
  band No.  band energies     occupation 
      1       1.5158      2.00000
      2       3.3309      2.00000
      3       4.2661      2.00000
      4       7.4806      2.00000
      5       9.5121      0.00200
[...]
      8      18.2878      0.00000

 k-point   125 :      -0.2083    0.3750    0.2083
  band No.  band energies     occupation 
      1      -1.9632      2.00000
      2       2.3372      2.00000
      3       3.8477      2.00000
      4       7.9673      2.00000
      5      10.4478      0.00000
      6      15.7445      0.00000
      7      16.5100      0.00000
      8      17.2855      0.00000

 k-point   126 :      -0.4583    0.4583    0.2083
  band No.  band energies     occupation 
      1      -1.5349      2.00000
      2      -0.5481      2.00000
      3       5.5772      2.00000
      4       6.5254      2.00000
      5      14.5908      0.00000
      6      15.2328      0.00000
      7      17.0447      0.00000
      8      17.3302      0.00000

 k-point   127 :      -0.3750    0.4583    0.2083
  band No.  band energies     occupation 
      1      -1.6026      2.00000
      2       0.3433      2.00000
      3       4.5910      2.00000
      4       6.4687      2.00000
      5      12.8805      0.00000
      6      16.0064      0.00000
      7      17.7716      0.00000
      8      18.3863      0.00000

 k-point   128 :      -0.2917    0.4583    0.2083
  band No.  band energies     occupation 
      1      -1.3008      2.00000
      2       1.5173      2.00000
      3       4.0191      2.00000
      4       6.7355      2.00000
      5      10.1605      0.00000
      6      16.5562      0.00000
      7      16.8788      0.00000
      8      18.4100      0.00000

 k-point   129 :      -0.2083    0.4583    0.2083
  band No.  band energies     occupation 
      1      -0.6331      2.00000
      2       2.6485      2.00000
      3       4.1730      2.00000
      4       7.1296      2.00000
      5       7.8201      2.00000
      6      14.6451      0.00000
      7      16.0344      0.00000
      8      17.6259      0.00000

 k-point   130 :      -0.4583   -0.4583    0.2083
  band No.  band energies     occupation 
      1      -0.7024      2.00000
      2      -0.6963      2.00000
      3       5.4401      2.00000
      4       5.4463      2.00000
      5      12.8385      0.00000
      6      16.4470      0.00000
      7      17.3490      0.00000
      8      18.2942      0.00000

 k-point   131 :      -0.3750   -0.4583    0.2083
  band No.  band energies     occupation 
      1      -0.4833      2.00000
      2       0.4741      2.00000
      3       4.7197      2.00000
      4       5.6439      2.00000
      5      10.0136      0.00000
      6      16.5439      0.00000
      7      17.6454      0.00000
      8      18.7227      0.00000

 k-point   132 :      -0.2917   -0.4583    0.2083
  band No.  band energies     occupation 
      1       0.0967      2.00000
      2       1.9196      2.00000
      3       4.4120      2.00000
      4       6.1327      2.00000
      5       7.4339      2.00000
      6      14.8776      0.00000
      7      16.9971      0.00000
      8      18.4774      0.00000

 k-point   133 :      -0.2083   -0.4583    0.2083
  band No.  band energies     occupation 
      1       1.0263      2.00000
      2       3.2477      2.00000
      3       4.8316      2.00000
      4       5.0462      2.00000
      5       7.1100      2.00000
      6      13.1757      0.00000
      7      14.4916      0.00000
      8      17.9254      0.00000

 k-point   134 :      -0.3750   -0.3750    0.2083
  band No.  band energies     occupation 
      1       0.9455      2.00000
      2       0.9862      2.00000
      3       5.1456      2.00000
      4       5.2004      2.00000
      5       7.3330      2.00000
      6      14.8803      0.00000
      7      18.1082      0.00000
      8      18.1831      0.00000

 k-point   135 :      -0.2917   -0.3750    0.2083
  band No.  band energies     occupation 
      1       1.7933      2.00000
      2       2.6446      2.00000
      3       4.7309      2.00000
      4       5.2619      2.00000
      5       6.0852      2.00000
      6      13.4341      0.00000
      7      15.4882      0.00000
      8      17.0474      0.00000

 k-point   136 :      -0.2083   -0.3750    0.2083
  band No.  band energies     occupation 
      1       2.2659      2.00000
      2       3.2644      2.00000
      3       4.5708      2.00000
      4       5.8003      2.00000
      5       7.1143      2.00000
      6      12.0268      0.00000
      7      13.1508      0.00000
      8      15.5049      0.00000

 k-point   137 :      -0.2917   -0.2917    0.2083
  band No.  band energies     occupation 
      1       2.2542      2.00000
      2       3.8567      2.00000
      3       4.1127      2.00000
      4       6.1930      2.00000
      5       6.2544      2.00000
      6      12.2823      0.00000
      7      13.8919      0.00000
      8      14.6156      0.00000

 k-point   138 :      -0.2083   -0.2917    0.2083
  band No.  band energies     occupation 
      1       0.5522      2.00000
      2       5.3585      2.00000
      3       5.8764      2.00000
      4       6.9982      2.00000
      5       7.4573      2.00000
      6      11.2430      0.00000
      7      12.0914      0.00000
      8      12.9882      0.00000

 k-point   139 :      -0.2083   -0.2083    0.2083
  band No.  band energies     occupation 
      1      -1.0219      2.00000
      2       7.4582      2.00000
      3       7.6189      2.00000
      4       8.0649      2.00000
      5       8.0649      2.00000
      6      10.4748      0.00000
      7      11.5149      0.00000
      8      11.5149      0.00000

 k-point   140 :      -0.2917    0.2917    0.2917
  band No.  band energies     occupation 
      1      -2.5370      2.00000
      2       1.7779      2.00000
      3       3.3098      2.00000
      4       7.4888      2.00000
      5      14.3997      0.00000
      6      16.0650      0.00000
      7      17.2666      0.00000
      8      17.7660      0.00000

 k-point   141 :      -0.3750    0.3750    0.2917
  band No.  band energies     occupation 
      1      -1.8723      2.00000
      2       0.9556      2.00000
      3       3.4804      2.00000
      4       6.2272      2.00000
      5      15.0126      0.00000
      6      15.7586      0.00000
      7      17.5033      0.00000
      8      19.3307      0.00000

 k-point   142 :      -0.2917    0.3750    0.2917
  band No.  band energies     occupation 
      1      -1.7713      2.00000
      2       1.5391      2.00000
      3       3.0987      2.00000
      4       6.3190      2.00000
      5      12.7850      0.00000
      6      16.7246      0.00000
      7      18.5701      0.00000
      8      19.1211      0.00000

 k-point   143 :      -0.4583    0.4583    0.2917
  band No.  band energies     occupation 
      1      -1.0518      2.00000
      2      -0.0912      2.00000
      3       4.1857      2.00000
      4       5.1193      2.00000
      5      15.3003      0.00000
      6      15.5120      0.00000
      7      17.9971      0.00000
      8      18.6632      0.00000

 k-point   144 :      -0.3750    0.4583    0.2917
  band No.  band energies     occupation 
      1      -1.0356      2.00000
      2       0.8030      2.00000
      3       3.3424      2.00000
      4       5.1361      2.00000
      5      12.6168      0.00000
      6      17.5688      0.00000
      7      18.7941      0.00000
      8      19.7824      0.00000

 k-point   145 :      -0.2917    0.4583    0.2917
  band No.  band energies     occupation 
      1      -0.6511      2.00000
      2       1.6649      2.00000
      3       3.2336      2.00000
      4       5.4915      2.00000
      5       9.8663      0.00000
      6      17.4651      0.00000
      7      18.4770      0.00000
      8      18.7245      0.00000

 k-point   146 :      -0.4583   -0.4583    0.2917
  band No.  band energies     occupation 
      1      -0.1636      2.00000
      2      -0.1548      2.00000
      3       4.1217      2.00000
      4       4.1281      2.00000
      5      12.5558      0.00000
      6      17.8230      0.00000
      7      19.2353      0.00000
      8      19.2994      0.00000

 k-point   147 :      -0.3750   -0.4583    0.2917
  band No.  band energies     occupation 
      1       0.1392      2.00000
      2       1.0157      2.00000
      3       3.5522      2.00000
      4       4.4093      2.00000
      5       9.7167      0.00001
      6      17.7600      0.00000
      7      19.2581      0.00000
      8      19.6960      0.00000

 k-point   148 :      -0.2917   -0.4583    0.2917
  band No.  band energies     occupation 
      1       0.7988      2.00000
      2       2.1469      2.00000
      3       3.7138      2.00000
      4       5.0198      2.00000
      5       7.1620      2.00000
      6      15.9187      0.00000
      7      17.1938      0.00000
      8      18.8890      0.00000

 k-point   149 :      -0.3750   -0.3750    0.2917
  band No.  band energies     occupation 
      1       1.5559      2.00000
      2       1.6166      2.00000
      3       4.0907      2.00000
      4       4.1160      2.00000
      5       7.0754      2.00000
      6      16.2068      0.00000
      7      17.9251      0.00000
      8      18.2860      0.00000

 k-point   150 :      -0.2917   -0.3750    0.2917
  band No.  band energies     occupation 
      1       2.4525      2.00000
      2       2.9415      2.00000
      3       4.5313      2.00000
      4       4.6844      2.00000
      5       5.1509      2.00000
      6      14.5961      0.00000
      7      15.5127      0.00000
      8      16.3713      0.00000

 k-point   151 :      -0.2917   -0.2917    0.2917
  band No.  band energies     occupation 
      1       2.2041      2.00000
      2       4.2686      2.00000
      3       4.5271      2.00000
      4       5.6592      2.00000
      5       5.6592      2.00000
      6      13.4263      0.00000
      7      13.8066      0.00000
      8      13.8066      0.00000

 k-point   152 :      -0.3750    0.3750    0.3750
  band No.  band energies     occupation 
      1      -1.2203      2.00000
      2       1.1016      2.00000
      3       2.6912      2.00000
      4       4.9646      2.00000
      5      15.2659      0.00000
      6      15.5351      0.00000
      7      18.6653      0.00000
      8      20.5145      0.00000

 k-point   153 :      -0.4583    0.4583    0.3750
  band No.  band energies     occupation 
      1      -0.4273      2.00000
      2       0.4511      2.00000
      3       3.0100      2.00000
      4       3.8723      2.00000
      5      15.3018      0.00000
      6      15.3751      0.00000
      7      19.6524      0.00000
      8      20.3881      0.00000

 k-point   154 :      -0.3750    0.4583    0.3750
  band No.  band energies     occupation 
      1      -0.3273      2.00000
      2       1.0311      2.00000
      3       2.6319      2.00000
      4       3.9680      2.00000
      5      12.4281      0.00000
      6      18.1002      0.00000
      7      19.8013      0.00000
      8      20.7567      0.00000

 k-point   155 :      -0.4583   -0.4583    0.3750
  band No.  band energies     occupation 
      1       0.4601      2.00000
      2       0.4726      2.00000
      3       3.0259      2.00000
      4       3.0297      2.00000
      5      12.3622      0.00000
      6      18.1500      0.00000
      7      20.5148      0.00000
      8      20.9038      0.00000

 k-point   156 :      -0.3750   -0.4583    0.3750
  band No.  band energies     occupation 
      1       0.8471      2.00000
      2       1.3275      2.00000
      3       2.9224      2.00000
      4       3.3954      2.00000
      5       9.5661      0.00088
      6      18.6414      0.00000
      7      19.8405      0.00000
      8      20.1566      0.00000

 k-point   157 :      -0.3750   -0.3750    0.3750
  band No.  band energies     occupation 
      1       1.9368      2.00000
      2       2.0204      2.00000
      3       3.5594      2.00000
      4       3.5594      2.00000
      5       6.9911      2.00000
      6      17.1181      0.00000
      7      17.8607      0.00000
      8      17.8607      0.00000

 k-point   158 :      -0.4583    0.4583    0.4583
  band No.  band energies     occupation 
      1       0.2824      2.00000
      2       0.7618      2.00000
      3       2.3781      2.00000
      4       2.8520      2.00000
      5      15.2429      0.00000
      6      15.2627      0.00000
      7      21.0460      0.00000
      8      21.5250      0.00000

 k-point   159 :      -0.4583   -0.4583    0.4583
  band No.  band energies     occupation 
      1       0.8529      2.00000
      2       0.8695      2.00000
      3       2.4752      2.00000
      4       2.4752      2.00000
      5      12.2951      0.00000
      6      18.1732      0.00000
      7      21.2692      0.00000
      8      21.4728      0.00000


--------------------------------------------------------------------------------------------------------


 soft charge-density along one line, spin component           1
         0         1         2         3         4         5         6         7         8         9
 total charge-density along one line
 
 pseudopotential strength for first ion, spin component:           1
 18.066  -0.003   0.000  -0.000  -0.000  -0.000   0.000   0.000
 -0.003   0.005  -0.000   0.000   0.000   0.000  -0.000  -0.000
  0.000  -0.000   4.117   0.000   0.000  -0.006  -0.000  -0.000
 -0.000   0.000   0.000   4.118   0.000  -0.000  -0.006  -0.000
 -0.000   0.000   0.000   0.000   4.117  -0.000  -0.000  -0.006
 -0.000   0.000  -0.006  -0.000  -0.000   0.005   0.000   0.000
  0.000  -0.000  -0.000  -0.006  -0.000   0.000   0.005   0.000
  0.000  -0.000  -0.000  -0.000  -0.006   0.000   0.000   0.005
 total augmentation occupancy for first ion, spin component:           1
  1.612  -0.499   0.000   0.000  -0.000   0.000   0.000   0.000
 -0.499   0.892   0.000   0.000   0.000   0.000   0.000   0.000
  0.000   0.000   0.912  -0.000   0.000  -0.508   0.000  -0.000
  0.000   0.000  -0.000   0.838  -0.000   0.000  -0.488  -0.000
  0.000  -0.000   0.000  -0.000   0.912  -0.000  -0.000  -0.508
  0.000   0.000  -0.508   0.000  -0.000   0.366   0.000   0.000
  0.000   0.000   0.000  -0.488  -0.000   0.000   0.366   0.000
  0.000   0.000  -0.000  -0.000  -0.508   0.000   0.000   0.366


------------------------ aborting loop because EDIFF is reached ----------------------------------------


    CHARGE:  cpu time    0.0320: real time    0.0340
    FORLOC:  cpu time    0.0040: real time    0.0006
    FORNL :  cpu time    0.0320: real time    0.0345
    STRESS:  cpu time    0.4360: real time    0.4366
    FORCOR:  cpu time    0.0160: real time    0.0143
    FORHAR:  cpu time    0.0040: real time    0.0049
    MIXING:  cpu time    0.0000: real time    0.0011
    OFIELD:  cpu time    0.0000: real time    0.0008

  FORCE on cell =-STRESS in cart. coord.  units (eV):
  Direction    XX          YY          ZZ          XY          YZ          ZX
  --------------------------------------------------------------------------------------
  Alpha Z     4.39541     4.39541     4.39541
  Ewald     -88.47216   -88.47216   -88.22069     0.00000    -0.00000    -0.00000
  Hartree     0.71933     0.71933     1.01795    -0.00000    -0.00000    -0.00000
  E(xc)     -25.43523   -25.43523   -25.32168     0.00001     0.00000     0.00000
  Local     -13.75884   -13.75884   -12.23704    -0.00005    -0.00003    -0.00003
  n-local    77.44287    77.37387    75.49462     1.19140    -0.43935    -0.52983
  augment   -12.11201   -12.11201   -11.91045     0.00003     0.00003     0.00003
  Kinetic    56.40473    58.06620    56.78422     3.36093    -1.79304    -2.95166
  Fock        0.00000     0.00000     0.00000     0.00000     0.00000     0.00000
  -------------------------------------------------------------------------------------
  Total      -0.01967    -0.01967     0.00235     0.00000     0.00000     0.00000
  in kB      -1.02885    -1.02885     0.12294     0.00000     0.00000     0.00000
  external pressure =       -0.64 kB  Pullay stress =        0.00 kB


 VOLUME and BASIS-vectors are now :
 -----------------------------------------------------------------------------
  energy-cutoff  :      300.00
  volume of cell :       30.63
      direct lattice vectors                 reciprocal lattice vectors
    -2.415067999  2.415067999  1.313093157     0.000000000  0.207033508  0.380780295
     2.415067999 -2.415067999  1.313093157     0.207033508  0.000000000  0.380780295
     2.415067999  2.415067999 -1.313093157     0.207033508  0.207033508  0.000000000

  length of vectors
     3.659142047  3.659142047  3.659142047     0.433424165  0.433424165  0.292789595


 FORCES acting on ions
    electron-ion (+dipol)            ewald-force                    non-local-force                 convergence-correction
 -----------------------------------------------------------------------------------------------
   0.372E-06 -.372E-06 -.236E-13   0.110E-14 -.131E-14 -.350E-15   0.138E-15 -.132E-15 -.136E-16   0.418E-09 -.418E-09 -.110E-15
   -.372E-06 0.372E-06 -.104E-14   -.108E-14 0.990E-15 0.591E-15   -.137E-15 0.113E-15 0.161E-16   -.418E-09 0.418E-09 0.453E-16
 -----------------------------------------------------------------------------------------------
   0.745E-14 0.768E-14 -.246E-13   0.159E-16 -.317E-15 0.242E-15   0.121E-17 -.196E-16 0.245E-17   -.185E-16 0.623E-16 -.647E-16
 
 
 POSITION                                       TOTAL-FORCE (eV/Angst)
 -----------------------------------------------------------------------------------
      2.41507      0.00000      0.65655        -0.000000     -0.000000     -0.000000
      0.00000     -0.00000      0.00000         0.000000      0.000000      0.000000
 -----------------------------------------------------------------------------------
    total drift:                                0.000000      0.000000     -0.000000


--------------------------------------------------------------------------------------------------------



  FREE ENERGIE OF THE ION-ELECTRON SYSTEM (eV)
  ---------------------------------------------------
  free  energy   TOTEN  =       -10.26728582 eV

  energy  without entropy=      -10.25461779  energy(sigma->0) =      -10.26095181
 
 d Force = 0.0000000E+00[ 0.000E+00, 0.000E+00]  d Energy =-0.1986211E-04 0.199E-04
 d Force = 0.0000000E+00[ 0.000E+00, 0.000E+00]  d Ewald  = 0.1209557E-02-0.121E-02


--------------------------------------------------------------------------------------------------------


    POTLOK:  cpu time    0.0360: real time    0.1560


--------------------------------------------------------------------------------------------------------




--------------------------------------------------------------------------------------------------------


  
 reached required accuracy - stopping structural energy minimisation
 writing wavefunctions
     LOOP+:  cpu time    3.0280: real time    3.9003
    4ORBIT:  cpu time    0.0000: real time    0.0000

 total amount of memory used by VASP MPI-rank0    35373. kBytes
=======================================================================

   base      :      30000. kBytes
   nonl-proj :       3838. kBytes
   fftplans  :        160. kBytes
   grid      :        372. kBytes
   one-center:          6. kBytes
   wavefun   :        997. kBytes
 
  
  
 General timing and accounting informations for this job:
 ========================================================
  
                  Total CPU time used (sec):       56.348
                            User time (sec):       53.020
                          System time (sec):        3.328
                         Elapsed time (sec):       63.306
  
                   Maximum memory used (kb):       10380.
                   Average memory used (kb):           0.
  
                          Minor page faults:        38346
                          Major page faults:           24
                 Voluntary context switches:        69017
