unknown system                          
   1.00000000000000     
    -2.450000    2.450000    1.274000
     2.450000   -2.450000    1.274000
     2.450000    2.450000   -1.274000
   Si
     2
Direct
  0.250000  0.750000  0.500000
  0.000000  0.000000  0.000000
 
   32   32   32
 -5.3432     -4.1644     -.99999      3.1911      7.2470      10.219      11.640      11.579      10.500      9.0287    
  7.5794      6.2968      5.2536      4.4707      3.9371      3.6300      3.5300      3.6300      3.9371      4.4707    
  5.2535      6.2968      7.5794      9.0287      10.500      11.579      11.640      10.219      7.2470      3.1911    
 -1.0000     -4.1644     -4.1644     -4.7803     -3.1132     0.30864      4.4579      8.2122      10.741      11.718    
  11.327      10.089      8.6075      7.1981      5.9790      5.0079      4.2955      3.8260      3.5766      3.5302    
  3.6830      4.0454      4.6387      5.4845      6.5881      7.9183      9.3895      10.825      11.739      11.525    
  9.7942      6.5939      2.5056     -1.4582     -1.0000     -3.1132     -3.1701     -1.1581      2.2801      6.1152    
  9.3285      11.248      11.701      10.970      9.6082      8.1429      6.7906      5.6482      4.7578      4.1204    
  3.7170      3.5251      3.5306      3.7333      4.1466      4.7924      5.6903      6.8397      8.2000      9.6752    
  11.058      11.830      11.429      9.5569      6.3632      2.5056      3.1911     0.30864     -1.1581     -.73509    
  1.4311      4.6385      7.9212      10.415      11.629      11.541      10.509      9.0802      7.6530      6.3734    
  5.3180      4.5133      3.9523      3.6138      3.4770      3.5311      3.7789      4.2360      4.9247      5.8616    
  7.0402      8.4117      9.8732      11.197      11.869      11.393      9.5569      6.5939      7.2470      4.4579    
  2.2801      1.4311      2.1967      4.3097      7.0683      9.6256      11.304      11.800      11.218      9.9645    
  8.5267      7.1572      5.9633      5.0010      4.2833      3.7971      3.5202      3.4341      3.5312      3.8174    
  4.3098      5.0297      5.9902      7.1795      8.5429      9.9746      11.243      11.869      11.429      9.7942    
  10.219      8.2122      6.1153      4.6385      4.3097      5.2489      7.1179      9.2702      11.016      11.877    
  11.719      10.747      9.3762      7.9696      6.6751      5.5757      4.7088      4.0760      3.6600      3.4392    
  3.3976      3.5310      3.8475      4.3648      5.1024      6.0700      7.2510      8.5875      9.9746      11.197    
  11.830      11.525      11.640      10.741      9.3285      7.9212      7.0683      7.1180      8.0626      9.5440    
  11.013      11.955      12.081      11.399      10.175      8.7827      7.4319      6.2257      5.2251      4.4513    
  3.8979      3.5452      3.3731      3.3688      3.5305      3.8680      4.3986      5.1396      6.0971      7.2510    
  8.5429      9.8732      11.058      11.739      11.579      11.718      11.248      10.415      9.6256      9.2702    
  9.5440      10.356      11.373      12.167      12.397      11.937      10.900      9.5729      8.2119      6.9364    
  5.8263      4.9234      4.2366      3.7542      3.4561      3.3243      3.3488      3.5300      3.8785      4.4100    
  5.1396      6.0700      7.1795      8.4117      9.6752      10.825      10.500      11.327      11.701      11.629    
  11.304      11.016      11.013      11.373      11.966      12.514      12.717      12.390      11.531      10.318    
  8.9933      7.6914      6.5040      5.4912      4.6800      4.0707      3.6489      3.3953      3.2943      3.3385    
  3.5298      3.8785      4.3986      5.1024      5.9902      7.0402      8.2000      9.3895      9.0287      10.089    
  10.970      11.541      11.800      11.877      11.955      12.167      12.514      12.861      12.999      12.751    
  12.052      10.990      9.7502      8.4702      7.2459      6.1515      5.2315      4.5018      3.9580      3.5846    
  3.3644      3.2842      3.3385      3.5300      3.8680      4.3648      5.0297      5.8616      6.8397      7.9183    
  7.5794      8.6075      9.6082      10.509      11.218      11.719      12.081      12.397      12.717      12.999    
  13.126      12.962      12.427      11.548      10.447      9.2443      8.0329      6.8955      5.8918      5.0546    
  4.3933      3.9010      3.5631      3.3644      3.2943      3.3488      3.5305      3.8475      4.3098      4.9247    
  5.6903      6.5881      6.2968      7.1981      8.1429      9.0802      9.9645      10.747      11.399      11.937    
  12.390      12.751      12.962      12.934      12.596      11.940      11.038      9.9737      8.8345      7.7047    
  6.6546      5.7330      4.9652      4.3569      3.9010      3.5846      3.3953      3.3243      3.3688      3.5310    
  3.8174      4.2360      4.7924      5.4845      5.2535      5.9790      6.7906      7.6530      8.5267      9.3762    
  10.175      10.900      11.531      12.052      12.427      12.596      12.499      12.114      11.466      10.607    
  9.6074      8.5472      7.5017      6.5321      5.6796      4.9652      4.3933      3.9580      3.6489      3.4561    
  3.3731      3.3976      3.5312      3.7789      4.1466      4.6387      4.4707      5.0079      5.6483      6.3734    
  7.1572      7.9696      8.7827      9.5729      10.318      10.990      11.548      11.940      12.114      12.031    
  11.682      11.088      10.297      9.3764      8.3993      7.4331      6.5321      5.7330      5.0546      4.5018    
  4.0707      3.7542      3.5452      3.4392      3.4341      3.5311      3.7333      4.0454      3.9371      4.2955    
  4.7578      5.3180      5.9633      6.6751      7.4318      8.2119      8.9933      9.7503      10.447      11.038    
  11.466      11.682      11.651      11.364      10.844      10.135      9.2976      8.3993      7.5017      6.6546    
  5.8918      5.2315      4.6800      4.2366      3.8979      3.6600      3.5202      3.4770      3.5306      3.6830    
  3.6300      3.8260      4.1204      4.5133      5.0010      5.5758      6.2257      6.9364      7.6914      8.4702    
  9.2443      9.9737      10.607      11.088      11.364      11.404      11.197      10.760      10.135      9.3764    
  8.5472      7.7047      6.8955      6.1515      5.4912      4.9234      4.4513      4.0760      3.7971      3.6138    
  3.5251      3.5302      3.5300      3.5766      3.7170      3.9523      4.2833      4.7088      5.2251      5.8263    
  6.5040      7.2459      8.0329      8.8345      9.6074      10.297      10.844      11.197      11.319      11.197    
  10.844      10.297      9.6074      8.8345      8.0329      7.2459      6.5040      5.8263      5.2251      4.7088    
  4.2833      3.9523      3.7170      3.5766      3.6300      3.5303      3.5251      3.6139      3.7971      4.0760    
  4.4513      4.9234      5.4912      6.1515      6.8955      7.7047      8.5472      9.3764      10.135      10.760    
  11.197      11.404      11.364      11.088      10.607      9.9737      9.2443      8.4702      7.6914      6.9364    
  6.2257      5.5757      5.0010      4.5133      4.1204      3.8260      3.9371      3.6830      3.5307      3.4771    
  3.5203      3.6601      3.8979      4.2366      4.6800      5.2315      5.8918      6.6546      7.5017      8.3993    
  9.2976      10.135      10.844      11.364      11.651      11.682      11.466      11.038      10.447      9.7502    
  8.9933      8.2119      7.4319      6.6751      5.9633      5.3180      4.7578      4.2955      4.4707      4.0455    
  3.7334      3.5311      3.4342      3.4392      3.5452      3.7542      4.0707      4.5018      5.0546      5.7329    
  6.5320      7.4330      8.3993      9.3764      10.297      11.088      11.682      12.031      12.114      11.940    
  11.548      10.990      10.318      9.5729      8.7827      7.9696      7.1572      6.3734      5.6482      5.0079    
  5.2536      4.6388      4.1467      3.7789      3.5312      3.3976      3.3732      3.4561      3.6489      3.9580    
  4.3933      4.9652      5.6796      6.5320      7.5017      8.5472      9.6074      10.607      11.466      12.114    
  12.499      12.596      12.427      12.052      11.531      10.900      10.175      9.3762      8.5267      7.6530    
  6.7906      5.9790      6.2968      5.4845      4.7925      4.2361      3.8174      3.5310      3.3688      3.3243    
  3.3953      3.5846      3.9010      4.3569      4.9652      5.7329      6.6546      7.7047      8.8345      9.9737    
  11.038      11.940      12.596      12.934      12.962      12.751      12.390      11.937      11.399      10.747    
  9.9645      9.0802      8.1429      7.1981      7.5794      6.5881      5.6903      4.9247      4.3098      3.8475    
  3.5305      3.3487      3.2943      3.3644      3.5631      3.9010      4.3933      5.0546      5.8918      6.8955    
  8.0329      9.2443      10.447      11.548      12.427      12.962      13.126      12.999      12.717      12.397    
  12.081      11.719      11.218      10.509      9.6082      8.6075      9.0287      7.9183      6.8397      5.8616    
  5.0297      4.3648      3.8680      3.5300      3.3384      3.2842      3.3644      3.5846      3.9580      4.5018    
  5.2315      6.1515      7.2459      8.4702      9.7503      10.990      12.052      12.751      12.999      12.861    
  12.514      12.167      11.955      11.877      11.800      11.541      10.970      10.089      10.500      9.3895    
  8.2001      7.0402      5.9902      5.1023      4.3986      3.8784      3.5298      3.3384      3.2943      3.3953    
  3.6489      4.0707      4.6800      5.4912      6.5040      7.6914      8.9933      10.318      11.531      12.390    
  12.717      12.514      11.966      11.373      11.013      11.016      11.304      11.629      11.701      11.327    
  11.579      10.825      9.6752      8.4117      7.1795      6.0700      5.1395      4.4100      3.8784      3.5300    
  3.3487      3.3243      3.4561      3.7542      4.2366      4.9234      5.8263      6.9364      8.2119      9.5729    
  10.900      11.937      12.397      12.167      11.373      10.356      9.5440      9.2702      9.6256      10.415    
  11.248      11.718      11.640      11.739      11.058      9.8732      8.5429      7.2510      6.0970      5.1395    
  4.3986      3.8680      3.5305      3.3688      3.3732      3.5452      3.8979      4.4513      5.2251      6.2257    
  7.4318      8.7827      10.175      11.399      12.081      11.955      11.013      9.5440      8.0626      7.1179    
  7.0683      7.9212      9.3285      10.741      10.219      11.525      11.830      11.197      9.9745      8.5875    
  7.2510      6.0700      5.1023      4.3648      3.8475      3.5310      3.3976      3.4392      3.6601      4.0760    
  4.7088      5.5758      6.6751      7.9696      9.3762      10.747      11.719      11.877      11.016      9.2702    
  7.1180      5.2489      4.3097      4.6385      6.1152      8.2122      7.2470      9.7942      11.429      11.869    
  11.243      9.9745      8.5429      7.1795      5.9902      5.0297      4.3098      3.8174      3.5312      3.4342    
  3.5203      3.7971      4.2833      5.0010      5.9633      7.1572      8.5267      9.9645      11.218      11.800    
  11.304      9.6256      7.0683      4.3097      2.1967      1.4311      2.2801      4.4579      3.1911      6.5939    
  9.5569      11.393      11.869      11.197      9.8732      8.4117      7.0402      5.8616      4.9247      4.2361    
  3.7789      3.5311      3.4771      3.6139      3.9523      4.5133      5.3180      6.3734      7.6530      9.0802    
  10.509      11.541      11.629      10.415      7.9212      4.6385      1.4311     -.73509     -1.1581     0.30864    
 -.99999      2.5056      6.3632      9.5569      11.429      11.830      11.058      9.6752      8.2001      6.8397    
  5.6903      4.7925      4.1467      3.7334      3.5307      3.5251      3.7170      4.1204      4.7578      5.6483    
  6.7906      8.1429      9.6082      10.970      11.701      11.248      9.3285      6.1153      2.2801     -1.1581    
 -3.1701     -3.1132     -4.1644     -1.4582      2.5056      6.5939      9.7942      11.525      11.739      10.825    
  9.3895      7.9183      6.5881      5.4845      4.6388      4.0455      3.6830      3.5303      3.5766      3.8260    
  4.2955      5.0079      5.9790      7.1981      8.6075      10.089      11.327      11.718      10.741      8.2122    
  4.4579     0.30864     -3.1132     -4.7803     -4.1643     -3.2965     -.50766      3.3484      7.1795      10.053    
  11.472      11.453      10.414      8.9557      7.5035      6.2091      5.1491      4.3473      3.7935      3.4642    
  3.3386      3.4074      3.6761      4.1633      4.8927      5.8797      7.1106      8.5225      9.9900      11.170    
  11.468      10.402      7.8466      4.1818     0.25754     -2.8385     -3.2966     -4.1644     -2.8385     0.25755    
  4.1818      7.8466      10.401      11.468      11.171      9.9900      8.5224      7.1106      5.8798      4.8928    
  4.1633      3.6761      3.4074      3.3386      3.4642      3.7935      4.3473      5.1491      6.2092      7.5035    
  8.9557      10.414      11.453      11.472      10.053      7.1795      3.3484     -.50758     -.41505     -2.7381    
 -3.1131     -1.4300      1.7663      5.5030      8.7586      10.811      11.420      10.811      9.5072      8.0544    
  6.6987      5.5445      4.6394      3.9872      3.5690      3.3613      3.3488      3.5297      3.9167      4.5323    
  5.3983      6.5193      7.8617      9.3377      10.768      11.672      11.482      9.8568      6.8806      3.1362    
  3.5826     0.52422     -1.2412     -1.1581     0.72957      3.7988      7.1065      9.7524      11.175      11.277    
  10.370      8.9859      7.5684      6.2835      5.2161      4.3984      3.8254      3.4757      3.3275      3.3688    
  3.6015      4.0410      4.7106      5.6297      6.7970      8.1699      9.6524      11.042      11.843      11.539    
  9.8713      7.0097      7.5526      4.6233      2.1761     0.98504      1.4311      3.3418      6.0677      8.7523    
  10.657      11.396      11.005      9.8542      8.4459      7.0813      5.8801      4.9064      4.1780      3.6831    
  3.3993      3.3070      3.3976      3.6765      4.1613      4.8748      5.8332      7.0292      8.4135      9.8852    
  11.230      11.971      11.657      10.108      10.529      8.4236      6.1036      4.3075      3.6376      4.3097    
  6.0619      8.2710      10.212      11.329      11.409      10.598      9.2937      7.9053      6.6107      5.5026    
  4.6257      3.9854      3.5649      3.3420      3.3000      3.4340      3.7522      4.2728      5.0177      5.9993    
  7.2049      8.5804      10.024      11.327      12.055      11.826      12.009      11.056      9.4820      7.8069    
  6.6271      6.3717      7.1179      8.5600      10.146      11.309      11.679      11.196      10.084      8.7254    
  7.3836      6.1732      5.1641      4.3831      3.8261      3.4738      3.3052      3.3069      3.4769      3.8254    
  4.3709      5.1328      6.1198      7.3148      8.6611      10.060      11.325      12.078      12.020      12.153    
  11.587      10.558      9.4928      8.8367      8.8617      9.5439      10.577      11.513      11.951      11.690    
  10.790      9.5191      8.1754      6.9014      5.7852      4.8756      4.1857      3.7047      3.4125      3.2903    
  3.3275      3.5249      3.8937      4.4515      5.2148      6.1886      7.3527      8.6508      9.9896      11.216    
  10.996      11.856      12.199      12.011      11.485      10.941      10.683      10.855      11.373      11.965    
  12.301      12.136      11.411      10.268      8.9643      7.6686      6.4783      5.4602      4.6462      4.0391    
  3.6245      3.3826      3.2975      3.3613      3.5765      3.9544      4.5109      5.2595      6.2020      7.3164    
  8.5489      9.8151      9.5434      10.666      11.569      12.097      12.238      12.130      11.989      11.999    
  12.210      12.514      12.697      12.546      11.948      10.948      9.7271      8.4541      7.2292      6.1313    
  5.2094      4.4826      3.9471      3.5873      3.3851      3.3269      3.4073      3.6298      4.0050      4.5464    
  5.2647      6.1589      7.2070      8.3598      8.0925      9.1863      10.239      11.155      11.821      12.214    
  12.418      12.558      12.723      12.905      12.999      12.858      12.371      11.526      10.432      9.2308    
  8.0182      6.8783      5.8739      5.0408      4.3892      3.9122      3.5944      3.4199      3.3778      3.4642    
  3.6829      4.0431      4.5561      5.2297      6.0613      7.0299      6.7937      7.7595      8.7595      9.7350    
  10.630      11.374      11.935      12.346      12.659      12.900      13.029      12.962      12.613      11.952    
  11.035      9.9609      8.8155      7.6820      6.6319      5.7156      4.9593      4.3685      3.9352      3.6456    
  3.4863      3.4486      3.5298      3.7333      4.0668      4.5392      5.1561      5.9137      5.7235      6.5097    
  7.3763      8.2817      9.1797      10.029      10.795      11.446      11.975      12.385      12.659      12.749    
  12.596      12.165      11.478      10.594      9.5788      8.5108      7.4644      6.5010      5.6619      4.9675    
  4.4213      4.0160      3.7400      3.5826      3.5370      3.6016      3.7789      4.0749      4.4964      5.0471    
  4.9083      5.4998      6.1914      6.9600      7.7736      8.5969      9.3973      10.149      10.830      11.417    
  11.880      12.179      12.269      12.114      11.708      11.072      10.254      9.3190      8.3380      7.3776    
  6.4914      5.7150      5.0658      4.5470      4.1530      3.8752      3.7059      3.6401      3.6767      3.8175    
  4.0668      4.4296      4.3421      4.7462      5.2531      5.8531      6.5291      7.2575      8.0123      8.7685    
  9.5035      10.194      10.809      11.310      11.649      11.783      11.682      11.341      10.782      10.049    
  9.2035      8.3094      7.4272      6.6049      5.8745      5.2525      4.7429      4.3431      4.0479      3.8526    
  3.7543      3.7523      3.8476      4.0431      4.0050      4.2380      4.5685      4.9946      5.5097      6.1019    
  6.7552      7.4517      8.1726      8.8978      9.6017      10.249      10.796      11.191      11.390      11.364    
  11.108      10.640      10.000      9.2437      8.4295      7.6132      6.8390      6.1371      5.5236      5.0048    
  4.5818      4.2533      4.0182      3.8757      3.8255      3.8682      3.8785      3.9545      4.1223      4.3829    
  4.7350      5.1750      5.6956      6.2874      6.9393      7.6377      8.3643      9.0920      9.7822      10.386    
  10.852      11.132      11.197      11.036      10.663      10.115      9.4400      8.6944      7.9296      7.1872    
  6.4957      5.8721      5.3257      4.8620      4.4849      4.1971      3.9999      3.8938      3.9544      3.8786    
  3.8938      3.9999      4.1970      4.4849      4.8621      5.3257      5.8721      6.4957      7.1873      7.9296    
  8.6944      9.4400      10.115      10.663      11.036      11.197      11.132      10.852      10.386      9.7822    
  9.0920      8.3643      7.6377      6.9393      6.2874      5.6956      5.1750      4.7351      4.3828      4.1223    
  4.2380      4.0050      3.8681      3.8255      3.8757      4.0182      4.2533      4.5818      5.0049      5.5236    
  6.1371      6.8390      7.6131      8.4295      9.2437      10.000      10.640      11.108      11.364      11.390    
  11.191      10.796      10.249      9.6017      8.8978      8.1726      7.4517      6.7552      6.1019      5.5096    
  4.9945      4.5685      4.7463      4.3420      4.0431      3.8476      3.7523      3.7543      3.8526      4.0479    
  4.3432      4.7430      5.2525      5.8745      6.6049      7.4272      8.3094      9.2035      10.049      10.782    
  11.341      11.682      11.783      11.649      11.310      10.809      10.194      9.5035      8.7685      8.0123    
  7.2575      6.5291      5.8531      5.2531      5.4998      4.9083      4.4296      4.0668      3.8175      3.6766    
  3.6401      3.7058      3.8752      4.1530      4.5470      5.0658      5.7150      6.4914      7.3776      8.3380    
  9.3190      10.254      11.072      11.708      12.114      12.269      12.179      11.880      11.417      10.831    
  10.149      9.3973      8.5969      7.7737      6.9600      6.1914      6.5097      5.7235      5.0472      4.4964    
  4.0749      3.7788      3.6015      3.5370      3.5825      3.7399      4.0160      4.4214      4.9675      5.6619    
  6.5010      7.4645      8.5108      9.5788      10.594      11.478      12.165      12.596      12.749      12.659    
  12.385      11.975      11.446      10.795      10.029      9.1798      8.2817      7.3762      7.7596      6.7937    
  5.9137      5.1560      4.5392      4.0668      3.7333      3.5298      3.4486      3.4863      3.6456      3.9352    
  4.3685      4.9593      5.7156      6.6319      7.6820      8.8155      9.9609      11.035      11.952      12.613    
  12.962      13.029      12.900      12.659      12.346      11.935      11.374      10.630      9.7350      8.7595    
  9.1863      8.0925      7.0299      6.0613      5.2297      4.5561      4.0431      3.6829      3.4642      3.3778    
  3.4199      3.5944      3.9122      4.3892      5.0408      5.8739      6.8783      8.0182      9.2308      10.432    
  11.526      12.371      12.858      12.999      12.905      12.723      12.558      12.418      12.214      11.821    
  11.155      10.239      10.666      9.5434      8.3599      7.2071      6.1589      5.2647      4.5464      4.0050    
  3.6298      3.4073      3.3269      3.3851      3.5873      3.9471      4.4826      5.2094      6.1313      7.2292    
  8.4541      9.7271      10.948      11.948      12.546      12.697      12.514      12.210      11.999      11.989    
  12.130      12.238      12.097      11.569      11.856      10.996      9.8151      8.5489      7.3164      6.2020    
  5.2595      4.5109      3.9544      3.5765      3.3613      3.2975      3.3827      3.6244      4.0391      4.6462    
  5.4602      6.4782      7.6686      8.9643      10.268      11.411      12.136      12.301      11.965      11.373    
  10.855      10.683      10.941      11.485      12.011      12.198      12.153      12.020      11.216      9.9896    
  8.6508      7.3528      6.1886      5.2147      4.4514      3.8938      3.5250      3.3275      3.2903      3.4126    
  3.7048      4.1857      4.8756      5.7851      6.9014      8.1754      9.5191      10.790      11.690      11.951    
  11.513      10.577      9.5439      8.8617      8.8367      9.4929      10.558      11.587      11.056      12.009    
  12.078      11.325      10.060      8.6612      7.3148      6.1198      5.1328      4.3710      3.8255      3.4770    
  3.3069      3.3053      3.4739      3.8261      4.3830      5.1641      6.1733      7.3837      8.7254      10.084    
  11.196      11.680      11.309      10.146      8.5600      7.1180      6.3717      6.6271      7.8069      9.4820    
  8.4236      10.529      11.826      12.055      11.327      10.024      8.5804      7.2049      5.9993      5.0177    
  4.2729      3.7522      3.4341      3.3001      3.3420      3.5648      3.9853      4.6257      5.5026      6.6106    
  7.9053      9.2937      10.598      11.409      11.329      10.212      8.2711      6.0619      4.3097      3.6376    
  4.3075      6.1036      4.6232      7.5526      10.108      11.657      11.971      11.230      9.8852      8.4136    
  7.0292      5.8332      4.8748      4.1614      3.6766      3.3976      3.3069      3.3993      3.6832      4.1780    
  4.9064      5.8801      7.0814      8.4459      9.8542      11.005      11.396      10.657      8.7524      6.0677    
  3.3419      1.4312     0.98520      2.1761     0.52422      3.5827      7.0098      9.8713      11.539      11.843    
  11.042      9.6524      8.1699      6.7969      5.6297      4.7106      4.0410      3.6015      3.3688      3.3276    
  3.4757      3.8254      4.3983      5.2161      6.2836      7.5684      8.9858      10.369      11.277      11.175    
  9.7523      7.1065      3.7988     0.72972     -1.1580     -1.2412     -2.7380     -.41495      3.1362      6.8805    
  9.8567      11.482      11.672      10.768      9.3376      7.8617      6.5193      5.3983      4.5322      3.9168    
  3.5298      3.3489      3.3613      3.5689      3.9872      4.6394      5.5445      6.6987      8.0544      9.5072    
  10.811      11.420      10.811      8.7586      5.5031      1.7664     -1.4300     -3.1131     -.99972     -.41487    
  1.8312      5.0287      8.2311      10.609      11.706      11.525      10.436      8.9805      7.5378      6.2475    
  5.1839      4.3712      3.8003      3.4485      3.2943      3.3269      3.5494      3.9781      4.6363      5.5419    
  6.6893      8.0297      9.4595      10.744      11.372      10.868      9.0507      6.1756      2.9328     0.25768    
 -.50749     -1.4580     -.50748      2.0326      5.3599      8.5066      10.691      11.546      11.162      9.9706    
  8.5184      7.1193      5.8940      4.9048      4.1666      3.6654      3.3777      3.2843      3.3777      3.6655    
  4.1667      4.9049      5.8940      7.1193      8.5184      9.9706      11.162      11.546      10.691      8.5066    
  5.3599      2.0326      1.8312     -.41488     -.99972     0.25770      2.9328      6.1756      9.0507      10.868    
  11.372      10.744      9.4595      8.0297      6.6893      5.5419      4.6363      3.9781      3.5494      3.3269    
  3.2943      3.4485      3.8004      4.3713      5.1839      6.2475      7.5377      8.9805      10.436      11.525    
  11.706      10.609      8.2311      5.0287      5.2465      2.3648     0.52434     0.30878      1.7665      4.3903    
  7.3333      9.7435      11.058      11.146      10.269      8.9218      7.5313      6.2632      5.2038      4.3877    
  3.8118      3.4557      3.2975      3.3244      3.5370      3.9495      4.5845      5.4631      6.5887      7.9281    
  9.3978      10.840      11.839      11.885      10.677      8.2939      8.7019      5.9882      3.5584      2.1761    
  2.2802      3.7989      6.1827      8.6383      10.440      11.175      10.834      9.7415      8.3754      7.0393    
  5.8553      4.8909      4.1666      3.6726      3.3870      3.2903      3.3732      3.6400      4.1075      4.7986    
  5.7312      6.9029      8.2731      9.7519      11.169      12.103      12.095      10.915      11.297      9.3976    
  7.1451      5.2403      4.3075      4.6385      6.0677      8.0474      9.8824      11.002      11.149      10.422    
  9.1821      7.8358      6.5691      5.4785      4.6127      3.9796      3.5644      3.3452      3.3053      3.4391    
  3.7543      4.2688      5.0046      5.9763      7.1758      8.5561      10.024      11.408      12.310      12.328    
  12.552      11.764      10.271      8.5449      7.1721      6.6270      7.0681      8.2709      9.7315      10.884    
  11.326      10.944      9.9214      8.6211      7.3192      6.1356      5.1447      4.3773      3.8317      3.4898    
  3.3312      3.3420      3.5202      3.8757      4.4269      5.1939      6.1873      7.3935      8.7618      10.199    
  11.544      12.441      12.474      12.720      12.227      11.181      9.9821      9.0911      8.8366      9.2700    
  10.146      11.037      11.525      11.365      10.570      9.3739      8.0807      6.8433      5.7532      4.8637    
  4.1911      3.7266      3.4508      3.3452      3.3994      3.6138      3.9999      4.5756      5.3580      6.3535    
  7.5444      8.8780      10.265      11.563      11.455      12.386      12.781      12.592      11.979      11.256    
  10.757      10.683      11.013      11.513      11.855      11.765      11.139      10.080      8.8329      7.5818    
  6.4255      5.4344      4.6439      4.0592      3.6670      3.4483      3.3871      3.4757      3.7170      4.1224    
  4.7084      5.4890      6.4664      7.6198      8.8971      10.214      10.049      11.217      12.157      12.690    
  12.776      12.540      12.205      11.990      11.998      12.167      12.301      12.176      11.648      10.723    
  9.5572      8.3312      7.1463      6.0819      5.1899      4.4917      3.9849      3.6543      3.4825      3.4558    
  3.5690      3.8260      4.2381      4.8193      5.5802      6.5195      7.6149      8.8167      8.6399      9.7754    
  10.858      11.783      12.419      12.726      12.784      12.735      12.703      12.723      12.717      12.546    
  12.080      11.281      10.229      9.0683      7.8964      6.7945      5.8260      5.0277      4.4114      3.9703    
  3.6893      3.5527      3.5495      3.6762      3.9371      4.3421      4.9029      5.6268      6.5097      7.5292    
  7.3668      8.3752      9.4062      10.395      11.277      11.969      12.428      12.691      12.832      12.904    
  12.900      12.751      12.371      11.712      10.809      9.7603      8.6492      7.5537      6.5431      5.6675    
  4.9532      4.4055      4.0163      3.7714      3.6575      3.6656      3.7936      4.0455      4.4296      4.9550    
  5.6260      6.4370      6.3051      7.1358      8.0359      8.9591      9.8536      10.672      11.371      11.914    
  12.303      12.558      12.686      12.659      12.427      11.952      11.244      10.362      9.3665      8.3301    