unknown system                          
   1.00000000000000     
    -2.450000    2.450000    1.274000
     2.450000   -2.450000    1.274000
     2.450000    2.450000   -1.274000
   Si
     2
Direct
  0.250000  0.750000  0.500000
  0.000000  0.000000  0.000000
 
   32   32   32
 -.53431674948E+01 -.41643850186E+01 -.99998781424E+00 0.31910748918E+01 0.72470222564E+01
 0.10218939264E+02 0.11640360547E+02 0.11578690446E+02 0.10500247739E+02 0.90286944393E+01
 0.75793761119E+01 0.62968072620E+01 0.52535712911E+01 0.44707155214E+01 0.39370975848E+01
 0.36299525235E+01 0.35300140784E+01 0.36299541890E+01 0.39370757856E+01 0.44706763416E+01
 0.52535491485E+01 0.62968055970E+01 0.75793680187E+01 0.90286791378E+01 0.10500248230E+02
 0.11578700692E+02 0.11640355368E+02 0.10218929473E+02 0.72470369809E+01 0.31910977593E+01
 -.99999749790E+00 -.41644149671E+01 -.41644149671E+01 -.47803263968E+01 -.31132028699E+01
 0.30864105283E+00 0.44578648824E+01 0.82122018284E+01 0.10740677422E+02 0.11718379271E+02
 0.11327003312E+02 0.10089423463E+02 0.86075008705E+01 0.71980546014E+01 0.59790260757E+01
 0.50079267233E+01 0.42954945331E+01 0.38260339479E+01 0.35766023320E+01 0.35302310216E+01
 0.36829712691E+01 0.40454261626E+01 0.46387334119E+01 0.54844708839E+01 0.65881116728E+01
 0.79183076540E+01 0.93894901103E+01 0.10825354370E+02 0.11739367992E+02 0.11525336305E+02
 0.97942227145E+01 0.65939073032E+01 0.25055778774E+01 -.14581978585E+01 -.99999749790E+00
 -.31132268017E+01 -.31700894844E+01 -.11580813299E+01 0.22800938727E+01 0.61152499869E+01
 0.93285169406E+01 0.11247623537E+02 0.11700557021E+02 0.10970191198E+02 0.96081676422E+01
 0.81428780805E+01 0.67905811529E+01 0.56482439992E+01 0.47577720997E+01 0.41204288408E+01
 0.37169702188E+01 0.35250542120E+01 0.35306166847E+01 0.37333177531E+01 0.41465997017E+01
 0.47924476370E+01 0.56903036440E+01 0.68397453078E+01 0.82000424843E+01 0.96752003527E+01
 0.11058068426E+02 0.11829581449E+02 0.11429447070E+02 0.95569254929E+01 0.63632471645E+01
 0.25055778774E+01 0.31910977593E+01 0.30863571246E+00 -.11580956851E+01 -.73509381578E+00
 0.14311092500E+01 0.46384805102E+01 0.79212127582E+01 0.10414806296E+02 0.11629080193E+02
 0.11540541313E+02 0.10509188010E+02 0.90801954709E+01 0.76529977267E+01 0.63734191588E+01
 0.53179660633E+01 0.45132536860E+01 0.39523241141E+01 0.36138116854E+01 0.34770051968E+01
 0.35310513537E+01 0.37788567038E+01 0.42360349072E+01 0.49247200331E+01 0.58615844412E+01
 0.70401629408E+01 0.84116607199E+01 0.98732016533E+01 0.11197034028E+02 0.11868974390E+02
 0.11392770884E+02 0.95569254929E+01 0.65939073032E+01 0.72470369809E+01 0.44578796111E+01
 0.22800929855E+01 0.14311050782E+01 0.21966577793E+01 0.43097018901E+01 0.70682728438E+01
 0.96256485314E+01 0.11304374684E+02 0.11800065941E+02 0.11218301911E+02 0.99645167333E+01
 0.85266986247E+01 0.71571569365E+01 0.59632746561E+01 0.50010018994E+01 0.42833118549E+01
 0.37970929051E+01 0.35202187572E+01 0.34341195176E+01 0.35312080845E+01 0.38173956328E+01
 0.43097907392E+01 0.50296687012E+01 0.59902447500E+01 0.71795296352E+01 0.85429274272E+01
 0.99745526327E+01 0.11243239857E+02 0.11868974390E+02 0.11429447070E+02 0.97942227145E+01
 0.10218929473E+02 0.82122041284E+01 0.61152553407E+01 0.46384839551E+01 0.43097060102E+01
 0.52488953488E+01 0.71179476631E+01 0.92701594345E+01 0.11016472844E+02 0.11877287807E+02
 0.11719432696E+02 0.10747360783E+02 0.93761875547E+01 0.79695867977E+01 0.66750778731E+01
 0.55757401856E+01 0.47087724707E+01 0.40759822820E+01 0.36600210922E+01 0.34391560429E+01
 0.33975779889E+01 0.35309678581E+01 0.38475161602E+01 0.43647612444E+01 0.51023536494E+01
 0.60699831144E+01 0.72510459939E+01 0.85874893260E+01 0.99745526327E+01 0.11197034028E+02
 0.11829581449E+02 0.11525336305E+02 0.11640355368E+02 0.10740666397E+02 0.93285098652E+01
 0.79212112796E+01 0.70682778643E+01 0.71179553745E+01 0.80625749057E+01 0.95439697205E+01
 0.11012804641E+02 0.11955448257E+02 0.12080972848E+02 0.11398804738E+02 0.10175362036E+02
 0.87826956349E+01 0.74318523624E+01 0.62256707869E+01 0.52250945990E+01 0.44513306684E+01
 0.38978563868E+01 0.35452016178E+01 0.33731390259E+01 0.33687705953E+01 0.35305134396E+01
 0.38680472737E+01 0.43985847839E+01 0.51395553302E+01 0.60970506882E+01 0.72510459939E+01
 0.85429274272E+01 0.98732016533E+01 0.11058068426E+02 0.11739367992E+02 0.11578700692E+02
 0.11718380171E+02 0.11247614954E+02 0.10414793660E+02 0.96256406786E+01 0.92701628827E+01
 0.95439780559E+01 0.10356361964E+02 0.11373005645E+02 0.12166887793E+02 0.12397491786E+02
 0.11936973210E+02 0.10899509660E+02 0.95729196804E+01 0.82119025219E+01 0.69364046812E+01
 0.58262882397E+01 0.49233575654E+01 0.42365840512E+01 0.37541577243E+01 0.34561357291E+01
 0.33243469781E+01 0.33487512821E+01 0.35300158057E+01 0.38784549731E+01 0.44100450088E+01
 0.51395553302E+01 0.60699831144E+01 0.71795296352E+01 0.84116607199E+01 0.96752003527E+01
 0.10825354370E+02 0.10500248230E+02 0.11327012332E+02 0.11700561241E+02 0.11629072831E+02
 0.11304360197E+02 0.11016463169E+02 0.11012807092E+02 0.11373013004E+02 0.11966478771E+02
 0.12513988972E+02 0.12717288442E+02 0.12389798396E+02 0.11530754541E+02 0.10318098884E+02
 0.89933290272E+01 0.76914063166E+01 0.65039555355E+01 0.54912034608E+01 0.46799679349E+01
 0.40707383924E+01 0.36488829480E+01 0.33952940357E+01 0.32943253716E+01 0.33384919711E+01
 0.35298466145E+01 0.38784549731E+01 0.43985847839E+01 0.51023536494E+01 0.59902447500E+01
 0.70401629408E+01 0.82000424843E+01 0.93894901103E+01 0.90286791378E+01 0.10089417294E+02
 0.10970193011E+02 0.11540544268E+02 0.11800063580E+02 0.11877278614E+02 0.11955439391E+02
 0.12166887993E+02 0.12513994989E+02 0.12860945146E+02 0.12999445680E+02 0.12750838973E+02
 0.12052432719E+02 0.10989925656E+02 0.97502468193E+01 0.84701711775E+01 0.72459021135E+01
 0.61515300838E+01 0.52314880418E+01 0.45018252176E+01 0.39579804989E+01 0.35846437216E+01
 0.33644457109E+01 0.32842252079E+01 0.33384919711E+01 0.35300158057E+01 0.38680472737E+01
 0.43647612444E+01 0.50296687012E+01 0.58615844412E+01 0.68397453078E+01 0.79183076540E+01
 0.75793680187E+01 0.86074860235E+01 0.96081545889E+01 0.10509184163E+02 0.11218306853E+02
 0.11719436445E+02 0.12080967008E+02 0.12397482724E+02 0.12717288661E+02 0.12999452848E+02
 0.13126040042E+02 0.12961760114E+02 0.12427202954E+02 0.11547753571E+02 0.10447381049E+02
 0.92442648182E+01 0.80328682225E+01 0.68955237493E+01 0.58918001241E+01 0.50546145746E+01
 0.43932956290E+01 0.39009888454E+01 0.35630880690E+01 0.33644457109E+01 0.32943253716E+01
 0.33487512821E+01 0.35305134396E+01 0.38475161602E+01 0.43097907392E+01 0.49247200331E+01
 0.56903036440E+01 0.65881116728E+01 0.62968055970E+01 0.71980524042E+01 0.81428699315E+01
 0.90801836221E+01 0.99645098362E+01 0.10747364116E+02 0.11398810436E+02 0.11936970635E+02
 0.12389792138E+02 0.12750841485E+02 0.12961768684E+02 0.12933758200E+02 0.12595516822E+02
 0.11940105423E+02 0.11037591222E+02 0.99736562171E+01 0.88345334116E+01 0.77047015661E+01
 0.66545913709E+01 0.57329506955E+01 0.49651521391E+01 0.43568908541E+01 0.39009888454E+01
 0.35846437216E+01 0.33952940357E+01 0.33243469781E+01 0.33687705953E+01 0.35309678581E+01
 0.38173956328E+01 0.42360349072E+01 0.47924476370E+01 0.54844708839E+01 0.52535491485E+01
 0.59790260934E+01 0.67905913087E+01 0.76529995623E+01 0.85266866000E+01 0.93761769709E+01
 0.10175366469E+02 0.10899519658E+02 0.11530754207E+02 0.12052426729E+02 0.12427206278E+02
 0.12595526270E+02 0.12498812380E+02 0.12113880276E+02 0.11466201030E+02 0.10606934594E+02
 0.96073593313E+01 0.85471518901E+01 0.75016817988E+01 0.65320582443E+01 0.56795584949E+01
 0.49651521391E+01 0.43932956290E+01 0.39579804989E+01 0.36488829480E+01 0.34561357291E+01
 0.33731390259E+01 0.33975779889E+01 0.35312080845E+01 0.37788567038E+01 0.41465997017E+01
 0.46387334119E+01 0.44706763416E+01 0.50079080156E+01 0.56482501398E+01 0.63734362513E+01
 0.71571631090E+01 0.79695781107E+01 0.87826898432E+01 0.95729275261E+01 0.10318107721E+02
 0.10989922675E+02 0.11547747735E+02 0.11940110008E+02 0.12113889076E+02 0.12031331201E+02
 0.11682054973E+02 0.11087514433E+02 0.10296730482E+02 0.93764292731E+01 0.83993025389E+01
 0.74330536379E+01 0.65320582443E+01 0.57329506955E+01 0.50546145746E+01 0.45018252176E+01
 0.40707383924E+01 0.37541577243E+01 0.35452016178E+01 0.34391560429E+01 0.34341195176E+01
 0.35310513537E+01 0.37333177531E+01 0.40454261626E+01 0.39370757856E+01 0.42954740100E+01
 0.47577607914E+01 0.53179749427E+01 0.59632959651E+01 0.66750901430E+01 0.74318491285E+01
 0.82118989438E+01 0.89933353884E+01 0.97502536807E+01 0.10447378845E+02 0.11037586929E+02
 0.11466203809E+02 0.11682060148E+02 0.11650799699E+02 0.11364484415E+02 0.10844012836E+02
 0.10134708732E+02 0.92976415722E+01 0.83993025389E+01 0.75016817988E+01 0.66545913709E+01
 0.58918001241E+01 0.52314880418E+01 0.46799679349E+01 0.42365840512E+01 0.38978563868E+01
 0.36600210922E+01 0.35202187572E+01 0.34770051968E+01 0.35306166847E+01 0.36829712691E+01
 0.36299541890E+01 0.38260420992E+01 0.41204289521E+01 0.45132548299E+01 0.50010170862E+01
 0.55757617620E+01 0.62256805534E+01 0.69364012908E+01 0.76914051098E+01 0.84701788857E+01
 0.92442715568E+01 0.99736543411E+01 0.10606929875E+02 0.11087513813E+02 0.11364485744E+02
 0.11403958455E+02 0.11196721706E+02 0.10760151436E+02 0.10134708732E+02 0.93764292731E+01
 0.85471518901E+01 0.77047015661E+01 0.68955237493E+01 0.61515300838E+01 0.54912034608E+01
 0.49233575654E+01 0.44513306684E+01 0.40759822820E+01 0.37970929051E+01 0.36138116854E+01
 0.35250542120E+01 0.35302310216E+01 0.35300140784E+01 0.35766314756E+01 0.37170060433E+01
 0.39523480975E+01 0.42833254980E+01 0.47087851973E+01 0.52251070354E+01 0.58262947192E+01
 0.65039560596E+01 0.72459028878E+01 0.80328722913E+01 0.88345373777E+01 0.96073594271E+01
 0.10296727380E+02 0.10844009614E+02 0.11196720082E+02 0.11318599442E+02 0.11196721706E+02
 0.10844012836E+02 0.10296730482E+02 0.96073593313E+01 0.88345334116E+01 0.80328682225E+01
 0.72459021135E+01 0.65039555355E+01 0.58262882397E+01 0.52250945990E+01 0.47087724707E+01
 0.42833118549E+01 0.39523241141E+01 0.37169702188E+01 0.35766023320E+01 0.36299525235E+01
 0.35302567060E+01 0.35251056646E+01 0.36138649784E+01 0.37971274008E+01 0.40759973586E+01
 0.44513380981E+01 0.49233650371E+01 0.54912088311E+01 0.61515292099E+01 0.68955195116E+01
 0.77047014185E+01 0.85471571828E+01 0.93764328750E+01 0.10134705806E+02 0.10760146405E+02
 0.11196720082E+02 0.11403958455E+02 0.11364484415E+02 0.11087514433E+02 0.10606934594E+02
 0.99736562171E+01 0.92442648182E+01 0.84701711775E+01 0.76914063166E+01 0.69364046812E+01
 0.62256707869E+01 0.55757401856E+01 0.50010018994E+01 0.45132536860E+01 0.41204288408E+01
 0.38260339479E+01 0.39370975848E+01 0.36830002903E+01 0.35306599721E+01 0.34770584300E+01
 0.35202689018E+01 0.36600554801E+01 0.38978703252E+01 0.42365844285E+01 0.46799667083E+01
 0.52314891499E+01 0.58917982653E+01 0.66545855076E+01 0.75016797051E+01 0.83993073089E+01
 0.92976451524E+01 0.10134705806E+02 0.10844009614E+02 0.11364485744E+02 0.11650799699E+02
 0.11682054973E+02 0.11466201030E+02 0.11037591222E+02 0.10447381049E+02 0.97502468193E+01
 0.89933290272E+01 0.82119025219E+01 0.74318523624E+01 0.66750778731E+01 0.59632746561E+01
 0.53179660633E+01 0.47577720997E+01 0.42954945331E+01 0.44707155214E+01 0.40454731344E+01
 0.37333625875E+01 0.35310917866E+01 0.34341592389E+01 0.34391940760E+01 0.35452255844E+01
 0.37541579173E+01 0.40707256574E+01 0.45018198407E+01 0.50546187740E+01 0.57329497548E+01
 0.65320485294E+01 0.74330484626E+01 0.83993073089E+01 0.93764328750E+01 0.10296727380E+02
 0.11087513813E+02 0.11682060148E+02 0.12031331201E+02 0.12113880276E+02 0.11940105423E+02
 0.11547753571E+02 0.10989925656E+02 0.10318098884E+02 0.95729196804E+01 0.87826956349E+01
 0.79695867977E+01 0.71571569365E+01 0.63734191588E+01 0.56482439992E+01 0.50079267233E+01
 0.52535712911E+01 0.46387767310E+01 0.41466521913E+01 0.37789010976E+01 0.35312351227E+01
 0.33975936708E+01 0.33731506088E+01 0.34561375171E+01 0.36488690923E+01 0.39579629107E+01
 0.43932905053E+01 0.49651553746E+01 0.56795547558E+01 0.65320485294E+01 0.75016797051E+01
 0.85471571828E+01 0.96073594271E+01 0.10606929875E+02 0.11466203809E+02 0.12113889076E+02
 0.12498812380E+02 0.12595516822E+02 0.12427202954E+02 0.12052432719E+02 0.11530754541E+02
 0.10899509660E+02 0.10175362036E+02 0.93761875547E+01 0.85266986247E+01 0.76529977267E+01
 0.67905811529E+01 0.59790260757E+01 0.62968072620E+01 0.54844841018E+01 0.47924819762E+01
 0.42360803032E+01 0.38174246599E+01 0.35309662537E+01 0.33687537573E+01 0.33243340327E+01
 0.33952811705E+01 0.35846204281E+01 0.39009645426E+01 0.43568822415E+01 0.49651553746E+01
 0.57329497548E+01 0.66545855076E+01 0.77047014185E+01 0.88345373777E+01 0.99736543411E+01
 0.11037586929E+02 0.11940110008E+02 0.12595526270E+02 0.12933758200E+02 0.12961760114E+02
 0.12750838973E+02 0.12389798396E+02 0.11936973210E+02 0.11398804738E+02 0.10747360783E+02
 0.99645167333E+01 0.90801954709E+01 0.81428780805E+01 0.71980546014E+01 0.75793761119E+01
 0.65881118553E+01 0.56903069859E+01 0.49247371942E+01 0.43098115092E+01 0.38475156211E+01
 0.35304842844E+01 0.33487135614E+01 0.32942962914E+01 0.33644192855E+01 0.35630567912E+01
 0.39009645426E+01 0.43932905053E+01 0.50546187740E+01 0.58917982653E+01 0.68955195116E+01
 0.80328722913E+01 0.92442715568E+01 0.10447378845E+02 0.11547747735E+02 0.12427206278E+02
 0.12961768684E+02 0.13126040042E+02 0.12999445680E+02 0.12717288442E+02 0.12397491786E+02
 0.12080972848E+02 0.11719432696E+02 0.11218301911E+02 0.10509188010E+02 0.96081676422E+01
 0.86075008705E+01 0.90286944393E+01 0.79183219046E+01 0.68397458267E+01 0.58615735757E+01
 0.50296600705E+01 0.43647546203E+01 0.38680240843E+01 0.35299679982E+01 0.33384380158E+01
 0.32841857015E+01 0.33644192855E+01 0.35846204281E+01 0.39579629107E+01 0.45018198407E+01
 0.52314891499E+01 0.61515292099E+01 0.72459028878E+01 0.84701788857E+01 0.97502536807E+01
 0.10989922675E+02 0.12052426729E+02 0.12750841485E+02 0.12999452848E+02 0.12860945146E+02
 0.12513988972E+02 0.12166887793E+02 0.11955448257E+02 0.11877287807E+02 0.11800065941E+02
 0.11540541313E+02 0.10970191198E+02 0.10089423463E+02 0.10500247739E+02 0.93895040327E+01
 0.82000578905E+01 0.70401601858E+01 0.59902223948E+01 0.51023271829E+01 0.43985581969E+01
 0.38784138091E+01 0.35297876199E+01 0.33384380158E+01 0.32942962914E+01 0.33952811705E+01
 0.36488690923E+01 0.40707256574E+01 0.46799667083E+01 0.54912088311E+01 0.65039560596E+01
 0.76914051098E+01 0.89933353884E+01 0.10318107721E+02 0.11530754207E+02 0.12389792138E+02
 0.12717288661E+02 0.12513994989E+02 0.11966478771E+02 0.11373005645E+02 0.11012804641E+02
 0.11016472844E+02 0.11304374684E+02 0.11629080193E+02 0.11700557021E+02 0.11327003312E+02
 0.11578690446E+02 0.10825345427E+02 0.96752057729E+01 0.84116747222E+01 0.71795283331E+01
 0.60699551742E+01 0.51395153474E+01 0.44100070794E+01 0.38784138091E+01 0.35299679982E+01
 0.33487135614E+01 0.33243340327E+01 0.34561375171E+01 0.37541579173E+01 0.42365844285E+01
 0.49233650371E+01 0.58262947192E+01 0.69364012908E+01 0.82118989438E+01 0.95729275261E+01
 0.10899519658E+02 0.11936970635E+02 0.12397482724E+02 0.12166887993E+02 0.11373013004E+02
 0.10356361964E+02 0.95439697205E+01 0.92701594345E+01 0.96256485314E+01 0.10414806296E+02
 0.11247623537E+02 0.11718379271E+02 0.11640360547E+02 0.11739356384E+02 0.11058050280E+02
 0.98732005812E+01 0.85429414786E+01 0.72510438167E+01 0.60970179866E+01 0.51395153474E+01
 0.43985581969E+01 0.38680240843E+01 0.35304842844E+01 0.33687537573E+01 0.33731506088E+01
 0.35452255844E+01 0.38978703252E+01 0.44513380981E+01 0.52251070354E+01 0.62256805534E+01
 0.74318491285E+01 0.87826898432E+01 0.10175366469E+02 0.11398810436E+02 0.12080967008E+02
 0.11955439391E+02 0.11012807092E+02 0.95439780559E+01 0.80625749057E+01 0.71179476631E+01
 0.70682728438E+01 0.79212127582E+01 0.93285169406E+01 0.10740677422E+02 0.10218939264E+02
 0.11525346958E+02 0.11829571552E+02 0.11197011062E+02 0.99745465024E+01 0.85875013404E+01
 0.72510438167E+01 0.60699551742E+01 0.51023271829E+01 0.43647546203E+01 0.38475156211E+01
 0.35309662537E+01 0.33975936708E+01 0.34391940760E+01 0.36600554801E+01 0.40759973586E+01
 0.47087851973E+01 0.55757617620E+01 0.66750901430E+01 0.79695781107E+01 0.93761769709E+01
 0.10747364116E+02 0.11719436445E+02 0.11877278614E+02 0.11016463169E+02 0.92701628827E+01
 0.71179553745E+01 0.52488953488E+01 0.43097018901E+01 0.46384805102E+01 0.61152499869E+01
 0.82122018284E+01 0.72470222564E+01 0.97942312942E+01 0.11429463824E+02 0.11868966028E+02
 0.11243214099E+02 0.99745465024E+01 0.85429414786E+01 0.71795283331E+01 0.59902223948E+01
 0.50296600705E+01 0.43098115092E+01 0.38174246599E+01 0.35312351227E+01 0.34341592389E+01
 0.35202689018E+01 0.37971274008E+01 0.42833254980E+01 0.50010170862E+01 0.59632959651E+01
 0.71571631090E+01 0.85266866000E+01 0.99645098362E+01 0.11218306853E+02 0.11800063580E+02
 0.11304360197E+02 0.96256406786E+01 0.70682778643E+01 0.43097060102E+01 0.21966577793E+01
 0.14311092500E+01 0.22800938727E+01 0.44578648824E+01 0.31910748918E+01 0.65938839446E+01
 0.95569337013E+01 0.11392789592E+02 0.11868966028E+02 0.11197011062E+02 0.98732005812E+01
 0.84116747222E+01 0.70401601858E+01 0.58615735757E+01 0.49247371942E+01 0.42360803032E+01
 0.37789010976E+01 0.35310917866E+01 0.34770584300E+01 0.36138649784E+01 0.39523480975E+01
 0.45132548299E+01 0.53179749427E+01 0.63734362513E+01 0.76529995623E+01 0.90801836221E+01
 0.10509184163E+02 0.11540544268E+02 0.11629072831E+02 0.10414793660E+02 0.79212112796E+01
 0.46384839551E+01 0.14311050782E+01 -.73509381578E+00 -.11580813299E+01 0.30864105283E+00
 -.99998781424E+00 0.25055507703E+01 0.63632205046E+01 0.95569337013E+01 0.11429463824E+02
 0.11829571552E+02 0.11058050280E+02 0.96752057729E+01 0.82000578905E+01 0.68397458267E+01
 0.56903069859E+01 0.47924819762E+01 0.41466521913E+01 0.37333625875E+01 0.35306599721E+01
 0.35251056646E+01 0.37170060433E+01 0.41204289521E+01 0.47577607914E+01 0.56482501398E+01
 0.67905913087E+01 0.81428699315E+01 0.96081545889E+01 0.10970193011E+02 0.11700561241E+02
 0.11247614954E+02 0.93285098652E+01 0.61152553407E+01 0.22800929855E+01 -.11580956851E+01
 -.31700894844E+01 -.31132028699E+01 -.41643850186E+01 -.14581864302E+01 0.25055507703E+01
 0.65938839446E+01 0.97942312942E+01 0.11525346958E+02 0.11739356384E+02 0.10825345427E+02
 0.93895040327E+01 0.79183219046E+01 0.65881118553E+01 0.54844841018E+01 0.46387767310E+01
 0.40454731344E+01 0.36830002903E+01 0.35302567060E+01 0.35766314756E+01 0.38260420992E+01
 0.42954740100E+01 0.50079080156E+01 0.59790260934E+01 0.71980524042E+01 0.86074860235E+01
 0.10089417294E+02 0.11327012332E+02 0.11718380171E+02 0.10740666397E+02 0.82122041284E+01
 0.44578796111E+01 0.30863571246E+00 -.31132268017E+01 -.47803263968E+01 -.41642811594E+01
 -.32965340899E+01 -.50765646640E+00 0.33483739226E+01 0.71794933485E+01 0.10052744393E+02
 0.11471848850E+02 0.11452767899E+02 0.10414433252E+02 0.89557156168E+01 0.75034946646E+01
 0.62091007946E+01 0.51490917810E+01 0.43473288791E+01 0.37935274518E+01 0.34642254303E+01
 0.33385923027E+01 0.34073836605E+01 0.36761314429E+01 0.41632772150E+01 0.48927400812E+01
 0.58797433020E+01 0.71105866088E+01 0.85224774360E+01 0.99900259639E+01 0.11170468686E+02
 0.11468393712E+02 0.10401535653E+02 0.78466086452E+01 0.41817889115E+01 0.25753591760E+00
 -.28384749504E+01 -.32965595364E+01 -.41643856322E+01 -.28385393121E+01 0.25755246636E+00
 0.41818083093E+01 0.78465713035E+01 0.10401492902E+02 0.11468418527E+02 0.11170533677E+02
 0.99900409905E+01 0.85224267758E+01 0.71105516821E+01 0.58797758583E+01 0.48927842715E+01
 0.41632623824E+01 0.36760863704E+01 0.34073869789E+01 0.33386390727E+01 0.34642315557E+01
 0.37934702884E+01 0.43472919121E+01 0.51491326996E+01 0.62091570398E+01 0.75034846878E+01
 0.89556695129E+01 0.10414435270E+02 0.11452808729E+02 0.11471839905E+02 0.10052674798E+02
 0.71794647227E+01 0.33484431301E+01 -.50757827600E+00 -.41504532655E+00 -.27380850611E+01
 -.31131284047E+01 -.14299620634E+01 0.17663429417E+01 0.55029758105E+01 0.87585946838E+01
 0.10811132132E+02 0.11420293466E+02 0.10811357431E+02 0.95071693392E+01 0.80544325750E+01
 0.66987453285E+01 0.55445207035E+01 0.46393611382E+01 0.39871879215E+01 0.35689655083E+01
 0.33613343481E+01 0.33488239762E+01 0.35297457218E+01 0.39167449414E+01 0.45322743102E+01
 0.53982725728E+01 0.65192939678E+01 0.78617388065E+01 0.93376965903E+01 0.10767622686E+02
 0.11672193527E+02 0.11482269545E+02 0.98567563518E+01 0.68806296162E+01 0.31362251473E+01
 0.35826316256E+01 0.52421828521E+00 -.12412047812E+01 -.11581324413E+01 0.72957153408E+00
 0.37987653603E+01 0.71065025269E+01 0.97523511430E+01 0.11174881920E+02 0.11277072963E+02
 0.10369517396E+02 0.89858772140E+01 0.75683672398E+01 0.62835086147E+01 0.52161481712E+01
 0.43983892531E+01 0.38253887608E+01 0.34756761119E+01 0.33275067764E+01 0.33688026670E+01
 0.36015039784E+01 0.40410144105E+01 0.47105654086E+01 0.56297308289E+01 0.67969639540E+01
 0.81699134518E+01 0.96524083173E+01 0.11041606268E+02 0.11842751891E+02 0.11538715493E+02
 0.98712864281E+01 0.70097346204E+01 0.75526331897E+01 0.46232815005E+01 0.21760579905E+01
 0.98503772884E+00 0.14311059008E+01 0.33418361723E+01 0.60677193010E+01 0.87523389619E+01
 0.10657064292E+02 0.11395836001E+02 0.11004955710E+02 0.98542313206E+01 0.84458743296E+01
 0.70813409600E+01 0.58801033881E+01 0.49064232768E+01 0.41779973234E+01 0.36831286046E+01
 0.33992979998E+01 0.33069582358E+01 0.33975722823E+01 0.36765416989E+01 0.41613304983E+01
 0.48748010811E+01 0.58332493264E+01 0.70292414936E+01 0.84135460091E+01 0.98852407935E+01
 0.11230347646E+02 0.11971460579E+02 0.11656892375E+02 0.10107662999E+02 0.10528818006E+02
 0.84235823576E+01 0.61035517876E+01 0.43074721541E+01 0.36375997357E+01 0.43096590437E+01
 0.60618610190E+01 0.82709973678E+01 0.10211744907E+02 0.11329082797E+02 0.11408812437E+02
 0.10597994676E+02 0.92936645835E+01 0.79053024730E+01 0.66106578934E+01 0.55026071375E+01
 0.46257198271E+01 0.39853515420E+01 0.35648608762E+01 0.33419593566E+01 0.32999983398E+01
 0.34340154024E+01 0.37521590573E+01 0.42728471024E+01 0.50176571555E+01 0.59992644056E+01
 0.72048974995E+01 0.85804140800E+01 0.10023835511E+02 0.11327117155E+02 0.12054774298E+02
 0.11825740789E+02 0.12008753583E+02 0.11056345144E+02 0.94819820179E+01 0.78068844633E+01
 0.66271129960E+01 0.63716619903E+01 0.71178724468E+01 0.85599668139E+01 0.10145988707E+02
 0.11308907512E+02 0.11679492822E+02 0.11195867192E+02 0.10083743005E+02 0.87254409915E+01
 0.73836486349E+01 0.61732452654E+01 0.51640637540E+01 0.43831019457E+01 0.38261214501E+01
 0.34737882387E+01 0.33052428585E+01 0.33069164952E+01 0.34769382583E+01 0.38254288336E+01
 0.43708908486E+01 0.51327867599E+01 0.61198153188E+01 0.73147571136E+01 0.86611482518E+01
 0.10059816558E+02 0.11324645098E+02 0.12078300688E+02 0.12019857512E+02 0.12152536004E+02
 0.11586573513E+02 0.10558084435E+02 0.94928443851E+01 0.88366887617E+01 0.88616519366E+01
 0.95439347345E+01 0.10577442698E+02 0.11513214734E+02 0.11950534484E+02 0.11689968455E+02
 0.10790240144E+02 0.95190720029E+01 0.81754240392E+01 0.69014264913E+01 0.57851620419E+01
 0.48756020433E+01 0.41856846115E+01 0.37047321412E+01 0.34125218740E+01 0.32902617167E+01
 0.33274691496E+01 0.35249028138E+01 0.38937286697E+01 0.44514521965E+01 0.52147585276E+01
 0.61886150506E+01 0.73527345967E+01 0.86508052083E+01 0.99896382365E+01 0.11215561519E+02
 0.10995537315E+02 0.11856042980E+02 0.12198502527E+02 0.12010684981E+02 0.11484847962E+02
 0.10941042291E+02 0.10683090376E+02 0.10855141007E+02 0.11372927928E+02 0.11965256020E+02
 0.12301099189E+02 0.12136085765E+02 0.11411322908E+02 0.10268036371E+02 0.89642966805E+01
 0.76686356986E+01 0.64782512683E+01 0.54601624389E+01 0.46462110898E+01 0.40391067949E+01
 0.36244600170E+01 0.33826450469E+01 0.32974692853E+01 0.33612538602E+01 0.35764987480E+01
 0.39544206052E+01 0.45108651856E+01 0.52595296275E+01 0.62020323651E+01 0.73163815819E+01
 0.85488647193E+01 0.98150638196E+01 0.95433932430E+01 0.10666222551E+02 0.11569159290E+02
 0.12097044761E+02 0.12237943229E+02 0.12129679007E+02 0.11989031464E+02 0.11998578343E+02
 0.12209689507E+02 0.12513974515E+02 0.12697358470E+02 0.12545757681E+02 0.11947861201E+02
 0.10948216206E+02 0.97270990221E+01 0.84540626360E+01 0.72292203783E+01 0.61312580611E+01
 0.52094087339E+01 0.44826222199E+01 0.39471460396E+01 0.35873082951E+01 0.33850997223E+01
 0.33269201050E+01 0.34073330716E+01 0.36298375319E+01 0.40049833436E+01 0.45464057476E+01
 0.52647174396E+01 0.61589327319E+01 0.72070045757E+01 0.83598428353E+01 0.80925463051E+01
 0.91862667487E+01 0.10238647292E+02 0.11155438356E+02 0.11821011547E+02 0.12214496814E+02
 0.12418040960E+02 0.12557891317E+02 0.12722606391E+02 0.12904800191E+02 0.12999419538E+02
 0.12858395676E+02 0.12370681265E+02 0.11526163959E+02 0.10432265012E+02 0.92307796373E+01
 0.80181754620E+01 0.68782900601E+01 0.58739495800E+01 0.50407762881E+01 0.43892094874E+01
 0.39121928374E+01 0.35943835824E+01 0.34199385639E+01 0.33777863697E+01 0.34642083224E+01
 0.36829114299E+01 0.40431211213E+01 0.45560821653E+01 0.52297057173E+01 0.60612766381E+01
 0.70299368081E+01 0.67936636654E+01 0.77595179248E+01 0.87594932715E+01 0.97349984668E+01
 0.10629990950E+02 0.11374314059E+02 0.11935366036E+02 0.12345631412E+02 0.12659475338E+02
 0.12899817979E+02 0.13028978008E+02 0.12961779011E+02 0.12613033366E+02 0.11952182558E+02
 0.11034741885E+02 0.99608628871E+01 0.88154992531E+01 0.76820122531E+01 0.66319279450E+01
 0.57156162586E+01 0.49593201226E+01 0.43685374755E+01 0.39352275273E+01 0.36455968306E+01
 0.34863394854E+01 0.34486201860E+01 0.35298208403E+01 0.37333396845E+01 0.40668498963E+01
 0.45392346431E+01 0.51560581250E+01 0.59137123231E+01 0.57234586053E+01 0.65097337443E+01
 0.73762625125E+01 0.82816566736E+01 0.91797301967E+01 0.10028760776E+02 0.10794936724E+02
 0.11445626213E+02 0.11974574875E+02 0.12384966709E+02 0.12659111910E+02 0.12749019267E+02
 0.12595527963E+02 0.12164766521E+02 0.11478438343E+02 0.10593814778E+02 0.95788095100E+01
 0.85107978583E+01 0.74644404223E+01 0.65010046835E+01 0.56618739295E+01 0.49675281062E+01
 0.44213468229E+01 0.40159976278E+01 0.37399568132E+01 0.35825662609E+01 0.35370460658E+01
 0.36015751151E+01 0.37789042941E+01 0.40749471415E+01 0.44963999617E+01 0.50471257604E+01
 0.49083339617E+01 0.54997856791E+01 0.61913942944E+01 0.69599808172E+01 0.77736411999E+01
 0.85969468641E+01 0.93973270593E+01 0.10148923282E+02 0.10830477766E+02 0.11417138826E+02
 0.11879828068E+02 0.12179402209E+02 0.12269173567E+02 0.12113906680E+02 0.11707546949E+02
 0.11071760648E+02 0.10253948361E+02 0.93189508056E+01 0.83379523920E+01 0.73776068658E+01
 0.64914184842E+01 0.57149817487E+01 0.50657955220E+01 0.45469756109E+01 0.41529840337E+01
 0.38751983127E+01 0.37058668771E+01 0.36401467474E+01 0.36767127050E+01 0.38175110297E+01
 0.40668431750E+01 0.44295843144E+01 0.43420846400E+01 0.47462407297E+01 0.52530775440E+01
 0.58531467539E+01 0.65291344270E+01 0.72575166450E+01 0.80122614301E+01 0.87684936233E+01
 0.95034919835E+01 0.10193658748E+02 0.10809060506E+02 0.11309926965E+02 0.11649416668E+02
 0.11783241095E+02 0.11682070785E+02 0.11340879018E+02 0.10781600031E+02 0.10049204096E+02
 0.92035364174E+01 0.83094426540E+01 0.74271750524E+01 0.66048539426E+01 0.58745314666E+01
 0.52524912047E+01 0.47429434034E+01 0.43431438689E+01 0.40479316905E+01 0.38526263883E+01
 0.37543323505E+01 0.37522617742E+01 0.38476132367E+01 0.40431341252E+01 0.40049952463E+01
 0.42380198427E+01 0.45684669991E+01 0.49945600285E+01 0.55096770409E+01 0.61018913317E+01
 0.67552064493E+01 0.74516587839E+01 0.81726364402E+01 0.88978335660E+01 0.96016538982E+01
 0.10249203398E+02 0.10795547969E+02 0.11190800635E+02 0.11390111709E+02 0.11364491864E+02
 0.11108107053E+02 0.10639956873E+02 0.10000345111E+02 0.92437019007E+01 0.84294990571E+01
 0.76131588629E+01 0.68390298996E+01 0.61370645527E+01 0.55235657392E+01 0.50048495524E+01
 0.45817694190E+01 0.42532612436E+01 0.40181578598E+01 0.38756855436E+01 0.38255495347E+01
 0.38681814459E+01 0.38785383201E+01 0.39544546238E+01 0.41223392377E+01 0.43828582265E+01
 0.47350446499E+01 0.51749992153E+01 0.56956320010E+01 0.62874387934E+01 0.69392691327E+01
 0.76376977608E+01 0.83643431665E+01 0.90920293643E+01 0.97821993626E+01 0.10386249754E+02
 0.10851814202E+02 0.11132361487E+02 0.11196734092E+02 0.11035565864E+02 0.10663141688E+02
 0.10114709281E+02 0.94400062041E+01 0.86943741826E+01 0.79296277369E+01 0.71872490704E+01
 0.64957323220E+01 0.58720838405E+01 0.53256717504E+01 0.48620053829E+01 0.44849071874E+01
 0.41970619459E+01 0.39999048790E+01 0.38937671393E+01 0.39544229168E+01 0.38785711823E+01
 0.38938085372E+01 0.39998865771E+01 0.41970123966E+01 0.44849047517E+01 0.48620531363E+01
 0.53256997639E+01 0.58720655610E+01 0.64957167213E+01 0.71872682300E+01 0.79296476753E+01
 0.86943625819E+01 0.94399873176E+01 0.10114716764E+02 0.10663161815E+02 0.11035564629E+02
 0.11196711717E+02 0.11132346470E+02 0.10851818922E+02 0.10386258687E+02 0.97821965292E+01
 0.90920201511E+01 0.83643444653E+01 0.76377104002E+01 0.69392699060E+01 0.62874129191E+01
 0.56956051821E+01 0.51750072520E+01 0.47350710449E+01 0.43828467737E+01 0.41222838338E+01
 0.42380437845E+01 0.40049694162E+01 0.38681243207E+01 0.38255114910E+01 0.38756831555E+01
 0.40181678497E+01 0.42532608174E+01 0.45817618298E+01 0.50048522553E+01 0.55235821249E+01
 0.61370752882E+01 0.68390203124E+01 0.76131459943E+01 0.84295087367E+01 0.92437235500E+01
 0.10000343416E+02 0.10639930507E+02 0.11108092751E+02 0.11364499291E+02 0.11390104559E+02
 0.11190765405E+02 0.10795528046E+02 0.10249227793E+02 0.96016825689E+01 0.88978225315E+01
 0.81726127459E+01 0.74516708370E+01 0.67552345658E+01 0.61018772879E+01 0.55096244371E+01