    2    2   15    1
  0.1529437E+02  0.3691622E-09  0.3691622E-09  0.3691622E-09  0.5000000E-15
  1.000000000000000E-004
  CAR 
 unknown system                          
      8     40      8
 
  0.0000000E+00  0.0000000E+00  0.0000000E+00  0.2915452E-02
    1       -4.615124   1.000000
    2        6.187010   1.000000
    3        6.298206   1.000000
    4        6.298212   1.000000
    5       10.523815   0.000000
    6       16.771513   0.000000
    7       17.366808   0.000000
    8       17.366816   0.000000
 
  0.1428571E+00 -0.1404355E-16  0.1404355E-16  0.2332362E-01
    1       -4.039285   1.000000
    2        5.159885   1.000000
    3        6.232821   1.000000
    4        8.317671   0.999999
    5       11.661836   0.000000
    6       14.519542   0.000000
    7       14.902777   0.000000
    8       16.620020   0.000000
 
  0.2857143E+00 -0.2600542E-16  0.2600542E-16  0.2332362E-01
    1       -2.323707   1.000000
    2        5.141874   1.000000
    3        6.532133   1.000000
    4        8.960028   0.581645
    5       11.205289   0.000000
    6       12.154096   0.000000
    7       13.503123   0.000000
    8       14.399701   0.000000
 
  0.4285714E+00 -0.1733103E-16  0.1733103E-16  0.2332362E-01
    1        0.486292   1.000000
    2        4.357867   1.000000
    3        6.225795   1.000000
    4        7.458983   1.000000
    5        8.447499   0.999936
    6       10.931318   0.000000
    7       13.576699   0.000000
    8       14.476732   0.000000
 
  0.1428571E+00  0.1428571E+00  0.2808709E-16  0.2332362E-01
    1       -2.563764   1.000000
    2        5.431049   1.000000
    3        7.936594   1.000000
    4        9.069640   0.284687
    5       10.670195   0.000000
    6       11.143000   0.000000
    7       13.597952   0.000000
    8       14.398749   0.000000
 
  0.2857143E+00  0.1428571E+00  0.4508661E-16  0.4664723E-01
    1        0.019118   1.000000
    2        5.450075   1.000000
    3        6.321784   1.000000
    4        6.886045   1.000000
    5        9.420165   0.001154
    6       11.532559   0.000000
    7       12.359887   0.000000
    8       13.653911   0.000000
 
  0.4285714E+00  0.1428571E+00  0.7177282E-16  0.4664723E-01
    1        1.408322   1.000000
    2        3.652059   1.000000
    3        4.646022   1.000000
    4        7.530178   1.000000
    5        8.836538   0.859775
    6       11.515736   0.000000
    7       12.632838   0.000000
    8       16.111842   0.000000
 
 -0.4285714E+00  0.1428571E+00 -0.1801182E-16  0.4664723E-01
    1       -1.606661   1.000000
    2        3.218693   1.000000
    3        6.715675   1.000000
    4        8.277851   1.000000
    5       10.665853   0.000000
    6       12.535578   0.000000
    7       13.272317   0.000000
    8       15.278899   0.000000
 
 -0.2857143E+00  0.1428571E+00 -0.1576439E-16  0.4664723E-01
    1       -3.555293   1.000000
    2        2.959564   1.000000
    3        6.389000   1.000000
    4        9.665328   0.000001
    5       12.433581   0.000000
    6       13.741062   0.000000
    7       14.294876   0.000000
    8       16.009748   0.000000
 
 -0.1428571E+00  0.1428571E+00 -0.3929902E-17  0.1166181E-01
    1       -4.372101   1.000000
    2        3.750759   1.000000
    3        6.523209   1.000000
    4        7.923118   1.000000
    5       11.969945   0.000000
    6       14.286923   0.000000
    7       15.865930   0.000000
    8       19.440689   0.000000
 
  0.2857143E+00  0.2857143E+00  0.5201085E-16  0.2332362E-01
    1        2.645554   1.000000
    2        2.814522   1.000000
    3        3.643065   1.000000
    4        7.670837   1.000000
    5        9.321324   0.009421
    6       10.462107   0.000000
    7       14.595964   0.000000
    8       15.288088   0.000000
 
  0.4285714E+00  0.2857143E+00  0.7869706E-16  0.4664723E-01
    1       -0.422171   1.000000
    2        1.207554   1.000000
    3        7.586572   1.000000
    4        8.002230   1.000000
    5        9.267392   0.024575
    6       11.782097   0.000000
    7       14.374534   0.000000
    8       15.926639   0.000000
 
 -0.4285714E+00  0.2857143E+00 -0.2288370E-16  0.4664723E-01
    1       -2.592452   1.000000
    2        0.709177   1.000000
    3        7.266819   1.000000
    4       10.327077   0.000000
    5       10.756955   0.000000
    6       13.153932   0.000000
    7       14.754453   0.000000
    8       15.171563   0.000000
 
 -0.2857143E+00  0.2857143E+00 -0.7859804E-17  0.1166181E-01
    1       -3.645357   1.000000
    2        1.311091   1.000000
    3        7.197926   1.000000
    4        8.979658   0.526828
    5       11.882648   0.000000
    6       13.744472   0.000000
    7       15.215424   0.000000
    8       19.036484   0.000000
 
  0.4285714E+00  0.4285714E+00  0.1053833E-15  0.2332362E-01
    1       -1.163496   1.000000
    2       -1.161784   1.000000
    3        8.578589   0.998154
    4        8.622770   0.995213
    5       11.704079   0.000000
    6       12.285384   0.000000
    7       14.142865   0.000000
    8       15.024437   0.000000
 
 -0.4285714E+00  0.4285714E+00  0.4248060E-17  0.1166181E-01
    1       -2.442910   1.000000
    2       -0.780067   1.000000
    3        8.320082   0.999999
    4        9.884612   0.000000
    5       10.220487   0.000000
    6       11.815604   0.000000
    7       18.659737   0.000000
    8       18.812461   0.000000
 
  0.1428571E+00  0.1428571E+00  0.1428571E+00  0.2332362E-01
    1       -1.844053   1.000000
    2        3.049985   1.000000
    3        8.356837   0.999996
    4        9.189614   0.078195
    5       10.263453   0.000000
    6       11.169755   0.000000
    7       14.061543   0.000000
    8       14.805435   0.000000
 
  0.2857143E+00  0.1428571E+00  0.1428571E+00  0.4664723E-01
    1        0.956854   1.000000
    2        4.109177   1.000000
    3        4.908714   1.000000
    4        6.343903   1.000000
    5       10.601237   0.000000
    6       13.156009   0.000000
    7       13.871899   0.000000
    8       14.233319   0.000000
 
 -0.1428571E+00  0.1428571E+00  0.1428571E+00  0.1166181E-01
    1       -4.129813   1.000000
    2        3.447980   1.000000
    3        4.923544   1.000000
    4        9.826731   0.000000
    5       12.206762   0.000000
    6       12.827885   0.000000
    7       17.765303   0.000000
    8       17.939509   0.000000
 
  0.2857143E+00  0.2857143E+00  0.1428571E+00  0.2332362E-01
    1        2.326114   1.000000
    2        2.356403   1.000000
    3        4.656743   1.000000
    4        6.148325   1.000000
    5       11.672987   0.000000
    6       12.477316   0.000000
    7       14.455620   0.000000
    8       15.448030   0.000000
 
  0.4285714E+00  0.2857143E+00  0.1428571E+00  0.2332362E-01
    1       -0.653814   1.000000
    2        0.989722   1.000000
    3        8.690429   0.982676
    4        8.906339   0.720976
    5       10.653742   0.000000
    6       11.678638   0.000000
    7       12.541440   0.000000
    8       13.595699   0.000000
 
 -0.2857143E+00  0.2857143E+00  0.1428571E+00  0.2332362E-01
    1       -3.405697   1.000000
    2        1.481446   1.000000
    3        5.119299   1.000000
    4        9.814716   0.000000
    5       11.327097   0.000000
    6       15.614549   0.000000
    7       15.948637   0.000000
    8       18.463386   0.000000
 
 -0.1428571E+00  0.2857143E+00  0.1428571E+00  0.2332362E-01
    1       -3.074655   1.000000
    2        2.816712   1.000000
    3        4.444304   1.000000
    4       10.078569   0.000000
    5       11.690125   0.000000
    6       13.729850   0.000000
    7       15.231055   0.000000
    8       16.930040   0.000000
 
 -0.4285714E+00  0.4285714E+00  0.1428571E+00  0.2332362E-01
    1       -2.208878   1.000000
    2       -0.559957   1.000000
    3        6.212226   1.000000
    4        7.795381   1.000000
    5       12.617278   0.000000
    6       14.152617   0.000000
    7       18.021466   0.000000
    8       18.177073   0.000000
 
 -0.2857143E+00  0.4285714E+00  0.1428571E+00  0.4664723E-01
    1       -2.120088   1.000000
    2        1.096722   1.000000
    3        4.795890   1.000000
    4        7.891848   1.000000
    5       11.897989   0.000000
    6       14.503243   0.000000
    7       16.778396   0.000000
    8       17.408114   0.000000
 
 -0.1428571E+00  0.4285714E+00  0.1428571E+00  0.2332362E-01
    1       -0.898863   1.000000
    2        3.283827   1.000000
    3        4.958075   1.000000
    4        7.436788   1.000000
    5        8.965685   0.565962
    6       13.382542   0.000000
    7       14.947306   0.000000
    8       16.040962   0.000000
 
 -0.4285714E+00 -0.4285714E+00  0.1428571E+00  0.2332362E-01
    1       -0.712603   1.000000
    2       -0.707429   1.000000
    3        6.096719   1.000000
    4        6.102624   1.000000
    5       11.800395   0.000000
    6       15.454741   0.000000
    7       16.237689   0.000000
    8       16.743095   0.000000
 
 -0.2857143E+00 -0.4285714E+00  0.1428571E+00  0.4664723E-01
    1        0.263133   1.000000
    2        1.820545   1.000000
    3        5.489771   1.000000
    4        6.815368   1.000000
    5        7.247891   1.000000
    6       13.521958   0.000000
    7       16.568485   0.000000
    8       17.559698   0.000000
 
 -0.1428571E+00 -0.4285714E+00  0.1428571E+00  0.2332362E-01
    1        2.245935   1.000000
    2        3.064285   1.000000
    3        4.933432   1.000000
    4        6.440079   1.000000
    5        8.562679   0.998718
    6       11.129366   0.000000
    7       12.298213   0.000000
    8       16.466268   0.000000
 
 -0.2857143E+00 -0.2857143E+00  0.1428571E+00  0.2332362E-01
    1        2.609134   1.000000
    2        3.660812   1.000000
    3        3.828697   1.000000
    4        7.096090   1.000000
    5        7.245805   1.000000
    6       11.168675   0.000000
    7       13.874214   0.000000
    8       14.751354   0.000000
 
 -0.1428571E+00 -0.2857143E+00  0.1428571E+00  0.2332362E-01
    1       -0.453184   1.000000
    2        6.499996   1.000000
    3        7.351258   1.000000
    4        8.219221   1.000000
    5        8.302908   0.999999
    6       10.744710   0.000000
    7       11.153675   0.000000
    8       12.465720   0.000000
 
 -0.1428571E+00 -0.1428571E+00  0.1428571E+00  0.5830904E-02
    1       -2.804517   1.000000
    2        7.765240   1.000000
    3        7.765246   1.000000
    4        7.768469   1.000000
    5       11.073491   0.000000
    6       11.507146   0.000000
    7       12.342090   0.000000
    8       13.722420   0.000000
 
 -0.2857143E+00  0.2857143E+00  0.2857143E+00  0.1166181E-01
    1       -2.690850   1.000000
    2        1.541479   1.000000
    3        3.278164   1.000000
    4        7.393423   1.000000
    5       13.920997   0.000000
    6       17.015436   0.000000
    7       17.236788   0.000000
    8       18.092166   0.000000
 
 -0.4285714E+00  0.4285714E+00  0.2857143E+00  0.2332362E-01
    1       -1.516360   1.000000
    2        0.058937   1.000000
    3        3.825626   1.000000
    4        5.361632   1.000000
    5       15.419290   0.000000
    6       16.356435   0.000000
    7       17.959979   0.000000
    8       18.524140   0.000000
 
 -0.2857143E+00  0.4285714E+00  0.2857143E+00  0.2332362E-01
    1       -1.188783   1.000000
    2        1.382228   1.000000
    3        3.156340   1.000000
    4        5.669517   1.000000
    5       11.478529   0.000000
    6       17.170241   0.000000
    7       18.436670   0.000000
    8       19.140374   0.000000
 
 -0.4285714E+00 -0.4285714E+00  0.2857143E+00  0.2332362E-01
    1        0.139935   1.000000
    2        0.149167   1.000000
    3        3.915417   1.000000
    4        3.917973   1.000000
    5       11.294782   0.000000
    6       18.561050   0.000000
    7       18.750883   0.000000
    8       19.413061   0.000000
 
 -0.2857143E+00 -0.4285714E+00  0.2857143E+00  0.2332362E-01
    1        1.347343   1.000000
    2        2.335868   1.000000
    3        4.097329   1.000000
    4        5.057168   1.000000
    5        6.630445   1.000000
    6       15.369302   0.000000
    7       16.750810   0.000000
    8       18.098758   0.000000
 
 -0.2857143E+00 -0.2857143E+00  0.2857143E+00  0.5830904E-02
    1        2.435553   1.000000
    2        4.412723   1.000000
    3        4.548132   1.000000
    4        6.045511   1.000000
    5        6.045512   1.000000
    6       13.015414   0.000000
    7       13.630588   0.000000
    8       13.630592   0.000000
 
 -0.4285714E+00  0.4285714E+00  0.4285714E+00  0.1166181E-01
    1       -0.420849   1.000000
    2        0.574974   1.000000
    3        2.395927   1.000000
    4        3.378380   1.000000
    5       16.215979   0.000000
    6       16.358369   0.000000
    7       19.689766   0.000000
    8       20.624391   0.000000
 
 -0.4285714E+00 -0.4285714E+00  0.4285714E+00  0.5830904E-02
    1        0.892172   1.000000
    2        0.906629   1.000000
    3        2.712555   1.000000
    4        2.712555   1.000000
    5       11.101611   0.000000
    6       19.727434   0.000000
    7       20.693641   0.000000
    8       20.693649   0.000000
