unknown system                          
   1.00000000000000     
     0.000000    2.762528    2.762528
     2.762528    0.000000    2.762528
     2.762528    2.762528    0.000000
   Si
     2
Direct
  0.500000  0.500000  0.500000
  0.750000  0.750000  0.750000
 
   36   36   36
 0.82637     0.84187     0.88946     0.97224      1.0950      1.2636      1.4845      1.7641      2.1081      2.5200    
  2.9988      3.5370      4.1180      4.7147      5.2907      5.8031      6.2083      6.4687      6.5585      6.4687    
  6.2083      5.8031      5.2907      4.7148      4.1181      3.5371      2.9988      2.5200      2.1081      1.7641    
  1.4844      1.2636      1.0950     0.97225     0.88946     0.84187     0.84187     0.86890     0.92472      1.0126    
  1.1371      1.3033      1.5165      1.7814      2.1014      2.4768      2.9036      3.3711      3.8613      4.3478    
  4.7984      5.1777      5.4526      5.5972      5.5972      5.4526      5.1777      4.7984      4.3479      3.8613    
  3.3712      2.9036      2.4768      2.1013      1.7814      1.5164      1.3033      1.1371      1.0126     0.92472    
 0.86890     0.84187     0.88946     0.92472     0.98584      1.0761      1.1994      1.3603      1.5627      1.8099    
  2.1029      2.4398      2.8138      3.2127      3.6180      4.0057      4.3483      4.6179      4.7907      4.8502    
  4.7907      4.6179      4.3483      4.0058      3.6181      3.2127      2.8138      2.4397      2.1029      1.8098    
  1.5627      1.3603      1.1994      1.0761     0.98584     0.92471     0.88945     0.87794     0.97224      1.0126    
  1.0761      1.1656      1.2848      1.4373      1.6259      1.8524      2.1160      2.4128      2.7346      3.0684    
  3.3966      3.6982      3.9506      4.1328      4.2283      4.2283      4.1328      3.9506      3.6982      3.3966    
  3.0684      2.7346      2.4127      2.1159      1.8523      1.6259      1.4373      1.2849      1.1656      1.0761    
  1.0126     0.97223     0.95264     0.95264      1.0950      1.1371      1.1994      1.2848      1.3964      1.5370    
  1.7084      1.9110      2.1429      2.3986      2.6694      2.9425      3.2020      3.4301      3.6089      3.7232    
  3.7625      3.7232      3.6089      3.4301      3.2020      2.9425      2.6694      2.3986      2.1429      1.9110    
  1.7084      1.5370      1.3964      1.2849      1.1994      1.1371      1.0950      1.0707      1.0628      1.0707    
  1.2636      1.3033      1.3603      1.4373      1.5370      1.6614      1.8117      1.9872      2.1847      2.3986    
  2.6199      2.8370      3.0360      3.2022      3.3221      3.3850      3.3850      3.3221      3.2022      3.0360    
  2.8370      2.6199      2.3986      2.1848      1.9872      1.8118      1.6615      1.5370      1.4373      1.3603    
  1.3033      1.2635      1.2386      1.2267      1.2267      1.2386      1.4845      1.5165      1.5627      1.6259    
  1.7084      1.8117      1.9363      2.0807      2.2414      2.4128      2.5865      2.7521      2.8982      3.0131    
  3.0866      3.1119      3.0866      3.0131      2.8982      2.7521      2.5865      2.4128      2.2415      2.0807    
  1.9363      1.8118      1.7084      1.6259      1.5627      1.5165      1.4844      1.4640      1.4527      1.4491    
  1.4527      1.4640      1.7641      1.7814      1.8099      1.8524      1.9110      1.9872      2.0807      2.1899    
  2.3114      2.4398      2.5677      2.6866      2.7869      2.8598      2.8982      2.8982      2.8598      2.7869    
  2.6866      2.5677      2.4398      2.3114      2.1899      2.0807      1.9872      1.9110      1.8523      1.8099    
  1.7814      1.7641      1.7548      1.7507      1.7492      1.7492      1.7506      1.7548      2.1081      2.1014    
  2.1029      2.1160      2.1429      2.1847      2.2414      2.3114      2.3914      2.4768      2.5614      2.6382    
  2.6998      2.7397      2.7536      2.7398      2.6998      2.6382      2.5614      2.4768      2.3914      2.3114    
  2.2414      2.1847      2.1428      2.1159      2.1029      2.1013      2.1081      2.1194      2.1311      2.1398    
  2.1430      2.1398      2.1311      2.1194      2.5200      2.4768      2.4398      2.4128      2.3986      2.3986    
  2.4128      2.4398      2.4768      2.5200      2.5643      2.6043      2.6346      2.6509      2.6509      2.6346    
  2.6043      2.5643      2.5200      2.4768      2.4397      2.4128      2.3986      2.3986      2.4128      2.4397    
  2.4768      2.5200      2.5643      2.6043      2.6346      2.6509      2.6509      2.6346      2.6043      2.5643    
  2.9988      2.9036      2.8138      2.7346      2.6694      2.6199      2.5865      2.5677      2.5614      2.5643    
  2.5725      2.5820      2.5894      2.5922      2.5894      2.5820      2.5725      2.5643      2.5614      2.5677    
  2.5864      2.6199      2.6694      2.7346      2.8138      2.9036      2.9988      3.0928      3.1779      3.2461    
  3.2903      3.3056      3.2903      3.2460      3.1778      3.0928      3.5370      3.3711      3.2127      3.0684    
  2.9425      2.8370      2.7521      2.6866      2.6382      2.6043      2.5820      2.5689      2.5629      2.5629    
  2.5689      2.5820      2.6043      2.6381      2.6865      2.7520      2.8369      2.9425      3.0684      3.2127    
  3.3712      3.5370      3.7013      3.8533      3.9812      4.0741      4.1230      4.1230      4.0741      3.9812    
  3.8533      3.7013      4.1180      3.8613      3.6180      3.3966      3.2020      3.0360      2.8982      2.7869    
  2.6998      2.6346      2.5894      2.5629      2.5541      2.5629      2.5894      2.6346      2.6997      2.7868    
  2.8981      3.0359      3.2020      3.3967      3.6181      3.8613      4.1180      4.3763      4.6214      4.8366    
  5.0054      5.1133      5.1505      5.1133      5.0054      4.8366      4.6213      4.3763      4.7147      4.3478    
  4.0057      3.6982      3.4301      3.2022      3.0131      2.8598      2.7397      2.6509      2.5922      2.5629    
  2.5629      2.5922      2.6509      2.7397      2.8597      3.0130      3.2022      3.4301      3.6982      4.0058    
  4.3479      4.7148      5.0915      5.4584      5.7927      6.0708      6.2705      6.3751      6.3751      6.2706    
  6.0708      5.7928      5.4584      5.0914      5.2907      4.7984      4.3483      3.9506      3.6089      3.3221    
  3.0866      2.8982      2.7536      2.6509      2.5894      2.5689      2.5894      2.6509      2.7535      2.8981    
  3.0865      3.3221      3.6089      3.9506      4.3484      4.7984      5.2907      5.8076      6.3243      6.8111    
  7.2353      7.5658      7.7760      7.8481      7.7760      7.5658      7.2354      6.8111      6.3243      5.8076    
  5.8031      5.1777      4.6179      4.1328      3.7232      3.3850      3.1119      2.8982      2.7398      2.6346    
  2.5820      2.5820      2.6346      2.7397      2.8981      3.1118      3.3849      3.7232      4.1328      4.6180    
  5.1777      5.8031      6.4750      7.1644      7.8341      8.4419      8.9451      9.3054      9.4935      9.4935    
  9.3054      8.9451      8.4419      7.8342      7.1645      6.4750      6.2083      5.4526      4.7907      4.2283    
  3.7625      3.3850      3.0866      2.8598      2.6998      2.6043      2.5725      2.6043      2.6997      2.8597    
  3.0865      3.3849      3.7625      4.2284      4.7907      5.4526      6.2083      7.0395      7.9145      8.7899    
  9.6138      10.331      10.889      11.244      11.366      11.244      10.889      10.331      9.6137      8.7899    
  7.9146      7.0396      6.4687      5.5972      4.8502      4.2283      3.7232      3.3221      3.0131      2.7869    
  2.6382      2.5643      2.5643      2.6381      2.7868      3.0130      3.3221      3.7232      4.2284      4.8502    
  5.5972      6.4687      7.4498      8.5093      9.5998      10.662      11.628      12.431      13.008      13.310    
  13.310      13.008      12.431      11.628      10.662      9.5998      8.5094      7.4499      6.5585      5.5972    
  4.7907      4.1328      3.6089      3.2022      2.8982      2.6866      2.5614      2.5200      2.5614      2.6865    
  2.8981      3.2022      3.6089      4.1328      4.7907      5.5972      6.5585      7.6660      8.8921      10.190    
  11.494      12.731      13.817      14.669      15.215      15.403      15.215      14.669      13.816      12.731    
  11.494      10.190      8.8922      7.6661      6.4687      5.4526      4.6179      3.9506      3.4301      3.0360    
  2.7521      2.5677      2.4768      2.4768      2.5677      2.7520      3.0359      3.4301      3.9506      4.6180    
  5.4526      6.4687      7.6660      9.0243      10.501      12.031      13.537      14.925      16.094      16.940    
  17.383      17.383      16.940      16.094      14.925      13.537      12.031      10.501      9.0243      7.6661    
  6.2083      5.1777      4.3483      3.6982      3.2020      2.8370      2.5865      2.4398      2.3914      2.4397    
  2.5864      2.8369      3.2020      3.6982      4.3484      5.1777      6.2083      7.4498      8.8921      10.501    
  12.217      13.964      15.644      17.141      18.318      19.071      19.329      19.071      18.318      17.140    
  15.644      13.964      12.217      10.501      8.8921      7.4499      5.8031      4.7984      4.0058      3.3966    
  2.9425      2.6199      2.4128      2.3114      2.3114      2.4128      2.6199      2.9425      3.3967      4.0058    
  4.7984      5.8031      7.0395      8.5093      10.190      12.031      13.964      15.894      17.695      19.209    
  20.303      20.877      20.877      20.303      19.209      17.695      15.894      13.964      12.031      10.190    
  8.5093      7.0395      5.2907      4.3479      3.6181      3.0684      2.6694      2.3986      2.2415      2.1899    
  2.2414      2.3986      2.6694      3.0684      3.6181      4.3479      5.2907      6.4750      7.9145      9.5998    
  11.494      13.537      15.644      17.695      19.518      20.955      21.877      22.195      21.877      20.955    
  19.518      17.695      15.644      13.537      11.494      9.5998      7.9145      6.4750      4.7148      3.8613    
  3.2127      2.7346      2.3986      2.1848      2.0807      2.0807      2.1847      2.3986      2.7346      3.2127    
  3.8613      4.7148      5.8076      7.1644      8.7899      10.662      12.731      14.925      17.141      19.209    
  20.955      22.223      22.892      22.892      22.223      20.955      19.209      17.140      14.925      12.731    
  10.662      8.7899      7.1644      5.8076      4.1181      3.3712      2.8138      2.4127      2.1429      1.9872    
  1.9363      1.9872      2.1428      2.4128      2.8138      3.3712      4.1180      5.0915      6.3243      7.8341    
  9.6138      11.628      13.817      16.094      18.318      20.303      21.877      22.892      23.243      22.892    
  21.877      20.303      18.318      16.094      13.817      11.628      9.6137      7.8341      6.3244      5.0915    
  3.5371      2.9036      2.4397      2.1159      1.9110      1.8118      1.8118      1.9110      2.1159      2.4397    
  2.9036      3.5370      4.3763      5.4584      6.8111      8.4419      10.331      12.431      14.669      16.940    
  19.071      20.877      22.195      22.892      22.892      22.195      20.877      19.071      16.940      14.669    
  12.431      10.331      8.4419      6.8111      5.4585      4.3764      2.9988      2.4768      2.1029      1.8523    
  1.7084      1.6615      1.7084      1.8523      2.1029      2.4768      2.9988      3.7013      4.6214      5.7927    
  7.2353      8.9451      10.889      13.008      15.215      17.383      19.329      20.877      21.877      22.223    
  21.877      20.877      19.329      17.383      15.215      13.008      10.889      8.9451      7.2354      5.7928    
  4.6215      3.7014      2.5200      2.1013      1.8098      1.6259      1.5370      1.5370      1.6259      1.8099    
  2.1013      2.5200      3.0928      3.8533      4.8366      6.0708      7.5658      9.3054      11.244      13.310    
  15.403      17.383      19.071      20.303      20.955      20.955      20.303      19.071      17.383      15.403    
  13.310      11.244      9.3054      7.5658      6.0708      4.8367      3.8534      3.0928      2.1081      1.7814    
  1.5627      1.4373      1.3964      1.4373      1.5627      1.7814      2.1081      2.5643      3.1779      3.9812    
  5.0054      6.2705      7.7760      9.4935      11.366      13.310      15.215      16.940      18.318      19.209    
  19.518      19.209      18.318      16.940      15.215      13.310      11.366      9.4934      7.7760      6.2706    
  5.0055      3.9813      3.1779      2.5643      1.7641      1.5164      1.3603      1.2849      1.2849      1.3603    
  1.5165      1.7641      2.1194      2.6043      3.2461      4.0741      5.1133      6.3751      7.8481      9.4935    
  11.244      13.008      14.669      16.094      17.140      17.695      17.695      17.140      16.094      14.669    
  13.008      11.244      9.4934      7.8481      6.3752      5.1134      4.0742      3.2461      2.6043      2.1193    
  1.4844      1.3033      1.1994      1.1656      1.1994      1.3033      1.4844      1.7548      2.1311      2.6346    
  3.2903      4.1230      5.1505      6.3751      7.7760      9.3054      10.889      12.431      13.816      14.925    
  15.644      15.894      15.644      14.925      13.817      12.431      10.889      9.3054      7.7760      6.3752    
  5.1506      4.1231      3.2903      2.6346      2.1311      1.7548      1.2636      1.1371      1.0761      1.0761    
  1.1371      1.2635      1.4640      1.7507      2.1398      2.6509      3.3056      4.1230      5.1133      6.2706    
  7.5658      8.9451      10.331      11.628      12.731      13.537      13.964      13.964      13.537      12.731    
  11.628      10.331      8.9451      7.5658      6.2706      5.1134      4.1231      3.3057      2.6509      2.1397    
  1.7506      1.4639      1.0950      1.0126     0.98584      1.0126      1.0950      1.2386      1.4527      1.7492    
  2.1430      2.6509      3.2903      4.0741      5.0054      6.0708      7.2354      8.4419      9.6137      10.662    
  11.494      12.031      12.217      12.031      11.494      10.662      9.6137      8.4419      7.2354      6.0708    
  5.0055      4.0742      3.2903      2.6509      2.1429      1.7492      1.4527      1.2386     0.97225     0.92472    
 0.92471     0.97223      1.0707      1.2267      1.4491      1.7492      2.1398      2.6346      3.2460      3.9812    
  4.8366      5.7928      6.8111      7.8342      8.7899      9.5998      10.190      10.501      10.501      10.190    
  9.5998      8.7899      7.8341      6.8111      5.7928      4.8367      3.9813      3.2461      2.6346      2.1397    
  1.7492      1.4491      1.2267      1.0707     0.88946     0.86890     0.88945     0.95264      1.0628      1.2267    
  1.4527      1.7506      2.1311      2.6043      3.1778      3.8533      4.6213      5.4584      6.3243      7.1645    
  7.9146      8.5094      8.8922      9.0243      8.8921      8.5093      7.9145      7.1644      6.3244      5.4585    
  4.6215      3.8534      3.1779      2.6043      2.1311      1.7506      1.4527      1.2267      1.0628     0.95265    
 0.84187     0.84187     0.87794     0.95264      1.0707      1.2386      1.4640      1.7548      2.1194      2.5643    
  3.0928      3.7013      4.3763      5.0914      5.8076      6.4750      7.0396      7.4499      7.6661      7.6661    
  7.4499      7.0395      6.4750      5.8076      5.0915      4.3764      3.7014      3.0928      2.5643      2.1193    
  1.7548      1.4639      1.2386      1.0707     0.95265     0.87795     0.84187     0.86890     0.92472      1.0126    
  1.1371      1.3033      1.5165      1.7814      2.1014      2.4768      2.9036      3.3711      3.8613      4.3478    
  4.7984      5.1777      5.4526      5.5972      5.5972      5.4526      5.1777      4.7984      4.3479      3.8613    
  3.3712      2.9036      2.4768      2.1013      1.7814      1.5164      1.3033      1.1371      1.0126     0.92472    
 0.86890     0.84187     0.86890     0.90365     0.96378      1.0524      1.1735      1.3313      1.5299      1.7725    
  2.0603      2.3914      2.7592      3.1516      3.5503      3.9315      4.2682      4.5331      4.7028      4.7612    
  4.7028      4.5331      4.2682      3.9315      3.5503      3.1516      2.7592      2.3914      2.0603      1.7725    
  1.5299      1.3313      1.1735      1.0524     0.96377     0.90363     0.86889     0.85755     0.92472     0.96378    
  1.0249      1.1110      1.2254      1.3717      1.5529      1.7708      2.0249      2.3114      2.6222      2.9447    
  3.2617      3.5526      3.7959      3.9714      4.0634      4.0634      3.9714      3.7959      3.5526      3.2617    
  2.9447      2.6222      2.3114      2.0249      1.7708      1.5529      1.3717      1.2254      1.1110      1.0249    
 0.96377     0.92471     0.90571     0.90572      1.0126      1.0524      1.1110      1.1911      1.2955      1.4273    
  1.5885      1.7797      1.9990      2.2414      2.4983      2.7573      3.0030      3.2187      3.3875      3.4952    
  3.5323      3.4952      3.3875      3.2187      3.0030      2.7572      2.4983      2.2414      1.9990      1.7796    
  1.5885      1.4273      1.2955      1.1911      1.1110      1.0524      1.0126     0.98960     0.98207     0.98961    
  1.1371      1.1735      1.2254      1.2955      1.3864      1.5005      1.6390      1.8015      1.9853      2.1847    
  2.3911      2.5932      2.7780      2.9321      3.0429      3.1009      3.1009      3.0429      2.9321      2.7780    
  2.5932      2.3911      2.1847      1.9853      1.8016      1.6390      1.5005      1.3865      1.2955      1.2254    
  1.1735      1.1371      1.1141      1.1030      1.1030      1.1141      1.3033      1.3313      1.3717      1.4273    
  1.5005      1.5932      1.7060      1.8378      1.9853      2.1429      2.3024      2.4542      2.5876      2.6921    
  2.7589      2.7818      2.7589      2.6921      2.5876      2.4542      2.3024      2.1429      1.9854      1.8378    
  1.7060      1.5932      1.5005      1.4273      1.3717      1.3313      1.3033      1.2853      1.2753      1.2722    
  1.2753      1.2853      1.5165      1.5299      1.5529      1.5885      1.6390      1.7060      1.7897      1.8885    
  1.9990      2.1160      2.2324      2.3402      2.4308      2.4963      2.5308      2.5308      2.4963      2.4308    
  2.3402      2.2324      2.1160      1.9990      1.8885      1.7897      1.7060      1.6390      1.5885      1.5529    
  1.5299      1.5165      1.5097      1.5069      1.5060      1.5060      1.5069      1.5097      1.7814      1.7725    
  1.7708      1.7797      1.8015      1.8378      1.8885      1.9519      2.0249      2.1029      2.1801      2.2498    
  2.3055      2.3415      2.3539      2.3415      2.3055      2.2498      2.1801      2.1029      2.0249      1.9519    
  1.8885      1.8378      1.8015      1.7796      1.7708      1.7725      1.7814      1.7938      1.8060      1.8148    
  1.8180      1.8148      1.8060      1.7938      2.1014      2.0603      2.0249      1.9990      1.9853      1.9853    
  1.9990      2.0249      2.0603      2.1014      2.1433      2.1809      2.2093      2.2245      2.2245      2.2093    
  2.1809      2.1433      2.1014      2.0603      2.0249      1.9990      1.9853      1.9853      1.9990      2.0249    
  2.0603      2.1014      2.1433      2.1809      2.2093      2.2245      2.2245      2.2093      2.1809      2.1433    
  2.4768      2.3914      2.3114      2.2414      2.1847      2.1429      2.1160      2.1029      2.1014      2.1081    
  2.1194      2.1311      2.1398      2.1430      2.1398      2.1311      2.1194      2.1081      2.1013      2.1029    
  2.1159      2.1428      2.1847      2.2414      2.3114      2.3914      2.4768      2.5614      2.6382      2.6998    
  2.7398      2.7536      2.7397      2.6998      2.6382      2.5614      2.9036      2.7592      2.6222      2.4983    
  2.3911      2.3024      2.2324      2.1801      2.1433      2.1194      2.1052      2.0978      2.0948      2.0948    
  2.0978      2.1052      2.1193      2.1432      2.1800      2.2324      2.3024      2.3911      2.4983      2.6223    
  2.7593      2.9036      3.0474      3.1810      3.2941      3.3763      3.4197      3.4197      3.3763      3.2941    
  3.1810      3.0474      3.3711      3.1516      2.9447      2.7573      2.5932      2.4542      2.3402      2.2498    
  2.1809      2.1311      2.0978      2.0789      2.0728      2.0789      2.0978      2.1311      2.1808      2.2497    
  2.3401      2.4542      2.5932      2.7573      2.9448      3.1517      3.3712      3.5935      3.8058      3.9936    
  4.1417      4.2368      4.2696      4.2368      4.1417      3.9936      3.8058      3.5934      3.8613      3.5503    
  3.2617      3.0030      2.7780      2.5876      2.4308      2.3055      2.2093      2.1398      2.0948      2.0728    
  2.0728      2.0948      2.1397      2.2092      2.3054      2.4307      2.5876      2.7781      3.0031      3.2617    
  3.5503      3.8613      4.1829      4.4989      4.7894      5.0330      5.2093      5.3019      5.3019      5.2093    
  5.0330      4.7894      4.4989      4.1829      4.3478      3.9315      3.5526      3.2187      2.9321      2.6921    
  2.4963      2.3415      2.2245      2.1430      2.0948      2.0789      2.0948      2.1429      2.2244      2.3414    
  2.4963      2.6921      2.9321      3.2187      3.5527      3.9315      4.3479      4.7885      5.2335      5.6575    
  6.0312      6.3250      6.5132      6.5780      6.5132      6.3250      6.0312      5.6575      5.2335      4.7884    
  4.7984      4.2682      3.7959      3.3875      3.0429      2.7589      2.5308      2.3539      2.2245      2.1398    
  2.0978      2.0978      2.1397      2.2244      2.3538      2.5307      2.7589      3.0429      3.3875      3.7960    
  4.2682      4.7984      5.3731      5.9697      6.5570      7.0972      7.5498      7.8769      8.0486      8.0486    
  7.8769      7.5498      7.0972      6.5570      5.9697      5.3731      5.1777      4.5331      3.9714      3.4952    
  3.1009      2.7818      2.5308      2.3415      2.2093      2.1311      2.1052      2.1311      2.2092      2.3414    
  2.5307      2.7818      3.1010      3.4953      3.9715      4.5331      5.1777      5.8934      6.6565      7.4313    
  8.1715      8.8250      9.3390      9.6683      9.7817      9.6683      9.3390      8.8250      8.1715      7.4313    
  6.6565      5.8934      5.4526      4.7028      4.0634      3.5323      3.1009      2.7589      2.4963      2.3055    
  2.1809      2.1194      2.1193      2.1808      2.3054      2.4963      2.7589      3.1010      3.5324      4.0635    
  4.7028      5.4526      6.3051      7.2380      8.2134      9.1784      10.070      10.818      11.361      11.646    
  11.646      11.361      10.818      10.069      9.1784      8.2133      7.2380      6.3051      5.5972      4.7612    
  4.0634      3.4952      3.0429      2.6921      2.4308      2.2498      2.1433      2.1081      2.1432      2.2497    
  2.4307      2.6921      3.0429      3.4953      4.0635      4.7612      5.5972      6.5697      7.6610      8.8345    
  10.034      11.187      12.211      13.020      13.541      13.721      13.541      13.020      12.211      11.187    
  10.034      8.8344      7.6609      6.5696      5.5972      4.7028      3.9714      3.3875      2.9321      2.5876    
  2.3402      2.1801      2.1014      2.1013      2.1800      2.3401      2.5876      2.9321      3.3875      3.9715    
  4.7028      5.5972      6.6609      7.8839      9.2346      10.658      12.078      13.400      14.520      15.338    
  15.770      15.769      15.338      14.520      13.400      12.078      10.658      9.2345      7.8838      6.6609    
  5.4526      4.5331      3.7959      3.2187      2.7780      2.4542      2.2324      2.1029      2.0603      2.1029    
  2.2324      2.4542      2.7781      3.2187      3.7960      4.5331      5.4526      6.5697      7.8839      9.3729    
  10.988      12.654      14.272      15.725      16.885      17.638      17.899      17.638      16.885      15.725    
  14.272      12.654      10.988      9.3728      7.8838      6.5696      5.1777      4.2682      3.5526      3.0030    
  2.5932      2.3024      2.1160      2.0249      2.0249      2.1159      2.3024      2.5932      3.0031      3.5527    
  4.2682      5.1777      6.3051      7.6610      9.2346      10.988      12.853      14.734      16.508      18.030    
  19.152      19.748      19.748      19.152      18.030      16.508      14.734      12.853      10.988      9.2345    
  7.6609      6.3051      4.7984      3.9315      3.2617      2.7572      2.3911      2.1429      1.9990      1.9519    
  1.9990      2.1428      2.3911      2.7573      3.2617      3.9315      4.7984      5.8934      7.2380      8.8345    
  10.658      12.654      14.734      16.780      18.640      20.141      21.117      21.457      21.118      20.141    
  18.640      16.779      14.734      12.654      10.658      8.8344      7.2379      5.8934      4.3479      3.5503    
  2.9447      2.4983      2.1847      1.9854      1.8885      1.8885      1.9853      2.1847      2.4983      2.9448    
  3.5503      4.3479      5.3731      6.6565      8.2134      10.034      12.078      14.272      16.508      18.640    
  20.484      21.847      22.572      22.572      21.847      20.485      18.640      16.508      14.272      12.078    
  10.034      8.2133      6.6565      5.3731      3.8613      3.1516      2.6222      2.2414      1.9853      1.8378    
  1.7897      1.8378      1.9853      2.2414      2.6223      3.1517      3.8613      4.7885      5.9697      7.4313    
  9.1784      11.187      13.400      15.725      18.030      20.141      21.847      22.960      23.347      22.961    
  21.848      20.141      18.030      15.725      13.400      11.187      9.1784      7.4313      5.9697      4.7885    
  3.3712      2.7592      2.3114      1.9990      1.8016      1.7060      1.7060      1.8015      1.9990      2.3114    
  2.7593      3.3712      4.1829      5.2335      6.5570      8.1715      10.070      12.211      14.520      16.885    
  19.152      21.117      22.572      23.347      23.347      22.573      21.118      19.152      16.886      14.520    
  12.211      10.069      8.1715      6.5570      5.2336      4.1830      2.9036      2.3914      2.0249      1.7796    
  1.6390      1.5932      1.6390      1.7796      2.0249      2.3914      2.9036      3.5935      4.4989      5.6575    
  7.0972      8.8250      10.818      13.020      15.338      17.638      19.748      21.457      22.572      22.961    
  22.573      21.457      19.748      17.638      15.338      13.020      10.818      8.8250      7.0972      5.6576    
  4.4990      3.5935      2.4768      2.0603      1.7708      1.5885      1.5005      1.5005      1.5885      1.7708    
  2.0603      2.4768      3.0474      3.8058      4.7894      6.0312      7.5498      9.3390      11.361      13.541    
  15.770      17.899      19.748      21.118      21.847      21.848      21.118      19.748      17.900      15.770    
  13.541      11.361      9.3390      7.5499      6.0313      4.7895      3.8059      3.0474      2.1013      1.7725    
  1.5529      1.4273      1.3865      1.4273      1.5529      1.7725      2.1014      2.5614      3.1810      3.9936    
  5.0330      6.3250      7.8769      9.6683      11.646      13.721      15.769      17.638      19.152      20.141    
  20.485      20.141      19.152      17.638      15.770      13.721      11.646      9.6683      7.8769      6.3251    
  5.0332      3.9937      3.1810      2.5614      1.7814      1.5299      1.3717      1.2955      1.2955      1.3717    
  1.5299      1.7814      2.1433      2.6382      3.2941      4.1417      5.2093      6.5132      8.0486      9.7817    
  11.646      13.541      15.338      16.885      18.030      18.640      18.640      18.030      16.886      15.338    
  13.541      11.646      9.7817      8.0487      6.5133      5.2094      4.1418      3.2941      2.6382      2.1432    
  1.5164      1.3313      1.2254      1.1911      1.2254      1.3313      1.5165      1.7938      2.1809      2.6998    
  3.3763      4.2368      5.3019      6.5780      8.0486      9.6683      11.361      13.020      14.520      15.725    
  16.508      16.779      16.508      15.725      14.520      13.020      11.361      9.6683      8.0487      6.5781    
  5.3021      4.2369      3.3763      2.6997      2.1808      1.7938      1.3033      1.1735      1.1110      1.1110    
  1.1735      1.3033      1.5097      1.8060      2.2093      2.7398      3.4197      4.2696      5.3019      6.5132    
  7.8769      9.3390      10.818      12.211      13.400      14.272      14.734      14.734      14.272      13.400    
  12.211      10.818      9.3390      7.8769      6.5133      5.3021      4.2697      3.4197      2.7397      2.2092    
  1.8060      1.5097      1.1371      1.0524      1.0249      1.0524      1.1371      1.2853      1.5069      1.8148    
  2.2245      2.7536      3.4197      4.2368      5.2093      6.3250      7.5498      8.8250      10.069      11.187    
  12.078      12.654      12.853      12.654      12.078      11.187      10.069      8.8250      7.5499      6.3251    
  5.2094      4.2369      3.4197      2.7536      2.2245      1.8147      1.5069      1.2853      1.0126     0.96377    