unknown system                          
   1.00000000000000     
     0.000000    2.762528    2.762528
     2.762528    0.000000    2.762528
     2.762528    2.762528    0.000000
   Si
     2
Direct
  0.500000  0.500000  0.500000
  0.750000  0.750000  0.750000
 
   36   36   36
 0.82636800074E+00 0.84186845966E+00 0.88945669448E+00 0.97224305162E+00 0.10949824933E+01
 0.12635617041E+01 0.14844518373E+01 0.17641097939E+01 0.21081429426E+01 0.25199613008E+01
 0.29987541998E+01 0.35369734392E+01 0.41179643487E+01 0.47147197493E+01 0.52906898351E+01
 0.58030851272E+01 0.62083428523E+01 0.64687155280E+01 0.65585361855E+01 0.64687073258E+01
 0.62083335487E+01 0.58030909065E+01 0.52907292182E+01 0.47147969245E+01 0.41180591390E+01
 0.35370515511E+01 0.29987902575E+01 0.25199539237E+01 0.21081104917E+01 0.17640746819E+01
 0.14844277930E+01 0.12635511875E+01 0.10949814472E+01 0.97224632204E+00 0.88946062340E+00
 0.84187093165E+00 0.84186845966E+00 0.86890254185E+00 0.92472228480E+00 0.10126296399E+01
 0.11370964211E+01 0.13032808790E+01 0.15164733617E+01 0.17814201464E+01 0.21013846925E+01
 0.24768050299E+01 0.29035594965E+01 0.33711341111E+01 0.38612743349E+01 0.43478363492E+01
 0.47983964303E+01 0.51777238272E+01 0.54526277945E+01 0.55971917346E+01 0.55971925628E+01
 0.54526316819E+01 0.51777376251E+01 0.47984312542E+01 0.43478944379E+01 0.38613380123E+01
 0.33711749594E+01 0.29035606486E+01 0.24767723705E+01 0.21013382297E+01 0.17813792275E+01
 0.15164485891E+01 0.13032729732E+01 0.11370984165E+01 0.10126321438E+01 0.92472018266E+00
 0.86889765069E+00 0.84186595272E+00 0.88945669448E+00 0.92472228480E+00 0.98584011217E+00
 0.10760598654E+01 0.11994166531E+01 0.13602674574E+01 0.15627183929E+01 0.18098867946E+01
 0.21029210580E+01 0.24397642506E+01 0.28138020195E+01 0.32127218810E+01 0.36180397603E+01
 0.40057414349E+01 0.43482946724E+01 0.46179283721E+01 0.47906510630E+01 0.48501541332E+01
 0.47906548357E+01 0.46179385355E+01 0.43483151434E+01 0.40057705941E+01 0.36180642914E+01
 0.32127232555E+01 0.28137724571E+01 0.24397138753E+01 0.21028688310E+01 0.18098478498E+01
 0.15626994715E+01 0.13602676534E+01 0.11994277509E+01 0.10760692360E+01 0.98583890937E+00
 0.92471209698E+00 0.88944726211E+00 0.87793980786E+00 0.97224305162E+00 0.10126296399E+01
 0.10760598654E+01 0.11656115239E+01 0.12848304649E+01 0.14372712595E+01 0.16259050304E+01
 0.18523584420E+01 0.21159771297E+01 0.24127936661E+01 0.27345994035E+01 0.30684114865E+01
 0.33966420626E+01 0.36981997676E+01 0.39505821193E+01 0.41327579777E+01 0.42283417427E+01
 0.42283415691E+01 0.41327590894E+01 0.39505861933E+01 0.36982029442E+01 0.33966347261E+01
 0.30683858032E+01 0.27345574162E+01 0.24127469548E+01 0.21159389384E+01 0.18523372457E+01
 0.16259036486E+01 0.14372872842E+01 0.12848550739E+01 0.11656313097E+01 0.10760646326E+01
 0.10126198269E+01 0.97222898655E+00 0.95263571188E+00 0.95264209210E+00 0.10949824933E+01
 0.11370964211E+01 0.11994166531E+01 0.12848304649E+01 0.13964112090E+01 0.15369545115E+01
 0.17083863888E+01 0.19110416267E+01 0.21428593132E+01 0.23986162692E+01 0.26693925629E+01
 0.29424915050E+01 0.32019976988E+01 0.34300659272E+01 0.36088994051E+01 0.37231827341E+01
 0.37625069002E+01 0.37231795905E+01 0.36088943962E+01 0.34300563022E+01 0.32019773679E+01
 0.29424596941E+01 0.26693582726E+01 0.23985915236E+01 0.21428505258E+01 0.19110491401E+01
 0.17084084895E+01 0.15369874390E+01 0.13964462245E+01 0.12848556992E+01 0.11994243749E+01
 0.11370882659E+01 0.10949677351E+01 0.10707218397E+01 0.10628214707E+01 0.10707325277E+01
 0.12635617041E+01 0.13032808790E+01 0.13602674574E+01 0.14372712595E+01 0.15369545115E+01
 0.16614335047E+01 0.18117311265E+01 0.19871645588E+01 0.21847325951E+01 0.23986162018E+01
 0.26199488804E+01 0.28370155753E+01 0.30359904098E+01 0.32022430557E+01 0.33221279696E+01
 0.33849978087E+01 0.33849963356E+01 0.33221234456E+01 0.32022336172E+01 0.30359730413E+01
 0.28369926736E+01 0.26199312825E+01 0.23986151575E+01 0.21847504069E+01 0.19871958318E+01
 0.18117697863E+01 0.16614739827E+01 0.15369885923E+01 0.14372902994E+01 0.13602689741E+01
 0.13032702695E+01 0.12635474094E+01 0.12386387079E+01 0.12266871270E+01 0.12266913111E+01
 0.12386499321E+01 0.14844518373E+01 0.15164733617E+01 0.15627183929E+01 0.16259050304E+01
 0.17083863888E+01 0.18117311265E+01 0.19362743786E+01 0.20806631533E+01 0.22414462459E+01
 0.24127936489E+01 0.25864636995E+01 0.27521398120E+01 0.28982207701E+01 0.30130709686E+01
 0.30866089127E+01 0.31119403543E+01 0.30866089640E+01 0.30130682542E+01 0.28982126412E+01
 0.27521287950E+01 0.25864588255E+01 0.24128039834E+01 0.22414731619E+01 0.20807004538E+01
 0.19363140101E+01 0.18117653984E+01 0.17084070052E+01 0.16259065361E+01 0.15627040984E+01
 0.15164540522E+01 0.14844369519E+01 0.14639529633E+01 0.14527033930E+01 0.14491373024E+01
 0.14527064965E+01 0.14639609790E+01 0.17641097939E+01 0.17814201464E+01 0.18098867946E+01
 0.18523584420E+01 0.19110416267E+01 0.19871645588E+01 0.20806631533E+01 0.21898930326E+01
 0.23113939511E+01 0.24397644615E+01 0.25677412028E+01 0.26865941637E+01 0.27869173090E+01
 0.28597973889E+01 0.28981920986E+01 0.28981946706E+01 0.28598022314E+01 0.27869195701E+01
 0.26865934335E+01 0.25677423959E+01 0.24397728312E+01 0.23114109114E+01 0.21899162114E+01
 0.20806874594E+01 0.19871817285E+01 0.19110420507E+01 0.18523381779E+01 0.18098533895E+01
 0.17813888712E+01 0.17640922841E+01 0.17548350853E+01 0.17506506868E+01 0.17492028519E+01
 0.17492006438E+01 0.17506471739E+01 0.17548382699E+01 0.21081429426E+01 0.21013846925E+01
 0.21029210580E+01 0.21159771297E+01 0.21428593132E+01 0.21847325951E+01 0.22414462459E+01
 0.23113939511E+01 0.23914193039E+01 0.24768052718E+01 0.25614289091E+01 0.26381899287E+01
 0.26997810096E+01 0.27397447222E+01 0.27536050692E+01 0.27397541633E+01 0.26997935630E+01
 0.26381998935E+01 0.25614345500E+01 0.24768061459E+01 0.23914154670E+01 0.23113881867E+01
 0.22414415555E+01 0.21847252868E+01 0.21428396056E+01 0.21159403940E+01 0.21028759954E+01
 0.21013478019E+01 0.21081257568E+01 0.21193696161E+01 0.21310951719E+01 0.21397718951E+01
 0.21429523334E+01 0.21397618116E+01 0.21310829982E+01 0.21193673623E+01 0.25199613008E+01
 0.24768050299E+01 0.24397642506E+01 0.24127936661E+01 0.23986162692E+01 0.23986162018E+01
 0.24127936489E+01 0.24397644615E+01 0.24768052718E+01 0.25199613989E+01 0.25642797831E+01
 0.26042607625E+01 0.26345713643E+01 0.26509298453E+01 0.26509377418E+01 0.26345907075E+01
 0.26042816369E+01 0.25642915337E+01 0.25199552282E+01 0.24767781337E+01 0.24397235604E+01
 0.24127522035E+01 0.23985805632E+01 0.23985812617E+01 0.24127538602E+01 0.24397253812E+01
 0.24767796696E+01 0.25199562738E+01 0.25642918367E+01 0.26042811860E+01 0.26345899523E+01
 0.26509370918E+01 0.26509292502E+01 0.26345707064E+01 0.26042602548E+01 0.25642795975E+01
 0.29987541998E+01 0.29035594965E+01 0.28138020195E+01 0.27345994035E+01 0.26693925629E+01
 0.26199488804E+01 0.25864636995E+01 0.25677412028E+01 0.25614289091E+01 0.25642797831E+01
 0.25724667352E+01 0.25820191951E+01 0.25894060323E+01 0.25921695589E+01 0.25894242195E+01
 0.25820460810E+01 0.25724848486E+01 0.25642699141E+01 0.25613819477E+01 0.25676673897E+01
 0.25863870350E+01 0.26198886878E+01 0.26693520865E+01 0.27345734965E+01 0.28137902209E+01
 0.29035653887E+01 0.29987759109E+01 0.30927791691E+01 0.31778620572E+01 0.32460541496E+01
 0.32902753909E+01 0.33056001333E+01 0.32902611559E+01 0.32460305385E+01 0.31778336827E+01
 0.30927502454E+01 0.35369734392E+01 0.33711341111E+01 0.32127218810E+01 0.30684114865E+01
 0.29424915050E+01 0.28370155753E+01 0.27521398120E+01 0.26865941637E+01 0.26381899287E+01
 0.26042607625E+01 0.25820191951E+01 0.25688933581E+01 0.25628847974E+01 0.25628946532E+01
 0.25689174982E+01 0.25820396322E+01 0.26042506967E+01 0.26381316106E+01 0.26864973999E+01
 0.27520383255E+01 0.28369420710E+01 0.29424580189E+01 0.30684124283E+01 0.32127482527E+01
 0.33711785479E+01 0.35370253252E+01 0.37013219598E+01 0.38532825890E+01 0.39812417467E+01
 0.40740798225E+01 0.41229584535E+01 0.41229555933E+01 0.40740709161E+01 0.39812241941E+01
 0.38532514096E+01 0.37012762118E+01 0.41179643487E+01 0.38612743349E+01 0.36180397603E+01
 0.33966420626E+01 0.32019976988E+01 0.30359904098E+01 0.28982207701E+01 0.27869173090E+01
 0.26997810096E+01 0.26345713643E+01 0.25894060323E+01 0.25628847974E+01 0.25541470781E+01
 0.25629000002E+01 0.25894226503E+01 0.26345612563E+01 0.26997189555E+01 0.27868091163E+01
 0.28981071317E+01 0.30359160509E+01 0.32019800942E+01 0.33966709052E+01 0.36180964878E+01
 0.38613432382E+01 0.41180308427E+01 0.43763039783E+01 0.46213625878E+01 0.48366073040E+01
 0.50054046325E+01 0.51133257981E+01 0.51504796661E+01 0.51133342910E+01 0.50054136990E+01
 0.48366046514E+01 0.46213376213E+01 0.43762541987E+01 0.47147197493E+01 0.43478363492E+01
 0.40057414349E+01 0.36981997676E+01 0.34300659272E+01 0.32022430557E+01 0.30130709686E+01
 0.28597973889E+01 0.27397447222E+01 0.26509298453E+01 0.25921695589E+01 0.25628946532E+01
 0.25629000002E+01 0.25921776638E+01 0.26509162685E+01 0.27396811683E+01 0.28596840308E+01
 0.30129515010E+01 0.32021727908E+01 0.34300656355E+01 0.36982485356E+01 0.40058076762E+01
 0.43479011138E+01 0.47147734859E+01 0.50914671864E+01 0.54583856598E+01 0.57927357141E+01
 0.60707559785E+01 0.62705380047E+01 0.63750963520E+01 0.63751071123E+01 0.62705644133E+01
 0.60707841626E+01 0.57927509267E+01 0.54583774610E+01 0.50914332212E+01 0.52906898351E+01
 0.47983964303E+01 0.43482946724E+01 0.39505821193E+01 0.36088994051E+01 0.33221279696E+01
 0.30866089127E+01 0.28981920986E+01 0.27536050692E+01 0.26509377418E+01 0.25894242195E+01
 0.25689174982E+01 0.25894226503E+01 0.26509162685E+01 0.27535376970E+01 0.28980754580E+01
 0.30864852163E+01 0.33220592435E+01 0.36089107674E+01 0.39506422285E+01 0.43483551315E+01
 0.47984345490E+01 0.52907081127E+01 0.58075558902E+01 0.63243237429E+01 0.68110627479E+01
 0.72353439876E+01 0.75657933512E+01 0.77759778960E+01 0.78481381286E+01 0.77759979157E+01
 0.75658265455E+01 0.72353802538E+01 0.68110916401E+01 0.63243374674E+01 0.58075530436E+01
 0.58030851272E+01 0.51777238272E+01 0.46179283721E+01 0.41327579777E+01 0.37231827341E+01
 0.33849978087E+01 0.31119403543E+01 0.28981946706E+01 0.27397541633E+01 0.26345907075E+01
 0.25820460810E+01 0.25820396322E+01 0.26345612563E+01 0.27396811683E+01 0.28980754580E+01
 0.31118147494E+01 0.33849293446E+01 0.37232002144E+01 0.41328245927E+01 0.46179810027E+01
 0.51777327041E+01 0.58030633938E+01 0.64749846894E+01 0.71644344800E+01 0.78341208085E+01
 0.84419067746E+01 0.89451330445E+01 0.93054134332E+01 0.94934983151E+01 0.94934980556E+01
 0.93054161256E+01 0.89451458966E+01 0.84419327653E+01 0.78341542531E+01 0.71644681293E+01
 0.64750160198E+01 0.62083428523E+01 0.54526277945E+01 0.47906510630E+01 0.42283417427E+01
 0.37625069002E+01 0.33849963356E+01 0.30866089640E+01 0.28598022314E+01 0.26997935630E+01
 0.26042816369E+01 0.25724848486E+01 0.26042506967E+01 0.26997189555E+01 0.28596840308E+01
 0.30864852163E+01 0.33849293446E+01 0.37625278045E+01 0.42284130368E+01 0.47907007749E+01
 0.54526182782E+01 0.62082924204E+01 0.70394936841E+01 0.79145479742E+01 0.87898871019E+01
 0.96137505371E+01 0.10331130867E+02 0.10889375855E+02 0.11244260418E+02 0.11366043922E+02
 0.11244215482E+02 0.10889315448E+02 0.10331091591E+02 0.96137491756E+01 0.87899156275E+01
 0.79145937597E+01 0.70395501358E+01 0.64687155280E+01 0.55971917346E+01 0.48501541332E+01
 0.42283415691E+01 0.37231795905E+01 0.33221234456E+01 0.30130682542E+01 0.27869195701E+01
 0.26381998935E+01 0.25642915337E+01 0.25642699141E+01 0.26381316106E+01 0.27868091163E+01
 0.30129515010E+01 0.33220592435E+01 0.37232002144E+01 0.42284130368E+01 0.48502031400E+01
 0.55971754940E+01 0.64686525426E+01 0.74498463292E+01 0.85093375572E+01 0.95998249393E+01
 0.10661697977E+02 0.11628152800E+02 0.12431066685E+02 0.13007889681E+02 0.13309785651E+02
 0.13309729133E+02 0.13007749301E+02 0.12430911616E+02 0.11628047282E+02 0.10661662786E+02
 0.95998418304E+01 0.85093851638E+01 0.74499135066E+01 0.65585361855E+01 0.55971925628E+01
 0.47906548357E+01 0.41327590894E+01 0.36088943962E+01 0.32022336172E+01 0.28982126412E+01
 0.26865934335E+01 0.25614345500E+01 0.25199552282E+01 0.25613819477E+01 0.26864973999E+01
 0.28981071317E+01 0.32021727908E+01 0.36089107674E+01 0.41328245927E+01 0.47907007749E+01
 0.55971754940E+01 0.65584733716E+01 0.76660099898E+01 0.88921274939E+01 0.10189564285E+02
 0.11494426077E+02 0.12730929199E+02 0.13816654615E+02 0.14669071012E+02 0.15215053556E+02
 0.15403122089E+02 0.15214904181E+02 0.14668833552E+02 0.13816422827E+02 0.12730775970E+02
 0.11494364707E+02 0.10189565493E+02 0.88921655671E+01 0.76660735291E+01 0.64687073258E+01
 0.54526316819E+01 0.46179385355E+01 0.39505861933E+01 0.34300563022E+01 0.30359730413E+01
 0.27521287950E+01 0.25677423959E+01 0.24768061459E+01 0.24767781337E+01 0.25676673897E+01
 0.27520383255E+01 0.30359160509E+01 0.34300656355E+01 0.39506422285E+01 0.46179810027E+01
 0.54526182782E+01 0.64686525426E+01 0.76660099898E+01 0.90242958197E+01 0.10500598072E+02
 0.12031495878E+02 0.13537122606E+02 0.14925056411E+02 0.16093962780E+02 0.16939742056E+02
 0.17383067440E+02 0.17382991189E+02 0.16939535085E+02 0.16093690423E+02 0.14924807328E+02
 0.13536958847E+02 0.12031420092E+02 0.10500579308E+02 0.90243152471E+01 0.76660608079E+01
 0.62083335487E+01 0.51777376251E+01 0.43483151434E+01 0.36982029442E+01 0.32019773679E+01
 0.28369926736E+01 0.25864588255E+01 0.24397728312E+01 0.23914154670E+01 0.24397235604E+01
 0.25863870350E+01 0.28369420710E+01 0.32019800942E+01 0.36982485356E+01 0.43483551315E+01
 0.51777327041E+01 0.62082924204E+01 0.74498463292E+01 0.88921274939E+01 0.10500598072E+02
 0.12217183445E+02 0.13963704339E+02 0.15644408720E+02 0.17140567772E+02 0.18318288087E+02
 0.19070637170E+02 0.19329281765E+02 0.19070537293E+02 0.18318098713E+02 0.17140331481E+02
 0.15644192367E+02 0.13963553781E+02 0.12217098889E+02 0.10500559663E+02 0.88921284500E+01
 0.74498820971E+01 0.58030909065E+01 0.47984312542E+01 0.40057705941E+01 0.33966347261E+01
 0.29424596941E+01 0.26199312825E+01 0.24128039834E+01 0.23114109114E+01 0.23113881867E+01
 0.24127522035E+01 0.26198886878E+01 0.29424580189E+01 0.33966709052E+01 0.40058076762E+01
 0.47984345490E+01 0.58030633938E+01 0.70394936841E+01 0.85093375572E+01 0.10189564285E+02
 0.12031495878E+02 0.13963704339E+02 0.15893974409E+02 0.17694857022E+02 0.19209498024E+02
 0.20303444891E+02 0.20877387645E+02 0.20877372298E+02 0.20303382311E+02 0.19209367228E+02
 0.17694676833E+02 0.15893796812E+02 0.13963568782E+02 0.12031408134E+02 0.10189516374E+02
 0.85093289148E+01 0.70395178358E+01 0.52907292182E+01 0.43478944379E+01 0.36180642914E+01
 0.30683858032E+01 0.26693582726E+01 0.23986151575E+01 0.22414731619E+01 0.21899162114E+01
 0.22414415555E+01 0.23985805632E+01 0.26693520865E+01 0.30684124283E+01 0.36180964878E+01
 0.43479011138E+01 0.52907081127E+01 0.64749846894E+01 0.79145479742E+01 0.95998249393E+01
 0.11494426077E+02 0.13537122606E+02 0.15644408720E+02 0.17694857022E+02 0.19517922993E+02
 0.20955223063E+02 0.21877158767E+02 0.22195149399E+02 0.21877180417E+02 0.20955211442E+02
 0.19517834237E+02 0.17694708180E+02 0.15644254329E+02 0.13537001288E+02 0.11494344957E+02
 0.95997802519E+01 0.79145407974E+01 0.64750059206E+01 0.47147969245E+01 0.38613380123E+01
 0.32127232555E+01 0.27345574162E+01 0.23985915236E+01 0.21847504069E+01 0.20807004538E+01
 0.20806874594E+01 0.21847252868E+01 0.23985812617E+01 0.27345734965E+01 0.32127482527E+01
 0.38613432382E+01 0.47147734859E+01 0.58075558902E+01 0.71644344800E+01 0.87898871019E+01
 0.10661697977E+02 0.12730929199E+02 0.14925056411E+02 0.17140567772E+02 0.19209498024E+02
 0.20955223063E+02 0.22223249187E+02 0.22891929273E+02 0.22891968606E+02 0.22223319953E+02
 0.20955236960E+02 0.19209417365E+02 0.17140431308E+02 0.14924922583E+02 0.12730826273E+02
 0.10661628010E+02 0.87898521613E+01 0.71644388792E+01 0.58075855859E+01 0.41180591390E+01
 0.33711749594E+01 0.28137724571E+01 0.24127469548E+01 0.21428505258E+01 0.19871958318E+01
 0.19363140101E+01 0.19871817285E+01 0.21428396056E+01 0.24127538602E+01 0.28137902209E+01
 0.33711785479E+01 0.41180308427E+01 0.50914671864E+01 0.63243237429E+01 0.78341208085E+01
 0.96137505371E+01 0.11628152800E+02 0.13816654615E+02 0.16093962780E+02 0.18318288087E+02
 0.20303444891E+02 0.21877158767E+02 0.22891929273E+02 0.23243079727E+02 0.22892024042E+02
 0.21877253920E+02 0.20303454059E+02 0.18318209127E+02 0.16093850131E+02 0.13816548712E+02
 0.11628064915E+02 0.96136892363E+01 0.78341036589E+01 0.63243530233E+01 0.50915144851E+01
 0.35370515511E+01 0.29035606486E+01 0.24397138753E+01 0.21159389384E+01 0.19110491401E+01
 0.18117697863E+01 0.18117653984E+01 0.19110420507E+01 0.21159403940E+01 0.24397253812E+01
 0.29035653887E+01 0.35370253252E+01 0.43763039783E+01 0.54583856598E+01 0.68110627479E+01
 0.84419067746E+01 0.10331130867E+02 0.12431066685E+02 0.14669071012E+02 0.16939742056E+02
 0.19070637170E+02 0.20877387645E+02 0.22195149399E+02 0.22891968606E+02 0.22892024042E+02
 0.22195265192E+02 0.20877469716E+02 0.19070641694E+02 0.16939691990E+02 0.14668998038E+02
 0.12430982408E+02 0.10331051036E+02 0.84418656295E+01 0.68110845100E+01 0.54584510062E+01
 0.43763656880E+01 0.29987902575E+01 0.24767723705E+01 0.21028688310E+01 0.18523372457E+01
 0.17084084895E+01 0.16614739827E+01 0.17084070052E+01 0.18523381779E+01 0.21028759954E+01
 0.24767796696E+01 0.29987759109E+01 0.37013219598E+01 0.46213625878E+01 0.57927357141E+01
 0.72353439876E+01 0.89451330445E+01 0.10889375855E+02 0.13007889681E+02 0.15215053556E+02
 0.17383067440E+02 0.19329281765E+02 0.20877372298E+02 0.21877180417E+02 0.22223319953E+02
 0.21877253920E+02 0.20877469716E+02 0.19329355770E+02 0.17383104294E+02 0.15215051840E+02
 0.13007843766E+02 0.10889300399E+02 0.89450763693E+01 0.72353550818E+01 0.57928130794E+01
 0.46214550282E+01 0.37013799975E+01 0.25199539237E+01 0.21013382297E+01 0.18098478498E+01
 0.16259036486E+01 0.15369874390E+01 0.15369885923E+01 0.16259065361E+01 0.18098533895E+01
 0.21013478019E+01 0.25199562738E+01 0.30927791691E+01 0.38532825890E+01 0.48366073040E+01
 0.60707559785E+01 0.75657933512E+01 0.93054134332E+01 0.11244260418E+02 0.13309785651E+02
 0.15403122089E+02 0.17382991189E+02 0.19070537293E+02 0.20303382311E+02 0.20955211442E+02
 0.20955236960E+02 0.20303454059E+02 0.19070641694E+02 0.17383104294E+02 0.15403205835E+02
 0.13309802947E+02 0.11244213333E+02 0.93053563468E+01 0.75657951469E+01 0.60708375305E+01
 0.48367231504E+01 0.38533696070E+01 0.30928119968E+01 0.21081104917E+01 0.17813792275E+01
 0.15626994715E+01 0.14372872842E+01 0.13964462245E+01 0.14372902994E+01 0.15627040984E+01
 0.17813888712E+01 0.21081257568E+01 0.25642918367E+01 0.31778620572E+01 0.39812417467E+01
 0.50054046325E+01 0.62705380047E+01 0.77759778960E+01 0.94934983151E+01 0.11366043922E+02
 0.13309729133E+02 0.15214904181E+02 0.16939535085E+02 0.18318098713E+02 0.19209367228E+02
 0.19517834237E+02 0.19209417365E+02 0.18318209127E+02 0.16939691990E+02 0.15215051840E+02
 0.13309802947E+02 0.11366029277E+02 0.94934484633E+01 0.77759720181E+01 0.62706141670E+01
 0.50055296290E+01 0.39813481087E+01 0.31779091334E+01 0.25642906139E+01 0.17640746819E+01
 0.15164485891E+01 0.13602676534E+01 0.12848550739E+01 0.12848556992E+01 0.13602689741E+01
 0.15164540522E+01 0.17640922841E+01 0.21193696161E+01 0.26042811860E+01 0.32460541496E+01
 0.40740798225E+01 0.51133257981E+01 0.63750963520E+01 0.78481381286E+01 0.94934980556E+01
 0.11244215482E+02 0.13007749301E+02 0.14668833552E+02 0.16093690423E+02 0.17140331481E+02
 0.17694676833E+02 0.17694708180E+02 0.17140431308E+02 0.16093850131E+02 0.14668998038E+02
 0.13007843766E+02 0.11244213333E+02 0.94934484633E+01 0.78481231335E+01 0.63751613085E+01
 0.51134469420E+01 0.40741929192E+01 0.32461098622E+01 0.26042791320E+01 0.21193446828E+01
 0.14844277930E+01 0.13032729732E+01 0.11994277509E+01 0.11656313097E+01 0.11994243749E+01
 0.13032702695E+01 0.14844369519E+01 0.17548350853E+01 0.21310951719E+01 0.26345899523E+01
 0.32902753909E+01 0.41229584535E+01 0.51504796661E+01 0.63751071123E+01 0.77759979157E+01
 0.93054161256E+01 0.10889315448E+02 0.12430911616E+02 0.13816422827E+02 0.14924807328E+02
 0.15644192367E+02 0.15893796812E+02 0.15644254329E+02 0.14924922583E+02 0.13816548712E+02
 0.12430982408E+02 0.10889300399E+02 0.93053563468E+01 0.77759720181E+01 0.63751613085E+01
 0.51505941361E+01 0.41230727384E+01 0.32903374447E+01 0.26345896457E+01 0.21310620268E+01
 0.17548063553E+01 0.12635511875E+01 0.11370984165E+01 0.10760692360E+01 0.10760646326E+01
 0.11370882659E+01 0.12635474094E+01 0.14639529633E+01 0.17506506868E+01 0.21397718951E+01
 0.26509370918E+01 0.33056001333E+01 0.41229555933E+01 0.51133342910E+01 0.62705644133E+01
 0.75658265455E+01 0.89451458966E+01 0.10331091591E+02 0.11628047282E+02 0.12730775970E+02
 0.13536958847E+02 0.13963553781E+02 0.13963568782E+02 0.13537001288E+02 0.12730826273E+02
 0.11628064915E+02 0.10331051036E+02 0.89450763693E+01 0.75657951469E+01 0.62706141670E+01
 0.51134469420E+01 0.41230727384E+01 0.33056696408E+01 0.26509434277E+01 0.21397371612E+01
 0.17506123727E+01 0.14639358860E+01 0.10949814472E+01 0.10126321438E+01 0.98583890937E+00
 0.10126198269E+01 0.10949677351E+01 0.12386387079E+01 0.14527033930E+01 0.17492028519E+01
 0.21429523334E+01 0.26509292502E+01 0.32902611559E+01 0.40740709161E+01 0.50054136990E+01
 0.60707841626E+01 0.72353802538E+01 0.84419327653E+01 0.96137491756E+01 0.10661662786E+02
 0.11494364707E+02 0.12031420092E+02 0.12217098889E+02 0.12031408134E+02 0.11494344957E+02
 0.10661628010E+02 0.96136892363E+01 0.84418656295E+01 0.72353550818E+01 0.60708375305E+01
 0.50055296290E+01 0.40741929192E+01 0.32903374447E+01 0.26509434277E+01 0.21429219807E+01
 0.17491607152E+01 0.14526771536E+01 0.12386373124E+01 0.97224632204E+00 0.92472018266E+00
 0.92471209698E+00 0.97222898655E+00 0.10707218397E+01 0.12266871270E+01 0.14491373024E+01
 0.17492006438E+01 0.21397618116E+01 0.26345707064E+01 0.32460305385E+01 0.39812241941E+01
 0.48366046514E+01 0.57927509267E+01 0.68110916401E+01 0.78341542531E+01 0.87899156275E+01
 0.95998418304E+01 0.10189565493E+02 0.10500579308E+02 0.10500559663E+02 0.10189516374E+02
 0.95997802519E+01 0.87898521613E+01 0.78341036589E+01 0.68110845100E+01 0.57928130794E+01
 0.48367231504E+01 0.39813481087E+01 0.32461098622E+01 0.26345896457E+01 0.21397371612E+01
 0.17491607152E+01 0.14491061919E+01 0.12266776731E+01 0.10707325487E+01 0.88946062340E+00
 0.86889765069E+00 0.88944726211E+00 0.95263571188E+00 0.10628214707E+01 0.12266913111E+01
 0.14527064965E+01 0.17506471739E+01 0.21310829982E+01 0.26042602548E+01 0.31778336827E+01
 0.38532514096E+01 0.46213376213E+01 0.54583774610E+01 0.63243374674E+01 0.71644681293E+01
 0.79145937597E+01 0.85093851638E+01 0.88921655671E+01 0.90243152471E+01 0.88921284500E+01
 0.85093289148E+01 0.79145407974E+01 0.71644388792E+01 0.63243530233E+01 0.54584510062E+01
 0.46214550282E+01 0.38533696070E+01 0.31779091334E+01 0.26042791320E+01 0.21310620268E+01
 0.17506123727E+01 0.14526771536E+01 0.12266776731E+01 0.10628258680E+01 0.95265133164E+00
 0.84187093165E+00 0.84186595272E+00 0.87793980786E+00 0.95264209210E+00 0.10707325277E+01
 0.12386499321E+01 0.14639609790E+01 0.17548382699E+01 0.21193673623E+01 0.25642795975E+01
 0.30927502454E+01 0.37012762118E+01 0.43762541987E+01 0.50914332212E+01 0.58075530436E+01
 0.64750160198E+01 0.70395501358E+01 0.74499135066E+01 0.76660735291E+01 0.76660608079E+01
 0.74498820971E+01 0.70395178358E+01 0.64750059206E+01 0.58075855859E+01 0.50915144851E+01
 0.43763656880E+01 0.37013799975E+01 0.30928119968E+01 0.25642906139E+01 0.21193446828E+01
 0.17548063553E+01 0.14639358860E+01 0.12386373124E+01 0.10707325487E+01 0.95265133164E+00
 0.87795103932E+00 0.84186867732E+00 0.86890264000E+00 0.92472242396E+00 0.10126298115E+01
 0.11370964952E+01 0.13032808588E+01 0.15164733729E+01 0.17814202048E+01 0.21013847128E+01
 0.24768050415E+01 0.29035596082E+01 0.33711342659E+01 0.38612743205E+01 0.43478360407E+01
 0.47983958245E+01 0.51777229080E+01 0.54526266437E+01 0.55971907597E+01 0.55971923149E+01
 0.54526323495E+01 0.51777388365E+01 0.47984323409E+01 0.43478947387E+01 0.38613370785E+01
 0.33711728404E+01 0.29035580454E+01 0.24767702597E+01 0.21013372321E+01 0.17813794088E+01
 0.15164497219E+01 0.13032747127E+01 0.11371002825E+01 0.10126336810E+01 0.92472124263E+00
 0.86889835518E+00 0.84186640261E+00 0.86890264000E+00 0.90364551759E+00 0.96377810138E+00
 0.10524186954E+01 0.11734857690E+01 0.13312711945E+01 0.15298818758E+01 0.17724900327E+01
 0.20603259325E+01 0.23914190749E+01 0.27592460844E+01 0.31516183144E+01 0.35502550080E+01
 0.39314649405E+01 0.42681619884E+01 0.45330926141E+01 0.47027561703E+01 0.47611965025E+01
 0.47027591553E+01 0.45331017663E+01 0.42681824096E+01 0.39314970372E+01 0.35502877614E+01
 0.31516338164E+01 0.27592337169E+01 0.23913836894E+01 0.20602824498E+01 0.17724532398E+01
 0.15298608227E+01 0.13312673118E+01 0.11734922006E+01 0.10524239399E+01 0.96377449352E+00
 0.90363492999E+00 0.86889368990E+00 0.85754765185E+00 0.92472242396E+00 0.96377810138E+00
 0.10249243987E+01 0.11110130303E+01 0.12254366609E+01 0.13717168910E+01 0.15529097417E+01
 0.17707981290E+01 0.20248970539E+01 0.23113938090E+01 0.26222470507E+01 0.29447278905E+01
 0.32616737996E+01 0.35526359070E+01 0.37959357971E+01 0.39714194536E+01 0.40634435799E+01
 0.40634424632E+01 0.39714184932E+01 0.37959392058E+01 0.35526438437E+01 0.32616796784E+01
 0.29447226284E+01 0.26222264435E+01 0.23113617615E+01 0.20248625751E+01 0.17707705675E+01
 0.15528958142E+01 0.13717183062E+01 0.12254478845E+01 0.11110230696E+01 0.10249241298E+01
 0.96376716653E+00 0.92470905011E+00 0.90571385600E+00 0.90571974252E+00 0.10126298115E+01
 0.10524186954E+01 0.11110130303E+01 0.11910570230E+01 0.12955260923E+01 0.14272886231E+01
 0.15884719069E+01 0.17796557101E+01 0.19989949878E+01 0.22414462275E+01 0.24983070482E+01
 0.27572568925E+01 0.30030173237E+01 0.32186599020E+01 0.33874831701E+01 0.34952356980E+01
 0.35322866946E+01 0.34952303636E+01 0.33874763579E+01 0.32186530930E+01 0.30030072065E+01
 0.27572403928E+01 0.24982858319E+01 0.22414248776E+01 0.19989774666E+01 0.17796453902E+01
 0.15884723690E+01 0.14273007980E+01 0.12955447082E+01 0.11910723872E+01 0.11110175831E+01
 0.10524119735E+01 0.10126179709E+01 0.98959826205E+00 0.98207370850E+00 0.98960695854E+00
 0.11370964952E+01 0.11734857690E+01 0.12254366609E+01 0.12955260923E+01 0.13864394804E+01
 0.15004925998E+01 0.16389982853E+01 0.18015489974E+01 0.19853454586E+01 0.21847325696E+01
 0.23910931579E+01 0.25931968263E+01 0.27780296301E+01 0.29320677584E+01 0.30428906284E+01
 0.31009170325E+01 0.31009143747E+01 0.30428840883E+01 0.29320587974E+01 0.27780170815E+01
 0.25931807115E+01 0.23910784797E+01 0.21847256013E+01 0.19853479834E+01 0.18015592773E+01
 0.16390153605E+01 0.15005154001E+01 0.13864629229E+01 0.12955424894E+01 0.12254417549E+01
 0.11734814427E+01 0.11370880153E+01 0.11141108848E+01 0.11030203463E+01 0.11030232873E+01
 0.11141183854E+01 0.13032808588E+01 0.13312711945E+01 0.13717168910E+01 0.14272886231E+01
 0.15004925998E+01 0.15931826579E+01 0.17060003114E+01 0.18378252299E+01 0.19853454334E+01
 0.21428592155E+01 0.23023974248E+01 0.24542096309E+01 0.25876093436E+01 0.26921291237E+01
 0.27588700491E+01 0.27818254182E+01 0.27588695570E+01 0.26921264974E+01 0.25876026328E+01
 0.24541999656E+01 0.23023907304E+01 0.21428622270E+01 0.19853599839E+01 0.18378480487E+01
 0.17060269898E+01 0.15932087585E+01 0.15005122691E+01 0.14272968147E+01 0.13717141394E+01
 0.13312634251E+01 0.13032737103E+01 0.12852858779E+01 0.12753380558E+01 0.12721681134E+01
 0.12753404024E+01 0.12852905606E+01 0.15164733729E+01 0.15298818758E+01 0.15529097417E+01
 0.15884719069E+01 0.16389982853E+01 0.17060003114E+01 0.17896535691E+01 0.18884516137E+01
 0.19989949469E+01 0.21159770788E+01 0.22324187107E+01 0.23401814917E+01 0.24307618553E+01
 0.24963123737E+01 0.25307546538E+01 0.25307571254E+01 0.24963168481E+01 0.24307631066E+01
 0.23401784756E+01 0.22324160990E+01 0.21159807739E+01 0.19990073885E+01 0.18884712593E+01
 0.17896763454E+01 0.17060198801E+01 0.16390071539E+01 0.15884661248E+01 0.15528934371E+01
 0.15298650447E+01 0.15164638732E+01 0.15096976410E+01 0.15068901685E+01 0.15060271351E+01
 0.15060260342E+01 0.15068883329E+01 0.15096992677E+01 0.17814202048E+01 0.17724900327E+01
 0.17707981290E+01 0.17796557101E+01 0.18015489974E+01 0.18378252299E+01 0.18884516137E+01
 0.19518595444E+01 0.20248970474E+01 0.21029211174E+01 0.21800721033E+01 0.22497718978E+01
 0.23054534617E+01 0.23414543847E+01 0.23539152363E+01 0.23414610682E+01 0.23054608257E+01
 0.22497748779E+01 0.21800707658E+01 0.21029183806E+01 0.20248957716E+01 0.19518622091E+01
 0.18884587024E+01 0.18378319089E+01 0.18015465376E+01 0.17796392486E+01 0.17707724104E+01
 0.17724661576E+01 0.17814072264E+01 0.17938394809E+01 0.18060317556E+01 0.18147931411E+01
 0.18179654778E+01 0.18147867617E+01 0.18060247752E+01 0.17938398904E+01 0.21013847128E+01
 0.20603259325E+01 0.20248970539E+01 0.19989949878E+01 0.19853454586E+01 0.19853454334E+01
 0.19989949469E+01 0.20248970474E+01 0.20603259599E+01 0.21013847416E+01 0.21432984369E+01
 0.21808922587E+01 0.22092573672E+01 0.22245172789E+01 0.22245219981E+01 0.22092677452E+01
 0.21809004704E+01 0.21432982742E+01 0.21013738789E+01 0.20603064981E+01 0.20248759904E+01
 0.19989802337E+01 0.19853379309E+01 0.19853372582E+01 0.19989785480E+01 0.20248741332E+01
 0.20603053921E+01 0.21013740382E+01 0.21432995967E+01 0.21809024399E+01 0.22092697854E+01
 0.22245236833E+01 0.22245183928E+01 0.22092579203E+01 0.21808924374E+01 0.21432984528E+01
 0.24768050415E+01 0.23914190749E+01 0.23113938090E+01 0.22414462275E+01 0.21847325696E+01
 0.21428592155E+01 0.21159770788E+01 0.21029211174E+01 0.21013847416E+01 0.21081428987E+01