   2   2   0   0
  0.2108240E+02  0.3906805E-09  0.3906805E-09  0.3906805E-09  0.5000000E-15
  1.000000000000000E-004
  CAR 
 unknown system                          
     16.48908302     -8.24738099  301      5.66459952      1.00000000
     -8.247  0.0000E+00  0.0000E+00
     -8.165  0.0000E+00  0.0000E+00
     -8.082  0.0000E+00  0.0000E+00
     -8.000  0.0000E+00  0.0000E+00
     -7.918  0.0000E+00  0.0000E+00
     -7.835  0.0000E+00  0.0000E+00
     -7.753  0.0000E+00  0.0000E+00
     -7.670  0.0000E+00  0.0000E+00
     -7.588  0.0000E+00  0.0000E+00
     -7.505  0.0000E+00  0.0000E+00
     -7.423  0.3506E-18  0.2891E-19
     -7.340  0.3401E-16  0.2833E-17
     -7.258  0.2802E-14  0.2338E-15
     -7.175  0.1649E-12  0.1383E-13
     -7.093  0.6949E-11  0.5868E-12
     -7.011  0.2100E-09  0.1791E-10
     -6.928  0.4561E-08  0.3940E-09
     -6.846  0.7136E-07  0.6278E-08
     -6.763  0.8076E-06  0.7287E-07
     -6.681  0.6654E-05  0.6215E-06
     -6.598  0.4029E-04  0.3943E-05
     -6.516  0.1817E-03  0.1893E-04
     -6.433  0.6216E-03  0.7018E-04
     -6.351  0.1649E-02  0.2062E-03
     -6.268  0.3478E-02  0.4929E-03
     -6.186  0.5989E-02  0.9867E-03
     -6.104  0.8713E-02  0.1705E-02
     -6.021  0.1122E-01  0.2631E-02
     -5.939  0.1351E-01  0.3745E-02
     -5.856  0.1572E-01  0.5041E-02
     -5.774  0.1762E-01  0.6494E-02
     -5.691  0.1882E-01  0.8046E-02
     -5.609  0.1971E-01  0.9671E-02
     -5.526  0.2132E-01  0.1143E-01
     -5.444  0.2384E-01  0.1339E-01
     -5.361  0.2590E-01  0.1553E-01
     -5.279  0.2642E-01  0.1771E-01
     -5.197  0.2630E-01  0.1988E-01
     -5.114  0.2716E-01  0.2212E-01
     -5.032  0.2919E-01  0.2452E-01
     -4.949  0.3153E-01  0.2712E-01
     -4.867  0.3380E-01  0.2991E-01
     -4.784  0.3592E-01  0.3287E-01
     -4.702  0.3728E-01  0.3595E-01
     -4.619  0.3729E-01  0.3902E-01
     -4.537  0.3650E-01  0.4203E-01
     -4.454  0.3707E-01  0.4509E-01
     -4.372  0.4123E-01  0.4849E-01
     -4.290  0.4818E-01  0.5246E-01
     -4.207  0.5413E-01  0.5692E-01
     -4.125  0.5662E-01  0.6159E-01
     -4.042  0.5688E-01  0.6628E-01
     -3.960  0.5696E-01  0.7098E-01
     -3.877  0.5665E-01  0.7565E-01
     -3.795  0.5428E-01  0.8013E-01
     -3.712  0.5017E-01  0.8426E-01
     -3.630  0.4795E-01  0.8822E-01
     -3.547  0.5066E-01  0.9239E-01
     -3.465  0.5591E-01  0.9700E-01
     -3.383  0.5758E-01  0.1018E+00
     -3.300  0.5231E-01  0.1061E+00
     -3.218  0.4247E-01  0.1096E+00
     -3.135  0.3301E-01  0.1123E+00
     -3.053  0.2715E-01  0.1145E+00
     -2.970  0.2585E-01  0.1167E+00
     -2.888  0.2892E-01  0.1190E+00
     -2.805  0.3460E-01  0.1219E+00
     -2.723  0.3890E-01  0.1251E+00
     -2.640  0.3758E-01  0.1282E+00
     -2.558  0.2973E-01  0.1307E+00
     -2.476  0.1871E-01  0.1322E+00
     -2.393  0.9171E-02  0.1330E+00
     -2.311  0.3478E-02  0.1332E+00
     -2.228  0.1311E-02  0.1333E+00
     -2.146  0.1883E-02  0.1335E+00
     -2.063  0.5905E-02  0.1340E+00
     -1.981  0.1492E-01  0.1352E+00
     -1.898  0.2777E-01  0.1375E+00
     -1.816  0.3842E-01  0.1407E+00
     -1.733  0.4080E-01  0.1440E+00
     -1.651  0.3602E-01  0.1470E+00
     -1.569  0.3182E-01  0.1496E+00
     -1.486  0.3515E-01  0.1525E+00
     -1.404  0.4725E-01  0.1564E+00
     -1.321  0.6343E-01  0.1617E+00
     -1.239  0.7670E-01  0.1680E+00
     -1.156  0.8285E-01  0.1748E+00
     -1.074  0.8135E-01  0.1815E+00
     -0.991  0.7263E-01  0.1875E+00
     -0.909  0.5946E-01  0.1924E+00
     -0.826  0.4858E-01  0.1964E+00
     -0.744  0.4462E-01  0.2001E+00
     -0.662  0.4386E-01  0.2037E+00
     -0.579  0.3941E-01  0.2070E+00
     -0.497  0.3103E-01  0.2095E+00
     -0.414  0.2496E-01  0.2116E+00
     -0.332  0.2552E-01  0.2137E+00
     -0.249  0.3126E-01  0.2163E+00
     -0.167  0.3729E-01  0.2193E+00
     -0.084  0.3847E-01  0.2225E+00
     -0.002  0.3292E-01  0.2252E+00
      0.081  0.2411E-01  0.2272E+00
      0.163  0.1782E-01  0.2287E+00
      0.245  0.1740E-01  0.2301E+00
      0.328  0.2176E-01  0.2319E+00
      0.410  0.2612E-01  0.2341E+00
      0.493  0.2561E-01  0.2362E+00
      0.575  0.1993E-01  0.2378E+00
      0.658  0.1359E-01  0.2389E+00
      0.740  0.1086E-01  0.2398E+00
      0.823  0.1209E-01  0.2408E+00
      0.905  0.1563E-01  0.2421E+00
      0.988  0.2090E-01  0.2438E+00
      1.070  0.2803E-01  0.2462E+00
      1.152  0.3609E-01  0.2491E+00
      1.235  0.4351E-01  0.2527E+00
      1.317  0.4959E-01  0.2568E+00
      1.400  0.5533E-01  0.2614E+00
      1.482  0.6307E-01  0.2666E+00
      1.565  0.7311E-01  0.2726E+00
      1.647  0.8138E-01  0.2793E+00
      1.730  0.8323E-01  0.2862E+00
      1.812  0.7895E-01  0.2927E+00
      1.895  0.7334E-01  0.2987E+00
      1.977  0.7058E-01  0.3045E+00
      2.059  0.7083E-01  0.3104E+00
      2.142  0.7170E-01  0.3163E+00
      2.224  0.7242E-01  0.3223E+00
      2.307  0.7567E-01  0.3285E+00
      2.389  0.8429E-01  0.3355E+00
      2.472  0.9567E-01  0.3433E+00
      2.554  0.1020E+00  0.3518E+00
      2.637  0.9955E-01  0.3600E+00
      2.719  0.9464E-01  0.3678E+00
      2.802  0.9507E-01  0.3756E+00
      2.884  0.9959E-01  0.3838E+00
      2.966  0.1010E+00  0.3921E+00
      3.049  0.9723E-01  0.4002E+00
      3.131  0.9455E-01  0.4080E+00
      3.214  0.9872E-01  0.4161E+00
      3.296  0.1058E+00  0.4248E+00
      3.379  0.1055E+00  0.4335E+00
      3.461  0.9415E-01  0.4413E+00
      3.544  0.7945E-01  0.4478E+00
      3.626  0.7269E-01  0.4538E+00
      3.709  0.7786E-01  0.4602E+00
      3.791  0.8865E-01  0.4676E+00
      3.873  0.9498E-01  0.4754E+00
      3.956  0.9159E-01  0.4829E+00
      4.038  0.8070E-01  0.4896E+00
      4.121  0.6877E-01  0.4953E+00
      4.203  0.6161E-01  0.5003E+00
      4.286  0.5989E-01  0.5053E+00
      4.368  0.5818E-01  0.5101E+00
      4.451  0.5097E-01  0.5143E+00
      4.533  0.3970E-01  0.5176E+00
      4.616  0.3091E-01  0.5201E+00
      4.698  0.2817E-01  0.5224E+00
      4.780  0.2860E-01  0.5248E+00
      4.863  0.2720E-01  0.5270E+00
      4.945  0.2249E-01  0.5289E+00
      5.028  0.1686E-01  0.5303E+00
      5.110  0.1259E-01  0.5313E+00
      5.193  0.9679E-02  0.5321E+00
      5.275  0.7058E-02  0.5327E+00
      5.358  0.4404E-02  0.5331E+00
      5.440  0.2198E-02  0.5332E+00
      5.523  0.8441E-03  0.5333E+00
      5.605  0.2466E-03  0.5333E+00
      5.687  0.7728E-04  0.5333E+00
      5.770  0.1632E-03  0.5333E+00
      5.852  0.6911E-03  0.5334E+00
      5.935  0.2235E-02  0.5336E+00
      6.017  0.5316E-02  0.5340E+00
      6.100  0.9472E-02  0.5348E+00
      6.182  0.1320E-01  0.5359E+00
      6.265  0.1580E-01  0.5372E+00
      6.347  0.1886E-01  0.5388E+00
      6.430  0.2431E-01  0.5408E+00
      6.512  0.3128E-01  0.5433E+00
      6.594  0.3675E-01  0.5464E+00
      6.677  0.3998E-01  0.5497E+00
      6.759  0.4362E-01  0.5533E+00
      6.842  0.4920E-01  0.5573E+00
      6.924  0.5462E-01  0.5618E+00
      7.007  0.5772E-01  0.5666E+00
      7.089  0.5922E-01  0.5715E+00
      7.172  0.6189E-01  0.5766E+00
      7.254  0.6942E-01  0.5823E+00
      7.337  0.8428E-01  0.5892E+00
      7.419  0.1036E+00  0.5978E+00
      7.502  0.1178E+00  0.6075E+00
      7.584  0.1186E+00  0.6173E+00
      7.666  0.1075E+00  0.6261E+00
      7.749  0.9371E-01  0.6339E+00
      7.831  0.8563E-01  0.6409E+00
      7.914  0.8475E-01  0.6479E+00
      7.996  0.8595E-01  0.6550E+00
      8.079  0.8338E-01  0.6619E+00
      8.161  0.7691E-01  0.6682E+00
      8.244  0.7151E-01  0.6741E+00
      8.326  0.7259E-01  0.6801E+00
      8.409  0.8350E-01  0.6870E+00
      8.491  0.1032E+00  0.6955E+00
      8.573  0.1244E+00  0.7057E+00
      8.656  0.1368E+00  0.7170E+00
      8.738  0.1363E+00  0.7283E+00
      8.821  0.1280E+00  0.7388E+00
      8.903  0.1197E+00  0.7487E+00
      8.986  0.1140E+00  0.7581E+00
      9.068  0.1083E+00  0.7670E+00
      9.151  0.1014E+00  0.7754E+00
      9.233  0.9489E-01  0.7832E+00
      9.316  0.9015E-01  0.7906E+00
      9.398  0.8737E-01  0.7978E+00
      9.480  0.8643E-01  0.8050E+00
      9.563  0.8629E-01  0.8121E+00
      9.645  0.8595E-01  0.8192E+00
      9.728  0.8616E-01  0.8263E+00
      9.810  0.8756E-01  0.8335E+00
      9.893  0.8885E-01  0.8408E+00
      9.975  0.9002E-01  0.8482E+00
     10.058  0.9372E-01  0.8560E+00
     10.140  0.9967E-01  0.8642E+00
     10.223  0.1016E+00  0.8726E+00
     10.305  0.9424E-01  0.8803E+00
     10.387  0.8080E-01  0.8870E+00
     10.470  0.6897E-01  0.8927E+00
     10.552  0.6293E-01  0.8979E+00
     10.635  0.6116E-01  0.9029E+00
     10.717  0.6177E-01  0.9080E+00
     10.800  0.6692E-01  0.9135E+00
     10.882  0.7865E-01  0.9200E+00
     10.965  0.9264E-01  0.9277E+00
     11.047  0.1014E+00  0.9360E+00
     11.130  0.1012E+00  0.9444E+00
     11.212  0.9223E-01  0.9520E+00
     11.294  0.7702E-01  0.9583E+00
     11.377  0.6058E-01  0.9633E+00
     11.459  0.4918E-01  0.9674E+00
     11.542  0.4620E-01  0.9712E+00
     11.624  0.4872E-01  0.9752E+00
     11.707  0.4999E-01  0.9793E+00
     11.789  0.4679E-01  0.9832E+00
     11.872  0.4294E-01  0.9867E+00
     11.954  0.4502E-01  0.9904E+00
     12.037  0.5664E-01  0.9951E+00
     12.119  0.7426E-01  0.1001E+01
     12.201  0.8702E-01  0.1008E+01
     12.284  0.8493E-01  0.1015E+01
     12.366  0.6837E-01  0.1021E+01
     12.449  0.4692E-01  0.1025E+01
     12.531  0.3079E-01  0.1027E+01
     12.614  0.2495E-01  0.1029E+01
     12.696  0.2720E-01  0.1032E+01
     12.779  0.3055E-01  0.1034E+01
     12.861  0.3036E-01  0.1037E+01
     12.944  0.2859E-01  0.1039E+01
     13.026  0.2906E-01  0.1042E+01
     13.108  0.3193E-01  0.1044E+01
     13.191  0.3530E-01  0.1047E+01
     13.273  0.3828E-01  0.1050E+01
     13.356  0.3947E-01  0.1053E+01
     13.438  0.3565E-01  0.1056E+01
     13.521  0.2594E-01  0.1059E+01
     13.603  0.1441E-01  0.1060E+01
     13.686  0.5982E-02  0.1060E+01
     13.768  0.2017E-02  0.1060E+01
     13.851  0.1279E-02  0.1061E+01
     13.933  0.2626E-02  0.1061E+01
     14.015  0.5368E-02  0.1061E+01
     14.098  0.8153E-02  0.1062E+01
     14.180  0.9303E-02  0.1063E+01
     14.263  0.8800E-02  0.1063E+01
     14.345  0.8399E-02  0.1064E+01
     14.428  0.8918E-02  0.1065E+01
     14.510  0.8966E-02  0.1065E+01
     14.593  0.7207E-02  0.1066E+01
     14.675  0.4322E-02  0.1066E+01
     14.758  0.1895E-02  0.1067E+01
     14.840  0.6035E-03  0.1067E+01
     14.922  0.1394E-03  0.1067E+01
     15.005  0.2329E-04  0.1067E+01
     15.087  0.2814E-05  0.1067E+01
     15.170  0.2454E-06  0.1067E+01
     15.252  0.1543E-07  0.1067E+01
     15.335  0.6988E-09  0.1067E+01
     15.417  0.2275E-10  0.1067E+01
     15.500  0.5321E-12  0.1067E+01
     15.582  0.8933E-14  0.1067E+01
     15.665  0.1073E-15  0.1067E+01
     15.747  0.0000E+00  0.1067E+01
     15.829  0.0000E+00  0.1067E+01
     15.912  0.0000E+00  0.1067E+01
     15.994  0.0000E+00  0.1067E+01
     16.077  0.0000E+00  0.1067E+01
     16.159  0.0000E+00  0.1067E+01
     16.242  0.0000E+00  0.1067E+01
     16.324  0.0000E+00  0.1067E+01
     16.407  0.0000E+00  0.1067E+01
     16.489  0.0000E+00  0.1067E+01
