    2    2   15    1
  0.2108240E+02  0.3906805E-09  0.3906805E-09  0.3906805E-09  0.5000000E-15
  1.000000000000000E-004
  CAR 
 unknown system                          
      8     60      8
 
  0.6250000E-01  0.6250000E-01  0.6250000E-01  0.3906250E-02
    1       -6.247381   1.000000
    2        4.778557   1.000000
    3        5.234694   0.998817
    4        5.234694   0.998817
    5        7.845147   0.000000
    6        7.976384   0.000000
    7        7.976384   0.000000
    8        8.567480   0.000000
 
  0.1875000E+00  0.6250000E-01  0.6250000E-01  0.1171875E-01
    1       -5.988151   1.000000
    2        3.289440   1.000000
    3        4.459217   1.000000
    4        5.118068   0.999944
    5        7.861524   0.000000
    6        8.215202   0.000000
    7        8.478855   0.000000
    8       10.090904   0.000000
 
  0.3125000E+00  0.6250000E-01  0.6250000E-01  0.1171875E-01
    1       -5.363528   1.000000
    2        1.127881   1.000000
    3        3.980679   1.000000
    4        4.670366   1.000000
    5        7.408652   0.000000
    6        8.706450   0.000000
    7        8.982077   0.000000
    8       11.701211   0.000000
 
  0.4375000E+00  0.6250000E-01  0.6250000E-01  0.1171875E-01
    1       -4.496946   1.000000
    2       -0.695211   1.000000
    3        3.765825   1.000000
    4        4.276328   1.000000
    5        7.095927   0.000000
    6        8.789854   0.000000
    7        8.803523   0.000000
    8       13.002812   0.000000
 
 -0.4375000E+00  0.6250000E-01  0.6250000E-01  0.1171875E-01
    1       -4.071663   1.000000
    2       -1.365544   1.000000
    3        3.810502   1.000000
    4        4.066583   1.000000
    5        7.017677   0.000000
    6        8.607259   0.000000
    7        8.868966   0.000000
    8       13.104916   0.000000
 
 -0.3125000E+00  0.6250000E-01  0.6250000E-01  0.1171875E-01
    1       -4.792713   1.000000
    2       -0.157619   1.000000
    3        4.087456   1.000000
    4        4.089418   1.000000
    5        7.185770   0.000000
    6        8.601065   0.000000
    7        9.107654   0.000000
    8       12.142814   0.000000
 
 -0.1875000E+00  0.6250000E-01  0.6250000E-01  0.1171875E-01
    1       -5.608191   1.000000
    2        1.835974   1.000000
    3        4.359744   1.000000
    4        4.539048   1.000000
    5        7.550728   0.000000
    6        8.428717   0.000000
    7        9.137788   0.000000
    8       10.934946   0.000000
 
 -0.6250000E-01  0.6250000E-01  0.6250000E-01  0.1171875E-01
    1       -6.117060   1.000000
    2        4.026412   1.000000
    3        4.826629   1.000000
    4        4.970553   1.000000
    5        7.695183   0.000000
    6        8.185683   0.000000
    7        8.533797   0.000000
    8        9.341093   0.000000
 
  0.1875000E+00  0.1875000E+00  0.6250000E-01  0.1171875E-01
    1       -5.857644   1.000000
    2        3.131712   1.000000
    3        4.289601   1.000000
    4        4.359491   1.000000
    5        7.291002   0.000000
    6        8.907521   0.000000
    7        9.364539   0.000000
    8        9.821938   0.000000
 
  0.3125000E+00  0.1875000E+00  0.6250000E-01  0.2343750E-01
    1       -5.350815   1.000000
    2        1.666390   1.000000
    3        3.350963   1.000000
    4        4.110602   1.000000
    5        7.453079   0.000000
    6        9.011574   0.000000
    7        9.762206   0.000000
    8       10.141835   0.000000
 
  0.4375000E+00  0.1875000E+00  0.6250000E-01  0.2343750E-01
    1       -4.537033   1.000000
    2       -0.123466   1.000000
    3        2.857865   1.000000
    4        3.718653   1.000000
    5        7.629737   0.000000
    6        9.002526   0.000000
    7       10.169956   0.000000
    8       10.476912   0.000000
 
 -0.4375000E+00  0.1875000E+00  0.6250000E-01  0.2343750E-01
    1       -3.811208   1.000000
    2       -1.281103   1.000000
    3        2.573933   1.000000
    4        3.630247   1.000000
    5        7.680358   0.000000
    6        8.739627   0.000000
    7       10.035071   0.000000
    8       12.421728   0.000000
 
 -0.3125000E+00  0.1875000E+00  0.6250000E-01  0.2343750E-01
    1       -4.246402   1.000000
    2       -0.622000   1.000000
    3        2.509178   1.000000
    4        3.902635   1.000000
    5        7.927503   0.000000
    6        8.675765   0.000000
    7        9.975185   0.000000
    8       11.698664   0.000000
 
 -0.1875000E+00  0.1875000E+00  0.6250000E-01  0.2343750E-01
    1       -5.111821   1.000000
    2        1.039489   1.000000
    3        2.815075   1.000000
    4        4.389716   1.000000
    5        8.240535   0.000000
    6        8.564607   0.000000
    7        9.847707   0.000000
    8       10.344552   0.000000
 
 -0.6250000E-01  0.1875000E+00  0.6250000E-01  0.2343750E-01
    1       -5.731732   1.000000
    2        2.483804   1.000000
    3        3.902211   1.000000
    4        4.748312   1.000000
    5        7.824551   0.000000
    6        8.405447   0.000000
    7        9.183792   0.000000
    8       10.359775   0.000000
 
  0.3125000E+00  0.3125000E+00  0.6250000E-01  0.1171875E-01
    1       -4.963211   1.000000
    2        1.153158   1.000000
    3        3.214789   1.000000
    4        3.332272   1.000000
    5        6.509362   0.000000
    6        8.143064   0.000000
    7       11.158731   0.000000
    8       11.314033   0.000000
 
  0.4375000E+00  0.3125000E+00  0.6250000E-01  0.2343750E-01
    1       -4.237601   1.000000
    2       -0.047819   1.000000
    3        2.458487   1.000000
    4        2.999214   1.000000
    5        6.817514   0.000000
    6        7.985680   0.000000
    7       11.124596   0.000000
    8       12.276705   0.000000
 
 -0.4375000E+00  0.3125000E+00  0.6250000E-01  0.2343750E-01
    1       -3.376792   1.000000
    2       -1.197790   1.000000
    3        1.649086   1.000000
    4        2.968294   1.000000
    5        7.051123   0.000000
    6        9.600414   0.000000
    7       10.710528   0.000000
    8       12.189575   0.000000
 
 -0.3125000E+00  0.3125000E+00  0.6250000E-01  0.2343750E-01
    1       -3.447552   1.000000
    2       -1.105623   1.000000
    3        1.313012   1.000000
    4        3.298909   1.000000
    5        7.434887   0.000000
    6       10.293497   0.000000
    7       11.536577   0.000000
    8       11.896263   0.000000
 
 -0.1875000E+00  0.3125000E+00  0.6250000E-01  0.2343750E-01
    1       -4.307919   1.000000
    2       -0.174353   1.000000
    3        1.889087   1.000000
    4        3.860824   1.000000
    5        8.022155   0.000000
    6        9.216338   0.000000
    7       10.586317   0.000000
    8       10.894467   0.000000
 
 -0.6250000E-01  0.3125000E+00  0.6250000E-01  0.2343750E-01
    1       -5.003184   1.000000
    2        0.470058   1.000000
    3        3.451648   1.000000
    4        4.292933   1.000000
    5        7.687741   0.000000
    6        8.605038   0.000000
    7        9.444714   0.000000
    8       11.101841   0.000000
 
  0.4375000E+00  0.4375000E+00  0.6250000E-01  0.1171875E-01
    1       -3.605017   1.000000
    2       -0.887442   1.000000
    3        2.551557   1.000000
    4        2.757439   1.000000
    5        6.135842   0.000431
    6        6.840817   0.000000
    7       13.389298   0.000000
    8       13.418405   0.000000
 
 -0.4375000E+00  0.4375000E+00  0.6250000E-01  0.2343750E-01
    1       -2.727857   1.000000
    2       -1.846287   1.000000
    3        2.019988   1.000000
    4        2.525954   1.000000
    5        6.559258   0.000000
    6        7.266090   0.000000
    7       13.160135   0.000000
    8       14.116075   0.000000
 
 -0.3125000E+00  0.4375000E+00  0.6250000E-01  0.2343750E-01
    1       -2.830134   1.000000
    2       -1.680068   1.000000
    3        1.323293   1.000000
    4        2.829541   1.000000
    5        6.910306   0.000000
    6        9.444367   0.000000
    7       11.677262   0.000000
    8       12.775753   0.000000
 
 -0.1875000E+00  0.4375000E+00  0.6250000E-01  0.2343750E-01
    1       -3.563283   1.000000
    2       -1.253022   1.000000
    3        1.831997   1.000000
    4        3.408113   1.000000
    5        7.544841   0.000000
    6        9.456239   0.000000
    7       10.952102   0.000000
    8       12.179771   0.000000
 
 -0.6250000E-01  0.4375000E+00  0.6250000E-01  0.2343750E-01
    1       -4.149454   1.000000
    2       -1.086003   1.000000
    3        3.275233   1.000000
    4        3.971097   1.000000
    5        7.478302   0.000000
    6        8.541871   0.000000
    7        9.282620   0.000000
    8       12.743202   0.000000
 
 -0.4375000E+00 -0.4375000E+00  0.6250000E-01  0.1171875E-01
    1       -2.775321   1.000000
    2       -1.861741   1.000000
    3        2.418448   1.000000
    4        2.639924   1.000000
    5        6.138711   0.000400
    6        6.489637   0.000000
    7       14.437198   0.000000
    8       14.489083   0.000000
 
 -0.3125000E+00 -0.4375000E+00  0.6250000E-01  0.2343750E-01
    1       -3.523828   1.000000
    2       -0.949868   1.000000
    3        2.170108   1.000000
    4        2.680621   1.000000
    5        6.639703   0.000000
    6        7.514626   0.000000
    7       12.116643   0.000000
    8       13.399106   0.000000
 
 -0.1875000E+00 -0.4375000E+00  0.6250000E-01  0.2343750E-01
    1       -3.982884   1.000000
    2       -0.668940   1.000000
    3        2.213515   1.000000
    4        3.257598   1.000000
    5        7.313981   0.000000
    6        9.777638   0.000000
    7        9.943508   0.000000
    8       11.162667   0.000000
 
 -0.3125000E+00 -0.3125000E+00  0.6250000E-01  0.1171875E-01
    1       -4.338199   1.000000
    2        0.126482   1.000000
    3        2.817434   1.000000
    4        2.990056   1.000000
    5        6.257939   0.000014
    6        7.405007   0.000000
    7       12.257593   0.000000
    8       12.353053   0.000000
 
 -0.1875000E+00 -0.3125000E+00  0.6250000E-01  0.2343750E-01
    1       -4.850296   1.000000
    2        0.827124   1.000000
    3        2.860893   1.000000
    4        3.487408   1.000000
    5        7.095357   0.000000
    6        8.633366   0.000000
    7       10.206901   0.000000
    8       11.179698   0.000000
 
 -0.1875000E+00 -0.1875000E+00  0.6250000E-01  0.1171875E-01
    1       -5.471679   1.000000
    2        2.164297   1.000000
    3        3.737717   1.000000
    4        3.773088   1.000000
    5        6.867944   0.000000
    6        8.939766   0.000000
    7       10.154941   0.000000
    8       10.311177   0.000000
 
  0.1875000E+00  0.1875000E+00  0.1875000E+00  0.3906250E-02
    1       -5.860921   1.000000
    2        2.589855   1.000000
    3        4.808494   1.000000
    4        4.808494   1.000000
    5        7.409564   0.000000
    6        8.576287   0.000000
    7        8.576287   0.000000
    8       10.715607   0.000000
 
  0.3125000E+00  0.1875000E+00  0.1875000E+00  0.1171875E-01
    1       -5.481791   1.000000
    2        1.754878   1.000000
    3        3.349342   1.000000
    4        4.821628   1.000000
    5        8.062099   0.000000
    6        8.699047   0.000000
    7        8.973148   0.000000
    8       10.880639   0.000000
 
  0.4375000E+00  0.1875000E+00  0.1875000E+00  0.1171875E-01
    1       -4.760702   1.000000
    2        0.415278   1.000000
    3        2.305267   1.000000
    4        4.334831   1.000000
    5        7.958718   0.000000
    6        9.437780   0.000000
    7        9.621807   0.000000
    8       11.166307   0.000000
 
 -0.4375000E+00  0.1875000E+00  0.1875000E+00  0.1171875E-01
    1       -3.903092   1.000000
    2       -1.013618   1.000000
    3        2.145165   1.000000
    4        3.823206   1.000000
    5        7.498563   0.000000
    6        9.581887   0.000000
    7        9.837820   0.000000
    8       12.996758   0.000000
 
 -0.3125000E+00  0.1875000E+00  0.1875000E+00  0.1171875E-01
    1       -3.887625   1.000000
    2       -1.041338   1.000000
    3        2.430540   1.000000
    4        3.517600   1.000000
    5        7.242947   0.000000
    6        9.640127   0.000000
    7       10.175406   0.000000
    8       11.120345   0.000000
 
 -0.1875000E+00  0.1875000E+00  0.1875000E+00  0.1171875E-01
    1       -4.743648   1.000000
    2        0.412162   1.000000
    3        3.025527   1.000000
    4        3.496619   1.000000
    5        7.180890   0.000000
    6        9.301951   0.000000
    7        9.931758   0.000000
    8       10.523245   0.000000
 
  0.3125000E+00  0.3125000E+00  0.1875000E+00  0.1171875E-01
    1       -5.233643   1.000000
    2        1.111935   1.000000
    3        3.820285   1.000000
    4        3.901226   1.000000
    5        7.542002   0.000000
    6        8.831688   0.000000
    7        9.794807   0.000000
    8       10.193859   0.000000
 
  0.4375000E+00  0.3125000E+00  0.1875000E+00  0.2343750E-01
    1       -4.628709   1.000000
    2        0.342400   1.000000
    3        2.360432   1.000000
    4        3.710466   1.000000
    5        8.037493   0.000000
    6        9.014662   0.000000
    7        9.563853   0.000000
    8       11.008778   0.000000
 
 -0.4375000E+00  0.3125000E+00  0.1875000E+00  0.2343750E-01
    1       -3.770863   1.000000
    2       -0.733297   1.000000
    3        1.601990   1.000000
    4        3.167295   1.000000
    5        8.480071   0.000000
    6        8.957559   0.000000
    7       10.202486   0.000000
    8       12.078051   0.000000
 
 -0.3125000E+00  0.3125000E+00  0.1875000E+00  0.2343750E-01
    1       -3.304843   1.000000
    2       -1.320112   1.000000
    3        1.599473   1.000000
    4        2.868115   1.000000
    5        8.029938   0.000000
    6        9.276569   0.000000
    7       10.966238   0.000000
    8       12.192579   0.000000
 
 -0.1875000E+00  0.3125000E+00  0.1875000E+00  0.2343750E-01
    1       -4.043322   1.000000
    2       -0.357938   1.000000
    3        2.011693   1.000000
    4        3.039323   1.000000
    5        7.766426   0.000000
    6        8.965691   0.000000
    7        9.769641   0.000000
    8       12.194689   0.000000
 
  0.4375000E+00  0.4375000E+00  0.1875000E+00  0.1171875E-01
    1       -4.148564   1.000000
    2       -0.297053   1.000000
    3        2.329521   1.000000
    4        3.176534   1.000000
    5        6.819786   0.000000
    6        8.801202   0.000000
    7       10.951483   0.000000
    8       11.327005   0.000000
 
 -0.4375000E+00  0.4375000E+00  0.1875000E+00  0.2343750E-01
    1       -3.373105   1.000000
    2       -1.084879   1.000000
    3        1.781014   1.000000
    4        2.524528   1.000000
    5        7.572320   0.000000
    6        8.566828   0.000000
    7       10.644025   0.000000
    8       13.360754   0.000000
 
 -0.3125000E+00  0.4375000E+00  0.1875000E+00  0.2343750E-01
    1       -2.596574   1.000000
    2       -1.820150   1.000000
    3        1.479958   1.000000
    4        2.044458   1.000000
    5        8.669662   0.000000
    6        9.590818   0.000000
    7       10.197344   0.000000
    8       11.192387   0.000000
 
 -0.1875000E+00  0.4375000E+00  0.1875000E+00  0.2343750E-01
    1       -3.178472   1.000000
    2       -1.282711   1.000000
    3        1.467647   1.000000
    4        2.501200   1.000000
    5        8.765423   0.000000
    6        9.171705   0.000000
    7        9.898819   0.000000
    8       12.329088   0.000000
 
 -0.4375000E+00 -0.4375000E+00  0.1875000E+00  0.1171875E-01
    1       -2.751655   1.000000
    2       -1.795153   1.000000
    3        1.579473   1.000000
    4        2.844914   1.000000
    5        6.406475   0.000000
    6        8.253645   0.000000
    7       13.088672   0.000000
    8       13.247869   0.000000
 
 -0.3125000E+00 -0.4375000E+00  0.1875000E+00  0.2343750E-01
    1       -2.654365   1.000000
    2       -1.828509   1.000000
    3        1.669740   1.000000
    4        2.247795   1.000000
    5        7.473096   0.000000
    6        8.366005   0.000000
    7       11.625869   0.000000
    8       12.709777   0.000000
 
 -0.3125000E+00 -0.3125000E+00  0.1875000E+00  0.1171875E-01
    1       -3.466689   1.000000
    2       -1.044628   1.000000
    3        1.832149   1.000000
    4        2.956588   1.000000
    5        6.549283   0.000000
    6        8.435189   0.000000
    7       12.083602   0.000000
    8       12.207938   0.000000
 
  0.3125000E+00  0.3125000E+00  0.3125000E+00  0.3906250E-02
    1       -5.130840   1.000000
    2        0.448305   1.000000
    3        4.406128   1.000000
    4        4.406128   1.000000
    5        6.956716   0.000000
    6        8.823553   0.000000
    7        8.823553   0.000000
    8       12.755866   0.000000
 
  0.4375000E+00  0.3125000E+00  0.3125000E+00  0.1171875E-01
    1       -4.668366   1.000000
    2       -0.120434   1.000000
    3        2.982712   1.000000
    4        4.320014   1.000000
    5        7.690860   0.000000
    6        9.036316   0.000000
    7        9.088979   0.000000
    8       12.172195   0.000000
 
 -0.4375000E+00  0.3125000E+00  0.3125000E+00  0.1171875E-01
    1       -3.904860   1.000000
    2       -0.663852   1.000000
    3        1.524104   1.000000
    4        3.761842   1.000000
    5        7.437662   0.000000
    6       10.434595   0.000000
    7       10.579417   0.000000
    8       11.912003   0.000000
 
 -0.3125000E+00  0.3125000E+00  0.3125000E+00  0.1171875E-01
    1       -3.115605   1.000000
    2       -1.429950   1.000000
    3        1.205397   1.000000
    4        3.234876   1.000000
    5        6.854270   0.000000
    6       10.661632   0.000000
    7       11.671567   0.000000
    8       11.876606   0.000000
 
  0.4375000E+00  0.4375000E+00  0.3125000E+00  0.1171875E-01
    1       -4.366745   1.000000
    2       -0.658451   1.000000
    3        3.299344   1.000000
    4        3.779126   1.000000
    5        7.445648   0.000000
    6        8.790892   0.000000
    7        9.563735   0.000000
    8       11.547354   0.000000
 
 -0.4375000E+00  0.4375000E+00  0.3125000E+00  0.2343750E-01
    1       -3.770108   1.000000
    2       -1.022665   1.000000
    3        2.043457   1.000000
    4        3.325381   1.000000
    5        8.218716   0.000000
    6        8.590824   0.000000
    7       11.022131   0.000000
    8       11.309885   0.000000
 
 -0.3125000E+00  0.4375000E+00  0.3125000E+00  0.2343750E-01
    1       -2.981265   1.000000
    2       -1.498996   1.000000
    3        1.294454   1.000000
    4        2.640500   1.000000
    5        7.908080   0.000000
    6       10.106007   0.000000
    7       10.853417   0.000000
    8       11.356308   0.000000
 
 -0.4375000E+00 -0.4375000E+00  0.3125000E+00  0.1171875E-01
    1       -3.425891   1.000000
    2       -1.299713   1.000000
    3        1.672608   1.000000
    4        3.331289   1.000000
    5        6.995011   0.000000
    6       10.618221   0.000000
    7       10.915782   0.000000
    8       10.929109   0.000000
 
  0.4375000E+00  0.4375000E+00  0.4375000E+00  0.3906250E-02
    1       -4.278687   1.000000
    2       -1.139135   1.000000
    3        4.190002   1.000000
    4        4.190002   1.000000
    5        6.704857   0.000000
    6        8.704257   0.000000
    7        8.704257   0.000000
    8       13.009393   0.000000
 
 -0.4375000E+00  0.4375000E+00  0.4375000E+00  0.1171875E-01
    1       -3.942285   1.000000
    2       -1.313684   1.000000
    3        2.995142   1.000000
    4        3.933217   1.000000
    5        7.456670   0.000000
    6        8.804128   0.000000
    7        9.264863   0.000000
    8       13.334172   0.000000
