   2   2   0   0
  0.2001288E+02  0.3839590E-09  0.3839590E-09  0.3839590E-09  0.5000000E-15
  1.000000000000000E-004
  CAR 
 unknown system                          
     17.58501457     -8.09911204  301      6.13786130      1.00000000
     -8.099  0.0000E+00  0.0000E+00
     -8.013  0.0000E+00  0.0000E+00
     -7.928  0.0000E+00  0.0000E+00
     -7.842  0.0000E+00  0.0000E+00
     -7.757  0.0000E+00  0.0000E+00
     -7.671  0.0000E+00  0.0000E+00
     -7.585  0.0000E+00  0.0000E+00
     -7.500  0.0000E+00  0.0000E+00
     -7.414  0.0000E+00  0.0000E+00
     -7.329  0.0000E+00  0.0000E+00
     -7.243  0.8645E-18  0.7401E-19
     -7.157  0.1150E-15  0.9918E-17
     -7.072  0.9677E-14  0.8384E-15
     -6.986  0.5709E-12  0.4972E-13
     -6.901  0.2363E-10  0.2073E-11
     -6.815  0.6884E-09  0.6101E-10
     -6.729  0.1417E-07  0.1274E-08
     -6.644  0.2071E-06  0.1901E-07
     -6.558  0.2165E-05  0.2044E-06
     -6.472  0.1632E-04  0.1602E-05
     -6.387  0.8965E-04  0.9277E-05
     -6.301  0.3636E-03  0.4041E-04
     -6.216  0.1108E-02  0.1352E-03
     -6.130  0.2595E-02  0.3574E-03
     -6.044  0.4834E-02  0.7712E-03
     -5.959  0.7476E-02  0.1411E-02
     -5.873  0.1007E-01  0.2273E-02
     -5.788  0.1231E-01  0.3327E-02
     -5.702  0.1419E-01  0.4542E-02
     -5.616  0.1595E-01  0.5908E-02
     -5.531  0.1762E-01  0.7416E-02
     -5.445  0.1896E-01  0.9039E-02
     -5.359  0.2011E-01  0.1076E-01
     -5.274  0.2150E-01  0.1260E-01
     -5.188  0.2315E-01  0.1458E-01
     -5.103  0.2459E-01  0.1669E-01
     -5.017  0.2544E-01  0.1887E-01
     -4.931  0.2605E-01  0.2110E-01
     -4.846  0.2733E-01  0.2344E-01
     -4.760  0.2955E-01  0.2597E-01
     -4.675  0.3154E-01  0.2867E-01
     -4.589  0.3222E-01  0.3142E-01
     -4.503  0.3228E-01  0.3419E-01
     -4.418  0.3327E-01  0.3704E-01
     -4.332  0.3561E-01  0.4009E-01
     -4.246  0.3834E-01  0.4337E-01
     -4.161  0.4073E-01  0.4685E-01
     -4.075  0.4291E-01  0.5053E-01
     -3.990  0.4480E-01  0.5436E-01
     -3.904  0.4645E-01  0.5834E-01
     -3.818  0.4894E-01  0.6253E-01
     -3.733  0.5297E-01  0.6707E-01
     -3.647  0.5673E-01  0.7192E-01
     -3.562  0.5745E-01  0.7684E-01
     -3.476  0.5524E-01  0.8157E-01
     -3.390  0.5246E-01  0.8606E-01
     -3.305  0.4940E-01  0.9029E-01
     -3.219  0.4526E-01  0.9416E-01
     -3.134  0.4214E-01  0.9777E-01
     -3.048  0.4281E-01  0.1014E+00
     -2.962  0.4587E-01  0.1054E+00
     -2.877  0.4665E-01  0.1094E+00
     -2.791  0.4240E-01  0.1130E+00
     -2.705  0.3480E-01  0.1160E+00
     -2.620  0.2783E-01  0.1184E+00
     -2.534  0.2465E-01  0.1205E+00
     -2.449  0.2598E-01  0.1227E+00
     -2.363  0.2945E-01  0.1252E+00
     -2.277  0.3076E-01  0.1278E+00
     -2.192  0.2707E-01  0.1302E+00
     -2.106  0.1932E-01  0.1318E+00
     -2.021  0.1097E-01  0.1328E+00
     -1.935  0.5051E-02  0.1332E+00
     -1.849  0.2873E-02  0.1334E+00
     -1.764  0.4925E-02  0.1339E+00
     -1.678  0.1156E-01  0.1348E+00
     -1.592  0.2110E-01  0.1366E+00
     -1.507  0.2863E-01  0.1391E+00
     -1.421  0.3007E-01  0.1417E+00
     -1.336  0.2732E-01  0.1440E+00
     -1.250  0.2692E-01  0.1463E+00
     -1.164  0.3455E-01  0.1493E+00
     -1.079  0.5119E-01  0.1537E+00
     -0.993  0.7145E-01  0.1598E+00
     -0.908  0.8562E-01  0.1671E+00
     -0.822  0.8635E-01  0.1745E+00
     -0.736  0.7522E-01  0.1809E+00
     -0.651  0.6121E-01  0.1862E+00
     -0.565  0.5145E-01  0.1906E+00
     -0.479  0.4533E-01  0.1945E+00
     -0.394  0.3999E-01  0.1979E+00
     -0.308  0.3697E-01  0.2011E+00
     -0.223  0.3856E-01  0.2044E+00
     -0.137  0.4139E-01  0.2079E+00
     -0.051  0.3958E-01  0.2113E+00
      0.034  0.3310E-01  0.2141E+00
      0.120  0.2799E-01  0.2165E+00
      0.205  0.2787E-01  0.2189E+00
      0.291  0.2942E-01  0.2214E+00
      0.377  0.2757E-01  0.2238E+00
      0.462  0.2247E-01  0.2257E+00
      0.548  0.1874E-01  0.2273E+00
      0.633  0.1973E-01  0.2290E+00
      0.719  0.2421E-01  0.2311E+00
      0.805  0.2715E-01  0.2334E+00
      0.890  0.2452E-01  0.2355E+00
      0.976  0.1804E-01  0.2370E+00
      1.062  0.1333E-01  0.2382E+00
      1.147  0.1370E-01  0.2394E+00
      1.233  0.1786E-01  0.2409E+00
      1.318  0.2282E-01  0.2428E+00
      1.404  0.2756E-01  0.2452E+00
      1.490  0.3359E-01  0.2481E+00
      1.575  0.4244E-01  0.2517E+00
      1.661  0.5423E-01  0.2563E+00
      1.746  0.6743E-01  0.2621E+00
      1.832  0.7749E-01  0.2688E+00
      1.918  0.7896E-01  0.2755E+00
      2.003  0.7220E-01  0.2817E+00
      2.089  0.6461E-01  0.2872E+00
      2.175  0.6317E-01  0.2926E+00
      2.260  0.6781E-01  0.2984E+00
      2.346  0.7277E-01  0.3047E+00
      2.431  0.7395E-01  0.3110E+00
      2.517  0.7304E-01  0.3173E+00
      2.603  0.7318E-01  0.3235E+00
      2.688  0.7447E-01  0.3299E+00
      2.774  0.7662E-01  0.3365E+00
      2.859  0.8193E-01  0.3435E+00
      2.945  0.9095E-01  0.3513E+00
      3.031  0.9849E-01  0.3597E+00
      3.116  0.9906E-01  0.3682E+00
      3.202  0.9471E-01  0.3763E+00
      3.288  0.9277E-01  0.3842E+00
      3.373  0.9570E-01  0.3924E+00
      3.459  0.9789E-01  0.4008E+00
      3.544  0.9483E-01  0.4089E+00
      3.630  0.8980E-01  0.4166E+00
      3.716  0.8804E-01  0.4241E+00
      3.801  0.8948E-01  0.4318E+00
      3.887  0.8988E-01  0.4395E+00
      3.972  0.8638E-01  0.4469E+00
      4.058  0.8068E-01  0.4538E+00
      4.144  0.7737E-01  0.4604E+00
      4.229  0.7941E-01  0.4672E+00
      4.315  0.8391E-01  0.4744E+00
      4.400  0.8387E-01  0.4816E+00
      4.486  0.7667E-01  0.4881E+00
      4.572  0.6756E-01  0.4939E+00
      4.657  0.6218E-01  0.4993E+00
      4.743  0.5959E-01  0.5044E+00
      4.829  0.5508E-01  0.5091E+00
      4.914  0.4737E-01  0.5131E+00
      5.000  0.3971E-01  0.5165E+00
      5.085  0.3454E-01  0.5195E+00
      5.171  0.3085E-01  0.5221E+00
      5.257  0.2698E-01  0.5244E+00
      5.342  0.2316E-01  0.5264E+00
      5.428  0.2034E-01  0.5282E+00
      5.513  0.1798E-01  0.5297E+00
      5.599  0.1493E-01  0.5310E+00
      5.685  0.1123E-01  0.5319E+00
      5.770  0.7691E-02  0.5326E+00
      5.856  0.4729E-02  0.5330E+00
      5.942  0.2460E-02  0.5332E+00
      6.027  0.1015E-02  0.5333E+00
      6.113  0.3394E-03  0.5333E+00
      6.198  0.2248E-03  0.5333E+00
      6.284  0.6698E-03  0.5334E+00
      6.370  0.2027E-02  0.5336E+00
      6.455  0.4567E-02  0.5340E+00
      6.541  0.7909E-02  0.5346E+00
      6.626  0.1149E-01  0.5356E+00
      6.712  0.1558E-01  0.5370E+00
      6.798  0.2063E-01  0.5387E+00
      6.883  0.2582E-01  0.5409E+00
      6.969  0.2980E-01  0.5435E+00
      7.055  0.3224E-01  0.5463E+00
      7.140  0.3354E-01  0.5491E+00
      7.226  0.3451E-01  0.5521E+00
      7.311  0.3706E-01  0.5553E+00
      7.397  0.4309E-01  0.5589E+00
      7.483  0.5196E-01  0.5634E+00
      7.568  0.6009E-01  0.5685E+00
      7.654  0.6398E-01  0.5740E+00
      7.739  0.6457E-01  0.5795E+00
      7.825  0.6744E-01  0.5853E+00
      7.911  0.7641E-01  0.5919E+00
      7.996  0.8824E-01  0.5994E+00
      8.082  0.9671E-01  0.6077E+00
      8.168  0.9999E-01  0.6163E+00
      8.253  0.1007E+00  0.6249E+00
      8.339  0.1005E+00  0.6335E+00
      8.424  0.9837E-01  0.6419E+00
      8.510  0.9286E-01  0.6498E+00
      8.596  0.8494E-01  0.6571E+00
      8.681  0.7752E-01  0.6638E+00
      8.767  0.7337E-01  0.6700E+00
      8.852  0.7428E-01  0.6764E+00
      8.938  0.8137E-01  0.6834E+00
      9.024  0.9432E-01  0.6914E+00
      9.109  0.1097E+00  0.7008E+00
      9.195  0.1220E+00  0.7113E+00
      9.280  0.1276E+00  0.7222E+00
      9.366  0.1268E+00  0.7331E+00
      9.452  0.1218E+00  0.7435E+00
      9.537  0.1142E+00  0.7533E+00
      9.623  0.1054E+00  0.7623E+00
      9.709  0.9752E-01  0.7706E+00
      9.794  0.9186E-01  0.7785E+00
      9.880  0.8811E-01  0.7860E+00
      9.965  0.8696E-01  0.7935E+00
     10.051  0.8916E-01  0.8011E+00
     10.137  0.9143E-01  0.8089E+00
     10.222  0.8924E-01  0.8166E+00
     10.308  0.8352E-01  0.8237E+00
     10.393  0.7946E-01  0.8305E+00
     10.479  0.7894E-01  0.8373E+00
     10.565  0.7908E-01  0.8441E+00
     10.650  0.7851E-01  0.8508E+00
     10.736  0.8000E-01  0.8576E+00
     10.822  0.8526E-01  0.8649E+00
     10.907  0.9109E-01  0.8727E+00
     10.993  0.9238E-01  0.8806E+00
     11.078  0.8723E-01  0.8881E+00
     11.164  0.7809E-01  0.8948E+00
     11.250  0.6900E-01  0.9007E+00
     11.335  0.6332E-01  0.9061E+00
     11.421  0.6314E-01  0.9115E+00
     11.506  0.6861E-01  0.9174E+00
     11.592  0.7668E-01  0.9240E+00
     11.678  0.8244E-01  0.9310E+00
     11.763  0.8346E-01  0.9382E+00
     11.849  0.8074E-01  0.9451E+00
     11.935  0.7514E-01  0.9515E+00
     12.020  0.6628E-01  0.9572E+00
     12.106  0.5567E-01  0.9620E+00
     12.191  0.4779E-01  0.9660E+00
     12.277  0.4654E-01  0.9700E+00
     12.363  0.5168E-01  0.9745E+00
     12.448  0.5988E-01  0.9796E+00
     12.534  0.6763E-01  0.9854E+00
     12.619  0.7254E-01  0.9916E+00
     12.705  0.7344E-01  0.9979E+00
     12.791  0.6932E-01  0.1004E+01
     12.876  0.5984E-01  0.1009E+01
     12.962  0.4785E-01  0.1013E+01
     13.047  0.3798E-01  0.1016E+01
     13.133  0.3199E-01  0.1019E+01
     13.219  0.2861E-01  0.1021E+01
     13.304  0.2692E-01  0.1024E+01
     13.390  0.2793E-01  0.1026E+01
     13.476  0.3351E-01  0.1029E+01
     13.561  0.4405E-01  0.1033E+01
     13.647  0.5520E-01  0.1038E+01
     13.732  0.5827E-01  0.1043E+01
     13.818  0.4858E-01  0.1047E+01
     13.904  0.3210E-01  0.1049E+01
     13.989  0.1905E-01  0.1051E+01
     14.075  0.1363E-01  0.1052E+01
     14.160  0.1293E-01  0.1053E+01
     14.246  0.1254E-01  0.1054E+01
     14.332  0.1126E-01  0.1055E+01
     14.417  0.1109E-01  0.1056E+01
     14.503  0.1375E-01  0.1057E+01
     14.589  0.1785E-01  0.1059E+01
     14.674  0.1952E-01  0.1061E+01
     14.760  0.1630E-01  0.1062E+01
     14.845  0.9996E-02  0.1063E+01
     14.931  0.4481E-02  0.1063E+01
     15.017  0.1739E-02  0.1063E+01
     15.102  0.1459E-02  0.1064E+01
     15.188  0.2691E-02  0.1064E+01
     15.273  0.4414E-02  0.1064E+01
     15.359  0.5627E-02  0.1065E+01
     15.445  0.5997E-02  0.1065E+01
     15.530  0.5780E-02  0.1066E+01
     15.616  0.4972E-02  0.1066E+01
     15.702  0.3499E-02  0.1066E+01
     15.787  0.1870E-02  0.1067E+01
     15.873  0.7300E-03  0.1067E+01
     15.958  0.2045E-03  0.1067E+01
     16.044  0.4081E-04  0.1067E+01
     16.130  0.5772E-05  0.1067E+01
     16.215  0.5768E-06  0.1067E+01
     16.301  0.4063E-07  0.1067E+01
     16.386  0.2012E-08  0.1067E+01
     16.472  0.6991E-10  0.1067E+01
     16.558  0.1702E-11  0.1067E+01
     16.643  0.2897E-13  0.1067E+01
     16.729  0.3465E-15  0.1067E+01
     16.814  0.2075E-17  0.1067E+01
     16.900  0.0000E+00  0.1067E+01
     16.986  0.0000E+00  0.1067E+01
     17.071  0.0000E+00  0.1067E+01
     17.157  0.0000E+00  0.1067E+01
     17.243  0.0000E+00  0.1067E+01
     17.328  0.0000E+00  0.1067E+01
     17.414  0.0000E+00  0.1067E+01
     17.499  0.0000E+00  0.1067E+01
     17.585  0.0000E+00  0.1067E+01
