    2    2   15    1
  0.2001288E+02  0.3839590E-09  0.3839590E-09  0.3839590E-09  0.5000000E-15
  1.000000000000000E-004
  CAR 
 unknown system                          
      8    110      8
 
  0.5000000E-01  0.5000000E-01  0.5000000E-01  0.2000000E-02
    1       -6.099112   1.000000
    2        5.482165   0.999998
    3        5.784324   0.993788
    4        5.784324   0.993788
    5        8.468782   0.000000
    6        8.490154   0.000000
    7        8.490155   0.000000
    8        9.447499   0.000000
 
  0.1500000E+00  0.5000000E-01  0.5000000E-01  0.6000000E-02
    1       -5.924899   1.000000
    2        4.340494   1.000000
    3        5.207724   1.000000
    4        5.708518   0.998801
    5        8.550870   0.000000
    6        8.655480   0.000000
    7        8.903743   0.000000
    8       10.526029   0.000000
 
  0.2500000E+00  0.5000000E-01  0.5000000E-01  0.6000000E-02
    1       -5.497626   1.000000
    2        2.512804   1.000000
    3        4.772440   1.000000
    4        5.356968   1.000000
    5        8.206414   0.000000
    6        9.117160   0.000000
    7        9.447915   0.000000
    8       11.979477   0.000000
 
  0.3500000E+00  0.5000000E-01  0.5000000E-01  0.6000000E-02
    1       -4.849865   1.000000
    2        0.773739   1.000000
    3        4.482049   1.000000
    4        4.988824   1.000000
    5        7.876020   0.000000
    6        9.305001   0.000000
    7        9.500150   0.000000
    8       13.131875   0.000000
 
  0.4500000E+00  0.5000000E-01  0.5000000E-01  0.6000000E-02
    1       -4.105267   1.000000
    2       -0.617836   1.000000
    3        4.356810   1.000000
    4        4.713236   1.000000
    5        7.667344   0.000000
    6        9.277476   0.000000
    7        9.283104   0.000000
    8       13.711191   0.000000
 
 -0.4500000E+00  0.5000000E-01  0.5000000E-01  0.6000000E-02
    1       -3.786132   1.000000
    2       -1.100780   1.000000
    3        4.395860   1.000000
    4        4.568999   1.000000
    5        7.615897   0.000000
    6        9.139546   0.000000
    7        9.325208   0.000000
    8       13.684859   0.000000
 
 -0.3500000E+00  0.5000000E-01  0.5000000E-01  0.6000000E-02
    1       -4.346056   1.000000
    2       -0.214448   1.000000
    3        4.576519   1.000000
    4        4.585154   1.000000
    5        7.725899   0.000000
    6        9.149829   0.000000
    7        9.510696   0.000000
    8       13.372673   0.000000
 
 -0.2500000E+00  0.5000000E-01  0.5000000E-01  0.6000000E-02
    1       -5.085867   1.000000
    2        1.327887   1.000000
    3        4.744896   1.000000
    4        4.902706   1.000000
    5        7.979892   0.000000
    6        9.166668   0.000000
    7        9.679812   0.000000
    8       12.279847   0.000000
 
 -0.1500000E+00  0.5000000E-01  0.5000000E-01  0.6000000E-02
    1       -5.666788   1.000000
    2        3.130888   1.000000
    3        5.065108   1.000000
    4        5.297505   1.000000
    5        8.302483   0.000000
    6        8.882954   0.000000
    7        9.476226   0.000000
    8       11.422899   0.000000
 
 -0.5000000E-01  0.5000000E-01  0.5000000E-01  0.6000000E-02
    1       -6.011691   1.000000
    2        4.929758   1.000000
    3        5.477476   0.999998
    4        5.610056   0.999905
    5        8.295445   0.000000
    6        8.745938   0.000000
    7        8.900749   0.000000
    8        9.966764   0.000000
 
  0.1500000E+00  0.1500000E+00  0.5000000E-01  0.6000000E-02
    1       -5.837429   1.000000
    2        4.239444   1.000000
    3        5.034995   1.000000
    4        5.147488   1.000000
    5        7.977063   0.000000
    6        9.320201   0.000000
    7        9.543862   0.000000
    8       10.473105   0.000000
 
  0.2500000E+00  0.1500000E+00  0.5000000E-01  0.1200000E-01
    1       -5.493388   1.000000
    2        2.991636   1.000000
    3        4.283944   1.000000
    4        4.955570   1.000000
    5        8.040337   0.000000
    6        9.514145   0.000000
    7       10.170844   0.000000
    8       10.647172   0.000000
 
  0.3500000E+00  0.1500000E+00  0.5000000E-01  0.1200000E-01
    1       -4.913986   1.000000
    2        1.338907   1.000000
    3        3.853877   1.000000
    4        4.586245   1.000000
    5        8.265082   0.000000
    6        9.453963   0.000000
    7       10.429922   0.000000
    8       10.869391   0.000000
 
  0.4500000E+00  0.1500000E+00  0.5000000E-01  0.1200000E-01
    1       -4.174420   1.000000
    2       -0.149706   1.000000
    3        3.582327   1.000000
    4        4.303011   1.000000
    5        8.222467   0.000000
    6        9.280093   0.000000
    7       10.287934   0.000000
    8       12.041300   0.000000
 
 -0.4500000E+00  0.1500000E+00  0.5000000E-01  0.1200000E-01
    1       -3.611827   1.000000
    2       -1.020979   1.000000
    3        3.402815   1.000000
    4        4.257138   1.000000
    5        8.225467   0.000000
    6        9.133240   0.000000
    7       10.119281   0.000000
    8       13.662174   0.000000
 
 -0.3500000E+00  0.1500000E+00  0.5000000E-01  0.1200000E-01
    1       -3.935552   1.000000
    2       -0.539572   1.000000
    3        3.339523   1.000000
    4        4.449409   1.000000
    5        8.361323   0.000000
    6        9.137421   0.000000
    7       10.091170   0.000000
    8       13.113612   0.000000
 
 -0.2500000E+00  0.1500000E+00  0.5000000E-01  0.1200000E-01
    1       -4.680863   1.000000
    2        0.814058   1.000000
    3        3.455374   1.000000
    4        4.808167   1.000000
    5        8.590477   0.000000
    6        9.216235   0.000000
    7       10.148233   0.000000
    8       11.716149   0.000000
 
 -0.1500000E+00  0.1500000E+00  0.5000000E-01  0.1200000E-01
    1       -5.326509   1.000000
    2        2.412800   1.000000
    3        3.834853   1.000000
    4        5.219205   1.000000
    5        8.697339   0.000000
    6        9.101537   0.000000
    7        9.940653   0.000000
    8       11.108674   0.000000
 
 -0.5000000E-01  0.1500000E+00  0.5000000E-01  0.1200000E-01
    1       -5.751747   1.000000
    2        3.677060   1.000000
    3        4.759083   1.000000
    4        5.452607   0.999999
    5        8.375885   0.000000
    6        8.953520   0.000000
    7        9.424197   0.000000
    8       10.987448   0.000000
 
  0.2500000E+00  0.2500000E+00  0.5000000E-01  0.6000000E-02
    1       -5.232786   1.000000
    2        2.652739   1.000000
    3        4.124010   1.000000
    4        4.151592   1.000000
    5        7.260449   0.000000
    6        9.432489   0.000000
    7       11.003860   0.000000
    8       11.117923   0.000000
 
  0.3500000E+00  0.2500000E+00  0.5000000E-01  0.1200000E-01
    1       -4.728963   1.000000
    2        1.551423   1.000000
    3        3.428005   1.000000
    4        3.907746   1.000000
    5        7.395170   0.000000
    6        9.025273   0.000000
    7       11.161350   0.000000
    8       11.873349   0.000000
 
  0.4500000E+00  0.2500000E+00  0.5000000E-01  0.1200000E-01
    1       -4.027709   1.000000
    2        0.251686   1.000000
    3        2.812408   1.000000
    4        3.679378   1.000000
    5        7.643652   0.000000
    6        9.739011   0.000000
    7       10.865049   0.000000
    8       11.939400   0.000000
 
 -0.4500000E+00  0.2500000E+00  0.5000000E-01  0.1200000E-01
    1       -3.327354   1.000000
    2       -0.788556   1.000000
    3        2.331495   1.000000
    4        3.700437   1.000000
    5        7.760904   0.000000
    6       10.490986   0.000000
    7       11.396034   0.000000
    8       11.746871   0.000000
 
 -0.3500000E+00  0.2500000E+00  0.5000000E-01  0.1200000E-01
    1       -3.351376   1.000000
    2       -0.748869   1.000000
    3        2.079330   1.000000
    4        3.952663   1.000000
    5        8.045549   0.000000
    6       10.269602   0.000000
    7       11.550422   0.000000
    8       13.000106   0.000000
 
 -0.2500000E+00  0.2500000E+00  0.5000000E-01  0.1200000E-01
    1       -4.059247   1.000000
    2        0.278219   1.000000
    3        2.176298   1.000000
    4        4.375394   1.000000
    5        8.502573   0.000000
    6       10.028145   0.000000
    7       11.296862   0.000000
    8       11.547037   0.000000
 
 -0.1500000E+00  0.2500000E+00  0.5000000E-01  0.1200000E-01
    1       -4.751568   1.000000
    2        1.266466   1.000000
    3        2.936234   1.000000
    4        4.845228   1.000000
    5        8.904927   0.000000
    6        9.318446   0.000000
    7       10.557770   0.000000
    8       11.108584   0.000000
 
 -0.5000000E-01  0.2500000E+00  0.5000000E-01  0.1200000E-01
    1       -5.245834   1.000000
    2        1.910767   1.000000
    3        4.329762   1.000000
    4        5.085860   1.000000
    5        8.360508   0.000000
    6        9.096784   0.000000
    7        9.849134   0.000000
    8       11.559741   0.000000
 
  0.3500000E+00  0.3500000E+00  0.5000000E-01  0.6000000E-02
    1       -4.300666   1.000000
    2        0.934322   1.000000
    3        3.362564   1.000000
    4        3.475820   1.000000
    5        6.725929   0.000016
    6        8.037147   0.000000
    7       12.787499   0.000000
    8       12.846852   0.000000
 
  0.4500000E+00  0.3500000E+00  0.5000000E-01  0.1200000E-01
    1       -3.655969   1.000000
    2       -0.002879   1.000000
    3        2.811201   1.000000
    4        3.207550   1.000000
    5        6.983084   0.000000
    6        7.918190   0.000000
    7       12.787736   0.000000
    8       13.721327   0.000000
 
 -0.4500000E+00  0.3500000E+00  0.5000000E-01  0.1200000E-01
    1       -2.905310   1.000000
    2       -0.895922   1.000000
    3        1.988009   1.000000
    4        3.216867   1.000000
    5        7.195097   0.000000
    6        9.148527   0.000000
    7       12.445617   0.000000
    8       13.690488   0.000000
 
 -0.3500000E+00  0.3500000E+00  0.5000000E-01  0.1200000E-01
    1       -2.672508   1.000000
    2       -1.128148   1.000000
    3        1.481300   1.000000
    4        3.460170   1.000000
    5        7.479152   0.000000
    6       11.007150   0.000000
    7       12.107737   0.000000
    8       13.100334   0.000000
 
 -0.2500000E+00  0.3500000E+00  0.5000000E-01  0.1200000E-01
    1       -3.318131   1.000000
    2       -0.528976   1.000000
    3        1.648602   1.000000
    4        3.890750   1.000000
    5        7.969550   0.000000
    6       10.927395   0.000000
    7       12.128713   0.000000
    8       12.337741   0.000000
 
 -0.1500000E+00  0.3500000E+00  0.5000000E-01  0.1200000E-01
    1       -4.014389   1.000000
    2       -0.097828   1.000000
    3        2.671951   1.000000
    4        4.402611   1.000000
    5        8.501972   0.000000
    6        9.520847   0.000000
    7       10.721473   0.000000
    8       12.237643   0.000000
 
 -0.5000000E-01  0.3500000E+00  0.5000000E-01  0.1200000E-01
    1       -4.543035   1.000000
    2        0.277688   1.000000
    3        4.084212   1.000000
    4        4.724181   1.000000
    5        8.114852   0.000000
    6        9.157306   0.000000
    7        9.773650   0.000000
    8       12.541156   0.000000
 
  0.4500000E+00  0.4500000E+00  0.5000000E-01  0.6000000E-02
    1       -3.069453   1.000000
    2       -0.774709   1.000000
    3        2.934914   1.000000
    4        3.086914   1.000000
    5        6.525743   0.003046
    6        7.083634   0.000000
    7       14.653505   0.000000
    8       14.672694   0.000000
 
 -0.4500000E+00  0.4500000E+00  0.5000000E-01  0.1200000E-01
    1       -2.322119   1.000000
    2       -1.570567   1.000000
    3        2.529129   1.000000
    4        2.920819   1.000000
    5        6.853675   0.000000
    6        7.375617   0.000000
    7       14.532838   0.000000
    8       15.296710   0.000000
 
 -0.3500000E+00  0.4500000E+00  0.5000000E-01  0.1200000E-01
    1       -2.335884   1.000000
    2       -1.469131   1.000000
    3        1.808468   1.000000
    4        3.128275   1.000000
    5        7.099084   0.000000
    6        9.032806   0.000000
    7       13.273296   0.000000
    8       14.200868   0.000000
 
 -0.2500000E+00  0.4500000E+00  0.5000000E-01  0.1200000E-01
    1       -2.931590   1.000000
    2       -1.000991   1.000000
    3        1.796413   1.000000
    4        3.539649   1.000000
    5        7.575609   0.000000
    6       10.994831   0.000000
    7       11.455451   0.000000
    8       12.587115   0.000000
 
 -0.1500000E+00  0.4500000E+00  0.5000000E-01  0.1200000E-01
    1       -3.441991   1.000000
    2       -0.960137   1.000000
    3        2.718998   1.000000
    4        4.074547   1.000000
    5        8.170321   0.000000
    6        9.612922   0.000000
    7       10.792043   0.000000
    8       13.519915   0.000000
 
 -0.5000000E-01  0.4500000E+00  0.5000000E-01  0.1200000E-01
    1       -3.847065   1.000000
    2       -0.898734   1.000000
    3        3.986087   1.000000
    4        4.502756   1.000000
    5        7.964968   0.000000
    6        9.082891   0.000000
    7        9.601164   0.000000
    8       13.733283   0.000000
 
 -0.4500000E+00 -0.4500000E+00  0.5000000E-01  0.6000000E-02
    1       -2.356230   1.000000
    2       -1.587271   1.000000
    3        2.848997   1.000000
    4        3.008231   1.000000
    5        6.558150   0.001480
    6        6.818104   0.000001
    7       15.516994   0.000000
    8       15.585015   0.000000
 
 -0.3500000E+00 -0.4500000E+00  0.5000000E-01  0.1200000E-01
    1       -3.017086   1.000000
    2       -0.795590   1.000000
    3        2.624065   1.000000
    4        3.015200   1.000000
    5        6.887597   0.000000
    6        7.566304   0.000000
    7       13.649100   0.000000
    8       14.664272   0.000000
 
 -0.2500000E+00 -0.4500000E+00  0.5000000E-01  0.1200000E-01
    1       -3.488483   1.000000
    2       -0.307058   1.000000
    3        2.335355   1.000000
    4        3.397280   1.000000
    5        7.380626   0.000000
    6        9.381696   0.000000
    7       11.636591   0.000000
    8       12.795938   0.000000
 
 -0.1500000E+00 -0.4500000E+00  0.5000000E-01  0.1200000E-01
    1       -3.759598   1.000000
    2       -0.505095   1.000000
    3        2.967209   1.000000
    4        3.949826   1.000000
    5        8.008924   0.000000
    6        9.829093   0.000000
    7       10.956785   0.000000
    8       11.660603   0.000000
 
 -0.3500000E+00 -0.3500000E+00  0.5000000E-01  0.6000000E-02
    1       -3.719781   1.000000
    2        0.070636   1.000000
    3        3.106153   1.000000
    4        3.243443   1.000000
    5        6.579600   0.000893
    6        7.494927   0.000000
    7       13.722115   0.000000
    8       13.742225   0.000000
 
 -0.2500000E+00 -0.3500000E+00  0.5000000E-01  0.1200000E-01
    1       -4.228913   1.000000
    2        0.785524   1.000000
    3        3.083409   1.000000
    4        3.503779   1.000000
    5        7.152375   0.000000
    6        8.411478   0.000000
    7       11.957682   0.000000
    8       12.784479   0.000000
 
 -0.1500000E+00 -0.3500000E+00  0.5000000E-01  0.1200000E-01
    1       -4.505986   1.000000
    2        0.792227   1.000000
    3        3.343245   1.000000
    4        4.079982   1.000000
    5        7.957808   0.000000
    6       10.103378   0.000000
    7       10.246445   0.000000
    8       11.153463   0.000000
 
 -0.2500000E+00 -0.2500000E+00  0.5000000E-01  0.6000000E-02
    1       -4.806233   1.000000
    2        1.800558   1.000000
    3        3.702944   1.000000
    4        3.781034   1.000000
    5        6.957727   0.000000
    6        8.696804   0.000000
    7       11.874153   0.000000
    8       11.968321   0.000000
 
 -0.1500000E+00 -0.2500000E+00  0.5000000E-01  0.1200000E-01
    1       -5.151635   1.000000
    2        2.285944   1.000000
    3        3.832905   1.000000
    4        4.406713   1.000000
    5        7.698425   0.000000
    6        9.671417   0.000000
    7       10.464821   0.000000
    8       10.998216   0.000000
 
 -0.1500000E+00 -0.1500000E+00  0.5000000E-01  0.6000000E-02
    1       -5.577252   1.000000
    2        3.472319   1.000000
    3        4.576852   1.000000
    4        4.616428   1.000000
    5        7.612125   0.000000
    6        9.917899   0.000000
    7       10.299902   0.000000
    8       10.397033   0.000000
 
  0.1500000E+00  0.1500000E+00  0.1500000E+00  0.2000000E-02
    1       -5.838657   1.000000
    2        3.770102   1.000000
    3        5.452962   0.999999
    4        5.452962   0.999999
    5        8.258349   0.000000
    6        8.970742   0.000000
    7        8.970742   0.000000
    8       10.996541   0.000000
 
  0.2500000E+00  0.1500000E+00  0.1500000E+00  0.6000000E-02
    1       -5.581006   1.000000
    2        3.045398   1.000000
    3        4.308019   1.000000
    4        5.521975   0.999993
    5        8.735024   0.000000
    6        8.986656   0.000000
    7        9.301463   0.000000
    8       11.467697   0.000000
 
  0.3500000E+00  0.1500000E+00  0.1500000E+00  0.6000000E-02
    1       -5.078230   1.000000
    2        1.830859   1.000000
    3        3.367423   1.000000
    4        5.196042   1.000000
    5        8.808857   0.000000
    6        9.486888   0.000000
    7        9.770375   0.000000
    8       11.627965   0.000000
 
  0.4500000E+00  0.1500000E+00  0.1500000E+00  0.6000000E-02
    1       -4.378002   1.000000
    2        0.330672   1.000000
    3        3.051344   1.000000
    4        4.753164   1.000000
    5        8.452034   0.000000
    6        9.827860   0.000000
    7        9.842797   0.000000
    8       12.686575   0.000000
 
 -0.4500000E+00  0.1500000E+00  0.1500000E+00  0.6000000E-02
    1       -3.678298   1.000000
    2       -0.821238   1.000000
    3        3.040732   1.000000
    4        4.375874   1.000000
    5        8.136719   0.000000
    6        9.692299   0.000000
    7       10.013878   0.000000
    8       14.099638   0.000000
 
 -0.3500000E+00  0.1500000E+00  0.1500000E+00  0.6000000E-02
    1       -3.672075   1.000000
    2       -0.832866   1.000000
    3        3.251932   1.000000
    4        4.145417   1.000000
    5        7.971102   0.000000
    6        9.697268   0.000000
    7       10.254326   0.000000
    8       12.667720   0.000000
 
 -0.2500000E+00  0.1500000E+00  0.1500000E+00  0.6000000E-02
    1       -4.369517   1.000000
    2        0.312414   1.000000
    3        3.642267   1.000000
    4        4.097777   1.000000
    5        7.960425   0.000000
    6        9.844416   0.000000
    7       10.569760   0.000000
    8       11.060704   0.000000
 
 -0.1500000E+00  0.1500000E+00  0.1500000E+00  0.6000000E-02
    1       -5.071907   1.000000
    2        1.869068   1.000000
    3        4.151292   1.000000
    4        4.245885   1.000000
    5        7.889619   0.000000
    6        9.830469   0.000000
    7       10.364620   0.000000
    8       10.711265   0.000000
 
  0.2500000E+00  0.2500000E+00  0.1500000E+00  0.6000000E-02
    1       -5.410568   1.000000
    2        2.495238   1.000000
    3        4.644987   1.000000
    4        4.788352   1.000000
    5        8.207450   0.000000
    6        9.220372   0.000000
    7       10.071432   0.000000
    8       10.973538   0.000000
 
  0.3500000E+00  0.2500000E+00  0.1500000E+00  0.1200000E-01
    1       -4.990415   1.000000
    2        1.787503   1.000000
    3        3.393060   1.000000
    4        4.692048   1.000000
    5        8.409344   0.000000
    6        9.553809   0.000000
    7       10.371962   0.000000
    8       10.817163   0.000000
 
  0.4500000E+00  0.2500000E+00  0.1500000E+00  0.1200000E-01
    1       -4.350796   1.000000
    2        0.720106   1.000000
    3        2.568676   1.000000
    4        4.286892   1.000000
    5        9.007013   0.000000
    6        9.288224   0.000000
    7       10.475232   0.000000
    8       11.567714   0.000000
 
 -0.4500000E+00  0.2500000E+00  0.1500000E+00  0.1200000E-01
    1       -3.604494   1.000000
    2       -0.467475   1.000000
    3        2.328980   1.000000
    4        3.882871   1.000000
    5        8.817977   0.000000
    6        9.238441   0.000000
    7       11.659340   0.000000
    8       11.892681   0.000000
 
 -0.3500000E+00  0.2500000E+00  0.1500000E+00  0.1200000E-01
    1       -3.268702   1.000000
    2       -0.935323   1.000000
    3        2.375877   1.000000
    4        3.680744   1.000000
    5        8.492657   0.000000
    6        9.441897   0.000000
    7       11.763481   0.000000
    8       12.509130   0.000000
 
 -0.2500000E+00  0.2500000E+00  0.1500000E+00  0.1200000E-01
    1       -3.837769   1.000000
    2       -0.119584   1.000000
    3        2.590749   1.000000
    4        3.769291   1.000000
    5        8.330437   0.000000
    6        9.790969   0.000000
    7       10.734738   0.000000
    8       11.848519   0.000000
 
 -0.1500000E+00  0.2500000E+00  0.1500000E+00  0.1200000E-01
    1       -4.576015   1.000000
    2        1.160897   1.000000
    3        3.006096   1.000000
    4        4.105241   1.000000
    5        8.119276   0.000000
    6        9.635583   0.000000
    7       10.216234   0.000000
    8       11.740989   0.000000
 
  0.3500000E+00  0.3500000E+00  0.1500000E+00  0.6000000E-02
    1       -4.653907   1.000000
    2        1.238256   1.000000
    3        3.520520   1.000000
    4        3.893135   1.000000
    5        7.553555   0.000000
    6        9.467042   0.000000
    7       10.911637   0.000000
    8       11.384048   0.000000
 
  0.4500000E+00  0.3500000E+00  0.1500000E+00  0.1200000E-01
    1       -4.087646   1.000000
    2        0.518061   1.000000
    3        2.687066   1.000000
    4        3.562937   1.000000
    5        7.874788   0.000000
    6        9.085197   0.000000
    7       10.875600   0.000000
    8       12.706093   0.000000
 
 -0.4500000E+00  0.3500000E+00  0.1500000E+00  0.1200000E-01
    1       -3.355017   1.000000
    2       -0.368255   1.000000
    3        2.076907   1.000000
    4        3.113128   1.000000
    5        8.598421   0.000000
    6        9.553249   0.000000
    7       10.454095   0.000000
    8       13.642926   0.000000
 
 -0.3500000E+00  0.3500000E+00  0.1500000E+00  0.1200000E-01
    1       -2.771366   1.000000
    2       -1.042836   1.000000
    3        1.768675   1.000000
    4        2.965660   1.000000
    5        8.849954   0.000000
    6        9.949540   0.000000
    7       11.364863   0.000000
    8       12.633903   0.000000
 
 -0.2500000E+00  0.3500000E+00  0.1500000E+00  0.1200000E-01
    1       -3.138718   1.000000
    2       -0.624619   1.000000
    3        1.767973   1.000000
    4        3.196887   1.000000
    5        9.225074   0.000000
    6        9.658839   0.000000
    7       10.713843   0.000000
    8       13.469529   0.000000
 
 -0.1500000E+00  0.3500000E+00  0.1500000E+00  0.1200000E-01
    1       -3.882180   1.000000
    2        0.180892   1.000000
    3        2.278970   1.000000
    4        3.673197   1.000000
    5        8.783097   0.000000
    6        9.731382   0.000000
    7       10.028830   0.000000
    8       12.594492   0.000000
 
  0.4500000E+00  0.4500000E+00  0.1500000E+00  0.6000000E-02
    1       -3.598161   1.000000
    2       -0.110155   1.000000
    3        2.547091   1.000000
    4        3.375385   1.000000
    5        7.007773   0.000000
    6        8.523307   0.000000
    7       12.739993   0.000000
    8       12.844593   0.000000
 
 -0.4500000E+00  0.4500000E+00  0.1500000E+00  0.1200000E-01
    1       -2.917829   1.000000
    2       -0.846837   1.000000
    3        2.276780   1.000000
    4        2.828118   1.000000
    5        7.570247   0.000000
    6        8.350484   0.000000
    7       12.409911   0.000000
    8       14.635798   0.000000
 
 -0.3500000E+00  0.4500000E+00  0.1500000E+00  0.1200000E-01
    1       -2.198305   1.000000
    2       -1.521278   1.000000
    3        1.933390   1.000000
    4        2.430151   1.000000
    5        8.410090   0.000000
    6        9.176224   0.000000
    7       11.979000   0.000000
    8       12.870394   0.000000
 
 -0.2500000E+00  0.4500000E+00  0.1500000E+00  0.1200000E-01
    1       -2.493644   1.000000
    2       -1.221669   1.000000
    3        1.608797   1.000000
    4        2.762407   1.000000
    5        8.768872   0.000000
    6       10.592921   0.000000
    7       11.318071   0.000000
    8       11.776023   0.000000
 
 -0.1500000E+00  0.4500000E+00  0.1500000E+00  0.1200000E-01
    1       -3.174196   1.000000
    2       -0.781562   1.000000
    3        2.024663   1.000000
    4        3.361004   1.000000
    5        9.009223   0.000000
    6        9.323368   0.000000
    7       11.545751   0.000000
    8       12.742026   0.000000
 
 -0.4500000E+00 -0.4500000E+00  0.1500000E+00  0.6000000E-02
    1       -2.320994   1.000000
    2       -1.537850   1.000000
    3        2.126577   1.000000
    4        3.147201   1.000000
    5        6.747615   0.000008
    6        8.119560   0.000000
    7       14.405138   0.000000
    8       14.658090   0.000000
 
 -0.3500000E+00 -0.4500000E+00  0.1500000E+00  0.1200000E-01
    1       -2.263089   1.000000
    2       -1.544742   1.000000
    3        2.192746   1.000000
    4        2.678387   1.000000
    5        7.512872   0.000000
    6        8.197758   0.000000
    7       13.261223   0.000000
    8       14.170182   0.000000
 
 -0.2500000E+00 -0.4500000E+00  0.1500000E+00  0.1200000E-01
    1       -2.783569   1.000000
    2       -0.939656   1.000000
    3        1.966241   1.000000
    4        2.679354   1.000000
    5        8.473550   0.000000
    6        9.304019   0.000000
    7       11.172772   0.000000
    8       13.809524   0.000000
 
 -0.3500000E+00 -0.3500000E+00  0.1500000E+00  0.6000000E-02
    1       -2.976430   1.000000
    2       -0.829111   1.000000
    3        2.265538   1.000000
    4        3.223556   1.000000
    5        6.835990   0.000000
    6        8.252897   0.000000
    7       13.637329   0.000000
    8       13.692867   0.000000
 
 -0.2500000E+00 -0.3500000E+00  0.1500000E+00  0.1200000E-01
    1       -3.531754   1.000000
    2       -0.152210   1.000000
    3        2.442832   1.000000
    4        3.126662   1.000000
    5        7.690508   0.000000
    6        8.649362   0.000000
    7       11.614409   0.000000
    8       13.693844   0.000000
 
 -0.2500000E+00 -0.2500000E+00  0.1500000E+00  0.6000000E-02
    1       -4.160730   1.000000
    2        0.582305   1.000000
    3        2.970948   1.000000
    4        3.600303   1.000000
    5        7.251464   0.000000
    6        8.932612   0.000000
    7       11.804213   0.000000
    8       12.095424   0.000000
 
  0.2500000E+00  0.2500000E+00  0.2500000E+00  0.2000000E-02
    1       -5.331949   1.000000
    2        1.907082   1.000000
    3        5.076935   1.000000
    4        5.076935   1.000000
    5        7.872709   0.000000
    6        9.354622   0.000000
    7        9.354622   0.000000
    8       12.761517   0.000000
 
  0.3500000E+00  0.2500000E+00  0.2500000E+00  0.6000000E-02
    1       -5.001392   1.000000
    2        1.342181   1.000000
    3        3.898107   1.000000
    4        5.126417   1.000000
    5        8.410026   0.000000
    6        9.385148   0.000000
    7        9.625065   0.000000
    8       12.275969   0.000000
 
  0.4500000E+00  0.2500000E+00  0.2500000E+00  0.6000000E-02
    1       -4.439133   1.000000
    2        0.759356   1.000000
    3        2.521208   1.000000
    4        4.753531   1.000000
    5        8.537101   0.000000
    6       10.160752   0.000000
    7       10.418122   0.000000
    8       11.906873   0.000000
 
 -0.4500000E+00  0.2500000E+00  0.2500000E+00  0.6000000E-02
    1       -3.710327   1.000000
    2       -0.141007   1.000000
    3        1.861606   1.000000
    4        4.263682   1.000000
    5        8.034991   0.000000
    6       11.004829   0.000000
    7       11.248684   0.000000
    8       12.526986   0.000000
 
 -0.3500000E+00  0.2500000E+00  0.2500000E+00  0.6000000E-02
    1       -3.113687   1.000000
    2       -0.931948   1.000000
    3        1.889374   1.000000
    4        3.860620   1.000000
    5        7.600161   0.000000
    6       11.324702   0.000000
    7       11.421348   0.000000
    8       12.325433   0.000000
 
 -0.2500000E+00  0.2500000E+00  0.2500000E+00  0.6000000E-02
    1       -3.412580   1.000000
    2       -0.550621   1.000000
    3        2.298505   1.000000
    4        3.628638   1.000000
    5        7.366174   0.000000
    6       10.300401   0.000000
    7       11.596074   0.000000
    8       11.779448   0.000000
 
  0.3500000E+00  0.3500000E+00  0.2500000E+00  0.6000000E-02
    1       -4.763261   1.000000
    2        0.795003   1.000000
    3        4.344050   1.000000
    4        4.407803   1.000000
    5        8.160822   0.000000
    6        9.231704   0.000000
    7       10.085252   0.000000
    8       11.616467   0.000000
 
  0.4500000E+00  0.3500000E+00  0.2500000E+00  0.1200000E-01
    1       -4.289976   1.000000
    2        0.329414   1.000000
    3        3.019995   1.000000
    4        4.294871   1.000000
    5        8.590176   0.000000
    6        9.303887   0.000000
    7       10.900479   0.000000
    8       11.211312   0.000000
 
 -0.4500000E+00  0.3500000E+00  0.2500000E+00  0.1200000E-01
    1       -3.621171   1.000000
    2       -0.179310   1.000000
    3        1.920282   1.000000
    4        3.807765   1.000000
    5        8.769221   0.000000
    6        9.816232   0.000000
    7       11.035069   0.000000
    8       12.454049   0.000000
 