unknown system                          
   1.00000000000000     
    -2.430320    2.430320    1.338544
     2.430320   -2.430320    1.338544
     2.430320    2.430320   -1.338544
   Si
     2
Direct
  0.750000  0.250000  0.500000
  0.500000  0.500000  0.000000
 
   36   36   36
 0.97178583220E+01 0.96482569166E+01 0.94457151896E+01 0.91276432146E+01 0.87189477469E+01
 0.82472150153E+01 0.77382424557E+01 0.72132740662E+01 0.66885553909E+01 0.61767631044E+01
 0.56890338843E+01 0.52362409144E+01 0.48289067198E+01 0.44761411764E+01 0.41845280543E+01
 0.39576737911E+01 0.37965879925E+01 0.37006561763E+01 0.36688367991E+01 0.37006554774E+01
 0.37965881014E+01 0.39576766427E+01 0.41845334610E+01 0.44761457822E+01 0.48289080507E+01
 0.52362417902E+01 0.56890389409E+01 0.61767717417E+01 0.66885622220E+01 0.72132757412E+01
 0.77382404123E+01 0.82472121741E+01 0.87189461004E+01 0.91276444486E+01 0.94457196121E+01
 0.96482612824E+01 0.96482612824E+01 0.98028812915E+01 0.98162516461E+01 0.96914205661E+01
 0.94428244677E+01 0.90926311762E+01 0.86659711127E+01 0.81866395563E+01 0.76746335159E+01
 0.71460426972E+01 0.66146831175E+01 0.60940510045E+01 0.55982136779E+01 0.51411449184E+01
 0.47351037513E+01 0.43891546814E+01 0.41085891329E+01 0.38953483927E+01 0.37491174139E+01
 0.36686797301E+01 0.36531142026E+01 0.37024032241E+01 0.38172601241E+01 0.39983229669E+01
 0.42451325052E+01 0.45553406262E+01 0.49244601627E+01 0.53462646854E+01 0.58135664918E+01
 0.63186850460E+01 0.68528566876E+01 0.74044392495E+01 0.79566984520E+01 0.84865396101E+01
 0.89653285078E+01 0.93620768293E+01 0.94457196121E+01 0.98162546901E+01 0.10052248310E+02
 0.10140980731E+02 0.10083144833E+02 0.98913638478E+01 0.95862873246E+01 0.91915977900E+01
 0.87296766104E+01 0.82193785695E+01 0.76763600179E+01 0.71151371779E+01 0.65512157911E+01
 0.60017818898E+01 0.54845208672E+01 0.50153673215E+01 0.46065030477E+01 0.42654797253E+01
 0.39955702452E+01 0.37969569586E+01 0.36682782320E+01 0.36080766068E+01 0.36156691396E+01
 0.36912077025E+01 0.38350840440E+01 0.40471208786E+01 0.43260017868E+01 0.46691792885E+01
 0.50732167611E+01 0.55341696929E+01 0.60473596304E+01 0.66060198932E+01 0.71989503914E+01
 0.78081426118E+01 0.84077372389E+01 0.89653285078E+01 0.91276444486E+01 0.96914228115E+01
 0.10140981887E+02 0.10448475248E+02 0.10599287675E+02 0.10593350082E+02 0.10443210781E+02
 0.10169484046E+02 0.97952661807E+01 0.93415834449E+01 0.88254990179E+01 0.82612155750E+01
 0.76629923980E+01 0.70478050374E+01 0.64359916390E+01 0.58494898611E+01 0.53087350027E+01
 0.48298626770E+01 0.44233175170E+01 0.40940329008E+01 0.38427438324E+01 0.36678220788E+01
 0.35670607985E+01 0.35388672892E+01 0.35825964404E+01 0.36982026174E+01 0.38856776848E+01
 0.41447131318E+01 0.44747270916E+01 0.48750539393E+01 0.53448074364E+01 0.58818637405E+01
 0.64807133794E+01 0.71296117303E+01 0.78081426118E+01 0.84865396101E+01 0.87189461004E+01
 0.94428242806E+01 0.10083145084E+02 0.10599287234E+02 0.10961608117E+02 0.11155661574E+02
 0.11183025234E+02 0.11058226601E+02 0.10803608296E+02 0.10442205127E+02 0.99923532841E+01
 0.94678414208E+01 0.88797031090E+01 0.82406681447E+01 0.75687217281E+01 0.68877011214E+01
 0.62246947577E+01 0.56057190675E+01 0.50517883986E+01 0.45768065600E+01 0.41875419529E+01
 0.38851669751E+01 0.36675280745E+01 0.35313822159E+01 0.34739766280E+01 0.34936990757E+01
 0.35900081769E+01 0.37631273315E+01 0.40139004327E+01 0.43438386212E+01 0.47550117285E+01
 0.52492516577E+01 0.58262660904E+01 0.64807133794E+01 0.71989503914E+01 0.79566984520E+01
 0.82472121741E+01 0.90926293448E+01 0.98913634265E+01 0.10593349360E+02 0.11155660216E+02
 0.11548846485E+02 0.11756256934E+02 0.11784309269E+02 0.11660983570E+02 0.11418253939E+02
 0.11077438996E+02 0.10644882310E+02 0.10119905812E+02 0.95096366038E+01 0.88289726814E+01
 0.80970589934E+01 0.73420542106E+01 0.65974300952E+01 0.58959865973E+01 0.52644707334E+01
 0.47206253786E+01 0.42730245378E+01 0.39230023511E+01 0.36675351646E+01 0.35020458662E+01
 0.34224283853E+01 0.34260480288E+01 0.35119633036E+01 0.36808487301E+01 0.39349597384E+01
 0.42780556057E+01 0.47148186499E+01 0.52492516577E+01 0.58818637405E+01 0.66060198932E+01
 0.74044392495E+01 0.77382404123E+01 0.86659685761E+01 0.95862867432E+01 0.10443211355E+02
 0.11183024492E+02 0.11756255295E+02 0.12119708541E+02 0.12272627672E+02 0.12252503651E+02
 0.12111655288E+02 0.11890945770E+02 0.11602413895E+02 0.11229122288E+02 0.10742504371E+02
 0.10128639239E+02 0.94081410351E+01 0.86149289860E+01 0.77832261787E+01 0.69543242465E+01
 0.61689328717E+01 0.54601482859E+01 0.48496601845E+01 0.43476036186E+01 0.39550842639E+01
 0.36678403205E+01 0.34797091354E+01 0.33851414021E+01 0.33805657141E+01 0.34648848116E+01
 0.36395625847E+01 0.39085788806E+01 0.42780556057E+01 0.47550117285E+01 0.53448074364E+01
 0.60473596304E+01 0.68528566876E+01 0.72132757412E+01 0.81866380230E+01 0.91915965240E+01
 0.10169485535E+02 0.11058228692E+02 0.11784309100E+02 0.12272626403E+02 0.12506563156E+02
 0.12530186905E+02 0.12423830666E+02 0.12267040302E+02 0.12103571429E+02 0.11923685319E+02
 0.11672427388E+02 0.11280781683E+02 0.10705485337E+02 0.99589203085E+01 0.91044542273E+01
 0.81953461549E+01 0.72821393613E+01 0.64142974437E+01 0.56315142659E+01 0.49592215487E+01
 0.44086810682E+01 0.39803204552E+01 0.36683024230E+01 0.34647204131E+01 0.33626223129E+01
 0.33577298692E+01 0.34491558216E+01 0.36395625847E+01 0.39349597384E+01 0.43438386212E+01
 0.48750539393E+01 0.55341696929E+01 0.63186850460E+01 0.66885622220E+01 0.76746359330E+01
 0.87296756858E+01 0.97952665986E+01 0.10803611986E+02 0.11660987196E+02 0.12252504624E+02
 0.12530186899E+02 0.12531740091E+02 0.12362833284E+02 0.12154765400E+02 0.12011835100E+02
 0.11968734580E+02 0.11976683240E+02 0.11925778629E+02 0.11694579283E+02 0.11205344828E+02
 0.10461272457E+02 0.95487743179E+01 0.85634471711E+01 0.75685653962E+01 0.66227434711E+01
 0.57720848831E+01 0.50452485371E+01 0.44540445962E+01 0.39977562908E+01 0.36687078627E+01
 0.34572118683E+01 0.33550963718E+01 0.33577298692E+01 0.34648848116E+01 0.36808487301E+01
 0.40139004327E+01 0.44747270916E+01 0.50732167611E+01 0.58135664918E+01 0.61767717417E+01
 0.71460495580E+01 0.82193809670E+01 0.93415832320E+01 0.10442207700E+02 0.11418259880E+02
 0.12111660500E+02 0.12423833703E+02 0.12362835688E+02 0.12042018762E+02 0.11642458600E+02
 0.11349103810E+02 0.11281744125E+02 0.11447860122E+02 0.11738793124E+02 0.11972724963E+02
 0.11966680957E+02 0.11607381934E+02 0.10893198352E+02 0.99329137694E+01 0.88742968764E+01
 0.78028967131E+01 0.67863412604E+01 0.58765077088E+01 0.51044983708E+01 0.44819874094E+01
 0.40066706204E+01 0.36688678740E+01 0.34572118683E+01 0.33626223129E+01 0.33805657141E+01
 0.35119633036E+01 0.37631273315E+01 0.41447131318E+01 0.46691792885E+01 0.53462646854E+01
 0.56890389409E+01 0.66146898686E+01 0.76763662548E+01 0.88255011928E+01 0.99923546804E+01
 0.11077444642E+02 0.11890954108E+02 0.12267047335E+02 0.12154771678E+02 0.11642464505E+02
 0.10937882754E+02 0.10306021733E+02 0.99808241946E+01 0.10080730018E+02 0.10562574628E+02
 0.11235772432E+02 0.11832473586E+02 0.12104242320E+02 0.11906466883E+02 0.11240744603E+02
 0.10244373810E+02 0.91169992386E+01 0.79765215128E+01 0.68989164160E+01 0.59407994373E+01
 0.51347060040E+01 0.44914258536E+01 0.40066706204E+01 0.36687078627E+01 0.34647204131E+01
 0.33851414021E+01 0.34260480288E+01 0.35900081769E+01 0.38856776848E+01 0.43260017868E+01
 0.49244601627E+01 0.52362417902E+01 0.60940528099E+01 0.71151432603E+01 0.82612213744E+01
 0.94678441225E+01 0.10644886930E+02 0.11602423605E+02 0.12103582076E+02 0.12011844113E+02
 0.11349114142E+02 0.10306031549E+02 0.91984516229E+01 0.83761495078E+01 0.81085967787E+01
 0.84888413934E+01 0.93967035955E+01 0.10539874100E+02 0.11556354389E+02 0.12135359788E+02
 0.12110802607E+02 0.11498662365E+02 0.10473076348E+02 0.92833315022E+01 0.80831999671E+01
 0.69562656096E+01 0.59625062824E+01 0.51347060040E+01 0.44819874094E+01 0.39977562908E+01
 0.36683024230E+01 0.34797091354E+01 0.34224283853E+01 0.34936990757E+01 0.36982026174E+01
 0.40471208786E+01 0.45553406262E+01 0.48289080507E+01 0.55982118525E+01 0.65512180149E+01
 0.76629995002E+01 0.88797088263E+01 0.10119910133E+02 0.11229131576E+02 0.11923699311E+02
 0.11968746823E+02 0.11281754802E+02 0.99808382386E+01 0.83761622745E+01 0.68976008693E+01
 0.59707571787E+01 0.58779861662E+01 0.66577392727E+01 0.80873659573E+01 0.97593155177E+01
 0.11218054604E+02 0.12101462400E+02 0.12236885586E+02 0.11667656554E+02 0.10612381612E+02
 0.93678471452E+01 0.81191764571E+01 0.69562656096E+01 0.59407994373E+01 0.51044983708E+01
 0.44540445962E+01 0.39803204552E+01 0.36678403205E+01 0.35020458662E+01 0.34739766280E+01
 0.35825964404E+01 0.38350840440E+01 0.42451325052E+01 0.44761457822E+01 0.51411457161E+01
 0.60017816590E+01 0.70478108697E+01 0.82406767909E+01 0.95096420705E+01 0.10742511009E+02
 0.11672441660E+02 0.11976700321E+02 0.11447872513E+02 0.10080741255E+02 0.81086124468E+01
 0.59707702079E+01 0.42065875859E+01 0.32975475254E+01 0.35084890901E+01 0.47927896669E+01
 0.68055543460E+01 0.90204535346E+01 0.10899307167E+02 0.12047119346E+02 0.12303080334E+02
 0.11750900317E+02 0.10659116212E+02 0.93678471452E+01 0.80831999671E+01 0.68989164160E+01
 0.58765077088E+01 0.50452485371E+01 0.44086810682E+01 0.39550842639E+01 0.36675351646E+01
 0.35313822159E+01 0.35388672892E+01 0.36912077025E+01 0.39983229669E+01 0.41845334610E+01
 0.47351107610E+01 0.54845231865E+01 0.64359959140E+01 0.75687320125E+01 0.88289815857E+01
 0.10128643536E+02 0.11280790424E+02 0.11925796446E+02 0.11738810697E+02 0.10562585179E+02
 0.84888511613E+01 0.58779995226E+01 0.32975567618E+01 0.13796240446E+01 0.63130662470E+00
 0.12653448992E+01 0.31234740241E+01 0.57290484267E+01 0.84457584270E+01 0.10673799101E+02
 0.12009450755E+02 0.12323407457E+02 0.11750900317E+02 0.10612381612E+02 0.92833315022E+01
 0.79765215128E+01 0.67863412604E+01 0.57720848831E+01 0.49592215487E+01 0.43476036186E+01
 0.39230023511E+01 0.36675280745E+01 0.35670607985E+01 0.36156691396E+01 0.38172601241E+01
 0.39576766427E+01 0.43891654723E+01 0.50153755780E+01 0.58494945922E+01 0.68877107784E+01
 0.80970720551E+01 0.94081475830E+01 0.10705487102E+02 0.11694588748E+02 0.11972743086E+02
 0.11235786995E+02 0.93967100908E+01 0.66577447073E+01 0.35084950033E+01 0.63130774660E+00
 -.12779601356E+01 -.17240991978E+01 -.57998592337E+00 0.18670741228E+01 0.50126244141E+01
 0.81318314702E+01 0.10592557222E+02 0.12009450755E+02 0.12303080334E+02 0.11667656554E+02
 0.10473076348E+02 0.91169992386E+01 0.78028967131E+01 0.66227434711E+01 0.56315142659E+01
 0.48496601845E+01 0.42730245378E+01 0.38851669751E+01 0.36678220788E+01 0.36080766068E+01
 0.37024032241E+01 0.37965881014E+01 0.41085984605E+01 0.46065163066E+01 0.53087432020E+01
 0.62247023236E+01 0.73420678696E+01 0.86149410908E+01 0.99589214857E+01 0.11205342875E+02
 0.11966688850E+02 0.11832487661E+02 0.10539881884E+02 0.80873661194E+01 0.47927874347E+01
 0.12653386232E+01 -.17241091154E+01 -.34546142751E+01 -.34825951029E+01 -.17932978626E+01
 0.11926847724E+01 0.47614143548E+01 0.81318314702E+01 0.10673799101E+02 0.12047119346E+02
 0.12236885586E+02 0.11498662365E+02 0.10244373810E+02 0.88742968764E+01 0.75685653962E+01
 0.64142974437E+01 0.54601482859E+01 0.47206253786E+01 0.41875419529E+01 0.38427438324E+01
 0.36682782320E+01 0.36531142026E+01 0.37006554774E+01 0.38953524643E+01 0.42654935676E+01
 0.48298768719E+01 0.56057274491E+01 0.65974399657E+01 0.77832399999E+01 0.91044604241E+01
 0.10461266178E+02 0.11607375942E+02 0.12104246178E+02 0.11556359901E+02 0.97593130611E+01
 0.68055459617E+01 0.31234614353E+01 -.58000647559E+00 -.34826158358E+01 -.48820276649E+01
 -.44223236549E+01 -.22163541050E+01 0.11926847724E+01 0.50126244141E+01 0.84457584270E+01
 0.10899307167E+02 0.12101462400E+02 0.12110802607E+02 0.11240744603E+02 0.99329137694E+01
 0.85634471711E+01 0.72821393613E+01 0.61689328717E+01 0.52644707334E+01 0.45768065600E+01
 0.40940329008E+01 0.37969569586E+01 0.36686797301E+01 0.36688367991E+01 0.37491162018E+01
 0.39955790299E+01 0.44233359731E+01 0.50518035467E+01 0.58959949802E+01 0.69543334851E+01
 0.81953542659E+01 0.95487704891E+01 0.10893184832E+02 0.11906457775E+02 0.12135357437E+02
 0.11218047852E+02 0.90204384938E+01 0.57290303429E+01 0.18670509907E+01 -.17933301683E+01
 -.44223511359E+01 -.53791260983E+01 -.44223236549E+01 -.17932978626E+01 0.18670741228E+01
 0.57290484267E+01 0.90204535346E+01 0.11218054604E+02 0.12135359788E+02 0.11906466883E+02
 0.10893198352E+02 0.95487743179E+01 0.81953461549E+01 0.69543242465E+01 0.58959865973E+01
 0.50517883986E+01 0.44233175170E+01 0.39955702452E+01 0.37491174139E+01 0.37006561763E+01
 0.36686774134E+01 0.37969591515E+01 0.40940496846E+01 0.45768297560E+01 0.52644853620E+01
 0.61689385506E+01 0.72821425967E+01 0.85634440125E+01 0.99328986617E+01 0.11240726478E+02
 0.12110791792E+02 0.12101452302E+02 0.10899286656E+02 0.84457311885E+01 0.50125981938E+01
 0.11926548231E+01 -.22163909961E+01 -.44223511359E+01 -.48820276649E+01 -.34825951029E+01
 -.57998592337E+00 0.31234740241E+01 0.68055543460E+01 0.97593155177E+01 0.11556354389E+02
 0.12104242320E+02 0.11607381934E+02 0.10461272457E+02 0.91044542273E+01 0.77832261787E+01
 0.65974300952E+01 0.56057190675E+01 0.48298626770E+01 0.42654797253E+01 0.38953483927E+01
 0.37965879925E+01 0.36531159065E+01 0.36682796257E+01 0.38427559178E+01 0.41875679807E+01
 0.47206501389E+01 0.54601585017E+01 0.64142961438E+01 0.75685578141E+01 0.88742798343E+01
 0.10244349291E+02 0.11498642872E+02 0.12236873961E+02 0.12047101520E+02 0.10673767315E+02
 0.81317964790E+01 0.47613849063E+01 0.11926548231E+01 -.17933301683E+01 -.34826158358E+01
 -.34546142751E+01 -.17240991978E+01 0.12653448992E+01 0.47927896669E+01 0.80873659573E+01
 0.10539874100E+02 0.11832473586E+02 0.11966680957E+02 0.11205344828E+02 0.99589203085E+01
 0.86149289860E+01 0.73420542106E+01 0.62246947577E+01 0.53087350027E+01 0.46065030477E+01
 0.41085891329E+01 0.39576737911E+01 0.37024095322E+01 0.36080847076E+01 0.36678336001E+01
 0.38851905414E+01 0.42730551825E+01 0.48496800723E+01 0.56315155662E+01 0.66227323541E+01
 0.78028765987E+01 0.91169694294E+01 0.10473045683E+02 0.11667637650E+02 0.12303068143E+02
 0.12009427909E+02 0.10592521012E+02 0.81317964790E+01 0.50125981938E+01 0.18670509907E+01
 -.58000647559E+00 -.17241091154E+01 -.12779601356E+01 0.63130662470E+00 0.35084890901E+01
 0.66577392727E+01 0.93967035955E+01 0.11235772432E+02 0.11972724963E+02 0.11694579283E+02
 0.10705485337E+02 0.94081410351E+01 0.80970589934E+01 0.68877011214E+01 0.58494898611E+01
 0.50153673215E+01 0.43891546814E+01 0.41845280543E+01 0.38172659415E+01 0.36156839417E+01
 0.35670777678E+01 0.36675501616E+01 0.39230327541E+01 0.43476309620E+01 0.49592307387E+01
 0.57720753601E+01 0.67863204074E+01 0.79764905402E+01 0.92832924426E+01 0.10612347784E+02
 0.11750882182E+02 0.12323394999E+02 0.12009427909E+02 0.10673767315E+02 0.84457311885E+01
 0.57290303429E+01 0.31234614353E+01 0.12653386232E+01 0.63130774660E+00 0.13796240446E+01
 0.32975475254E+01 0.58779861662E+01 0.84888413934E+01 0.10562574628E+02 0.11738793124E+02
 0.11925778629E+02 0.11280781683E+02 0.10128639239E+02 0.88289726814E+01 0.75687217281E+01
 0.64359916390E+01 0.54845208672E+01 0.47351037513E+01 0.44761411764E+01 0.39983239094E+01
 0.36912212776E+01 0.35388885547E+01 0.35314059741E+01 0.36675637829E+01 0.39551147135E+01
 0.44086993100E+01 0.50452455167E+01 0.58764889461E+01 0.68988883324E+01 0.80831618705E+01
 0.93678033012E+01 0.10659081435E+02 0.11750882182E+02 0.12303068143E+02 0.12047101520E+02
 0.10899286656E+02 0.90204384938E+01 0.68055459617E+01 0.47927874347E+01 0.35084950033E+01
 0.32975567618E+01 0.42065875859E+01 0.59707571787E+01 0.81085967787E+01 0.10080730018E+02
 0.11447860122E+02 0.11976683240E+02 0.11672427388E+02 0.10742504371E+02 0.95096366038E+01
 0.82406681447E+01 0.70478050374E+01 0.60017818898E+01 0.51411449184E+01 0.48289067198E+01
 0.42451293006E+01 0.38350891500E+01 0.35826134434E+01 0.34739999034E+01 0.35020727321E+01
 0.36678710466E+01 0.39803466742E+01 0.44540526756E+01 0.51044857687E+01 0.59407749725E+01
 0.69562338189E+01 0.81191358876E+01 0.93678033012E+01 0.10612347784E+02 0.11667637650E+02
 0.12236873961E+02 0.12101452302E+02 0.11218047852E+02 0.97593130611E+01 0.80873661194E+01
 0.66577447073E+01 0.58779995226E+01 0.59707702079E+01 0.68976008693E+01 0.83761495078E+01
 0.99808241946E+01 0.11281744125E+02 0.11968734580E+02 0.11923685319E+02 0.11229122288E+02
 0.10119905812E+02 0.88797031090E+01 0.76629923980E+01 0.65512157911E+01 0.55982136779E+01
 0.52362409144E+01 0.45553356189E+01 0.40471166123E+01 0.36982081386E+01 0.34937150311E+01
 0.34224506977E+01 0.34797370314E+01 0.36683330790E+01 0.39977776757E+01 0.44819881354E+01
 0.51346883791E+01 0.59624799495E+01 0.69562338189E+01 0.80831618705E+01 0.92832924426E+01
 0.10473045683E+02 0.11498642872E+02 0.12110791792E+02 0.12135357437E+02 0.11556359901E+02
 0.10539881884E+02 0.93967100908E+01 0.84888511613E+01 0.81086124468E+01 0.83761622745E+01
 0.91984516229E+01 0.10306021733E+02 0.11349103810E+02 0.12011835100E+02 0.12103571429E+02
 0.11602413895E+02 0.10644882310E+02 0.94678414208E+01 0.82612155750E+01 0.71151371779E+01
 0.60940510045E+01 0.56890338843E+01 0.49244530470E+01 0.43259911894E+01 0.38856709064E+01
 0.35900118670E+01 0.34260613851E+01 0.33851624421E+01 0.34647489319E+01 0.36687380727E+01
 0.40066890596E+01 0.44914239533E+01 0.51346883791E+01 0.59407749725E+01 0.68988883324E+01
 0.79764905402E+01 0.91169694294E+01 0.10244349291E+02 0.11240726478E+02 0.11906457775E+02
 0.12104246178E+02 0.11832487661E+02 0.11235786995E+02 0.10562585179E+02 0.10080741255E+02
 0.99808382386E+01 0.10306031549E+02 0.10937882754E+02 0.11642458600E+02 0.12154765400E+02
 0.12267040302E+02 0.11890945770E+02 0.11077438996E+02 0.99923532841E+01 0.88254990179E+01
 0.76763600179E+01 0.66146831175E+01 0.61767631044E+01 0.53462545330E+01 0.46691651706E+01
 0.41446975965E+01 0.37631184370E+01 0.35119652600E+01 0.33805773045E+01 0.33626428948E+01
 0.34572408846E+01 0.36688978983E+01 0.40066890596E+01 0.44819881354E+01 0.51044857687E+01
 0.58764889461E+01 0.67863204074E+01 0.78028765987E+01 0.88742798343E+01 0.99328986617E+01
 0.10893184832E+02 0.11607375942E+02 0.11966688850E+02 0.11972743086E+02 0.11738810697E+02
 0.11447872513E+02 0.11281754802E+02 0.11349114142E+02 0.11642464505E+02 0.12042018762E+02
 0.12362833284E+02 0.12423830666E+02 0.12111655288E+02 0.11418253939E+02 0.10442205127E+02
 0.93415834449E+01 0.82193785695E+01 0.71460426972E+01 0.66885553909E+01 0.58135563188E+01
 0.50732022276E+01 0.44747079039E+01 0.40138822088E+01 0.36808390043E+01 0.34648860571E+01
 0.33577408359E+01 0.33551169250E+01 0.34572408846E+01 0.36687380727E+01 0.39977776757E+01
 0.44540526756E+01 0.50452455167E+01 0.57720753601E+01 0.66227323541E+01 0.75685578141E+01
 0.85634440125E+01 0.95487704891E+01 0.10461266178E+02 0.11205342875E+02 0.11694588748E+02
 0.11925796446E+02 0.11976700321E+02 0.11968746823E+02 0.12011844113E+02 0.12154771678E+02
 0.12362835688E+02 0.12531740091E+02 0.12530186905E+02 0.12252503651E+02 0.11660983570E+02
 0.10803608296E+02 0.97952661807E+01 0.87296766104E+01 0.76746335159E+01 0.72132740662E+01
 0.63186792649E+01 0.55341591544E+01 0.48750369140E+01 0.43438169470E+01 0.39349407048E+01
 0.36395528248E+01 0.34491569524E+01 0.33577408359E+01 0.33626428948E+01 0.34647489319E+01
 0.36683330790E+01 0.39803466742E+01 0.44086993100E+01 0.49592307387E+01 0.56315155662E+01
 0.64142961438E+01 0.72821425967E+01 0.81953542659E+01 0.91044604241E+01 0.99589214857E+01
 0.10705487102E+02 0.11280790424E+02 0.11672441660E+02 0.11923699311E+02 0.12103582076E+02
 0.12267047335E+02 0.12423833703E+02 0.12530186899E+02 0.12506563156E+02 0.12272627672E+02
 0.11784309269E+02 0.11058226601E+02 0.10169484046E+02 0.91915977900E+01 0.81866395563E+01
 0.77382424557E+01 0.68528560501E+01 0.60473553091E+01 0.53447973003E+01 0.47549937556E+01
 0.42780331306E+01 0.39085597540E+01 0.36395528248E+01 0.34648860571E+01 0.33805773045E+01
 0.33851624421E+01 0.34797370314E+01 0.36678710466E+01 0.39551147135E+01 0.43476309620E+01
 0.48496800723E+01 0.54601585017E+01 0.61689385506E+01 0.69543334851E+01 0.77832399999E+01
 0.86149410908E+01 0.94081475830E+01 0.10128643536E+02 0.10742511009E+02 0.11229131576E+02
 0.11602423605E+02 0.11890954108E+02 0.12111660500E+02 0.12252504624E+02 0.12272626403E+02
 0.12119708541E+02 0.11756256934E+02 0.11183025234E+02 0.10443210781E+02 0.95862873246E+01
 0.86659711127E+01 0.82472150153E+01 0.74044411174E+01 0.66060197853E+01 0.58818604150E+01
 0.52492418983E+01 0.47148004752E+01 0.42780331306E+01 0.39349407048E+01 0.36808390043E+01
 0.35119652600E+01 0.34260613851E+01 0.34224506977E+01 0.35020727321E+01 0.36675637829E+01
 0.39230327541E+01 0.42730551825E+01 0.47206501389E+01 0.52644853620E+01 0.58959949802E+01
 0.65974399657E+01 0.73420678696E+01 0.80970720551E+01 0.88289815857E+01 0.95096420705E+01
 0.10119910133E+02 0.10644886930E+02 0.11077444642E+02 0.11418259880E+02 0.11660987196E+02
 0.11784309100E+02 0.11756255295E+02 0.11548846485E+02 0.11155661574E+02 0.10593350082E+02
 0.98913638478E+01 0.90926311762E+01 0.87189477469E+01 0.79567004594E+01 0.71989514597E+01
 0.64807132868E+01 0.58262630664E+01 0.52492418983E+01 0.47549937556E+01 0.43438169470E+01
 0.40138822088E+01 0.37631184370E+01 0.35900118670E+01 0.34937150311E+01 0.34739999034E+01
 0.35314059741E+01 0.36675501616E+01 0.38851905414E+01 0.41875679807E+01 0.45768297560E+01
 0.50518035467E+01 0.56057274491E+01 0.62247023236E+01 0.68877107784E+01 0.75687320125E+01
 0.82406767909E+01 0.88797088263E+01 0.94678441225E+01 0.99923546804E+01 0.10442207700E+02
 0.10803611986E+02 0.11058228692E+02 0.11183024492E+02 0.11155660216E+02 0.10961608117E+02
 0.10599287675E+02 0.10083144833E+02 0.94428244677E+01 0.91276432146E+01 0.84865401384E+01
 0.78081435742E+01 0.71296123241E+01 0.64807132868E+01 0.58818604150E+01 0.53447973003E+01
 0.48750369140E+01 0.44747079039E+01 0.41446975965E+01 0.38856709064E+01 0.36982081386E+01
 0.35826134434E+01 0.35388885547E+01 0.35670777678E+01 0.36678336001E+01 0.38427559178E+01
 0.40940496846E+01 0.44233359731E+01 0.48298768719E+01 0.53087432020E+01 0.58494945922E+01
 0.64359959140E+01 0.70478108697E+01 0.76629995002E+01 0.82612213744E+01 0.88255011928E+01
 0.93415832320E+01 0.97952665986E+01 0.10169485535E+02 0.10443211355E+02 0.10593349360E+02
 0.10599287234E+02 0.10448475248E+02 0.10140980731E+02 0.96914205661E+01 0.94457151896E+01
 0.89653258961E+01 0.84077371358E+01 0.78081435742E+01 0.71989514597E+01 0.66060197853E+01
 0.60473553091E+01 0.55341591544E+01 0.50732022276E+01 0.46691651706E+01 0.43259911894E+01
 0.40471166123E+01 0.38350891500E+01 0.36912212776E+01 0.36156839417E+01 0.36080847076E+01
 0.36682796257E+01 0.37969591515E+01 0.39955790299E+01 0.42654935676E+01 0.46065163066E+01
 0.50153755780E+01 0.54845231865E+01 0.60017816590E+01 0.65512180149E+01 0.71151432603E+01
 0.76763662548E+01 0.82193809670E+01 0.87296756858E+01 0.91915965240E+01 0.95862867432E+01
 0.98913634265E+01 0.10083145084E+02 0.10140981887E+02 0.10052248310E+02 0.98162516461E+01
 0.96482569166E+01 0.93620714414E+01 0.89653258961E+01 0.84865401384E+01 0.79567004594E+01
 0.74044411174E+01 0.68528560501E+01 0.63186792649E+01 0.58135563188E+01 0.53462545330E+01
 0.49244530470E+01 0.45553356189E+01 0.42451293006E+01 0.39983239094E+01 0.38172659415E+01
 0.37024095322E+01 0.36531159065E+01 0.36686774134E+01 0.37491162018E+01 0.38953524643E+01
 0.41085984605E+01 0.43891654723E+01 0.47351107610E+01 0.51411457161E+01 0.55982118525E+01
 0.60940528099E+01 0.66146898686E+01 0.71460495580E+01 0.76746359330E+01 0.81866380230E+01
 0.86659685761E+01 0.90926293448E+01 0.94428242806E+01 0.96914228115E+01 0.98162546901E+01
 0.98028812915E+01 0.96482615839E+01 0.95382698386E+01 0.93084390722E+01 0.89763587548E+01
 0.85663609202E+01 0.81050476463E+01 0.76170302387E+01 0.71221737157E+01 0.66350389687E+01
 0.61662370898E+01 0.57245533253E+01 0.53185073150E+01 0.49566273635E+01 0.46466616417E+01
 0.43945362199E+01 0.42037844778E+01 0.40757171511E+01 0.40101924704E+01 0.40066457237E+01
 0.40649297685E+01 0.41855647065E+01 0.43692580904E+01 0.46158643443E+01 0.49231882334E+01
 0.52860558778E+01 0.56960459718E+01 0.61421551599E+01 0.66122273967E+01 0.70943726399E+01
 0.75773592941E+01 0.80495129853E+01 0.84967017620E+01 0.89007686958E+01 0.92397088474E+01
 0.94900584886E+01 0.96309111511E+01 0.95382732461E+01 0.96482610942E+01 0.96309072318E+01
 0.94900547858E+01 0.92397078524E+01 0.89007697148E+01 0.84967027314E+01 0.80495129545E+01
 0.75773588261E+01 0.70943734438E+01 0.66122325480E+01 0.61421677511E+01 0.56960649731E+01
 0.52860737103E+01 0.49231953729E+01 0.46158592126E+01 0.43692499618E+01 0.41855637028E+01
 0.40649359237E+01 0.40066513931E+01 0.40101940268E+01 0.40757184999E+01 0.42037885548E+01
 0.43945380980E+01 0.46466545971E+01 0.49566127578E+01 0.53184933435E+01 0.57245455932E+01
 0.61662347632E+01 0.66350388086E+01 0.71221739617E+01 0.76170300924E+01 0.81050464057E+01
 0.85663595456E+01 0.89763597338E+01 0.93084428954E+01 0.92923025197E+01 0.96143501548E+01
 0.98162544209E+01 0.98869452566E+01 0.98271147476E+01 0.96479944877E+01 0.93679748328E+01
 0.90081890296E+01 0.85886038461E+01 0.81259597927E+01 0.76340363160E+01 0.71255493913E+01
 0.66141759650E+01 0.61152847277E+01 0.56449267153E+01 0.52177897371E+01 0.48453248628E+01
 0.45348731675E+01 0.42899179014E+01 0.41111275173E+01 0.39977422379E+01 0.39488515332E+01
 0.39641125176E+01 0.40437188474E+01 0.41877799265E+01 0.43955172733E+01 0.46647048904E+01
 0.49916170875E+01 0.53715057092E+01 0.57992456008E+01 0.62694617052E+01 0.67755373138E+01
 0.73075472872E+01 0.78499967966E+01 0.83806736573E+01 0.88716123440E+01 0.89296683909E+01
 0.94413706521E+01 0.98535397124E+01 0.10140982320E+02 0.10289806805E+02 0.10298708758E+02
 0.10177452214E+02 0.99430595608E+01 0.96150638028E+01 0.92115987373E+01 0.87477465417E+01
 0.82364602121E+01 0.76910502215E+01 0.71274312443E+01 0.65645888789E+01 0.60229348853E+01
 0.55215117786E+01 0.50755017409E+01 0.46949868908E+01 0.43850980957E+01 0.41471615779E+01
 0.39803120797E+01 0.38830626205E+01 0.38543237027E+01 0.38936442094E+01 0.40008430519E+01
 0.41754519865E+01 0.44163787113E+01 0.47219656830E+01 0.50903252985E+01 0.55195063763E+01
 0.60068896062E+01 0.65474577239E+01 0.71312437339E+01 0.77409719258E+01 0.83511749497E+01
 0.84774258482E+01 0.91455845234E+01 0.97450454086E+01 0.10238926763E+02 0.10599290389E+02
 0.10810987366E+02 0.10872587828E+02 0.10794135721E+02 0.10592481384E+02 0.10285933862E+02
 0.98903576384E+01 0.94182100981E+01 0.88805518024E+01 0.82905205128E+01 0.76660301788E+01
 0.70299990906E+01 0.64079257001E+01 0.58241048865E+01 0.52982666691E+01 0.48437883889E+01
 0.44676710774E+01 0.41718373668E+01 0.39550858526E+01 0.38150521757E+01 0.37496015778E+01
 0.37573932819E+01 0.38377981109E+01 0.39905968527E+01 0.42158378742E+01 0.45139335019E+01
 0.48857486631E+01 0.53321869989E+01 0.58527991055E+01 0.64433209982E+01 0.70926915631E+01
 0.77806842829E+01 0.79654837648E+01 0.87510929554E+01 0.95048995857E+01 0.10181737106E+02
 0.10741579172E+02 0.11155667664E+02 0.11410018527E+02 0.11504064841E+02 0.11450965961E+02
 0.11271422420E+02 0.10982402879E+02 0.10593107472E+02 0.10110151233E+02 0.95428181948E+01
 0.89034160389E+01 0.82118466263E+01 0.74956073787E+01 0.67862905630E+01 0.61144812257E+01
 0.55052493398E+01 0.49756678758E+01 0.45346200019E+01 0.41843706081E+01 0.39230172031E+01
 0.37469628783E+01 0.36527544399E+01 0.36380127010E+01 0.37016497667E+01 0.38437975425E+01
 0.40657881386E+01 0.43701752212E+01 0.47604453197E+01 0.52399127879E+01 0.58094897723E+01
 0.64645121091E+01 0.71914091864E+01 0.74219744610E+01 0.82851226318E+01 0.91553915796E+01
 0.99829500633E+01 0.10718375036E+02 0.11320509139E+02 0.11756265544E+02 0.12008869879E+02
 0.12093447339E+02 0.12042122286E+02 0.11883562781E+02 0.11628740845E+02 0.11269897836E+02
 0.10793253436E+02 0.10198789208E+02 0.95078933155E+01 0.87453724037E+01 0.79443541814E+01
 0.71437270473E+01 0.63813837780E+01 0.56883467537E+01 0.50855297604E+01 0.45834749015E+01
 0.41843748321E+01 0.38851911068E+01 0.36807565130E+01 0.35661155936E+01 0.35378409163E+01
 0.35945306083E+01 0.37369074933E+01 0.39678196054E+01 0.42920513321E+01 0.47155066340E+01
 0.52432904854E+01 0.58765836592E+01 0.66087857759E+01 0.68702098909E+01 0.77736694895E+01
 0.87221883125E+01 0.96645762898E+01 0.10544812377E+02 0.11309360294E+02 0.11897139613E+02
 0.12272636034E+02 0.12451275613E+02 0.12482968283E+02 0.12423316489E+02 0.12305315853E+02
 0.12124254297E+02 0.11843158986E+02 0.11416649580E+02 0.10821998385E+02 0.10082001255E+02
 0.92468050226E+01 0.83590516326E+01 0.74661555746E+01 0.66141266076E+01 0.58402365004E+01
 0.51690786247E+01 0.46124135809E+01 0.41718452788E+01 0.38427673583E+01 0.36181836815E+01
 0.34915862006E+01 0.34586431080E+01 0.35179244317E+01 0.36710826749E+01 0.39227560017E+01
 0.42800130423E+01 0.47508363407E+01 0.53412455599E+01 0.60512177386E+01 0.63278857920E+01
 0.72387872428E+01 0.82300106038E+01 0.92518697502E+01 0.10244393427E+02 0.11142494669E+02
 0.11854193775E+02 0.12314791547E+02 0.12530192878E+02 0.12566658001E+02 0.12518066738E+02
 0.12463285385E+02 0.12430751310E+02 0.12385855052E+02 0.12247581163E+02 0.11927617037E+02
 0.11374707501E+02 0.10604739385E+02 0.96972675773E+01 0.87235214528E+01 0.77406792484E+01
 0.68033083290E+01 0.59548312888E+01 0.52230541302E+01 0.46203442790E+01 0.41471647667E+01
 0.37969723985E+01 0.35608116854E+01 0.34307258150E+01 0.34017690251E+01 0.34728765518E+01
 0.36470276323E+01 0.39309158495E+01 0.43338508967E+01 0.48653351778E+01 0.55310727903E+01
 0.58082160740E+01 0.66980741264E+01 0.77000950712E+01 0.87687508365E+01 0.98428071917E+01
 0.10849665942E+02 0.11669675625E+02 0.12194788097E+02 0.12402876356E+02 0.12362838179E+02