   2   2   0   0
  0.1581210E+02  0.3688443E-09  0.3688443E-09  0.3688443E-09  0.5000000E-15
  1.000000000000000E-004
  CAR 
 unknown system                          
     22.66972104     -6.63505895  301      8.67342751      1.00000000
     -6.635  0.0000E+00  0.0000E+00
     -6.537  0.0000E+00  0.0000E+00
     -6.440  0.0000E+00  0.0000E+00
     -6.342  0.0000E+00  0.0000E+00
     -6.244  0.0000E+00  0.0000E+00
     -6.147  0.0000E+00  0.0000E+00
     -6.049  0.0000E+00  0.0000E+00
     -5.951  0.0000E+00  0.0000E+00
     -5.854  0.0000E+00  0.0000E+00
     -5.756  0.1184E-16  0.1156E-17
     -5.658  0.2471E-14  0.2426E-15
     -5.561  0.3164E-12  0.3115E-13
     -5.463  0.2535E-10  0.2507E-11
     -5.365  0.1272E-08  0.1267E-09
     -5.268  0.4001E-07  0.4035E-08
     -5.170  0.7907E-06  0.8127E-07
     -5.072  0.9828E-05  0.1041E-05
     -4.974  0.7700E-04  0.8563E-05
     -4.877  0.3816E-03  0.4584E-04
     -4.779  0.1206E-02  0.1637E-03
     -4.681  0.2492E-02  0.4071E-03
     -4.584  0.3653E-02  0.7639E-03
     -4.486  0.4795E-02  0.1232E-02
     -4.388  0.7306E-02  0.1946E-02
     -4.291  0.1141E-01  0.3061E-02
     -4.193  0.1448E-01  0.4476E-02
     -4.095  0.1435E-01  0.5878E-02
     -3.998  0.1208E-01  0.7058E-02
     -3.900  0.9704E-02  0.8006E-02
     -3.802  0.8745E-02  0.8860E-02
     -3.705  0.1077E-01  0.9912E-02
     -3.607  0.1629E-01  0.1150E-01
     -3.509  0.2271E-01  0.1372E-01
     -3.412  0.2479E-01  0.1614E-01
     -3.314  0.2074E-01  0.1817E-01
     -3.216  0.1617E-01  0.1975E-01
     -3.118  0.1668E-01  0.2138E-01
     -3.021  0.2029E-01  0.2336E-01
     -2.923  0.2152E-01  0.2546E-01
     -2.825  0.1972E-01  0.2739E-01
     -2.728  0.1919E-01  0.2926E-01
     -2.630  0.2181E-01  0.3139E-01
     -2.532  0.2485E-01  0.3382E-01
     -2.435  0.2596E-01  0.3635E-01
     -2.337  0.2541E-01  0.3884E-01
     -2.239  0.2386E-01  0.4117E-01
     -2.142  0.2316E-01  0.4343E-01
     -2.044  0.2639E-01  0.4601E-01
     -1.946  0.3128E-01  0.4906E-01
     -1.849  0.3093E-01  0.5208E-01
     -1.751  0.2439E-01  0.5447E-01
     -1.653  0.1756E-01  0.5618E-01
     -1.556  0.1495E-01  0.5764E-01
     -1.458  0.1749E-01  0.5935E-01
     -1.360  0.2564E-01  0.6186E-01
     -1.263  0.3830E-01  0.6560E-01
     -1.165  0.4900E-01  0.7038E-01
     -1.067  0.5040E-01  0.7531E-01
     -0.969  0.4368E-01  0.7957E-01
     -0.872  0.3678E-01  0.8317E-01
     -0.774  0.3360E-01  0.8645E-01
     -0.676  0.3087E-01  0.8946E-01
     -0.579  0.2597E-01  0.9200E-01
     -0.481  0.2090E-01  0.9404E-01
     -0.383  0.1830E-01  0.9583E-01
     -0.286  0.1964E-01  0.9775E-01
     -0.188  0.2507E-01  0.1002E+00
     -0.090  0.3184E-01  0.1033E+00
      0.007  0.3624E-01  0.1068E+00
      0.105  0.3874E-01  0.1106E+00
      0.203  0.4246E-01  0.1148E+00
      0.300  0.4734E-01  0.1194E+00
      0.398  0.4988E-01  0.1243E+00
      0.496  0.4798E-01  0.1290E+00
      0.593  0.4405E-01  0.1333E+00
      0.691  0.4119E-01  0.1373E+00
      0.789  0.4098E-01  0.1413E+00
      0.887  0.4338E-01  0.1455E+00
      0.984  0.4517E-01  0.1499E+00
      1.082  0.4698E-01  0.1545E+00
      1.180  0.5345E-01  0.1598E+00
      1.277  0.5905E-01  0.1655E+00
      1.375  0.5212E-01  0.1706E+00
      1.473  0.3491E-01  0.1740E+00
      1.570  0.2080E-01  0.1761E+00
      1.668  0.1569E-01  0.1776E+00
      1.766  0.1554E-01  0.1791E+00
      1.863  0.1632E-01  0.1807E+00
      1.961  0.1972E-01  0.1826E+00
      2.059  0.2887E-01  0.1854E+00
      2.156  0.4124E-01  0.1895E+00
      2.254  0.5078E-01  0.1944E+00
      2.352  0.5383E-01  0.1997E+00
      2.449  0.5106E-01  0.2047E+00
      2.547  0.4712E-01  0.2093E+00
      2.645  0.4591E-01  0.2138E+00
      2.742  0.4668E-01  0.2183E+00
      2.840  0.4785E-01  0.2230E+00
      2.938  0.4929E-01  0.2278E+00
      3.036  0.4763E-01  0.2325E+00
      3.133  0.3811E-01  0.2362E+00
      3.231  0.2541E-01  0.2387E+00
      3.329  0.2038E-01  0.2407E+00
      3.426  0.2549E-01  0.2432E+00
      3.524  0.3311E-01  0.2464E+00
      3.622  0.3626E-01  0.2499E+00
      3.719  0.3489E-01  0.2533E+00
      3.817  0.3291E-01  0.2566E+00
      3.915  0.3507E-01  0.2600E+00
      4.012  0.4558E-01  0.2644E+00
      4.110  0.6349E-01  0.2706E+00
      4.208  0.7835E-01  0.2783E+00
      4.305  0.8019E-01  0.2861E+00
      4.403  0.7295E-01  0.2932E+00
      4.501  0.6494E-01  0.2996E+00
      4.598  0.5623E-01  0.3051E+00
      4.696  0.4651E-01  0.3096E+00
      4.794  0.4064E-01  0.3136E+00
      4.891  0.4121E-01  0.3176E+00
      4.989  0.4336E-01  0.3219E+00
      5.087  0.4067E-01  0.3258E+00
      5.185  0.3539E-01  0.3293E+00
      5.282  0.3639E-01  0.3328E+00
      5.380  0.4652E-01  0.3374E+00
      5.478  0.5863E-01  0.3431E+00
      5.575  0.6426E-01  0.3494E+00
      5.673  0.6402E-01  0.3556E+00
      5.771  0.6585E-01  0.3621E+00
      5.868  0.6957E-01  0.3689E+00
      5.966  0.6689E-01  0.3754E+00
      6.064  0.5753E-01  0.3810E+00
      6.161  0.4902E-01  0.3858E+00
      6.259  0.4680E-01  0.3904E+00
      6.357  0.5177E-01  0.3954E+00
      6.454  0.5945E-01  0.4012E+00
      6.552  0.6263E-01  0.4074E+00
      6.650  0.5951E-01  0.4132E+00
      6.747  0.5583E-01  0.4186E+00
      6.845  0.5898E-01  0.4244E+00
      6.943  0.6941E-01  0.4312E+00
      7.041  0.8023E-01  0.4390E+00
      7.138  0.8769E-01  0.4476E+00
      7.236  0.9134E-01  0.4565E+00
      7.334  0.8812E-01  0.4651E+00
      7.431  0.7834E-01  0.4728E+00
      7.529  0.6665E-01  0.4793E+00
      7.627  0.5555E-01  0.4847E+00
      7.724  0.4718E-01  0.4893E+00
      7.822  0.4303E-01  0.4935E+00
      7.920  0.4107E-01  0.4975E+00
      8.017  0.3999E-01  0.5014E+00
      8.115  0.4083E-01  0.5054E+00
      8.213  0.4311E-01  0.5096E+00
      8.310  0.4402E-01  0.5139E+00
      8.408  0.4385E-01  0.5182E+00
      8.506  0.4824E-01  0.5229E+00
      8.603  0.5885E-01  0.5287E+00
      8.701  0.6695E-01  0.5352E+00
      8.799  0.6353E-01  0.5414E+00
      8.896  0.5381E-01  0.5467E+00
      8.994  0.5272E-01  0.5518E+00
      9.092  0.6151E-01  0.5578E+00
      9.190  0.6197E-01  0.5639E+00
      9.287  0.4479E-01  0.5683E+00
      9.385  0.2412E-01  0.5706E+00
      9.483  0.1545E-01  0.5721E+00
      9.580  0.1977E-01  0.5741E+00
      9.678  0.2939E-01  0.5769E+00
      9.776  0.3690E-01  0.5805E+00
      9.873  0.4077E-01  0.5845E+00
      9.971  0.4427E-01  0.5888E+00
     10.069  0.4801E-01  0.5935E+00
     10.166  0.4852E-01  0.5983E+00
     10.264  0.4643E-01  0.6028E+00
     10.362  0.4779E-01  0.6075E+00
     10.459  0.5607E-01  0.6129E+00
     10.557  0.6795E-01  0.6196E+00
     10.655  0.7549E-01  0.6270E+00
     10.752  0.7552E-01  0.6343E+00
     10.850  0.7376E-01  0.6415E+00
     10.948  0.7266E-01  0.6486E+00
     11.045  0.6749E-01  0.6552E+00
     11.143  0.5861E-01  0.6610E+00
     11.241  0.5609E-01  0.6664E+00
     11.339  0.6803E-01  0.6731E+00
     11.436  0.8856E-01  0.6817E+00
     11.534  0.1047E+00  0.6920E+00
     11.632  0.1092E+00  0.7026E+00
     11.729  0.1014E+00  0.7125E+00
     11.827  0.8325E-01  0.7207E+00
     11.925  0.6121E-01  0.7266E+00
     12.022  0.4408E-01  0.7309E+00
     12.120  0.3498E-01  0.7344E+00
     12.218  0.2989E-01  0.7373E+00
     12.315  0.2949E-01  0.7402E+00
     12.413  0.4081E-01  0.7442E+00
     12.511  0.6153E-01  0.7502E+00
     12.608  0.7697E-01  0.7577E+00
     12.706  0.7783E-01  0.7653E+00
     12.804  0.7114E-01  0.7722E+00
     12.901  0.6853E-01  0.7789E+00
     12.999  0.7035E-01  0.7858E+00
     13.097  0.6831E-01  0.7925E+00
     13.195  0.5924E-01  0.7983E+00
     13.292  0.4890E-01  0.8030E+00
     13.390  0.4566E-01  0.8075E+00
     13.488  0.5647E-01  0.8130E+00
     13.585  0.8174E-01  0.8210E+00
     13.683  0.1067E+00  0.8314E+00
     13.781  0.1137E+00  0.8425E+00
     13.878  0.1056E+00  0.8528E+00
     13.976  0.9512E-01  0.8621E+00
     14.074  0.8475E-01  0.8704E+00
     14.171  0.7171E-01  0.8774E+00
     14.269  0.5884E-01  0.8832E+00
     14.367  0.5280E-01  0.8883E+00
     14.464  0.5670E-01  0.8939E+00
     14.562  0.6629E-01  0.9003E+00
     14.660  0.7408E-01  0.9076E+00
     14.757  0.7526E-01  0.9149E+00
     14.855  0.6941E-01  0.9217E+00
     14.953  0.6114E-01  0.9277E+00
     15.050  0.5685E-01  0.9332E+00
     15.148  0.5789E-01  0.9389E+00
     15.246  0.6144E-01  0.9449E+00
     15.344  0.6359E-01  0.9511E+00
     15.441  0.6072E-01  0.9570E+00
     15.539  0.5452E-01  0.9624E+00
     15.637  0.4811E-01  0.9671E+00
     15.734  0.4059E-01  0.9710E+00
     15.832  0.3333E-01  0.9743E+00
     15.930  0.3029E-01  0.9772E+00
     16.027  0.3174E-01  0.9803E+00
     16.125  0.3480E-01  0.9837E+00
     16.223  0.3893E-01  0.9875E+00
     16.320  0.4703E-01  0.9921E+00
     16.418  0.5798E-01  0.9978E+00
     16.516  0.6547E-01  0.1004E+01
     16.613  0.6694E-01  0.1011E+01
     16.711  0.6303E-01  0.1017E+01
     16.809  0.5349E-01  0.1022E+01
     16.906  0.4044E-01  0.1026E+01
     17.004  0.2761E-01  0.1029E+01
     17.102  0.1788E-01  0.1031E+01
     17.199  0.1317E-01  0.1032E+01
     17.297  0.1263E-01  0.1033E+01
     17.395  0.1404E-01  0.1034E+01
     17.493  0.1694E-01  0.1036E+01
     17.590  0.2278E-01  0.1038E+01
     17.688  0.3152E-01  0.1041E+01
     17.786  0.3816E-01  0.1045E+01
     17.883  0.3686E-01  0.1049E+01
     17.981  0.2833E-01  0.1051E+01
     18.079  0.1825E-01  0.1053E+01
     18.176  0.1054E-01  0.1054E+01
     18.274  0.5647E-02  0.1055E+01
     18.372  0.2789E-02  0.1055E+01
     18.469  0.1656E-02  0.1055E+01
     18.567  0.2571E-02  0.1055E+01
     18.665  0.5666E-02  0.1056E+01
     18.762  0.9690E-02  0.1057E+01
     18.860  0.1242E-01  0.1058E+01
     18.958  0.1257E-01  0.1059E+01
     19.055  0.1024E-01  0.1060E+01
     19.153  0.6458E-02  0.1061E+01
     19.251  0.3082E-02  0.1061E+01
     19.349  0.1704E-02  0.1062E+01
     19.446  0.2642E-02  0.1062E+01
     19.544  0.4803E-02  0.1062E+01
     19.642  0.6042E-02  0.1063E+01
     19.739  0.5407E-02  0.1063E+01
     19.837  0.4298E-02  0.1064E+01
     19.935  0.3773E-02  0.1064E+01
     20.032  0.3467E-02  0.1065E+01
     20.130  0.3309E-02  0.1065E+01
     20.228  0.3257E-02  0.1065E+01
     20.325  0.2720E-02  0.1065E+01
     20.423  0.1861E-02  0.1066E+01
     20.521  0.1686E-02  0.1066E+01
     20.618  0.2398E-02  0.1066E+01
     20.716  0.2901E-02  0.1066E+01
     20.814  0.2320E-02  0.1067E+01
     20.911  0.1179E-02  0.1067E+01
     21.009  0.3787E-03  0.1067E+01
     21.107  0.7679E-04  0.1067E+01
     21.204  0.9818E-05  0.1067E+01
     21.302  0.7904E-06  0.1067E+01
     21.400  0.4001E-07  0.1067E+01
     21.498  0.1272E-08  0.1067E+01
     21.595  0.2535E-10  0.1067E+01
     21.693  0.3164E-12  0.1067E+01
     21.791  0.2472E-14  0.1067E+01
     21.888  0.1184E-16  0.1067E+01
     21.986  0.0000E+00  0.1067E+01
     22.084  0.0000E+00  0.1067E+01
     22.181  0.0000E+00  0.1067E+01
     22.279  0.0000E+00  0.1067E+01
     22.377  0.0000E+00  0.1067E+01
     22.474  0.0000E+00  0.1067E+01
     22.572  0.0000E+00  0.1067E+01
     22.670  0.0000E+00  0.1067E+01
