    2    2   15    1
  0.1581210E+02  0.3688443E-09  0.3688443E-09  0.3688443E-09  0.5000000E-15
  1.000000000000000E-004
  CAR 
 unknown system                          
      8     56      8
 
  0.6250000E-01  0.6250000E-01  0.6250000E-01  0.1562500E-01
    1       -4.227160   1.000000
    2        4.425385   1.000000
    3        6.690525   1.000000
    4        8.213237   0.999431
    5       11.846254   0.000000
    6       13.704311   0.000000
    7       14.271129   0.000000
    8       16.137884   0.000000
 
  0.1875000E+00  0.6250000E-01  0.6250000E-01  0.3125000E-01
    1       -3.010662   1.000000
    2        4.180107   1.000000
    3        6.989437   1.000000
    4        9.152456   0.000353
    5       10.808515   0.000000
    6       10.914987   0.000000
    7       13.674876   0.000000
    8       14.429412   0.000000
 
  0.3125000E+00  0.6250000E-01  0.6250000E-01  0.3125000E-01
    1       -1.013409   1.000000
    2        4.476025   1.000000
    3        5.553222   1.000000
    4        7.259490   1.000000
    5        8.609136   0.675305
    6       11.736363   0.000000
    7       13.184874   0.000000
    8       13.577500   0.000000
 
  0.4375000E+00  0.6250000E-01  0.6250000E-01  0.1562500E-01
    1        1.320131   1.000000
    2        2.236979   1.000000
    3        5.776382   1.000000
    4        6.168094   1.000000
    5        8.492109   0.900099
    6       10.572877   0.000000
    7       13.094834   0.000000
    8       14.038618   0.000000
 
 -0.6250000E-01  0.6250000E-01  0.6250000E-01  0.7812500E-02
    1       -4.635059   1.000000
    2        5.031034   1.000000
    3        5.885018   1.000000
    4        7.881610   1.000000
    5       10.979063   0.000000
    6       14.855496   0.000000
    7       17.328323   0.000000
    8       17.425176   0.000000
 
  0.1875000E+00  0.1875000E+00  0.6250000E-01  0.1562500E-01
    1       -1.196342   1.000000
    2        4.466702   1.000000
    3        6.435426   1.000000
    4        6.629582   1.000000
    5        9.578680   0.000000
    6       11.570860   0.000000
    7       12.870277   0.000000
    8       13.062365   0.000000
 
  0.3125000E+00  0.1875000E+00  0.6250000E-01  0.3125000E-01
    1        1.266946   1.000000
    2        2.965442   1.000000
    3        4.312143   1.000000
    4        5.787554   1.000000
    5        9.834168   0.000000
    6       11.570103   0.000000
    7       12.592810   0.000000
    8       14.630669   0.000000
 
  0.4375000E+00  0.1875000E+00  0.6250000E-01  0.3125000E-01
    1       -0.099113   1.000000
    2        2.734671   1.000000
    3        4.913070   1.000000
    4        7.262685   1.000000
    5        9.079920   0.002024
    6       11.738815   0.000000
    7       13.657892   0.000000
    8       14.540013   0.000000
 
 -0.4375000E+00  0.1875000E+00  0.6250000E-01  0.3125000E-01
    1       -2.262571   1.000000
    2        2.115141   1.000000
    3        7.533656   1.000000
    4        8.812241   0.163159
    5       10.339919   0.000000
    6       11.463826   0.000000
    7       12.673462   0.000000
    8       15.013343   0.000000
 
 -0.3125000E+00  0.1875000E+00  0.6250000E-01  0.1562500E-01
    1       -3.661092   1.000000
    2        2.204390   1.000000
    3        7.197370   1.000000
    4        9.137089   0.000522
    5       12.128539   0.000000
    6       13.641013   0.000000
    7       14.192272   0.000000
    8       14.816865   0.000000
 
 -0.1875000E+00  0.1875000E+00  0.6250000E-01  0.1562500E-01
    1       -4.256626   1.000000
    2        3.017198   1.000000
    3        6.001546   1.000000
    4        9.117180   0.000851
    5       12.783016   0.000000
    6       12.943915   0.000000
    7       15.863859   0.000000
    8       17.212866   0.000000
 
 -0.6250000E-01  0.1875000E+00  0.6250000E-01  0.1562500E-01
    1       -4.038421   1.000000
    2        4.143256   1.000000
    3        5.368451   1.000000
    4        9.697985   0.000000
    5       12.570765   0.000000
    6       12.693403   0.000000
    7       13.734090   0.000000
    8       15.712037   0.000000
 
  0.3125000E+00  0.3125000E+00  0.6250000E-01  0.1562500E-01
    1        1.128989   1.000000
    2        1.196058   1.000000
    3        4.720884   1.000000
    4        7.205303   1.000000
    5        9.819646   0.000000
    6       10.645582   0.000000
    7       14.684724   0.000000
    8       15.535909   0.000000
 
  0.4375000E+00  0.3125000E+00  0.6250000E-01  0.3125000E-01
    1       -1.148742   1.000000
    2        0.318539   1.000000
    3        8.059690   0.999993
    4        8.669624   0.510729
    5        9.990780   0.000000
    6       11.382656   0.000000
    7       12.481297   0.000000
    8       13.872600   0.000000
 
 -0.4375000E+00  0.3125000E+00  0.6250000E-01  0.1562500E-01
    1       -2.722574   1.000000
    2        0.231921   1.000000
    3        8.033587   0.999997
    4       10.101638   0.000000
    5       10.619553   0.000000
    6       12.704658   0.000000
    7       13.746183   0.000000
    8       13.835059   0.000000
 
 -0.3125000E+00  0.3125000E+00  0.6250000E-01  0.1562500E-01
    1       -3.502685   1.000000
    2        0.918467   1.000000
    3        6.685596   1.000000
    4       10.055663   0.000000
    5       10.809772   0.000000
    6       14.143906   0.000000
    7       15.845435   0.000000
    8       16.905350   0.000000
 
 -0.1875000E+00  0.3125000E+00  0.6250000E-01  0.3125000E-01
    1       -3.473707   1.000000
    2        2.328693   1.000000
    3        5.488642   1.000000
    4       10.651654   0.000000
    5       11.046367   0.000000
    6       12.953112   0.000000
    7       14.725918   0.000000
    8       15.629177   0.000000
 
 -0.6250000E-01  0.3125000E+00  0.6250000E-01  0.1562500E-01
    1       -2.636963   1.000000
    2        4.005221   1.000000
    3        5.375340   1.000000
    4        8.454869   0.938880
    5       11.085490   0.000000
    6       12.630863   0.000000
    7       13.291875   0.000000
    8       13.658554   0.000000
 
  0.4375000E+00  0.4375000E+00  0.6250000E-01  0.7812500E-02
    1       -1.420019   1.000000
    2       -1.420019   1.000000
    3        9.178145   0.000179
    4        9.178146   0.000179
    5       11.352432   0.000000
    6       11.352434   0.000000
    7       13.550414   0.000000
    8       13.550415   0.000000
 
 -0.4375000E+00  0.4375000E+00  0.6250000E-01  0.1562500E-01
    1       -2.379582   1.000000
    2       -0.898658   1.000000
    3        7.728825   1.000000
    4        9.110619   0.000996
    5       11.167593   0.000000
    6       12.540093   0.000000
    7       16.610798   0.000000
    8       16.708898   0.000000
 
 -0.3125000E+00  0.4375000E+00  0.6250000E-01  0.3125000E-01
    1       -2.537898   1.000000
    2        0.399265   1.000000
    3        6.322013   1.000000
    4        9.052286   0.003693
    5       11.401954   0.000000
    6       12.876829   0.000000
    7       14.816287   0.000000
    8       15.338453   0.000000
 
 -0.1875000E+00  0.4375000E+00  0.6250000E-01  0.3125000E-01
    1       -1.893151   1.000000
    2        2.399292   1.000000
    3        5.581298   1.000000
    4        7.816072   1.000000
    5        9.675480   0.000000
    6       12.490355   0.000000
    7       13.984660   0.000000
    8       15.323283   0.000000
 
 -0.6250000E-01  0.4375000E+00  0.6250000E-01  0.1562500E-01
    1       -0.467583   1.000000
    2        4.051528   1.000000
    3        5.202978   1.000000
    4        5.992305   1.000000
    5        9.140492   0.000479
    6       11.554587   0.000000
    7       11.868888   0.000000
    8       15.157125   0.000000
 
 -0.4375000E+00 -0.4375000E+00  0.6250000E-01  0.1562500E-01
    1       -1.243867   1.000000
    2       -1.237250   1.000000
    3        7.520430   1.000000
    4        7.534228   1.000000
    5       11.492962   0.000000
    6       13.384036   0.000000
    7       14.223458   0.000000
    8       14.824387   0.000000
 
 -0.3125000E+00 -0.4375000E+00  0.6250000E-01  0.3125000E-01
    1       -0.787752   1.000000
    2        0.661459   1.000000
    3        6.479378   1.000000
    4        7.395383   1.000000
    5        8.257081   0.998380
    6       12.142608   0.000000
    7       15.078536   0.000000
    8       16.382956   0.000000
 
 -0.1875000E+00 -0.4375000E+00  0.6250000E-01  0.3125000E-01
    1        0.429598   1.000000
    2        3.047751   1.000000
    3        4.213921   1.000000
    4        6.425126   1.000000
    5        8.652328   0.559301
    6       10.586875   0.000000
    7       13.089585   0.000000
    8       16.467746   0.000000
 
 -0.6250000E-01 -0.4375000E+00  0.6250000E-01  0.1562500E-01
    1        0.915448   1.000000
    2        2.642719   1.000000
    3        6.229178   1.000000
    4        6.960784   1.000000
    5        7.578138   1.000000
    6       10.189098   0.000000
    7       11.628367   0.000000
    8       15.372707   0.000000
 
 -0.3125000E+00 -0.3125000E+00  0.6250000E-01  0.1562500E-01
    1        1.563237   1.000000
    2        1.739050   1.000000
    3        3.914761   1.000000
    4        7.296376   1.000000
    5        7.703930   1.000000
    6       10.209827   0.000000
    7       14.940344   0.000000
    8       15.606215   0.000000
 
 -0.1875000E+00 -0.3125000E+00  0.6250000E-01  0.3125000E-01
    1        0.602520   1.000000
    2        3.640561   1.000000
    3        4.981409   1.000000
    4        7.156046   1.000000
    5        8.264942   0.998064
    6       10.073703   0.000000
    7       11.663890   0.000000
    8       14.065090   0.000000
 
 -0.6250000E-01 -0.3125000E+00  0.6250000E-01  0.1562500E-01
    1       -1.566457   1.000000
    2        5.821936   1.000000
    3        6.831168   1.000000
    4        7.201863   1.000000
    5        8.438356   0.951764
    6       10.918401   0.000000
    7       11.644456   0.000000
    8       13.317113   0.000000
 
 -0.1875000E+00 -0.1875000E+00  0.6250000E-01  0.1562500E-01
    1       -1.751480   1.000000
    2        6.452028   1.000000
    3        7.119138   1.000000
    4        7.415895   1.000000
    5        8.775078   0.236138
    6       10.429879   0.000000
    7       11.615732   0.000000
    8       11.839043   0.000000
 
 -0.6250000E-01 -0.1875000E+00  0.6250000E-01  0.1562500E-01
    1       -3.386209   1.000000
    2        6.139761   1.000000
    3        6.885411   1.000000
    4        8.736453   0.327923
    5       10.864993   0.000000
    6       11.295192   0.000000
    7       12.088904   0.000000
    8       13.829413   0.000000
 
 -0.6250000E-01 -0.6250000E-01  0.6250000E-01  0.3906250E-02
    1       -4.416336   1.000000
    2        6.520828   1.000000
    3        6.520828   1.000000
    4        6.793168   1.000000
    5       10.733859   0.000000
    6       14.499347   0.000000
    7       14.614984   0.000000
    8       16.493729   0.000000
 
  0.1875000E+00  0.1875000E+00  0.1875000E+00  0.1562500E-01
    1       -0.277538   1.000000
    2        2.592831   1.000000
    3        6.004597   1.000000
    4        6.094348   1.000000
    5       10.571250   0.000000
    6       12.413262   0.000000
    7       13.639542   0.000000
    8       14.079793   0.000000
 
  0.3125000E+00  0.1875000E+00  0.1875000E+00  0.1562500E-01
    1        2.026548   1.000000
    2        2.773661   1.000000
    3        3.802934   1.000000
    4        4.452175   1.000000
    5       11.495545   0.000000
    6       13.414313   0.000000
    7       13.721741   0.000000
    8       13.906177   0.000000
 
 -0.1875000E+00  0.1875000E+00  0.1875000E+00  0.7812500E-02
    1       -3.879992   1.000000
    2        2.839275   1.000000
    3        4.263494   1.000000
    4       10.661603   0.000000
    5       11.239718   0.000000
    6       14.017795   0.000000
    7       16.258523   0.000000
    8       16.775179   0.000000
 
  0.3125000E+00  0.3125000E+00  0.1875000E+00  0.7812500E-02
    1        0.993360   1.000000
    2        0.993360   1.000000
    3        5.884401   1.000000
    4        5.884401   1.000000
    5       11.821381   0.000000
    6       11.821383   0.000000
    7       13.625515   0.000000
    8       13.625520   0.000000
 
 -0.3125000E+00  0.3125000E+00  0.1875000E+00  0.1562500E-01
    1       -3.130120   1.000000
    2        1.207680   1.000000
    3        4.483252   1.000000
    4        8.632934   0.612689
    5       12.578422   0.000000
    6       15.489703   0.000000
    7       16.089561   0.000000
    8       16.869391   0.000000
 
 -0.1875000E+00  0.3125000E+00  0.1875000E+00  0.1562500E-01
    1       -2.913524   1.000000
    2        2.303789   1.000000
    3        3.818247   1.000000
    4        8.788428   0.208058
    5       11.386355   0.000000
    6       14.016645   0.000000
    7       16.033887   0.000000
    8       16.344610   0.000000
 
 -0.4375000E+00  0.4375000E+00  0.1875000E+00  0.1562500E-01
    1       -2.014986   1.000000
    2       -0.551706   1.000000
    3        5.491779   1.000000
    4        6.892661   1.000000
    5       13.625262   0.000000
    6       14.625993   0.000000
    7       16.182984   0.000000
    8       16.565859   0.000000
 
 -0.3125000E+00  0.4375000E+00  0.1875000E+00  0.3125000E-01
    1       -1.987131   1.000000
    2        0.864347   1.000000
    3        4.179188   1.000000
    4        6.916781   1.000000
    5       11.024960   0.000000
    6       15.331492   0.000000
    7       16.396066   0.000000
    8       17.844166   0.000000
 
 -0.1875000E+00  0.4375000E+00  0.1875000E+00  0.1562500E-01
    1       -1.159673   1.000000
    2        2.536476   1.000000
    3        4.093193   1.000000
    4        7.009996   1.000000
    5        7.919319   1.000000
    6       13.732558   0.000000
    7       15.146177   0.000000
    8       16.479563   0.000000
 
 -0.4375000E+00 -0.4375000E+00  0.1875000E+00  0.1562500E-01
    1       -0.717429   1.000000
    2       -0.703405   1.000000
    3        5.342879   1.000000
    4        5.365237   1.000000
    5       10.880254   0.000000
    6       16.000122   0.000000
    7       16.667006   0.000000
    8       16.980063   0.000000
 
 -0.3125000E+00 -0.4375000E+00  0.1875000E+00  0.3125000E-01
    1       -0.077669   1.000000
    2        1.301217   1.000000
    3        4.591866   1.000000
    4        5.855783   1.000000
    5        7.045113   1.000000
    6       13.916844   0.000000
    7       16.675829   0.000000
    8       17.716138   0.000000
 
 -0.1875000E+00 -0.4375000E+00  0.1875000E+00  0.1562500E-01
    1        1.275011   1.000000
    2        3.001746   1.000000
    3        4.167423   1.000000
    4        5.078912   1.000000
    5        7.267599   1.000000
    6       11.699408   0.000000
    7       13.029295   0.000000
    8       16.639399   0.000000
 
 -0.3125000E+00 -0.3125000E+00  0.1875000E+00  0.1562500E-01
    1        2.111797   1.000000
    2        2.582015   1.000000
    3        3.649421   1.000000
    4        5.769233   1.000000
    5        5.885364   1.000000
    6       11.947266   0.000000
    7       14.406064   0.000000
    8       15.212849   0.000000
 
 -0.1875000E+00 -0.3125000E+00  0.1875000E+00  0.1562500E-01
    1        0.255428   1.000000
    2        4.635292   1.000000
    3        5.563425   1.000000
    4        6.634647   1.000000
    5        7.433433   1.000000
    6       10.452993   0.000000
    7       11.517106   0.000000
    8       13.004545   0.000000
 
 -0.1875000E+00 -0.1875000E+00  0.1875000E+00  0.3906250E-02
    1       -1.937125   1.000000
    2        7.802939   1.000000
    3        7.802940   1.000000
    4        7.898904   1.000000
    5        8.116150   0.999959
    6        9.402922   0.000000
    7       11.336056   0.000000
    8       11.336059   0.000000
 
 -0.3125000E+00  0.3125000E+00  0.3125000E+00  0.7812500E-02
    1       -2.390075   1.000000
    2        1.348955   1.000000
    3        2.939561   1.000000
    4        6.569150   1.000000
    5       14.237915   0.000000
    6       15.119409   0.000000
    7       16.681578   0.000000
    8       18.106483   0.000000
 
 -0.4375000E+00  0.4375000E+00  0.3125000E+00  0.1562500E-01
    1       -1.297214   1.000000
    2        0.096298   1.000000
    3        3.460220   1.000000
    4        4.817639   1.000000
    5       14.569143   0.000000
    6       14.756723   0.000000
    7       17.661894   0.000000
    8       18.731261   0.000000
 
 -0.3125000E+00  0.4375000E+00  0.3125000E+00  0.1562500E-01
    1       -1.083523   1.000000
    2        1.182289   1.000000
    3        2.802830   1.000000
    4        5.015113   1.000000
    5       10.570991   0.000000
    6       17.491256   0.000000
    7       17.850844   0.000000
    8       18.864873   0.000000
 
 -0.4375000E+00 -0.4375000E+00  0.3125000E+00  0.1562500E-01
    1        0.109045   1.000000
    2        0.133389   1.000000
    3        3.482422   1.000000
    4        3.497337   1.000000
    5       10.410363   0.000000
    6       17.733216   0.000000
    7       19.016141   0.000000
    8       19.585812   0.000000
 
 -0.3125000E+00 -0.4375000E+00  0.3125000E+00  0.1562500E-01
    1        0.928513   1.000000
    2        1.794468   1.000000
    3        3.417802   1.000000
    4        4.253542   1.000000
    5        6.614083   1.000000
    6       15.585147   0.000000
    7       16.815896   0.000000
    8       17.992170   0.000000
 
 -0.3125000E+00 -0.3125000E+00  0.3125000E+00  0.3906250E-02
    1        2.327090   1.000000
    2        3.295883   1.000000
    3        4.045917   1.000000
    4        4.756838   1.000000
    5        4.756838   1.000000
    6       13.666500   0.000000
    7       14.224738   0.000000
    8       14.224744   0.000000
 
 -0.4375000E+00  0.4375000E+00  0.4375000E+00  0.7812500E-02
    1       -0.277403   1.000000
    2        0.595546   1.000000
    3        2.249951   1.000000
    4        3.111099   1.000000
    5       14.470025   0.000000
    6       14.507834   0.000000
    7       19.903097   0.000000
    8       20.669721   0.000000
 
 -0.4375000E+00 -0.4375000E+00  0.4375000E+00  0.3906250E-02
    1        0.785863   1.000000
    2        0.825306   1.000000
    3        2.456921   1.000000
    4        2.456921   1.000000
    5       10.246863   0.000000
    6       18.246294   0.000000
    7       20.184178   0.000000
    8       20.232457   0.000000
