       N       E                     dE             d eps       ncg     rms          rms(c)
DAV:   1     0.838303566802E+00    0.83830E+00   -0.26651E+03   912   0.594E+02
DAV:   2    -0.101492119732E+02   -0.10988E+02   -0.10430E+02  1288   0.615E+01
DAV:   3    -0.102675679665E+02   -0.11836E+00   -0.11783E+00  1288   0.814E+00
DAV:   4    -0.102678645890E+02   -0.29662E-03   -0.29662E-03  1320   0.384E-01
DAV:   5    -0.102678649673E+02   -0.37831E-06   -0.37745E-06  1280   0.845E-03    0.154E+00
DAV:   6    -0.102615612350E+02    0.63037E-02   -0.36301E-03  1064   0.402E-01    0.955E-01
DAV:   7    -0.102571245941E+02    0.44366E-02   -0.94938E-03  1144   0.676E-01    0.503E-02
DAV:   8    -0.102570734569E+02    0.51137E-04   -0.38099E-04   600   0.142E-01
   1 F= -.10257073E+02 E0= -.10246893E+02  d E =-.102571E+02
