 vasp.5.4.4.18Apr17-6-g9f103f2a35 (build Dec 09 2018 21:25:21) complex          
  
 executed on IFC18.0.1.163_CrayMP date 2019.03.23  21:13:49
 running on    8 total cores
 distrk:  each k-point on    8 cores,    1 groups
 distr:  one band on NCORES_PER_BAND=   1 cores,    8 groups


--------------------------------------------------------------------------------------------------------


 INCAR:
 POTCAR:   PAW_PBE Si 05Jan2001                   

 ----------------------------------------------------------------------------- 
|                                                                             |
|           W    W    AA    RRRRR   N    N  II  N    N   GGGG   !!!           |
|           W    W   A  A   R    R  NN   N  II  NN   N  G    G  !!!           |
|           W    W  A    A  R    R  N N  N  II  N N  N  G       !!!           |
|           W WW W  AAAAAA  RRRRR   N  N N  II  N  N N  G  GGG   !            |
|           WW  WW  A    A  R   R   N   NN  II  N   NN  G    G                |
|           W    W  A    A  R    R  N    N  II  N    N   GGGG   !!!           |
|                                                                             |
|      For optimal performance we recommend to set                            |
|        NCORE= 4 - approx SQRT( number of cores)                             |
|      NCORE specifies how many cores store one orbital (NPAR=cpu/NCORE).     |
|      This setting can  greatly improve the performance of VASP for DFT.     |
|      The default,   NCORE=1            might be grossly inefficient         |
|      on modern multi-core architectures or massively parallel machines.     |
|      Do your own testing !!!!                                               |
|      Unfortunately you need to use the default for GW and RPA calculations. |
|      (for HF NCORE is supported but not extensively tested yet)             |
|                                                                             |
 ----------------------------------------------------------------------------- 

 POTCAR:   PAW_PBE Si 05Jan2001                   
   VRHFIN =Si: s2p2                                                             
   LEXCH  = PE                                                                  
   EATOM  =   103.0669 eV,    7.5752 Ry                                         
                                                                                
   TITEL  = PAW_PBE Si 05Jan2001                                                
   LULTRA =        F    use ultrasoft PP ?                                      
   IUNSCR =        1    unscreen: 0-lin 1-nonlin 2-no                           
   RPACOR =    1.500    partial core radius                                     
   POMASS =   28.085; ZVAL   =    4.000    mass and valenz                      
   RCORE  =    1.900    outmost cutoff radius                                   
   RWIGS  =    2.480; RWIGS  =    1.312    wigner-seitz radius (au A)           
   ENMAX  =  245.345; ENMIN  =  184.009 eV                                      
   ICORE  =        2    local potential                                         
   LCOR   =        T    correct aug charges                                     
   LPAW   =        T    paw PP                                                  
   EAUG   =  322.069                                                            
   DEXC   =    -.007                                                            
   RMAX   =    2.944    core radius for proj-oper                               
   RAUG   =    1.300    factor for augmentation sphere                          
   RDEP   =    1.993    radius for radial grids                                 
   QCUT   =   -4.246; QGAM   =    8.493    optimization parameters              
                                                                                
   Description                                                                  
     l     E      TYP  RCUT    TYP  RCUT                                        
     0   .000     23  1.900                                                     
     0   .000     23  1.900                                                     
     1   .000     23  1.900                                                     
     1   .000     23  1.900                                                     
     2   .000      7  1.900                                                     
  local pseudopotential read in
  partial core-charges read in
  atomic valenz-charges read in
  non local Contribution for L=           0  read in
    real space projection operators read in
  non local Contribution for L=           0  read in
    real space projection operators read in
  non local Contribution for L=           1  read in
    real space projection operators read in
  non local Contribution for L=           1  read in
    real space projection operators read in
    PAW grid and wavefunctions read in
 
   number of l-projection  operators is LMAX  =           4
   number of lm-projection operators is LMMAX =           8
 
 PAW_PBE Si 05Jan2001                   :
 energy of atom  1       EATOM= -103.0669
 kinetic energy error for atom=    0.0013 (will be added to EATOM!!)
 
 
 POSCAR: Si2                                     
  positions in direct lattice
  No initial velocities read in
 exchange correlation table for  LEXCH =        8
   RHO(1)=    0.500       N(1)  =     2000
   RHO(2)=  100.500       N(2)  =     4000
 


--------------------------------------------------------------------------------------------------------


 ion  position               nearest neighbor table
   1  0.750  0.250  0.500-   2 2.52   2 2.52   2 2.52   2 2.52
   2  0.500  0.500  0.000-   1 2.52   1 2.52   1 2.52   1 2.52
 
  LATTYP: Found a body centered tetragonal cell.
 ALAT       =     4.8606400000
 C/A-ratio  =     0.5507686231
  
  Lattice vectors:
  
 A1 = (  -2.4303200000,   2.4303200000,   1.3385440000)
 A2 = (   2.4303200000,  -2.4303200000,   1.3385440000)
 A3 = (   2.4303200000,   2.4303200000,  -1.3385440000)


Analysis of symmetry for initial positions (statically):
=====================================================================
 Subroutine PRICEL returns:
 Original cell was already a primitive cell.
 

 Routine SETGRP: Setting up the symmetry group for a 
 body centered tetragonal supercell.


 Subroutine GETGRP returns: Found 16 space group operations
 (whereof  8 operations were pure point group operations)
 out of a pool of 16 trial point group operations.


The static configuration has the point symmetry D_2d.
 The point group associated with its full space group is D_4h.


Analysis of symmetry for dynamics (positions and initial velocities):
=====================================================================
 Subroutine PRICEL returns:
 Original cell was already a primitive cell.
 

 Routine SETGRP: Setting up the symmetry group for a 
 body centered tetragonal supercell.


 Subroutine GETGRP returns: Found 16 space group operations
 (whereof  8 operations were pure point group operations)
 out of a pool of 16 trial point group operations.


The dynamic configuration has the point symmetry D_2d.
 The point group associated with its full space group is D_4h.


 Subroutine INISYM returns: Found 16 space group operations
 (whereof  8 operations are pure point group operations),
 and found     1 'primitive' translations

 
 
 KPOINTS: Automatic kpoint scheme                 

Automatic generation of k-mesh.
Space group operators:
 irot       det(A)        alpha          n_x          n_y          n_z        tau_x        tau_y        tau_z
    1     1.000000     0.000000     1.000000     0.000000     0.000000     0.000000     0.000000     0.000000
    2    -1.000000    90.000000    -0.000000     0.000000    -1.000000     0.000000     0.000000     0.000000
    3     1.000000   180.000000    -0.000000    -0.000000    -1.000000     0.000000     0.000000     0.000000
    4    -1.000000    90.000000     0.000000     0.000000     1.000000     0.000000     0.000000     0.000000
    5    -1.000000   180.000000    -0.000000     1.000000    -0.000000     0.000000     0.000000     0.000000
    6     1.000000   180.000000     0.707107     0.707107     0.000000     0.000000     0.000000     0.000000
    7    -1.000000   180.000000     1.000000     0.000000     0.000000     0.000000     0.000000     0.000000
    8     1.000000   180.000000     0.707107    -0.707107    -0.000000     0.000000     0.000000     0.000000
    9    -1.000000     0.000000     1.000000     0.000000     0.000000     0.250000     0.750000     0.500000
   10     1.000000    90.000000    -0.000000     0.000000    -1.000000     0.250000     0.750000     0.500000
   11    -1.000000   180.000000    -0.000000    -0.000000    -1.000000     0.250000     0.750000     0.500000
   12     1.000000    90.000000     0.000000     0.000000     1.000000     0.250000     0.750000     0.500000
   13     1.000000   180.000000    -0.000000     1.000000    -0.000000     0.250000     0.750000     0.500000
   14    -1.000000   180.000000     0.707107     0.707107     0.000000     0.250000     0.750000     0.500000
   15     1.000000   180.000000     1.000000     0.000000     0.000000     0.250000     0.750000     0.500000
   16    -1.000000   180.000000     0.707107    -0.707107    -0.000000     0.250000     0.750000     0.500000
 
 Subroutine IBZKPT returns following result:
 ===========================================
 
 Found     56 irreducible k-points:
 
 Following reciprocal coordinates:
            Coordinates               Weight
  0.062500  0.062500  0.062500    128.000000
  0.187500  0.062500  0.062500    256.000000
  0.312500  0.062500  0.062500    256.000000
  0.437500  0.062500  0.062500    128.000000
 -0.062500  0.062500  0.062500     64.000000
  0.187500  0.187500  0.062500    128.000000
  0.312500  0.187500  0.062500    256.000000
  0.437500  0.187500  0.062500    256.000000
 -0.437500  0.187500  0.062500    256.000000
 -0.312500  0.187500  0.062500    128.000000
 -0.187500  0.187500  0.062500    128.000000
 -0.062500  0.187500  0.062500    128.000000
  0.312500  0.312500  0.062500    128.000000
  0.437500  0.312500  0.062500    256.000000
 -0.437500  0.312500  0.062500    128.000000
 -0.312500  0.312500  0.062500    128.000000
 -0.187500  0.312500  0.062500    256.000000
 -0.062500  0.312500  0.062500    128.000000
  0.437500  0.437500  0.062500     64.000000
 -0.437500  0.437500  0.062500    128.000000
 -0.312500  0.437500  0.062500    256.000000
 -0.187500  0.437500  0.062500    256.000000
 -0.062500  0.437500  0.062500    128.000000
 -0.437500 -0.437500  0.062500    128.000000
 -0.312500 -0.437500  0.062500    256.000000
 -0.187500 -0.437500  0.062500    256.000000
 -0.062500 -0.437500  0.062500    128.000000
 -0.312500 -0.312500  0.062500    128.000000
 -0.187500 -0.312500  0.062500    256.000000
 -0.062500 -0.312500  0.062500    128.000000
 -0.187500 -0.187500  0.062500    128.000000
 -0.062500 -0.187500  0.062500    128.000000
 -0.062500 -0.062500  0.062500     32.000000
  0.187500  0.187500  0.187500    128.000000
  0.312500  0.187500  0.187500    128.000000
 -0.187500  0.187500  0.187500     64.000000
  0.312500  0.312500  0.187500     64.000000
 -0.312500  0.312500  0.187500    128.000000
 -0.187500  0.312500  0.187500    128.000000
 -0.437500  0.437500  0.187500    128.000000
 -0.312500  0.437500  0.187500    256.000000
 -0.187500  0.437500  0.187500    128.000000
 -0.437500 -0.437500  0.187500    128.000000
 -0.312500 -0.437500  0.187500    256.000000
 -0.187500 -0.437500  0.187500    128.000000
 -0.312500 -0.312500  0.187500    128.000000
 -0.187500 -0.312500  0.187500    128.000000
 -0.187500 -0.187500  0.187500     32.000000
 -0.312500  0.312500  0.312500     64.000000
 -0.437500  0.437500  0.312500    128.000000
 -0.312500  0.437500  0.312500    128.000000
 -0.437500 -0.437500  0.312500    128.000000
 -0.312500 -0.437500  0.312500    128.000000
 -0.312500 -0.312500  0.312500     32.000000
 -0.437500  0.437500  0.437500     64.000000
 -0.437500 -0.437500  0.437500     32.000000
 
 Following cartesian coordinates:
            Coordinates               Weight
  0.025717  0.025717  0.046693    128.000000
  0.025717  0.051434  0.093385    256.000000
  0.025717  0.077150  0.140078    256.000000
  0.025717  0.102867  0.186770    128.000000
  0.025717  0.000000  0.000000     64.000000
  0.051434  0.051434  0.140078    128.000000
  0.051434  0.077150  0.186770    256.000000
  0.051434  0.102867  0.233463    256.000000
  0.051434 -0.077150 -0.093385    256.000000
  0.051434 -0.051434 -0.046693    128.000000
  0.051434 -0.025717 -0.000000    128.000000
  0.051434  0.000000  0.046693    128.000000
  0.077150  0.077150  0.233463    128.000000
  0.077150  0.102867  0.280155    256.000000
  0.077150 -0.077150 -0.046693    128.000000
  0.077150 -0.051434  0.000000    128.000000
  0.077150 -0.025717  0.046693    256.000000
  0.077150  0.000000  0.093385    128.000000
  0.102867  0.102867  0.326848     64.000000
  0.102867 -0.077150  0.000000    128.000000
  0.102867 -0.051434  0.046693    256.000000
  0.102867 -0.025717  0.093385    256.000000
  0.102867  0.000000  0.140078    128.000000
 -0.077150 -0.077150 -0.326848    128.000000
 -0.077150 -0.051434 -0.280155    256.000000
 -0.077150 -0.025717 -0.233463    256.000000
 -0.077150  0.000000 -0.186770    128.000000
 -0.051434 -0.051434 -0.233463    128.000000
 -0.051434 -0.025717 -0.186770    256.000000
 -0.051434  0.000000 -0.140078    128.000000
 -0.025717 -0.025717 -0.140078    128.000000
 -0.025717  0.000000 -0.093385    128.000000
  0.000000  0.000000 -0.046693     32.000000
  0.077150  0.077150  0.140078    128.000000
  0.077150  0.102867  0.186770    128.000000
  0.077150  0.000000 -0.000000     64.000000
  0.102867  0.102867  0.233463     64.000000
  0.102867 -0.025717  0.000000    128.000000
  0.102867  0.000000  0.046693    128.000000
  0.128584 -0.051434  0.000000    128.000000
  0.128584 -0.025717  0.046693    256.000000
  0.128584  0.000000  0.093385    128.000000
 -0.051434 -0.051434 -0.326848    128.000000
 -0.051434 -0.025717 -0.280155    256.000000
 -0.051434 -0.000000 -0.233463    128.000000
 -0.025717 -0.025717 -0.233463    128.000000
 -0.025717  0.000000 -0.186770    128.000000
  0.000000  0.000000 -0.140078     32.000000
  0.128584  0.000000  0.000000     64.000000
  0.154301 -0.025717  0.000000    128.000000
  0.154301  0.000000  0.046693    128.000000
 -0.025717 -0.025717 -0.326848    128.000000
 -0.025717  0.000000 -0.280155    128.000000
  0.000000  0.000000 -0.233463     32.000000
  0.180017  0.000000  0.000000     64.000000
 -0.000000 -0.000000 -0.326848     32.000000
 


--------------------------------------------------------------------------------------------------------




 Dimension of arrays:
   k-points           NKPTS =     56   k-points in BZ     NKDIM =     56   number of bands    NBANDS=      8
   number of dos      NEDOS =    301   number of ions     NIONS =      2
   non local maximal  LDIM  =      4   non local SUM 2l+1 LMDIM =      8
   total plane-waves  NPLWV =   5832
   max r-space proj   IRMAX =      1   max aug-charges    IRDMAX=   6365
   dimension x,y,z NGX =    18 NGY =   18 NGZ =   18
   dimension x,y,z NGXF=    36 NGYF=   36 NGZF=   36
   support grid    NGXF=    36 NGYF=   36 NGZF=   36
   ions per type =               2
   NGX,Y,Z   is equivalent  to a cutoff of   8.11,  8.11,  8.11 a.u.
   NGXF,Y,Z  is equivalent  to a cutoff of  16.23, 16.23, 16.23 a.u.

 SYSTEM =  unknown system                          
 POSCAR =  Si2                                     

 Startparameter for this run:
   NWRITE =      2    write-flag & timer
   PREC   = normal    normal or accurate (medium, high low for compatibility)
   ISTART =      0    job   : 0-new  1-cont  2-samecut
   ICHARG =      2    charge: 1-file 2-atom 10-const
   ISPIN  =      1    spin polarized calculation?
   LNONCOLLINEAR =      F non collinear calculations
   LSORBIT =      F    spin-orbit coupling
   INIWAV =      1    electr: 0-lowe 1-rand  2-diag
   LASPH  =      F    aspherical Exc in radial PAW
   METAGGA=      F    non-selfconsistent MetaGGA calc.

 Electronic Relaxation 1
   ENCUT  =  350.0 eV  25.72 Ry    5.07 a.u.   5.63  5.63  5.63*2*pi/ulx,y,z
   ENINI  =  350.0     initial cutoff
   ENAUG  =  322.1 eV  augmentation charge cutoff
   NELM   =     60;   NELMIN=  2; NELMDL= -5     # of ELM steps 
   EDIFF  = 0.4E-03   stopping-criterion for ELM
   LREAL  =      F    real-space projection
   NLSPLINE    = F    spline interpolate recip. space projectors
   LCOMPAT=      F    compatible to vasp.4.4
   GGA_COMPAT  = T    GGA compatible to vasp.4.4-vasp.4.6
   LMAXPAW     = -100 max onsite density
   LMAXMIX     =    2 max onsite mixed and CHGCAR
   VOSKOWN=      0    Vosko Wilk Nusair interpolation
   ROPT   =    0.00000
 Ionic relaxation
   EDIFFG = -.1E-01   stopping-criterion for IOM
   NSW    =     15    number of steps for IOM
   NBLOCK =      1;   KBLOCK =     15    inner block; outer block 
   IBRION =      2    ionic relax: 0-MD 1-quasi-New 2-CG
   NFREE  =      1    steps in history (QN), initial steepest desc. (CG)
   ISIF   =      2    stress and relaxation
   IWAVPR =     11    prediction:  0-non 1-charg 2-wave 3-comb
   ISYM   =      2    0-nonsym 1-usesym 2-fastsym
   LCORR  =      T    Harris-Foulkes like correction to forces

   POTIM  = 0.5000    time-step for ionic-motion
   TEIN   =    0.0    initial temperature
   TEBEG  =    0.0;   TEEND  =   0.0 temperature during run
   SMASS  =  -3.00    Nose mass-parameter (am)
   estimated Nose-frequenzy (Omega)   =  0.10E-29 period in steps =****** mass=  -0.311E-27a.u.
   SCALEE = 1.0000    scale energy and forces
   NPACO  =    256;   APACO  = 16.0  distance and # of slots for P.C.
   PSTRESS=    0.0 pullay stress

  Mass of Ions in am
   POMASS =  28.09
  Ionic Valenz
   ZVAL   =   4.00
  Atomic Wigner-Seitz radii
   RWIGS  =  -1.00
  virtual crystal weights 
   VCA    =   1.00
   NELECT =       8.0000    total number of electrons
   NUPDOWN=      -1.0000    fix difference up-down

 DOS related values:
   EMIN   =  10.00;   EMAX   =-10.00  energy-range for DOS
   EFERMI =   0.00
   ISMEAR =     0;   SIGMA  =   0.20  broadening in eV -4-tet -1-fermi 0-gaus

 Electronic relaxation 2 (details)
   IALGO  =     38    algorithm
   LDIAG  =      T    sub-space diagonalisation (order eigenvalues)
   LSUBROT=      F    optimize rotation matrix (better conditioning)
   TURBO    =      0    0=normal 1=particle mesh
   IRESTART =      0    0=no restart 2=restart with 2 vectors
   NREBOOT  =      0    no. of reboots
   NMIN     =      0    reboot dimension
   EREF     =   0.00    reference energy to select bands
   IMIX   =      4    mixing-type and parameters
     AMIX     =   0.40;   BMIX     =  1.00
     AMIX_MAG =   1.60;   BMIX_MAG =  1.00
     AMIN     =   0.10
     WC   =   100.;   INIMIX=   1;  MIXPRE=   1;  MAXMIX= -45

 Intra band minimization:
   WEIMIN = 0.0010     energy-eigenvalue tresh-hold
   EBREAK =  0.13E-04  absolut break condition
   DEPER  =   0.30     relativ break condition  

   TIME   =   0.40     timestep for ELM

  volume/ion in A,a.u.               =      15.81       106.71
  Fermi-wavevector in a.u.,A,eV,Ry     =   1.035377  1.956578 14.585507  1.072005
  Thomas-Fermi vector in A             =   2.169717
 
 Write flags
   LWAVE        =      T    write WAVECAR
   LDOWNSAMPLE  =      F    k-point downsampling of WAVECAR
   LCHARG       =      T    write CHGCAR
   LVTOT        =      F    write LOCPOT, total local potential
   LVHAR        =      F    write LOCPOT, Hartree potential only
   LELF         =      F    write electronic localiz. function (ELF)
   LORBIT       =      0    0 simple, 1 ext, 2 COOP (PROOUT), +10 PAW based schemes


 Dipole corrections
   LMONO  =      F    monopole corrections only (constant potential shift)
   LDIPOL =      F    correct potential (dipole corrections)
   IDIPOL =      0    1-x, 2-y, 3-z, 4-all directions 
   EPSILON=  1.0000000 bulk dielectric constant

 Exchange correlation treatment:
   GGA     =    --    GGA type
   LEXCH   =     8    internal setting for exchange type
   VOSKOWN=      0    Vosko Wilk Nusair interpolation
   LHFCALC =     F    Hartree Fock is set to
   LHFONE  =     F    Hartree Fock one center treatment
   AEXX    =    0.0000 exact exchange contribution

 Linear response parameters
   LEPSILON=     F    determine dielectric tensor
   LRPA    =     F    only Hartree local field effects (RPA)
   LNABLA  =     F    use nabla operator in PAW spheres
   LVEL    =     F    velocity operator in full k-point grid
   LINTERFAST=   F  fast interpolation
   KINTER  =     0    interpolate to denser k-point grid
   CSHIFT  =0.1000    complex shift for real part using Kramers Kronig
   OMEGAMAX=  -1.0    maximum frequency
   DEG_THRESHOLD= 0.2000000E-02 threshold for treating states as degnerate
   RTIME   =   -0.100 relaxation time in fs
  (WPLASMAI=    0.000 imaginary part of plasma frequency in eV, 0.658/RTIME)
   DFIELD  = 0.0000000 0.0000000 0.0000000 field for delta impulse in time
 
 Orbital magnetization related:
   ORBITALMAG=     F  switch on orbital magnetization
   LCHIMAG   =     F  perturbation theory with respect to B field
   DQ        =  0.001000  dq finite difference perturbation B field
   LLRAUG    =     F  two centre corrections for induced B field



--------------------------------------------------------------------------------------------------------


 conjugate gradient relaxation of ions
 charge density and potential will be updated during run
 non-spin polarized calculation
 Variant of blocked Davidson
 Davidson routine will perform the subspace rotation
 perform sub-space diagonalisation
    after iterative eigenvector-optimisation
 modified Broyden-mixing scheme, WC =      100.0
 initial mixing is a Kerker type mixing with AMIX =  0.4000 and BMIX =      1.0000
 Hartree-type preconditioning will be used
 using additional bands            4
 reciprocal scheme for non local part
 use partial core corrections
 calculate Harris-corrections to forces 
   (improved forces if not selfconsistent)
 use gradient corrections 
 use of overlap-Matrix (Vanderbilt PP)
 Gauss-broadening in eV      SIGMA  =   0.20


--------------------------------------------------------------------------------------------------------


  energy-cutoff  :      350.00
  volume of cell :       31.62
      direct lattice vectors                 reciprocal lattice vectors
    -2.430320000  2.430320000  1.338544000    -0.000000000  0.205734224  0.373540205
     2.430320000 -2.430320000  1.338544000     0.205734224 -0.000000000  0.373540205
     2.430320000  2.430320000 -1.338544000     0.205734224  0.205734224 -0.000000000

  length of vectors
     3.688442848  3.688442848  3.688442848     0.426449124  0.426449124  0.290952130


 
 k-points in units of 2pi/SCALE and weight: Automatic kpoint scheme                 
   0.02571678  0.02571678  0.04669253       0.016
   0.02571678  0.05143356  0.09338505       0.031
   0.02571678  0.07715033  0.14007758       0.031
   0.02571678  0.10286711  0.18677010       0.016
   0.02571678  0.00000000 -0.00000000       0.008
   0.05143356  0.05143356  0.14007758       0.016
   0.05143356  0.07715033  0.18677010       0.031
   0.05143356  0.10286711  0.23346263       0.031
   0.05143356 -0.07715033 -0.09338505       0.031
   0.05143356 -0.05143356 -0.04669253       0.016
   0.05143356 -0.02571678  0.00000000       0.016
   0.05143356 -0.00000000  0.04669253       0.016
   0.07715033  0.07715033  0.23346263       0.016
   0.07715033  0.10286711  0.28015515       0.031
   0.07715033 -0.07715033 -0.04669253       0.016
   0.07715033 -0.05143356 -0.00000000       0.016
   0.07715033 -0.02571678  0.04669253       0.031
   0.07715033  0.00000000  0.09338505       0.016
   0.10286711  0.10286711  0.32684768       0.008
   0.10286711 -0.07715033  0.00000000       0.016
   0.10286711 -0.05143356  0.04669253       0.031
   0.10286711 -0.02571678  0.09338505       0.031
   0.10286711 -0.00000000  0.14007758       0.016
  -0.07715033 -0.07715033 -0.32684768       0.016
  -0.07715033 -0.05143356 -0.28015515       0.031
  -0.07715033 -0.02571678 -0.23346263       0.031
  -0.07715033  0.00000000 -0.18677010       0.016
  -0.05143356 -0.05143356 -0.23346263       0.016
  -0.05143356 -0.02571678 -0.18677010       0.031
  -0.05143356  0.00000000 -0.14007758       0.016
  -0.02571678 -0.02571678 -0.14007758       0.016
  -0.02571678  0.00000000 -0.09338505       0.016
   0.00000000  0.00000000 -0.04669253       0.004
   0.07715033  0.07715033  0.14007758       0.016
   0.07715033  0.10286711  0.18677010       0.016
   0.07715033  0.00000000  0.00000000       0.008
   0.10286711  0.10286711  0.23346263       0.008
   0.10286711 -0.02571678 -0.00000000       0.016
   0.10286711  0.00000000  0.04669253       0.016
   0.12858389 -0.05143356  0.00000000       0.016
   0.12858389 -0.02571678  0.04669253       0.031
   0.12858389  0.00000000  0.09338505       0.016
  -0.05143356 -0.05143356 -0.32684768       0.016
  -0.05143356 -0.02571678 -0.28015515       0.031
  -0.05143356 -0.00000000 -0.23346263       0.016
  -0.02571678 -0.02571678 -0.23346263       0.016
  -0.02571678  0.00000000 -0.18677010       0.016
  -0.00000000 -0.00000000 -0.14007758       0.004
   0.12858389  0.00000000 -0.00000000       0.008
   0.15430067 -0.02571678  0.00000000       0.016
   0.15430067  0.00000000  0.04669253       0.016
  -0.02571678 -0.02571678 -0.32684768       0.016
  -0.02571678 -0.00000000 -0.28015515       0.016
   0.00000000  0.00000000 -0.23346263       0.004
   0.18001745  0.00000000  0.00000000       0.008
  -0.00000000 -0.00000000 -0.32684768       0.004
 
 k-points in reciprocal lattice and weights: Automatic kpoint scheme                 
   0.06250000  0.06250000  0.06250000       0.016
   0.18750000  0.06250000  0.06250000       0.031
   0.31250000  0.06250000  0.06250000       0.031
   0.43750000  0.06250000  0.06250000       0.016
  -0.06250000  0.06250000  0.06250000       0.008
   0.18750000  0.18750000  0.06250000       0.016
   0.31250000  0.18750000  0.06250000       0.031
   0.43750000  0.18750000  0.06250000       0.031
  -0.43750000  0.18750000  0.06250000       0.031
  -0.31250000  0.18750000  0.06250000       0.016
  -0.18750000  0.18750000  0.06250000       0.016
  -0.06250000  0.18750000  0.06250000       0.016
   0.31250000  0.31250000  0.06250000       0.016
   0.43750000  0.31250000  0.06250000       0.031
  -0.43750000  0.31250000  0.06250000       0.016
  -0.31250000  0.31250000  0.06250000       0.016
  -0.18750000  0.31250000  0.06250000       0.031
  -0.06250000  0.31250000  0.06250000       0.016
   0.43750000  0.43750000  0.06250000       0.008
  -0.43750000  0.43750000  0.06250000       0.016
  -0.31250000  0.43750000  0.06250000       0.031
  -0.18750000  0.43750000  0.06250000       0.031
  -0.06250000  0.43750000  0.06250000       0.016
  -0.43750000 -0.43750000  0.06250000       0.016
  -0.31250000 -0.43750000  0.06250000       0.031
  -0.18750000 -0.43750000  0.06250000       0.031
  -0.06250000 -0.43750000  0.06250000       0.016
  -0.31250000 -0.31250000  0.06250000       0.016
  -0.18750000 -0.31250000  0.06250000       0.031
  -0.06250000 -0.31250000  0.06250000       0.016
  -0.18750000 -0.18750000  0.06250000       0.016
  -0.06250000 -0.18750000  0.06250000       0.016
  -0.06250000 -0.06250000  0.06250000       0.004
   0.18750000  0.18750000  0.18750000       0.016
   0.31250000  0.18750000  0.18750000       0.016
  -0.18750000  0.18750000  0.18750000       0.008
   0.31250000  0.31250000  0.18750000       0.008
  -0.31250000  0.31250000  0.18750000       0.016
  -0.18750000  0.31250000  0.18750000       0.016
  -0.43750000  0.43750000  0.18750000       0.016
  -0.31250000  0.43750000  0.18750000       0.031
  -0.18750000  0.43750000  0.18750000       0.016
  -0.43750000 -0.43750000  0.18750000       0.016
  -0.31250000 -0.43750000  0.18750000       0.031
  -0.18750000 -0.43750000  0.18750000       0.016
  -0.31250000 -0.31250000  0.18750000       0.016
  -0.18750000 -0.31250000  0.18750000       0.016
  -0.18750000 -0.18750000  0.18750000       0.004
  -0.31250000  0.31250000  0.31250000       0.008
  -0.43750000  0.43750000  0.31250000       0.016
  -0.31250000  0.43750000  0.31250000       0.016
  -0.43750000 -0.43750000  0.31250000       0.016
  -0.31250000 -0.43750000  0.31250000       0.016
  -0.31250000 -0.31250000  0.31250000       0.004
  -0.43750000  0.43750000  0.43750000       0.008
  -0.43750000 -0.43750000  0.43750000       0.004
 
 position of ions in fractional coordinates (direct lattice) 
   0.75000000  0.25000000  0.50000000
   0.50000000  0.50000000  0.00000000
 
 position of ions in cartesian coordinates  (Angst):
   0.00000000  2.43032000  0.66927200
   0.00000000  0.00000000  1.33854400
 


--------------------------------------------------------------------------------------------------------


 k-point  1 :   0.0625 0.0625 0.0625  plane waves:     476
 k-point  2 :   0.1875 0.0625 0.0625  plane waves:     477
 k-point  3 :   0.3125 0.0625 0.0625  plane waves:     475
 k-point  4 :   0.4375 0.0625 0.0625  plane waves:     476
 k-point  5 :  -0.0625 0.0625 0.0625  plane waves:     475
 k-point  6 :   0.1875 0.1875 0.0625  plane waves:     478
 k-point  7 :   0.3125 0.1875 0.0625  plane waves:     476
 k-point  8 :   0.4375 0.1875 0.0625  plane waves:     477
 k-point  9 :  -0.4375 0.1875 0.0625  plane waves:     472
 k-point 10 :  -0.3125 0.1875 0.0625  plane waves:     475
 k-point 11 :  -0.1875 0.1875 0.0625  plane waves:     467
 k-point 12 :  -0.0625 0.1875 0.0625  plane waves:     475
 k-point 13 :   0.3125 0.3125 0.0625  plane waves:     466
 k-point 14 :   0.4375 0.3125 0.0625  plane waves:     469
 k-point 15 :  -0.4375 0.3125 0.0625  plane waves:     465
 k-point 16 :  -0.3125 0.3125 0.0625  plane waves:     470
 k-point 17 :  -0.1875 0.3125 0.0625  plane waves:     466
 k-point 18 :  -0.0625 0.3125 0.0625  plane waves:     473
 k-point 19 :   0.4375 0.4375 0.0625  plane waves:     470
 k-point 20 :  -0.4375 0.4375 0.0625  plane waves:     461
 k-point 21 :  -0.3125 0.4375 0.0625  plane waves:     463
 k-point 22 :  -0.1875 0.4375 0.0625  plane waves:     470
 k-point 23 :  -0.0625 0.4375 0.0625  plane waves:     475
 k-point 24 :  -0.4375-0.4375 0.0625  plane waves:     467
 k-point 25 :  -0.3125-0.4375 0.0625  plane waves:     470
 k-point 26 :  -0.1875-0.4375 0.0625  plane waves:     473
 k-point 27 :  -0.0625-0.4375 0.0625  plane waves:     466
 k-point 28 :  -0.3125-0.3125 0.0625  plane waves:     470
 k-point 29 :  -0.1875-0.3125 0.0625  plane waves:     473
 k-point 30 :  -0.0625-0.3125 0.0625  plane waves:     476
 k-point 31 :  -0.1875-0.1875 0.0625  plane waves:     478
 k-point 32 :  -0.0625-0.1875 0.0625  plane waves:     477
 k-point 33 :  -0.0625-0.0625 0.0625  plane waves:     472
 k-point 34 :   0.1875 0.1875 0.1875  plane waves:     475
 k-point 35 :   0.3125 0.1875 0.1875  plane waves:     478
 k-point 36 :  -0.1875 0.1875 0.1875  plane waves:     469
 k-point 37 :   0.3125 0.3125 0.1875  plane waves:     466
 k-point 38 :  -0.3125 0.3125 0.1875  plane waves:     464
 k-point 39 :  -0.1875 0.3125 0.1875  plane waves:     466
 k-point 40 :  -0.4375 0.4375 0.1875  plane waves:     468
 k-point 41 :  -0.3125 0.4375 0.1875  plane waves:     465
 k-point 42 :  -0.1875 0.4375 0.1875  plane waves:     472
 k-point 43 :  -0.4375-0.4375 0.1875  plane waves:     454
 k-point 44 :  -0.3125-0.4375 0.1875  plane waves:     468
 k-point 45 :  -0.1875-0.4375 0.1875  plane waves:     464
 k-point 46 :  -0.3125-0.3125 0.1875  plane waves:     469
 k-point 47 :  -0.1875-0.3125 0.1875  plane waves:     471
 k-point 48 :  -0.1875-0.1875 0.1875  plane waves:     488
 k-point 49 :  -0.3125 0.3125 0.3125  plane waves:     466
 k-point 50 :  -0.4375 0.4375 0.3125  plane waves:     465
 k-point 51 :  -0.3125 0.4375 0.3125  plane waves:     468
 k-point 52 :  -0.4375-0.4375 0.3125  plane waves:     472
 k-point 53 :  -0.3125-0.4375 0.3125  plane waves:     471
 k-point 54 :  -0.3125-0.3125 0.3125  plane waves:     464
 k-point 55 :  -0.4375 0.4375 0.4375  plane waves:     468
 k-point 56 :  -0.4375-0.4375 0.4375  plane waves:     480

 maximum and minimum number of plane-waves per node :       488      454

 maximum number of plane-waves:       488
 maximum index in each direction: 
   IXMAX=    6   IYMAX=    6   IZMAX=    5
   IXMIN=   -6   IYMIN=   -6   IZMIN=   -6


 serial   3D FFT for wavefunctions
 parallel 3D FFT for charge:
    minimum data exchange during FFTs selected (reduces bandwidth)


 total amount of memory used by VASP MPI-rank0    33029. kBytes
=======================================================================

   base      :      30000. kBytes
   nonl-proj :       1764. kBytes
   fftplans  :        247. kBytes
   grid      :        561. kBytes
   one-center:          6. kBytes
   wavefun   :        451. kBytes
 
     INWAV:  cpu time    0.0000: real time    0.0004
 Broyden mixing: mesh for mixing (old mesh)
   NGX = 11   NGY = 11   NGZ = 11
  (NGX  = 36   NGY  = 36   NGZ  = 36)
  gives a total of   1331 points

 initial charge density was supplied:
 charge density of overlapping atoms calculated
 number of electron       8.0000000 magnetization 
 keeping initial charge density in first step


--------------------------------------------------------------------------------------------------------


 Maximum index for augmentation-charges          875 (set IRDMAX)


--------------------------------------------------------------------------------------------------------


 First call to EWALD:  gamma=   0.560
 Maximum number of real-space cells 4x 4x 3
 Maximum number of reciprocal cells 3x 3x 3

    FEWALD:  cpu time    0.0080: real time    0.0074


--------------------------------------- Iteration      1(   1)  ---------------------------------------


    POTLOK:  cpu time    0.0360: real time    0.0492
    SETDIJ:  cpu time    0.0080: real time    0.0092
     EDDAV:  cpu time    0.7280: real time    0.7334
       DOS:  cpu time    0.0040: real time    0.0040
    --------------------------------------------
      LOOP:  cpu time    0.7760: real time    0.7978

 eigenvalue-minimisations  :   912
 total energy-change (2. order) : 0.8383036E+00  (-0.2665131E+03)
 number of electron       8.0000000 magnetization 
 augmentation part        8.0000000 magnetization 

 Free energy of the ion-electron system (eV)
  ---------------------------------------------------
  alpha Z        PSCENC =         4.25788821
  Ewald energy   TEWEN  =      -262.36335782
  -Hartree energ DENC   =        -2.44480228
  -exchange      EXHF   =         0.00000000
  -V(xc)+E(xc)   XCENC  =       -17.98585384
  PAW double counting   =        65.95520812      -30.76852678
  entropy T*S    EENTRO =        -0.01821667
  eigenvalues    EBANDS =        38.07471048
  atomic energy  EATOM  =       206.13125414
  Solvation  Ediel_sol  =         0.00000000
  ---------------------------------------------------
  free energy    TOTEN  =         0.83830357 eV

  energy without entropy =        0.85652023  energy(sigma->0) =        0.84741190


--------------------------------------------------------------------------------------------------------




--------------------------------------- Iteration      1(   2)  ---------------------------------------


     EDDAV:  cpu time    1.0000: real time    1.0474
       DOS:  cpu time    0.0040: real time    0.0033
    --------------------------------------------
      LOOP:  cpu time    1.0040: real time    1.0491

 eigenvalue-minimisations  :  1288
 total energy-change (2. order) :-0.1098752E+02  (-0.1042964E+02)
 number of electron       8.0000000 magnetization 
 augmentation part        8.0000000 magnetization 

 Free energy of the ion-electron system (eV)
  ---------------------------------------------------
  alpha Z        PSCENC =         4.25788821
  Ewald energy   TEWEN  =      -262.36335782
  -Hartree energ DENC   =        -2.44480228
  -exchange      EXHF   =         0.00000000
  -V(xc)+E(xc)   XCENC  =       -17.98585384
  PAW double counting   =        65.95520812      -30.76852678
  entropy T*S    EENTRO =        -0.02036552
  eigenvalues    EBANDS =        27.08934379
  atomic energy  EATOM  =       206.13125414
  Solvation  Ediel_sol  =         0.00000000
  ---------------------------------------------------
  free energy    TOTEN  =       -10.14921197 eV

  energy without entropy =      -10.12884645  energy(sigma->0) =      -10.13902921


--------------------------------------------------------------------------------------------------------




--------------------------------------- Iteration      1(   3)  ---------------------------------------


     EDDAV:  cpu time    1.0200: real time    1.0333
       DOS:  cpu time    0.0040: real time    0.0034
    --------------------------------------------
      LOOP:  cpu time    1.0240: real time    1.0371

 eigenvalue-minimisations  :  1288
 total energy-change (2. order) :-0.1183560E+00  (-0.1178311E+00)
 number of electron       8.0000000 magnetization 
 augmentation part        8.0000000 magnetization 

 Free energy of the ion-electron system (eV)
  ---------------------------------------------------
  alpha Z        PSCENC =         4.25788821
  Ewald energy   TEWEN  =      -262.36335782
  -Hartree energ DENC   =        -2.44480228
  -exchange      EXHF   =         0.00000000
  -V(xc)+E(xc)   XCENC  =       -17.98585384
  PAW double counting   =        65.95520812      -30.76852678
  entropy T*S    EENTRO =        -0.02028189
  eigenvalues    EBANDS =        26.97090417
  atomic energy  EATOM  =       206.13125414
  Solvation  Ediel_sol  =         0.00000000
  ---------------------------------------------------
  free energy    TOTEN  =       -10.26756797 eV

  energy without entropy =      -10.24728607  energy(sigma->0) =      -10.25742702


--------------------------------------------------------------------------------------------------------




--------------------------------------- Iteration      1(   4)  ---------------------------------------


     EDDAV:  cpu time    1.0280: real time    1.0400
       DOS:  cpu time    0.0040: real time    0.0033
    --------------------------------------------
      LOOP:  cpu time    1.0320: real time    1.0433

 eigenvalue-minimisations  :  1320
 total energy-change (2. order) :-0.2966225E-03  (-0.2966183E-03)
 number of electron       8.0000000 magnetization 
 augmentation part        8.0000000 magnetization 

 Free energy of the ion-electron system (eV)
  ---------------------------------------------------
  alpha Z        PSCENC =         4.25788821
  Ewald energy   TEWEN  =      -262.36335782
  -Hartree energ DENC   =        -2.44480228
  -exchange      EXHF   =         0.00000000
  -V(xc)+E(xc)   XCENC  =       -17.98585384
  PAW double counting   =        65.95520812      -30.76852678
  entropy T*S    EENTRO =        -0.02028174
  eigenvalues    EBANDS =        26.97060740
  atomic energy  EATOM  =       206.13125414
  Solvation  Ediel_sol  =         0.00000000
  ---------------------------------------------------
  free energy    TOTEN  =       -10.26786459 eV

  energy without entropy =      -10.24758285  energy(sigma->0) =      -10.25772372


--------------------------------------------------------------------------------------------------------




--------------------------------------- Iteration      1(   5)  ---------------------------------------


     EDDAV:  cpu time    1.0120: real time    1.0226
       DOS:  cpu time    0.0040: real time    0.0033
    CHARGE:  cpu time    0.0560: real time    0.0581
    MIXING:  cpu time    0.0040: real time    0.0024
    --------------------------------------------
      LOOP:  cpu time    1.0760: real time    1.0861

 eigenvalue-minimisations  :  1280
 total energy-change (2. order) :-0.3783118E-06  (-0.3774458E-06)
 number of electron       7.9999994 magnetization 
 augmentation part       -0.4700486 magnetization 

 Broyden mixing:
  rms(total) = 0.15373E+00    rms(broyden)= 0.15373E+00
  rms(prec ) = 0.35171E+00
  weight for this iteration     100.00

 Free energy of the ion-electron system (eV)
  ---------------------------------------------------
  alpha Z        PSCENC =         4.25788821
  Ewald energy   TEWEN  =      -262.36335782
  -Hartree energ DENC   =        -2.44480228
  -exchange      EXHF   =         0.00000000
  -V(xc)+E(xc)   XCENC  =       -17.98585384
  PAW double counting   =        65.95520812      -30.76852678
  entropy T*S    EENTRO =        -0.02028177
  eigenvalues    EBANDS =        26.97060705
  atomic energy  EATOM  =       206.13125414
  Solvation  Ediel_sol  =         0.00000000
  ---------------------------------------------------
  free energy    TOTEN  =       -10.26786497 eV

  energy without entropy =      -10.24758320  energy(sigma->0) =      -10.25772408


--------------------------------------------------------------------------------------------------------




--------------------------------------- Iteration      1(   6)  ---------------------------------------


    POTLOK:  cpu time    0.0280: real time    0.0399
    SETDIJ:  cpu time    0.0080: real time    0.0088
     EDDAV:  cpu time    0.8280: real time    0.8302
       DOS:  cpu time    0.0040: real time    0.0032
    CHARGE:  cpu time    0.0560: real time    0.0558
    MIXING:  cpu time    0.0040: real time    0.0020
    --------------------------------------------
      LOOP:  cpu time    0.9280: real time    0.9400

 eigenvalue-minimisations  :  1064
 total energy-change (2. order) : 0.6303732E-02  (-0.3630108E-03)
 number of electron       7.9999994 magnetization 
 augmentation part       -0.4717257 magnetization 

 Broyden mixing:
  rms(total) = 0.95538E-01    rms(broyden)= 0.95538E-01
  rms(prec ) = 0.21817E+00
  weight for this iteration     100.00

 eigenvalues of (default mixing * dielectric matrix)
  average eigenvalue GAMMA=   2.6328
  2.6328

 Free energy of the ion-electron system (eV)
  ---------------------------------------------------
  alpha Z        PSCENC =         4.25788821
  Ewald energy   TEWEN  =      -262.36335782
  -Hartree energ DENC   =        -2.46101363
  -exchange      EXHF   =         0.00000000
  -V(xc)+E(xc)   XCENC  =       -17.91127061
  PAW double counting   =        67.39867904      -32.24110299
  entropy T*S    EENTRO =        -0.02032818
  eigenvalues    EBANDS =        26.94769059
  atomic energy  EATOM  =       206.13125414
  Solvation  Ediel_sol  =         0.00000000
  ---------------------------------------------------
  free energy    TOTEN  =       -10.26156123 eV

  energy without entropy =      -10.24123306  energy(sigma->0) =      -10.25139715


--------------------------------------------------------------------------------------------------------




--------------------------------------- Iteration      1(   7)  ---------------------------------------


    POTLOK:  cpu time    0.0280: real time    0.0332
    SETDIJ:  cpu time    0.0080: real time    0.0087
     EDDAV:  cpu time    0.9000: real time    0.9004
       DOS:  cpu time    0.0040: real time    0.0034
    CHARGE:  cpu time    0.0520: real time    0.0553
    MIXING:  cpu time    0.0040: real time    0.0018
    --------------------------------------------
      LOOP:  cpu time    0.9960: real time    1.0029

 eigenvalue-minimisations  :  1144
 total energy-change (2. order) : 0.4436641E-02  (-0.9493833E-03)
 number of electron       7.9999994 magnetization 
 augmentation part       -0.4748974 magnetization 

 Broyden mixing:
  rms(total) = 0.50331E-02    rms(broyden)= 0.50329E-02
  rms(prec ) = 0.14529E-01
  weight for this iteration     100.00

 eigenvalues of (default mixing * dielectric matrix)
  average eigenvalue GAMMA=   2.5634
  2.5634  2.5634

 Free energy of the ion-electron system (eV)
  ---------------------------------------------------
  alpha Z        PSCENC =         4.25788821
  Ewald energy   TEWEN  =      -262.36335782
  -Hartree energ DENC   =        -2.58542690
  -exchange      EXHF   =         0.00000000
  -V(xc)+E(xc)   XCENC  =       -17.77132625
  PAW double counting   =        69.64111106      -34.53253188
  entropy T*S    EENTRO =        -0.02037047
  eigenvalues    EBANDS =        26.98563531
  atomic energy  EATOM  =       206.13125414
  Solvation  Ediel_sol  =         0.00000000
  ---------------------------------------------------
  free energy    TOTEN  =       -10.25712459 eV

  energy without entropy =      -10.23675413  energy(sigma->0) =      -10.24693936


--------------------------------------------------------------------------------------------------------




--------------------------------------- Iteration      1(   8)  ---------------------------------------


    POTLOK:  cpu time    0.0280: real time    0.0365
    SETDIJ:  cpu time    0.0080: real time    0.0089
     EDDAV:  cpu time    0.5360: real time    0.5370
       DOS:  cpu time    0.0040: real time    0.0033
    --------------------------------------------
      LOOP:  cpu time    0.5760: real time    0.5856

 eigenvalue-minimisations  :   600
 total energy-change (2. order) : 0.5113721E-04  (-0.3809884E-04)
 number of electron       7.9999994 magnetization 
 augmentation part       -0.4748974 magnetization 

 Free energy of the ion-electron system (eV)
  ---------------------------------------------------
  alpha Z        PSCENC =         4.25788821
  Ewald energy   TEWEN  =      -262.36335782
  -Hartree energ DENC   =        -2.60578910
  -exchange      EXHF   =         0.00000000
  -V(xc)+E(xc)   XCENC  =       -17.76961010
  PAW double counting   =        69.51248690      -34.40613506
  entropy T*S    EENTRO =        -0.02036143
  eigenvalues    EBANDS =        27.00655080
  atomic energy  EATOM  =       206.13125414
  Solvation  Ediel_sol  =         0.00000000
  ---------------------------------------------------
  free energy    TOTEN  =       -10.25707346 eV

  energy without entropy =      -10.23671203  energy(sigma->0) =      -10.24689274


--------------------------------------------------------------------------------------------------------




 average (electrostatic) potential at core
  the test charge radii are     0.9892
  (the norm of the test charge is              1.0000)
       1 -80.9802       2 -80.9802
 
 
 
 E-fermi :   8.6734     XC(G=0): -10.7603     alpha+bet :-15.1685


 k-point     1 :       0.0625    0.0625    0.0625
  band No.  band energies     occupation 
      1      -4.2272      2.00000
      2       4.4254      2.00000
      3       6.6905      2.00000
      4       8.2132      1.99886
      5      11.8463      0.00000
      6      13.7043      0.00000
      7      14.2711      0.00000
      8      16.1379      0.00000

 k-point     2 :       0.1875    0.0625    0.0625
  band No.  band energies     occupation 
      1      -3.0107      2.00000
      2       4.1801      2.00000
      3       6.9894      2.00000
      4       9.1525      0.00071
      5      10.8085      0.00000
      6      10.9150      0.00000
      7      13.6749      0.00000
      8      14.4294      0.00000

 k-point     3 :       0.3125    0.0625    0.0625
  band No.  band energies     occupation 
      1      -1.0134      2.00000
      2       4.4760      2.00000
      3       5.5532      2.00000
      4       7.2595      2.00000
      5       8.6091      1.35061
      6      11.7364      0.00000
      7      13.1849      0.00000
      8      13.5775      0.00000

 k-point     4 :       0.4375    0.0625    0.0625
  band No.  band energies     occupation 
      1       1.3201      2.00000
      2       2.2370      2.00000
      3       5.7764      2.00000
      4       6.1681      2.00000
      5       8.4921      1.80020
      6      10.5729      0.00000
      7      13.0948      0.00000
      8      14.0386      0.00000

 k-point     5 :      -0.0625    0.0625    0.0625
  band No.  band energies     occupation 
      1      -4.6351      2.00000
      2       5.0310      2.00000
      3       5.8850      2.00000
      4       7.8816      2.00000
      5      10.9791      0.00000
      6      14.8555      0.00000
      7      17.3283      0.00000
      8      17.4252      0.00000

 k-point     6 :       0.1875    0.1875    0.0625
  band No.  band energies     occupation 
      1      -1.1963      2.00000
      2       4.4667      2.00000
      3       6.4354      2.00000
      4       6.6296      2.00000
      5       9.5787      0.00000
      6      11.5709      0.00000
      7      12.8703      0.00000
      8      13.0624      0.00000

 k-point     7 :       0.3125    0.1875    0.0625
  band No.  band energies     occupation 
      1       1.2669      2.00000
      2       2.9654      2.00000
      3       4.3121      2.00000
      4       5.7876      2.00000
      5       9.8342      0.00000
      6      11.5701      0.00000
      7      12.5928      0.00000
      8      14.6307      0.00000

 k-point     8 :       0.4375    0.1875    0.0625
  band No.  band energies     occupation 
      1      -0.0991      2.00000
      2       2.7347      2.00000
      3       4.9131      2.00000
      4       7.2627      2.00000
      5       9.0799      0.00405
      6      11.7388      0.00000
      7      13.6579      0.00000
      8      14.5400      0.00000

 k-point     9 :      -0.4375    0.1875    0.0625
  band No.  band energies     occupation 
      1      -2.2626      2.00000
      2       2.1151      2.00000
      3       7.5337      2.00000
      4       8.8122      0.32632
      5      10.3399      0.00000
      6      11.4638      0.00000
      7      12.6735      0.00000
      8      15.0133      0.00000

 k-point    10 :      -0.3125    0.1875    0.0625
  band No.  band energies     occupation 
      1      -3.6611      2.00000
      2       2.2044      2.00000
      3       7.1974      2.00000
      4       9.1371      0.00104
      5      12.1285      0.00000
      6      13.6410      0.00000
      7      14.1923      0.00000
      8      14.8169      0.00000

 k-point    11 :      -0.1875    0.1875    0.0625
  band No.  band energies     occupation 
      1      -4.2566      2.00000
      2       3.0172      2.00000
      3       6.0015      2.00000
      4       9.1172      0.00170
      5      12.7830      0.00000
      6      12.9439      0.00000
      7      15.8639      0.00000
      8      17.2129      0.00000

 k-point    12 :      -0.0625    0.1875    0.0625
  band No.  band energies     occupation 
      1      -4.0384      2.00000
      2       4.1433      2.00000
      3       5.3685      2.00000
      4       9.6980      0.00000
      5      12.5708      0.00000
      6      12.6934      0.00000
      7      13.7341      0.00000
      8      15.7120      0.00000

 k-point    13 :       0.3125    0.3125    0.0625
  band No.  band energies     occupation 
      1       1.1290      2.00000
      2       1.1961      2.00000
      3       4.7209      2.00000
      4       7.2053      2.00000
      5       9.8196      0.00000
      6      10.6456      0.00000
      7      14.6847      0.00000
      8      15.5359      0.00000

 k-point    14 :       0.4375    0.3125    0.0625
  band No.  band energies     occupation 
      1      -1.1487      2.00000
      2       0.3185      2.00000
      3       8.0597      1.99999
      4       8.6696      1.02146
      5       9.9908      0.00000
      6      11.3827      0.00000
      7      12.4813      0.00000
      8      13.8726      0.00000

 k-point    15 :      -0.4375    0.3125    0.0625
  band No.  band energies     occupation 
      1      -2.7226      2.00000
      2       0.2319      2.00000
      3       8.0336      1.99999
      4      10.1016      0.00000
      5      10.6196      0.00000
      6      12.7047      0.00000
      7      13.7462      0.00000
      8      13.8351      0.00000

 k-point    16 :      -0.3125    0.3125    0.0625
  band No.  band energies     occupation 
      1      -3.5027      2.00000
      2       0.9185      2.00000
      3       6.6856      2.00000
      4      10.0557      0.00000
      5      10.8098      0.00000
      6      14.1439      0.00000
      7      15.8454      0.00000
      8      16.9053      0.00000

 k-point    17 :      -0.1875    0.3125    0.0625
  band No.  band energies     occupation 
      1      -3.4737      2.00000
      2       2.3287      2.00000
      3       5.4886      2.00000
      4      10.6517      0.00000
      5      11.0464      0.00000
      6      12.9531      0.00000
      7      14.7259      0.00000
      8      15.6292      0.00000

 k-point    18 :      -0.0625    0.3125    0.0625
  band No.  band energies     occupation 
      1      -2.6370      2.00000
      2       4.0052      2.00000
      3       5.3753      2.00000
      4       8.4549      1.87776
      5      11.0855      0.00000
      6      12.6309      0.00000
      7      13.2919      0.00000
      8      13.6586      0.00000

 k-point    19 :       0.4375    0.4375    0.0625
  band No.  band energies     occupation 
      1      -1.4200      2.00000
      2      -1.4200      2.00000
      3       9.1781      0.00036
      4       9.1781      0.00036
      5      11.3524      0.00000
      6      11.3524      0.00000
      7      13.5504      0.00000
      8      13.5504      0.00000

 k-point    20 :      -0.4375    0.4375    0.0625
  band No.  band energies     occupation 
      1      -2.3796      2.00000
      2      -0.8987      2.00000
      3       7.7288      2.00000
      4       9.1106      0.00199
      5      11.1676      0.00000
      6      12.5401      0.00000
      7      16.6108      0.00000
      8      16.7089      0.00000

 k-point    21 :      -0.3125    0.4375    0.0625
  band No.  band energies     occupation 
      1      -2.5379      2.00000
      2       0.3993      2.00000
      3       6.3220      2.00000
      4       9.0523      0.00739
      5      11.4020      0.00000
      6      12.8768      0.00000
      7      14.8163      0.00000
      8      15.3385      0.00000

 k-point    22 :      -0.1875    0.4375    0.0625
  band No.  band energies     occupation 
      1      -1.8932      2.00000
      2       2.3993      2.00000
      3       5.5813      2.00000
      4       7.8161      2.00000
      5       9.6755      0.00000
      6      12.4904      0.00000
      7      13.9847      0.00000
      8      15.3233      0.00000

 k-point    23 :      -0.0625    0.4375    0.0625
  band No.  band energies     occupation 
      1      -0.4676      2.00000
      2       4.0515      2.00000
      3       5.2030      2.00000
      4       5.9923      2.00000
      5       9.1405      0.00096
      6      11.5546      0.00000
      7      11.8689      0.00000
      8      15.1571      0.00000

 k-point    24 :      -0.4375   -0.4375    0.0625
  band No.  band energies     occupation 
      1      -1.2439      2.00000
      2      -1.2373      2.00000
      3       7.5204      2.00000
      4       7.5342      2.00000
      5      11.4930      0.00000
      6      13.3840      0.00000
      7      14.2235      0.00000
      8      14.8244      0.00000

 k-point    25 :      -0.3125   -0.4375    0.0625
  band No.  band energies     occupation 
      1      -0.7878      2.00000
      2       0.6615      2.00000
      3       6.4794      2.00000
      4       7.3954      2.00000
      5       8.2571      1.99676
      6      12.1426      0.00000
      7      15.0785      0.00000
      8      16.3830      0.00000

 k-point    26 :      -0.1875   -0.4375    0.0625
  band No.  band energies     occupation 
      1       0.4296      2.00000
      2       3.0478      2.00000
      3       4.2139      2.00000
      4       6.4251      2.00000
      5       8.6523      1.11860
      6      10.5869      0.00000
      7      13.0896      0.00000
      8      16.4677      0.00000

 k-point    27 :      -0.0625   -0.4375    0.0625
  band No.  band energies     occupation 
      1       0.9154      2.00000
      2       2.6427      2.00000
      3       6.2292      2.00000
      4       6.9608      2.00000
      5       7.5781      2.00000
      6      10.1891      0.00000
      7      11.6284      0.00000
      8      15.3727      0.00000

 k-point    28 :      -0.3125   -0.3125    0.0625
  band No.  band energies     occupation 
      1       1.5632      2.00000
      2       1.7391      2.00000
      3       3.9148      2.00000
      4       7.2964      2.00000
      5       7.7039      2.00000
      6      10.2098      0.00000
      7      14.9403      0.00000
      8      15.6062      0.00000

 k-point    29 :      -0.1875   -0.3125    0.0625
  band No.  band energies     occupation 
      1       0.6025      2.00000
      2       3.6406      2.00000
      3       4.9814      2.00000
      4       7.1560      2.00000
      5       8.2649      1.99613
      6      10.0737      0.00000
      7      11.6639      0.00000
      8      14.0651      0.00000

 k-point    30 :      -0.0625   -0.3125    0.0625
  band No.  band energies     occupation 
      1      -1.5665      2.00000
      2       5.8219      2.00000
      3       6.8312      2.00000
      4       7.2019      2.00000
      5       8.4384      1.90353
      6      10.9184      0.00000
      7      11.6445      0.00000
      8      13.3171      0.00000

 k-point    31 :      -0.1875   -0.1875    0.0625
  band No.  band energies     occupation 
      1      -1.7515      2.00000
      2       6.4520      2.00000
      3       7.1191      2.00000
      4       7.4159      2.00000
      5       8.7751      0.47228
      6      10.4299      0.00000
      7      11.6157      0.00000
      8      11.8390      0.00000

 k-point    32 :      -0.0625   -0.1875    0.0625
  band No.  band energies     occupation 
      1      -3.3862      2.00000
      2       6.1398      2.00000
      3       6.8854      2.00000
      4       8.7365      0.65585
      5      10.8650      0.00000
      6      11.2952      0.00000
      7      12.0889      0.00000
      8      13.8294      0.00000

 k-point    33 :      -0.0625   -0.0625    0.0625
  band No.  band energies     occupation 
      1      -4.4163      2.00000
      2       6.5208      2.00000
      3       6.5208      2.00000
      4       6.7932      2.00000
      5      10.7339      0.00000
      6      14.4993      0.00000
      7      14.6150      0.00000
      8      16.4937      0.00000

 k-point    34 :       0.1875    0.1875    0.1875
  band No.  band energies     occupation 
      1      -0.2775      2.00000
      2       2.5928      2.00000
      3       6.0046      2.00000
      4       6.0943      2.00000
      5      10.5713      0.00000
      6      12.4133      0.00000
      7      13.6395      0.00000
      8      14.0798      0.00000

 k-point    35 :       0.3125    0.1875    0.1875
  band No.  band energies     occupation 
      1       2.0265      2.00000
      2       2.7737      2.00000
      3       3.8029      2.00000
      4       4.4522      2.00000
      5      11.4955      0.00000
      6      13.4143      0.00000
      7      13.7217      0.00000
      8      13.9062      0.00000

 k-point    36 :      -0.1875    0.1875    0.1875
  band No.  band energies     occupation 
      1      -3.8800      2.00000
      2       2.8393      2.00000
      3       4.2635      2.00000
      4      10.6616      0.00000
      5      11.2397      0.00000
      6      14.0178      0.00000
      7      16.2585      0.00000
      8      16.7752      0.00000

 k-point    37 :       0.3125    0.3125    0.1875
  band No.  band energies     occupation 
      1       0.9934      2.00000
      2       0.9934      2.00000
      3       5.8844      2.00000
      4       5.8844      2.00000
      5      11.8214      0.00000
      6      11.8214      0.00000
      7      13.6255      0.00000
      8      13.6255      0.00000

 k-point    38 :      -0.3125    0.3125    0.1875
  band No.  band energies     occupation 
      1      -3.1301      2.00000
      2       1.2077      2.00000
      3       4.4833      2.00000
      4       8.6329      1.22538
      5      12.5784      0.00000
      6      15.4897      0.00000
      7      16.0896      0.00000
      8      16.8694      0.00000

 k-point    39 :      -0.1875    0.3125    0.1875
  band No.  band energies     occupation 
      1      -2.9135      2.00000
      2       2.3038      2.00000
      3       3.8182      2.00000
      4       8.7884      0.41612
      5      11.3864      0.00000
      6      14.0166      0.00000
      7      16.0339      0.00000
      8      16.3446      0.00000

 k-point    40 :      -0.4375    0.4375    0.1875
  band No.  band energies     occupation 
      1      -2.0150      2.00000
      2      -0.5517      2.00000
      3       5.4918      2.00000
      4       6.8927      2.00000
      5      13.6253      0.00000
      6      14.6260      0.00000
      7      16.1830      0.00000
      8      16.5659      0.00000

 k-point    41 :      -0.3125    0.4375    0.1875
  band No.  band energies     occupation 
      1      -1.9871      2.00000
      2       0.8643      2.00000
      3       4.1792      2.00000
      4       6.9168      2.00000
      5      11.0250      0.00000
      6      15.3315      0.00000
      7      16.3961      0.00000
      8      17.8442      0.00000

 k-point    42 :      -0.1875    0.4375    0.1875
  band No.  band energies     occupation 
      1      -1.1597      2.00000
      2       2.5365      2.00000
      3       4.0932      2.00000
      4       7.0100      2.00000
      5       7.9193      2.00000
      6      13.7326      0.00000
      7      15.1462      0.00000
      8      16.4796      0.00000

 k-point    43 :      -0.4375   -0.4375    0.1875
  band No.  band energies     occupation 
      1      -0.7174      2.00000
      2      -0.7034      2.00000
      3       5.3429      2.00000
      4       5.3652      2.00000
      5      10.8803      0.00000
      6      16.0001      0.00000
      7      16.6670      0.00000
      8      16.9801      0.00000

 k-point    44 :      -0.3125   -0.4375    0.1875
  band No.  band energies     occupation 
      1      -0.0777      2.00000
      2       1.3012      2.00000
      3       4.5919      2.00000
      4       5.8558      2.00000
      5       7.0451      2.00000
      6      13.9168      0.00000
      7      16.6758      0.00000
      8      17.7161      0.00000

 k-point    45 :      -0.1875   -0.4375    0.1875
  band No.  band energies     occupation 
      1       1.2750      2.00000
      2       3.0017      2.00000
      3       4.1674      2.00000
      4       5.0789      2.00000
      5       7.2676      2.00000
      6      11.6994      0.00000
      7      13.0293      0.00000
      8      16.6394      0.00000

 k-point    46 :      -0.3125   -0.3125    0.1875
  band No.  band energies     occupation 
      1       2.1118      2.00000
      2       2.5820      2.00000
      3       3.6494      2.00000
      4       5.7692      2.00000
      5       5.8854      2.00000
      6      11.9473      0.00000
      7      14.4061      0.00000
      8      15.2128      0.00000

 k-point    47 :      -0.1875   -0.3125    0.1875
  band No.  band energies     occupation 
      1       0.2554      2.00000
      2       4.6353      2.00000
      3       5.5634      2.00000
      4       6.6346      2.00000
      5       7.4334      2.00000
      6      10.4530      0.00000
      7      11.5171      0.00000
      8      13.0045      0.00000

 k-point    48 :      -0.1875   -0.1875    0.1875
  band No.  band energies     occupation 
      1      -1.9371      2.00000
      2       7.8029      2.00000
      3       7.8029      2.00000
      4       7.8989      2.00000
      5       8.1162      1.99992
      6       9.4029      0.00000
      7      11.3361      0.00000
      8      11.3361      0.00000

 k-point    49 :      -0.3125    0.3125    0.3125
  band No.  band energies     occupation 
      1      -2.3901      2.00000
      2       1.3490      2.00000
      3       2.9396      2.00000
      4       6.5691      2.00000
      5      14.2379      0.00000
      6      15.1194      0.00000
      7      16.6816      0.00000
      8      18.1065      0.00000

 k-point    50 :      -0.4375    0.4375    0.3125
  band No.  band energies     occupation 
      1      -1.2972      2.00000
      2       0.0963      2.00000
      3       3.4602      2.00000
      4       4.8176      2.00000
      5      14.5691      0.00000
      6      14.7567      0.00000
      7      17.6619      0.00000
      8      18.7313      0.00000

 k-point    51 :      -0.3125    0.4375    0.3125
  band No.  band energies     occupation 
      1      -1.0835      2.00000
      2       1.1823      2.00000
      3       2.8028      2.00000
      4       5.0151      2.00000
      5      10.5710      0.00000
      6      17.4913      0.00000
      7      17.8508      0.00000
      8      18.8649      0.00000

 k-point    52 :      -0.4375   -0.4375    0.3125
  band No.  band energies     occupation 
      1       0.1090      2.00000
      2       0.1334      2.00000
      3       3.4824      2.00000
      4       3.4973      2.00000
      5      10.4104      0.00000
      6      17.7332      0.00000
      7      19.0161      0.00000
      8      19.5858      0.00000

 k-point    53 :      -0.3125   -0.4375    0.3125
  band No.  band energies     occupation 
      1       0.9285      2.00000
      2       1.7945      2.00000
      3       3.4178      2.00000
      4       4.2535      2.00000
      5       6.6141      2.00000
      6      15.5851      0.00000
      7      16.8159      0.00000
      8      17.9922      0.00000

 k-point    54 :      -0.3125   -0.3125    0.3125
  band No.  band energies     occupation 
      1       2.3271      2.00000
      2       3.2959      2.00000
      3       4.0459      2.00000
      4       4.7568      2.00000
      5       4.7568      2.00000
      6      13.6665      0.00000
      7      14.2247      0.00000
      8      14.2247      0.00000

 k-point    55 :      -0.4375    0.4375    0.4375
  band No.  band energies     occupation 
      1      -0.2774      2.00000
      2       0.5955      2.00000
      3       2.2500      2.00000
      4       3.1111      2.00000
      5      14.4700      0.00000
      6      14.5078      0.00000
      7      19.9031      0.00000
      8      20.6697      0.00000

 k-point    56 :      -0.4375   -0.4375    0.4375
  band No.  band energies     occupation 
      1       0.7859      2.00000
      2       0.8253      2.00000
      3       2.4569      2.00000
      4       2.4569      2.00000
      5      10.2469      0.00000
      6      18.2463      0.00000
      7      20.1842      0.00000
      8      20.2325      0.00000


--------------------------------------------------------------------------------------------------------


 soft charge-density along one line, spin component           1
         0         1         2         3         4         5         6         7         8         9
 total charge-density along one line
 
 pseudopotential strength for first ion, spin component:           1
 18.111  -0.002   0.000  -0.000  -0.000  -0.000   0.000   0.000
 -0.002   0.005  -0.000   0.000   0.000   0.000  -0.000  -0.000
  0.000  -0.000   4.122   0.000   0.000  -0.006  -0.000  -0.000
 -0.000   0.000   0.000   4.123   0.000  -0.000  -0.006  -0.000
 -0.000   0.000   0.000   0.000   4.122  -0.000  -0.000  -0.006
 -0.000   0.000  -0.006  -0.000  -0.000   0.005   0.000   0.000
  0.000  -0.000  -0.000  -0.006  -0.000   0.000   0.005   0.000
  0.000  -0.000  -0.000  -0.000  -0.006   0.000   0.000   0.005
 total augmentation occupancy for first ion, spin component:           1
  1.625  -0.431   0.000   0.000   0.000   0.000   0.000  -0.000
 -0.431   0.834   0.000   0.000  -0.000   0.000   0.000  -0.000
  0.000   0.000   0.888  -0.000  -0.000  -0.469  -0.000   0.000
  0.000   0.000   0.000   0.830   0.000   0.000  -0.428  -0.000
  0.000  -0.000  -0.000   0.000   0.888   0.000  -0.000  -0.469
  0.000   0.000  -0.469  -0.000   0.000   0.323   0.000  -0.000
  0.000   0.000  -0.000  -0.428  -0.000   0.000   0.298   0.000
  0.000  -0.000   0.000  -0.000  -0.469  -0.000   0.000   0.323


------------------------ aborting loop because EDIFF is reached ----------------------------------------


    CHARGE:  cpu time    0.0560: real time    0.0549
    FORLOC:  cpu time    0.0000: real time    0.0009
    FORNL :  cpu time    0.0200: real time    0.0209
    STRESS:  cpu time    0.2080: real time    0.2105
    FORCOR:  cpu time    0.0240: real time    0.0218
    FORHAR:  cpu time    0.0040: real time    0.0056
    MIXING:  cpu time    0.0000: real time    0.0014
    OFIELD:  cpu time    0.0000: real time    0.0005

  FORCE on cell =-STRESS in cart. coord.  units (eV):
  Direction    XX          YY          ZZ          XY          YZ          ZX
  --------------------------------------------------------------------------------------
  Alpha Z     4.25789     4.25789     4.25789
  Ewald     -86.86548   -86.86548   -88.63262     0.00000     0.00000    -0.00000
  Hartree     0.82272     0.82272     0.96457    -0.00000    -0.00000    -0.00000
  E(xc)     -25.23231   -25.23231   -25.09623    -0.00000     0.00000     0.00000
  Local     -14.90396   -14.90396   -11.32731    -0.00002    -0.00002    -0.00002
  n-local    77.19476    77.29786    74.90135     1.19320    -0.38884    -0.48671
  augment   -12.14710   -12.14710   -11.98652     0.00002     0.00002     0.00002
  Kinetic    54.46372    57.36920    56.95090     2.56206    -1.81167    -1.63213
  Fock        0.00000     0.00000     0.00000     0.00000     0.00000     0.00000
  -------------------------------------------------------------------------------------
  Total      -0.90547    -0.90547     0.03203     0.00000     0.00000     0.00000
  in kB     -45.87380   -45.87380     1.62271     0.00000     0.00000     0.00000
  external pressure =      -30.04 kB  Pullay stress =        0.00 kB


 VOLUME and BASIS-vectors are now :
 -----------------------------------------------------------------------------
  energy-cutoff  :      350.00
  volume of cell :       31.62
      direct lattice vectors                 reciprocal lattice vectors
    -2.430320000  2.430320000  1.338544000    -0.000000000  0.205734224  0.373540205
     2.430320000 -2.430320000  1.338544000     0.205734224 -0.000000000  0.373540205
     2.430320000  2.430320000 -1.338544000     0.205734224  0.205734224 -0.000000000

  length of vectors
     3.688442848  3.688442848  3.688442848     0.426449124  0.426449124  0.290952130


 FORCES acting on ions
    electron-ion (+dipol)            ewald-force                    non-local-force                 convergence-correction
 -----------------------------------------------------------------------------------------------
   -.169E-06 0.169E-06 0.154E-13   -.160E-14 0.213E-14 -.712E-15   -.313E-16 0.103E-16 0.944E-17   -.268E-08 0.268E-08 0.144E-15
   0.169E-06 -.169E-06 -.491E-13   0.149E-14 -.246E-14 0.392E-15   0.363E-16 0.853E-17 -.457E-17   0.268E-08 -.268E-08 0.226E-15
 -----------------------------------------------------------------------------------------------
   -.214E-13 0.212E-13 -.337E-13   -.112E-15 -.334E-15 -.320E-15   0.498E-17 0.189E-16 0.487E-17   -.100E-15 -.125E-15 0.370E-15
 
 
 POSITION                                       TOTAL-FORCE (eV/Angst)
 -----------------------------------------------------------------------------------
      0.00000      2.43032      0.66927        -0.000000     -0.000000      0.000000
      0.00000      0.00000      1.33854         0.000000      0.000000     -0.000000
 -----------------------------------------------------------------------------------
    total drift:                               -0.000000      0.000000     -0.000000


--------------------------------------------------------------------------------------------------------



  FREE ENERGIE OF THE ION-ELECTRON SYSTEM (eV)
  ---------------------------------------------------
  free  energy   TOTEN  =       -10.25707346 eV

  energy  without entropy=      -10.23671203  energy(sigma->0) =      -10.24689274
 


--------------------------------------------------------------------------------------------------------


    POTLOK:  cpu time    0.0440: real time    0.0512


--------------------------------------------------------------------------------------------------------




--------------------------------------------------------------------------------------------------------


  
 reached required accuracy - stopping structural energy minimisation
 writing wavefunctions
     LOOP+:  cpu time    8.9600: real time    9.8518
    4ORBIT:  cpu time    0.0000: real time    0.0000

 total amount of memory used by VASP MPI-rank0    33029. kBytes
=======================================================================

   base      :      30000. kBytes
   nonl-proj :       1764. kBytes
   fftplans  :        247. kBytes
   grid      :        561. kBytes
   one-center:          6. kBytes
   wavefun   :        451. kBytes
 
  
  
 General timing and accounting informations for this job:
 ========================================================
  
                  Total CPU time used (sec):       13.232
                            User time (sec):       11.272
                          System time (sec):        1.960
                         Elapsed time (sec):       16.251
  
                   Maximum memory used (kb):        9820.
                   Average memory used (kb):           0.
  
                          Minor page faults:        38194
                          Major page faults:           22
                 Voluntary context switches:        38681
