unknown system                          
           1
    -2.430320    2.430320    1.338544
     2.430320   -2.430320    1.338544
     2.430320    2.430320   -1.338544
   Si
   2
Direct configuration=     1
   0.75000000  0.25000000  0.50000000
   0.50000000  0.50000000  0.00000000
