   2   2   0   0
  0.1529437E+02  0.3691622E-09  0.3691622E-09  0.3691622E-09  0.5000000E-15
  1.000000000000000E-004
  CAR 
 unknown system                          
     23.49185953     -6.57215884  301      9.07289698      1.00000000
     -6.572  0.0000E+00  0.0000E+00
     -6.472  0.0000E+00  0.0000E+00
     -6.372  0.0000E+00  0.0000E+00
     -6.272  0.0000E+00  0.0000E+00
     -6.171  0.0000E+00  0.0000E+00
     -6.071  0.0000E+00  0.0000E+00
     -5.971  0.0000E+00  0.0000E+00
     -5.871  0.0000E+00  0.0000E+00
     -5.770  0.0000E+00  0.0000E+00
     -5.670  0.1265E-16  0.1268E-17
     -5.570  0.2633E-14  0.2651E-15
     -5.470  0.3360E-12  0.3394E-13
     -5.370  0.2623E-10  0.2662E-11
     -5.269  0.1255E-08  0.1284E-09
     -5.169  0.3694E-07  0.3831E-08
     -5.069  0.6734E-06  0.7131E-07
     -4.969  0.7683E-05  0.8412E-06
     -4.869  0.5599E-04  0.6452E-05
     -4.768  0.2701E-03  0.3352E-04
     -4.668  0.9093E-03  0.1246E-03
     -4.568  0.2261E-02  0.3512E-03
     -4.468  0.4284E-02  0.7805E-03
     -4.367  0.6286E-02  0.1411E-02
     -4.267  0.7620E-02  0.2174E-02
     -4.167  0.8842E-02  0.3060E-02
     -4.067  0.1055E-01  0.4118E-02
     -3.967  0.1196E-01  0.5317E-02
     -3.866  0.1262E-01  0.6581E-02
     -3.766  0.1324E-01  0.7908E-02
     -3.666  0.1420E-01  0.9331E-02
     -3.566  0.1520E-01  0.1085E-01
     -3.466  0.1590E-01  0.1245E-01
     -3.365  0.1612E-01  0.1406E-01
     -3.265  0.1578E-01  0.1564E-01
     -3.165  0.1612E-01  0.1726E-01
     -3.065  0.1892E-01  0.1916E-01
     -2.964  0.2273E-01  0.2143E-01
     -2.864  0.2378E-01  0.2382E-01
     -2.764  0.2102E-01  0.2592E-01
     -2.664  0.1735E-01  0.2766E-01
     -2.564  0.1638E-01  0.2930E-01
     -2.463  0.1914E-01  0.3122E-01
     -2.363  0.2336E-01  0.3356E-01
     -2.263  0.2593E-01  0.3616E-01
     -2.163  0.2597E-01  0.3876E-01
     -2.063  0.2539E-01  0.4131E-01
     -1.962  0.2591E-01  0.4391E-01
     -1.862  0.2682E-01  0.4659E-01
     -1.762  0.2641E-01  0.4924E-01
     -1.662  0.2459E-01  0.5170E-01
     -1.561  0.2285E-01  0.5399E-01
     -1.461  0.2276E-01  0.5628E-01
     -1.361  0.2565E-01  0.5885E-01
     -1.261  0.3040E-01  0.6189E-01
     -1.161  0.3362E-01  0.6526E-01
     -1.060  0.3345E-01  0.6861E-01
     -0.960  0.3042E-01  0.7166E-01
     -0.860  0.2675E-01  0.7434E-01
     -0.760  0.2535E-01  0.7688E-01
     -0.660  0.2718E-01  0.7961E-01
     -0.559  0.3072E-01  0.8269E-01
     -0.459  0.3427E-01  0.8612E-01
     -0.359  0.3693E-01  0.8982E-01
     -0.259  0.3775E-01  0.9361E-01
     -0.159  0.3632E-01  0.9724E-01
     -0.058  0.3397E-01  0.1006E+00
      0.042  0.3209E-01  0.1039E+00
      0.142  0.3064E-01  0.1069E+00
      0.242  0.3104E-01  0.1100E+00
      0.343  0.3448E-01  0.1135E+00
      0.443  0.3716E-01  0.1172E+00
      0.543  0.3571E-01  0.1208E+00
      0.643  0.3387E-01  0.1242E+00
      0.743  0.3638E-01  0.1278E+00
      0.844  0.4224E-01  0.1321E+00
      0.944  0.4788E-01  0.1369E+00
      1.044  0.5029E-01  0.1419E+00
      1.144  0.4737E-01  0.1467E+00
      1.244  0.4077E-01  0.1507E+00
      1.345  0.3638E-01  0.1544E+00
      1.445  0.3730E-01  0.1581E+00
      1.545  0.3923E-01  0.1621E+00
      1.645  0.3713E-01  0.1658E+00
      1.746  0.3200E-01  0.1690E+00
      1.846  0.2900E-01  0.1719E+00
      1.946  0.3171E-01  0.1751E+00
      2.046  0.3789E-01  0.1789E+00
      2.146  0.4242E-01  0.1831E+00
      2.247  0.4393E-01  0.1875E+00
      2.347  0.4328E-01  0.1919E+00
      2.447  0.3996E-01  0.1959E+00
      2.547  0.3530E-01  0.1994E+00
      2.647  0.3207E-01  0.2026E+00
      2.748  0.3112E-01  0.2057E+00
      2.848  0.3259E-01  0.2090E+00
      2.948  0.3599E-01  0.2126E+00
      3.048  0.3901E-01  0.2165E+00
      3.149  0.4047E-01  0.2206E+00
      3.249  0.4206E-01  0.2248E+00
      3.349  0.4463E-01  0.2293E+00
      3.449  0.4615E-01  0.2339E+00
      3.549  0.4461E-01  0.2384E+00
      3.650  0.4121E-01  0.2425E+00
      3.750  0.4052E-01  0.2465E+00
      3.850  0.4484E-01  0.2510E+00
      3.950  0.5037E-01  0.2561E+00
      4.050  0.5157E-01  0.2613E+00
      4.151  0.4668E-01  0.2659E+00
      4.251  0.3908E-01  0.2698E+00
      4.351  0.3420E-01  0.2733E+00
      4.451  0.3435E-01  0.2767E+00
      4.552  0.3852E-01  0.2806E+00
      4.652  0.4490E-01  0.2851E+00
      4.752  0.5197E-01  0.2903E+00
      4.852  0.5917E-01  0.2962E+00
      4.952  0.6431E-01  0.3027E+00
      5.053  0.6302E-01  0.3090E+00
      5.153  0.5596E-01  0.3146E+00
      5.253  0.4949E-01  0.3195E+00
      5.353  0.4694E-01  0.3242E+00
      5.453  0.4744E-01  0.3290E+00
      5.554  0.4982E-01  0.3340E+00
      5.654  0.5186E-01  0.3392E+00
      5.754  0.5136E-01  0.3443E+00
      5.854  0.4942E-01  0.3493E+00
      5.955  0.4897E-01  0.3542E+00
      6.055  0.5173E-01  0.3594E+00
      6.155  0.5797E-01  0.3652E+00
      6.255  0.6573E-01  0.3718E+00
      6.355  0.6971E-01  0.3788E+00
      6.456  0.6521E-01  0.3853E+00
      6.556  0.5452E-01  0.3908E+00
      6.656  0.4648E-01  0.3954E+00
      6.756  0.4889E-01  0.4003E+00
      6.856  0.6061E-01  0.4064E+00
      6.957  0.7094E-01  0.4135E+00
      7.057  0.7168E-01  0.4207E+00
      7.157  0.6758E-01  0.4275E+00
      7.257  0.6725E-01  0.4342E+00
      7.358  0.7023E-01  0.4412E+00
      7.458  0.7143E-01  0.4484E+00
      7.558  0.7020E-01  0.4554E+00
      7.658  0.6744E-01  0.4622E+00
      7.758  0.6303E-01  0.4685E+00
      7.859  0.5857E-01  0.4744E+00
      7.959  0.5603E-01  0.4800E+00
      8.059  0.5528E-01  0.4855E+00
      8.159  0.5421E-01  0.4910E+00
      8.259  0.5098E-01  0.4961E+00
      8.360  0.4753E-01  0.5008E+00
      8.460  0.4611E-01  0.5055E+00
      8.560  0.4456E-01  0.5099E+00
      8.660  0.4262E-01  0.5142E+00
      8.760  0.4370E-01  0.5186E+00
      8.861  0.4748E-01  0.5233E+00
      8.961  0.4913E-01  0.5283E+00
      9.061  0.4571E-01  0.5328E+00
      9.161  0.4066E-01  0.5369E+00
      9.262  0.4070E-01  0.5410E+00
      9.362  0.4731E-01  0.5457E+00
      9.462  0.5519E-01  0.5513E+00
      9.562  0.5837E-01  0.5571E+00
      9.662  0.5491E-01  0.5626E+00
      9.763  0.4807E-01  0.5674E+00
      9.863  0.4229E-01  0.5717E+00
      9.963  0.3928E-01  0.5756E+00
     10.063  0.3891E-01  0.5795E+00
     10.163  0.4062E-01  0.5836E+00
     10.264  0.4421E-01  0.5880E+00
     10.364  0.4999E-01  0.5930E+00
     10.464  0.5496E-01  0.5985E+00
     10.564  0.5408E-01  0.6039E+00
     10.665  0.4916E-01  0.6089E+00
     10.765  0.4824E-01  0.6137E+00
     10.865  0.5485E-01  0.6192E+00
     10.965  0.6468E-01  0.6257E+00
     11.065  0.7046E-01  0.6327E+00
     11.166  0.6932E-01  0.6397E+00
     11.266  0.6504E-01  0.6462E+00
     11.366  0.5978E-01  0.6522E+00
     11.466  0.5317E-01  0.6575E+00
     11.566  0.4952E-01  0.6625E+00
     11.667  0.5335E-01  0.6678E+00
     11.767  0.6077E-01  0.6739E+00
     11.867  0.6480E-01  0.6804E+00
     11.967  0.6490E-01  0.6869E+00
     12.068  0.6394E-01  0.6933E+00
     12.168  0.6290E-01  0.6996E+00
     12.268  0.6259E-01  0.7059E+00
     12.368  0.6393E-01  0.7123E+00
     12.468  0.6566E-01  0.7189E+00
     12.569  0.6701E-01  0.7256E+00
     12.669  0.7070E-01  0.7327E+00
     12.769  0.7737E-01  0.7404E+00
     12.869  0.8136E-01  0.7486E+00
     12.969  0.7923E-01  0.7565E+00
     13.070  0.7441E-01  0.7640E+00
     13.170  0.6976E-01  0.7710E+00
     13.270  0.6628E-01  0.7776E+00
     13.370  0.6579E-01  0.7842E+00
     13.471  0.6664E-01  0.7909E+00
     13.571  0.6586E-01  0.7975E+00
     13.671  0.6473E-01  0.8040E+00
     13.771  0.6422E-01  0.8104E+00
     13.871  0.6267E-01  0.8167E+00
     13.972  0.6143E-01  0.8229E+00
     14.072  0.6494E-01  0.8294E+00
     14.172  0.7263E-01  0.8366E+00
     14.272  0.7830E-01  0.8445E+00
     14.372  0.7922E-01  0.8524E+00
     14.473  0.7755E-01  0.8602E+00
     14.573  0.7382E-01  0.8676E+00
     14.673  0.6751E-01  0.8744E+00
     14.773  0.6246E-01  0.8806E+00
     14.874  0.6172E-01  0.8868E+00
     14.974  0.6158E-01  0.8930E+00
     15.074  0.5976E-01  0.8990E+00
     15.174  0.6097E-01  0.9051E+00
     15.274  0.6785E-01  0.9119E+00
     15.375  0.7596E-01  0.9195E+00
     15.475  0.7908E-01  0.9274E+00
     15.575  0.7475E-01  0.9349E+00
     15.675  0.6578E-01  0.9415E+00
     15.775  0.5601E-01  0.9471E+00
     15.876  0.4807E-01  0.9519E+00
     15.976  0.4295E-01  0.9562E+00
     16.076  0.3936E-01  0.9602E+00
     16.176  0.3887E-01  0.9641E+00
     16.276  0.4379E-01  0.9685E+00
     16.377  0.4949E-01  0.9734E+00
     16.477  0.4974E-01  0.9784E+00
     16.577  0.4421E-01  0.9828E+00
     16.677  0.3730E-01  0.9866E+00
     16.778  0.3422E-01  0.9900E+00
     16.878  0.3571E-01  0.9936E+00
     16.978  0.3807E-01  0.9974E+00
     17.078  0.3924E-01  0.1001E+01
     17.178  0.3935E-01  0.1005E+01
     17.279  0.3855E-01  0.1009E+01
     17.379  0.3864E-01  0.1013E+01
     17.479  0.4140E-01  0.1017E+01
     17.579  0.4429E-01  0.1022E+01
     17.679  0.4334E-01  0.1026E+01
     17.780  0.3887E-01  0.1030E+01
     17.880  0.3366E-01  0.1033E+01
     17.980  0.2917E-01  0.1036E+01
     18.080  0.2591E-01  0.1039E+01
     18.181  0.2403E-01  0.1041E+01
     18.281  0.2325E-01  0.1043E+01
     18.381  0.2248E-01  0.1046E+01
     18.481  0.2064E-01  0.1048E+01
     18.581  0.1854E-01  0.1050E+01
     18.682  0.1689E-01  0.1051E+01
     18.782  0.1417E-01  0.1053E+01
     18.882  0.9860E-02  0.1054E+01
     18.982  0.6471E-02  0.1054E+01
     19.082  0.6268E-02  0.1055E+01
     19.183  0.8311E-02  0.1056E+01
     19.283  0.9369E-02  0.1057E+01
     19.383  0.7825E-02  0.1058E+01
     19.483  0.6065E-02  0.1058E+01
     19.584  0.7086E-02  0.1059E+01
     19.684  0.9950E-02  0.1060E+01
     19.784  0.1089E-01  0.1061E+01
     19.884  0.8374E-02  0.1062E+01
     19.984  0.4861E-02  0.1062E+01
     20.085  0.2951E-02  0.1063E+01
     20.185  0.2608E-02  0.1063E+01
     20.285  0.2993E-02  0.1063E+01
     20.385  0.3776E-02  0.1064E+01
     20.485  0.4322E-02  0.1064E+01
     20.586  0.4117E-02  0.1064E+01
     20.686  0.3669E-02  0.1065E+01
     20.786  0.3521E-02  0.1065E+01
     20.886  0.3388E-02  0.1065E+01
     20.987  0.2863E-02  0.1066E+01
     21.087  0.2052E-02  0.1066E+01
     21.187  0.1372E-02  0.1066E+01
     21.287  0.1111E-02  0.1066E+01
     21.387  0.1230E-02  0.1066E+01
     21.488  0.1385E-02  0.1066E+01
     21.588  0.1181E-02  0.1067E+01
     21.688  0.6725E-03  0.1067E+01
     21.788  0.2445E-03  0.1067E+01
     21.888  0.5589E-04  0.1067E+01
     21.989  0.7967E-05  0.1067E+01
     22.089  0.7051E-06  0.1067E+01
     22.189  0.3860E-07  0.1067E+01
     22.289  0.1303E-08  0.1067E+01
     22.390  0.2703E-10  0.1067E+01
     22.490  0.3441E-12  0.1067E+01
     22.590  0.2682E-14  0.1067E+01
     22.690  0.1282E-16  0.1067E+01
     22.790  0.0000E+00  0.1067E+01
     22.891  0.0000E+00  0.1067E+01
     22.991  0.0000E+00  0.1067E+01
     23.091  0.0000E+00  0.1067E+01
     23.191  0.0000E+00  0.1067E+01
     23.291  0.0000E+00  0.1067E+01
     23.392  0.0000E+00  0.1067E+01
     23.492  0.0000E+00  0.1067E+01
