<?xml version="1.0" encoding="ISO-8859-1"?>
<modeling>
 <generator>
  <i name="program" type="string">vasp </i>
  <i name="version" type="string">5.4.4.18Apr17-6-g9f103f2a35  </i>
  <i name="subversion" type="string">(build Dec 09 2018 21:25:21) complex            parallel </i>
  <i name="platform" type="string">IFC18.0.1.163_CrayMPICH7.7.0_MKL18.0.1.163 </i>
  <i name="date" type="string">2019 03 20 </i>
  <i name="time" type="string">09:34:06 </i>
 </generator>
 <incar>
  <i type="string" name="PREC">normal</i>
  <i type="int" name="IBRION">     2</i>
  <i name="EDIFF">      0.00040000</i>
  <i name="EDIFFG">     -0.01000000</i>
  <i type="int" name="NSW">    15</i>
  <i type="int" name="ISIF">     3</i>
  <i name="ENCUT">    350.00000000</i>
  <i type="int" name="NBANDS">     8</i>
  <i type="logical" name="LREAL"> F  </i>
  <i type="int" name="ISMEAR">     0</i>
  <i name="SIGMA">      0.20000000</i>
  <v type="int" name="KPOINT_BSE">    -1     0     0     0</v>
 </incar>
 <structure name="primitive_cell" >
  <crystal>
   <varray name="basis" >
    <v>      -2.45000000       2.45000000       1.27400000 </v>
    <v>       2.45000000      -2.45000000       1.27400000 </v>
    <v>       2.45000000       2.45000000      -1.27400000 </v>
   </varray>
   <i name="volume">     30.58874000 </i>
   <varray name="rec_basis" >
    <v>       0.00000000       0.20408163       0.39246468 </v>
    <v>       0.20408163       0.00000000       0.39246468 </v>
    <v>       0.20408163       0.20408163      -0.00000000 </v>
   </varray>
  </crystal>
  <varray name="positions" >
   <v>       0.25000000      -0.25000000      -0.50000000 </v>
   <v>       0.00000000       0.00000000       0.00000000 </v>
  </varray>
 </structure>
 <varray name="primitive_index" >
  <v type="int" >        1 </v>
  <v type="int" >        2 </v>
 </varray>
 <kpoints>
  <generation param="Monkhorst-Pack">
   <v type="int" name="divisions">      12       12       12 </v>
   <v name="usershift">      0.00000000       0.00000000       0.00000000 </v>
   <v name="genvec1">      0.08333333      -0.00000000       0.00000000 </v>
   <v name="genvec2">     -0.00000000       0.08333333       0.00000000 </v>
   <v name="genvec3">     -0.00000000      -0.00000000       0.08333333 </v>
   <v name="shift">      0.50000000       0.50000000       0.50000000 </v>
  </generation>
  <varray name="kpointlist" >
   <v>       0.04166667       0.04166667       0.04166667 </v>
   <v>       0.12500000       0.04166667       0.04166667 </v>
   <v>       0.20833333       0.04166667       0.04166667 </v>
   <v>       0.29166667       0.04166667       0.04166667 </v>
   <v>       0.37500000       0.04166667       0.04166667 </v>
   <v>       0.45833333       0.04166667       0.04166667 </v>
   <v>      -0.04166667       0.04166667       0.04166667 </v>
   <v>       0.12500000       0.12500000       0.04166667 </v>
   <v>       0.20833333       0.12500000       0.04166667 </v>
   <v>       0.29166667       0.12500000       0.04166667 </v>
   <v>       0.37500000       0.12500000       0.04166667 </v>
   <v>       0.45833333       0.12500000       0.04166667 </v>
   <v>      -0.45833333       0.12500000       0.04166667 </v>
   <v>      -0.37500000       0.12500000       0.04166667 </v>
   <v>      -0.29166667       0.12500000       0.04166667 </v>
   <v>      -0.20833333       0.12500000       0.04166667 </v>
   <v>      -0.12500000       0.12500000       0.04166667 </v>
   <v>      -0.04166667       0.12500000       0.04166667 </v>
   <v>       0.20833333       0.20833333       0.04166667 </v>
   <v>       0.29166667       0.20833333       0.04166667 </v>
   <v>       0.37500000       0.20833333       0.04166667 </v>
   <v>       0.45833333       0.20833333       0.04166667 </v>
   <v>      -0.45833333       0.20833333       0.04166667 </v>
   <v>      -0.37500000       0.20833333       0.04166667 </v>
   <v>      -0.29166667       0.20833333       0.04166667 </v>
   <v>      -0.20833333       0.20833333       0.04166667 </v>
   <v>      -0.12500000       0.20833333       0.04166667 </v>
   <v>      -0.04166667       0.20833333       0.04166667 </v>
   <v>       0.29166667       0.29166667       0.04166667 </v>
   <v>       0.37500000       0.29166667       0.04166667 </v>
   <v>       0.45833333       0.29166667       0.04166667 </v>
   <v>      -0.45833333       0.29166667       0.04166667 </v>
   <v>      -0.37500000       0.29166667       0.04166667 </v>
   <v>      -0.29166667       0.29166667       0.04166667 </v>
   <v>      -0.20833333       0.29166667       0.04166667 </v>
   <v>      -0.12500000       0.29166667       0.04166667 </v>
   <v>      -0.04166667       0.29166667       0.04166667 </v>
   <v>       0.37500000       0.37500000       0.04166667 </v>
   <v>       0.45833333       0.37500000       0.04166667 </v>
   <v>      -0.45833333       0.37500000       0.04166667 </v>
   <v>      -0.37500000       0.37500000       0.04166667 </v>
   <v>      -0.29166667       0.37500000       0.04166667 </v>
   <v>      -0.20833333       0.37500000       0.04166667 </v>
   <v>      -0.12500000       0.37500000       0.04166667 </v>
   <v>      -0.04166667       0.37500000       0.04166667 </v>
   <v>       0.45833333       0.45833333       0.04166667 </v>
   <v>      -0.45833333       0.45833333       0.04166667 </v>
   <v>      -0.37500000       0.45833333       0.04166667 </v>
   <v>      -0.29166667       0.45833333       0.04166667 </v>
   <v>      -0.20833333       0.45833333       0.04166667 </v>
   <v>      -0.12500000       0.45833333       0.04166667 </v>
   <v>      -0.04166667       0.45833333       0.04166667 </v>
   <v>      -0.45833333      -0.45833333       0.04166667 </v>
   <v>      -0.37500000      -0.45833333       0.04166667 </v>
   <v>      -0.29166667      -0.45833333       0.04166667 </v>
   <v>      -0.20833333      -0.45833333       0.04166667 </v>
   <v>      -0.12500000      -0.45833333       0.04166667 </v>
   <v>      -0.04166667      -0.45833333       0.04166667 </v>
   <v>      -0.37500000      -0.37500000       0.04166667 </v>
   <v>      -0.29166667      -0.37500000       0.04166667 </v>
   <v>      -0.20833333      -0.37500000       0.04166667 </v>
   <v>      -0.12500000      -0.37500000       0.04166667 </v>
   <v>      -0.04166667      -0.37500000       0.04166667 </v>
   <v>      -0.29166667      -0.29166667       0.04166667 </v>
   <v>      -0.20833333      -0.29166667       0.04166667 </v>
   <v>      -0.12500000      -0.29166667       0.04166667 </v>
   <v>      -0.04166667      -0.29166667       0.04166667 </v>
   <v>      -0.20833333      -0.20833333       0.04166667 </v>
   <v>      -0.12500000      -0.20833333       0.04166667 </v>
   <v>      -0.04166667      -0.20833333       0.04166667 </v>
   <v>      -0.12500000      -0.12500000       0.04166667 </v>
   <v>      -0.04166667      -0.12500000       0.04166667 </v>
   <v>      -0.04166667      -0.04166667       0.04166667 </v>
   <v>       0.12500000       0.12500000       0.12500000 </v>
   <v>       0.20833333       0.12500000       0.12500000 </v>
   <v>       0.29166667       0.12500000       0.12500000 </v>
   <v>       0.37500000       0.12500000       0.12500000 </v>
   <v>      -0.12500000       0.12500000       0.12500000 </v>
   <v>       0.20833333       0.20833333       0.12500000 </v>
   <v>       0.29166667       0.20833333       0.12500000 </v>
   <v>       0.37500000       0.20833333       0.12500000 </v>
   <v>       0.45833333       0.20833333       0.12500000 </v>
   <v>      -0.45833333       0.20833333       0.12500000 </v>
   <v>      -0.20833333       0.20833333       0.12500000 </v>
   <v>      -0.12500000       0.20833333       0.12500000 </v>
   <v>       0.29166667       0.29166667       0.12500000 </v>
   <v>       0.37500000       0.29166667       0.12500000 </v>
   <v>       0.45833333       0.29166667       0.12500000 </v>
   <v>      -0.29166667       0.29166667       0.12500000 </v>
   <v>      -0.20833333       0.29166667       0.12500000 </v>
   <v>      -0.12500000       0.29166667       0.12500000 </v>
   <v>       0.37500000       0.37500000       0.12500000 </v>
   <v>      -0.37500000       0.37500000       0.12500000 </v>
   <v>      -0.29166667       0.37500000       0.12500000 </v>
   <v>      -0.20833333       0.37500000       0.12500000 </v>
   <v>      -0.12500000       0.37500000       0.12500000 </v>
   <v>      -0.45833333       0.45833333       0.12500000 </v>
   <v>      -0.37500000       0.45833333       0.12500000 </v>
   <v>      -0.29166667       0.45833333       0.12500000 </v>
   <v>      -0.20833333       0.45833333       0.12500000 </v>
   <v>      -0.12500000       0.45833333       0.12500000 </v>
   <v>      -0.45833333      -0.45833333       0.12500000 </v>
   <v>      -0.37500000      -0.45833333       0.12500000 </v>
   <v>      -0.29166667      -0.45833333       0.12500000 </v>
   <v>      -0.20833333      -0.45833333       0.12500000 </v>
   <v>      -0.12500000      -0.45833333       0.12500000 </v>
   <v>      -0.37500000      -0.37500000       0.12500000 </v>
   <v>      -0.29166667      -0.37500000       0.12500000 </v>
   <v>      -0.20833333      -0.37500000       0.12500000 </v>
   <v>      -0.12500000      -0.37500000       0.12500000 </v>
   <v>      -0.29166667      -0.29166667       0.12500000 </v>
   <v>      -0.20833333      -0.29166667       0.12500000 </v>
   <v>      -0.12500000      -0.29166667       0.12500000 </v>
   <v>      -0.20833333      -0.20833333       0.12500000 </v>
   <v>      -0.12500000      -0.20833333       0.12500000 </v>
   <v>      -0.12500000      -0.12500000       0.12500000 </v>
   <v>       0.20833333       0.20833333       0.20833333 </v>
   <v>       0.29166667       0.20833333       0.20833333 </v>
   <v>      -0.20833333       0.20833333       0.20833333 </v>
   <v>       0.29166667       0.29166667       0.20833333 </v>
   <v>      -0.29166667       0.29166667       0.20833333 </v>
   <v>      -0.20833333       0.29166667       0.20833333 </v>
   <v>      -0.37500000       0.37500000       0.20833333 </v>
   <v>      -0.29166667       0.37500000       0.20833333 </v>
   <v>      -0.20833333       0.37500000       0.20833333 </v>
   <v>      -0.45833333       0.45833333       0.20833333 </v>
   <v>      -0.37500000       0.45833333       0.20833333 </v>
   <v>      -0.29166667       0.45833333       0.20833333 </v>
   <v>      -0.20833333       0.45833333       0.20833333 </v>
   <v>      -0.45833333      -0.45833333       0.20833333 </v>
   <v>      -0.37500000      -0.45833333       0.20833333 </v>
   <v>      -0.29166667      -0.45833333       0.20833333 </v>
   <v>      -0.20833333      -0.45833333       0.20833333 </v>
   <v>      -0.37500000      -0.37500000       0.20833333 </v>
   <v>      -0.29166667      -0.37500000       0.20833333 </v>
   <v>      -0.20833333      -0.37500000       0.20833333 </v>
   <v>      -0.29166667      -0.29166667       0.20833333 </v>
   <v>      -0.20833333      -0.29166667       0.20833333 </v>
   <v>      -0.20833333      -0.20833333       0.20833333 </v>
   <v>      -0.29166667       0.29166667       0.29166667 </v>
   <v>      -0.37500000       0.37500000       0.29166667 </v>
   <v>      -0.29166667       0.37500000       0.29166667 </v>
   <v>      -0.45833333       0.45833333       0.29166667 </v>
   <v>      -0.37500000       0.45833333       0.29166667 </v>
   <v>      -0.29166667       0.45833333       0.29166667 </v>
   <v>      -0.45833333      -0.45833333       0.29166667 </v>
   <v>      -0.37500000      -0.45833333       0.29166667 </v>
   <v>      -0.29166667      -0.45833333       0.29166667 </v>
   <v>      -0.37500000      -0.37500000       0.29166667 </v>
   <v>      -0.29166667      -0.37500000       0.29166667 </v>
   <v>      -0.29166667      -0.29166667       0.29166667 </v>
   <v>      -0.37500000       0.37500000       0.37500000 </v>
   <v>      -0.45833333       0.45833333       0.37500000 </v>
   <v>      -0.37500000       0.45833333       0.37500000 </v>
   <v>      -0.45833333      -0.45833333       0.37500000 </v>
   <v>      -0.37500000      -0.45833333       0.37500000 </v>
   <v>      -0.37500000      -0.37500000       0.37500000 </v>
   <v>      -0.45833333       0.45833333       0.45833333 </v>
   <v>      -0.45833333      -0.45833333       0.45833333 </v>
  </varray>
  <varray name="weights" >
   <v>       0.00462963 </v>
   <v>       0.00925926 </v>
   <v>       0.00925926 </v>
   <v>       0.00925926 </v>
   <v>       0.00925926 </v>
   <v>       0.00462963 </v>
   <v>       0.00231481 </v>
   <v>       0.00462963 </v>
   <v>       0.00925926 </v>
   <v>       0.00925926 </v>
   <v>       0.00925926 </v>
   <v>       0.00925926 </v>
   <v>       0.00925926 </v>
   <v>       0.00925926 </v>
   <v>       0.00925926 </v>
   <v>       0.00462963 </v>
   <v>       0.00462963 </v>
   <v>       0.00462963 </v>
   <v>       0.00462963 </v>
   <v>       0.00925926 </v>
   <v>       0.00925926 </v>
   <v>       0.00925926 </v>
   <v>       0.00925926 </v>
   <v>       0.00925926 </v>
   <v>       0.00462963 </v>
   <v>       0.00462963 </v>
   <v>       0.00925926 </v>
   <v>       0.00462963 </v>
   <v>       0.00462963 </v>
   <v>       0.00925926 </v>
   <v>       0.00925926 </v>
   <v>       0.00925926 </v>
   <v>       0.00462963 </v>
   <v>       0.00462963 </v>
   <v>       0.00925926 </v>
   <v>       0.00925926 </v>
   <v>       0.00462963 </v>
   <v>       0.00462963 </v>
   <v>       0.00925926 </v>
   <v>       0.00462963 </v>
   <v>       0.00462963 </v>
   <v>       0.00925926 </v>
   <v>       0.00925926 </v>
   <v>       0.00925926 </v>
   <v>       0.00462963 </v>
   <v>       0.00231481 </v>
   <v>       0.00462963 </v>
   <v>       0.00925926 </v>
   <v>       0.00925926 </v>
   <v>       0.00925926 </v>
   <v>       0.00925926 </v>
   <v>       0.00462963 </v>
   <v>       0.00462963 </v>
   <v>       0.00925926 </v>
   <v>       0.00925926 </v>
   <v>       0.00925926 </v>
   <v>       0.00925926 </v>
   <v>       0.00462963 </v>
   <v>       0.00462963 </v>
   <v>       0.00925926 </v>
   <v>       0.00925926 </v>
   <v>       0.00925926 </v>
   <v>       0.00462963 </v>
   <v>       0.00462963 </v>
   <v>       0.00925926 </v>
   <v>       0.00925926 </v>
   <v>       0.00462963 </v>
   <v>       0.00462963 </v>
   <v>       0.00925926 </v>
   <v>       0.00462963 </v>
   <v>       0.00462963 </v>
   <v>       0.00462963 </v>
   <v>       0.00115741 </v>
   <v>       0.00462963 </v>
   <v>       0.00925926 </v>
   <v>       0.00925926 </v>
   <v>       0.00462963 </v>
   <v>       0.00231481 </v>
   <v>       0.00462963 </v>
   <v>       0.00925926 </v>
   <v>       0.00925926 </v>
   <v>       0.00925926 </v>
   <v>       0.00462963 </v>
   <v>       0.00462963 </v>
   <v>       0.00462963 </v>
   <v>       0.00462963 </v>
   <v>       0.00925926 </v>
   <v>       0.00462963 </v>
   <v>       0.00462963 </v>
   <v>       0.00925926 </v>
   <v>       0.00462963 </v>
   <v>       0.00231481 </v>
   <v>       0.00462963 </v>
   <v>       0.00925926 </v>
   <v>       0.00925926 </v>
   <v>       0.00462963 </v>
   <v>       0.00462963 </v>
   <v>       0.00925926 </v>
   <v>       0.00925926 </v>
   <v>       0.00925926 </v>
   <v>       0.00462963 </v>
   <v>       0.00462963 </v>
   <v>       0.00925926 </v>
   <v>       0.00925926 </v>
   <v>       0.00925926 </v>
   <v>       0.00462963 </v>
   <v>       0.00462963 </v>
   <v>       0.00925926 </v>
   <v>       0.00925926 </v>
   <v>       0.00462963 </v>
   <v>       0.00462963 </v>
   <v>       0.00925926 </v>
   <v>       0.00462963 </v>
   <v>       0.00462963 </v>
   <v>       0.00462963 </v>
   <v>       0.00115741 </v>
   <v>       0.00462963 </v>
   <v>       0.00462963 </v>
   <v>       0.00231481 </v>
   <v>       0.00231481 </v>
   <v>       0.00462963 </v>
   <v>       0.00462963 </v>
   <v>       0.00462963 </v>
   <v>       0.00925926 </v>
   <v>       0.00462963 </v>
   <v>       0.00462963 </v>
   <v>       0.00925926 </v>
   <v>       0.00925926 </v>
   <v>       0.00462963 </v>
   <v>       0.00462963 </v>
   <v>       0.00925926 </v>
   <v>       0.00925926 </v>
   <v>       0.00462963 </v>
   <v>       0.00462963 </v>
   <v>       0.00925926 </v>
   <v>       0.00462963 </v>
   <v>       0.00462963 </v>
   <v>       0.00462963 </v>
   <v>       0.00115741 </v>
   <v>       0.00231481 </v>
   <v>       0.00462963 </v>
   <v>       0.00462963 </v>
   <v>       0.00462963 </v>
   <v>       0.00925926 </v>
   <v>       0.00462963 </v>
   <v>       0.00462963 </v>
   <v>       0.00925926 </v>
   <v>       0.00462963 </v>
   <v>       0.00462963 </v>
   <v>       0.00462963 </v>
   <v>       0.00115741 </v>
   <v>       0.00231481 </v>
   <v>       0.00462963 </v>
   <v>       0.00462963 </v>
   <v>       0.00462963 </v>
   <v>       0.00462963 </v>
   <v>       0.00115741 </v>
   <v>       0.00231481 </v>
   <v>       0.00115741 </v>
  </varray>
 </kpoints>
 <parameters>
  <separator name="general" >
   <i type="string" name="SYSTEM">unknown system</i>
   <i type="logical" name="LCOMPAT"> F  </i>
  </separator>
  <separator name="electronic" >
   <i type="string" name="PREC">normal</i>
   <i name="ENMAX">    350.00000000</i>
   <i name="ENAUG">    322.06900000</i>
   <i name="EDIFF">      0.00040000</i>
   <i type="int" name="IALGO">    38</i>
   <i type="int" name="IWAVPR">    11</i>
   <i type="int" name="NBANDS">     8</i>
   <i name="NELECT">      8.00000000</i>
   <i type="int" name="TURBO">     0</i>
   <i type="int" name="IRESTART">     0</i>
   <i type="int" name="NREBOOT">     0</i>
   <i type="int" name="NMIN">     0</i>
   <i name="EREF">      0.00000000</i>
   <separator name="electronic smearing" >
    <i type="int" name="ISMEAR">     0</i>
    <i name="SIGMA">      0.20000000</i>
    <i name="KSPACING">      0.50000000</i>
    <i type="logical" name="KGAMMA"> T  </i>
   </separator>
   <separator name="electronic projectors" >
    <i type="logical" name="LREAL"> F  </i>
    <v name="ROPT">      0.00000000</v>
    <i type="int" name="LMAXPAW">  -100</i>
    <i type="int" name="LMAXMIX">     2</i>
    <i type="logical" name="NLSPLINE"> F  </i>
   </separator>
   <separator name="electronic startup" >
    <i type="int" name="ISTART">     0</i>
    <i type="int" name="ICHARG">     2</i>
    <i type="int" name="INIWAV">     1</i>
   </separator>
   <separator name="electronic spin" >
    <i type="int" name="ISPIN">     1</i>
    <i type="logical" name="LNONCOLLINEAR"> F  </i>
    <v name="MAGMOM">      1.00000000      1.00000000</v>
    <i name="NUPDOWN">     -1.00000000</i>
    <i type="logical" name="LSORBIT"> F  </i>
    <v name="SAXIS">      0.00000000      0.00000000      1.00000000</v>
    <i type="logical" name="LSPIRAL"> F  </i>
    <v name="QSPIRAL">      0.00000000      0.00000000      0.00000000</v>
    <i type="logical" name="LZEROZ"> F  </i>
   </separator>
   <separator name="electronic exchange-correlation" >
    <i type="logical" name="LASPH"> F  </i>
    <i type="logical" name="LMETAGGA"> F  </i>
   </separator>
   <separator name="electronic convergence" >
    <i type="int" name="NELM">    60</i>
    <i type="int" name="NELMDL">    -5</i>
    <i type="int" name="NELMIN">     2</i>
    <i name="ENINI">    350.00000000</i>
    <separator name="electronic convergence detail" >
     <i type="logical" name="LDIAG"> T  </i>
     <i type="logical" name="LSUBROT"> F  </i>
     <i name="WEIMIN">      0.00100000</i>
     <i name="EBREAK">      0.00001250</i>
     <i name="DEPER">      0.30000000</i>
     <i type="int" name="NRMM">     4</i>
     <i name="TIME">      0.40000000</i>
    </separator>
   </separator>
   <separator name="electronic mixer" >
    <i name="AMIX">      0.40000000</i>
    <i name="BMIX">      1.00000000</i>
    <i name="AMIN">      0.10000000</i>
    <i name="AMIX_MAG">      1.60000000</i>
    <i name="BMIX_MAG">      1.00000000</i>
    <separator name="electronic mixer details" >
     <i type="int" name="IMIX">     4</i>
     <i type="logical" name="MIXFIRST"> F  </i>
     <i type="int" name="MAXMIX">   -45</i>
     <i name="WC">    100.00000000</i>
     <i type="int" name="INIMIX">     1</i>
     <i type="int" name="MIXPRE">     1</i>
     <i type="int" name="MREMOVE">     5</i>
    </separator>
   </separator>
   <separator name="electronic dipolcorrection" >
    <i type="logical" name="LDIPOL"> F  </i>
    <i type="logical" name="LMONO"> F  </i>
    <i type="int" name="IDIPOL">     0</i>
    <i name="EPSILON">      1.00000000</i>
    <v name="DIPOL">   -100.00000000   -100.00000000   -100.00000000</v>
    <i name="EFIELD">      0.00000000</i>
   </separator>
  </separator>
  <separator name="grids" >
   <i type="int" name="NGX">    18</i>
   <i type="int" name="NGY">    18</i>
   <i type="int" name="NGZ">    18</i>
   <i type="int" name="NGXF">    36</i>
   <i type="int" name="NGYF">    36</i>
   <i type="int" name="NGZF">    36</i>
   <i type="logical" name="ADDGRID"> F  </i>
  </separator>
  <separator name="ionic" >
   <i type="int" name="NSW">    15</i>
   <i type="int" name="IBRION">     2</i>
   <i type="int" name="MDALGO">     0</i>
   <i type="int" name="ISIF">     3</i>
   <i name="PSTRESS">      0.00000000</i>
   <i name="EDIFFG">     -0.01000000</i>
   <i type="int" name="NFREE">     1</i>
   <i name="POTIM">      0.50000000</i>
   <i name="SMASS">     -3.00000000</i>
   <i name="SCALEE">      1.00000000</i>
  </separator>
  <separator name="ionic md" >
   <i name="TEBEG">      0.00010000</i>
   <i name="TEEND">      0.00010000</i>
   <i type="int" name="NBLOCK">     1</i>
   <i type="int" name="KBLOCK">    15</i>
   <i type="int" name="NPACO">   256</i>
   <i name="APACO">     16.00000000</i>
  </separator>
  <separator name="symmetry" >
   <i type="int" name="ISYM">     2</i>
   <i name="SYMPREC">      0.00001000</i>
  </separator>
  <separator name="dos" >
   <i type="int" name="LORBIT">     0</i>
   <v name="RWIGS">     -1.00000000</v>
   <i type="int" name="NEDOS">   301</i>
   <i name="EMIN">     10.00000000</i>
   <i name="EMAX">    -10.00000000</i>
   <i name="EFERMI">      0.00000000</i>
  </separator>
  <separator name="writing" >
   <i type="int" name="NWRITE">     2</i>
   <i type="logical" name="LWAVE"> T  </i>
   <i type="logical" name="LDOWNSAMPLE"> F  </i>
   <i type="logical" name="LCHARG"> T  </i>
   <i type="logical" name="LPARD"> F  </i>
   <i type="logical" name="LVTOT"> F  </i>
   <i type="logical" name="LVHAR"> F  </i>
   <i type="logical" name="LELF"> F  </i>
   <i type="logical" name="LOPTICS"> F  </i>
   <v name="STM">      0.00000000      0.00000000      0.00000000      0.00000000      0.00000000      0.00000000      0.00000000</v>
  </separator>
  <separator name="performance" >
   <i type="int" name="NPAR">     8</i>
   <i type="int" name="NSIM">     4</i>
   <i type="int" name="NBLK">    -1</i>
   <i type="logical" name="LPLANE"> T  </i>
   <i type="logical" name="LSCALAPACK"> T  </i>
   <i type="logical" name="LSCAAWARE"> F  </i>
   <i type="logical" name="LSCALU"> F  </i>
   <i type="logical" name="LASYNC"> F  </i>
   <i type="logical" name="LORBITALREAL"> F  </i>
  </separator>
  <separator name="miscellaneous" >
   <i type="int" name="IDIOT">     3</i>
   <i type="int" name="ISPECIAL">     0</i>
   <i type="logical" name="LMUSIC"> F  </i>
   <v name="POMASS">     28.08500000</v>
   <v name="DARWINR">      0.00000000</v>
   <v name="DARWINV">      1.00000000</v>
   <i type="logical" name="LCORR"> T  </i>
  </separator>
  <i type="logical" name="GGA_COMPAT"> T  </i>
  <i type="logical" name="LBERRY"> F  </i>
  <i type="int" name="ICORELEVEL">     0</i>
  <i type="logical" name="LDAU"> F  </i>
  <i type="int" name="I_CONSTRAINED_M">     0</i>
  <separator name="electronic exchange-correlation" >
   <i type="string" name="GGA">--</i>
   <i type="int" name="VOSKOWN">     0</i>
   <i type="logical" name="LHFCALC"> F  </i>
   <i type="string" name="PRECFOCK"></i>
   <i type="logical" name="LSYMGRAD"> F  </i>
   <i type="logical" name="LHFONE"> F  </i>
   <i type="logical" name="LRHFCALC"> F  </i>
   <i type="logical" name="LTHOMAS"> F  </i>
   <i type="logical" name="LMODELHF"> F  </i>
   <i name="ENCUT4O">     -1.00000000</i>
   <i type="int" name="EXXOEP">     0</i>
   <i type="int" name="FOURORBIT">     0</i>
   <i name="AEXX">      0.00000000</i>
   <i name="HFALPHA">      0.00000000</i>
   <i name="MCALPHA">      0.00000000</i>
   <i name="ALDAX">      1.00000000</i>
   <i name="AGGAX">      1.00000000</i>
   <i name="ALDAC">      1.00000000</i>
   <i name="AGGAC">      1.00000000</i>
   <i type="int" name="NKREDX">     1</i>
   <i type="int" name="NKREDY">     1</i>
   <i type="int" name="NKREDZ">     1</i>
   <i type="logical" name="SHIFTRED"> F  </i>
   <i type="logical" name="ODDONLY"> F  </i>
   <i type="logical" name="EVENONLY"> F  </i>
   <i type="int" name="LMAXFOCK">     0</i>
   <i type="int" name="NMAXFOCKAE">     0</i>
   <i type="logical" name="LFOCKAEDFT"> F  </i>
   <i name="HFSCREEN">      0.00000000</i>
   <i name="HFSCREENC">      0.00000000</i>
   <i type="int" name="NBANDSGWLOW">     0</i>
  </separator>
  <separator name="vdW DFT" >
   <i type="logical" name="LUSE_VDW"> F  </i>
   <i name="Zab_VDW">     -0.84910000</i>
   <i name="PARAM1">      0.12340000</i>
   <i name="PARAM2">      1.00000000</i>
   <i name="PARAM3">      0.00000000</i>
  </separator>
  <separator name="model GW" >
   <i type="int" name="MODEL_GW">     0</i>
   <i name="MODEL_EPS0">      9.17662200</i>
   <i name="MODEL_ALPHA">      1.00000000</i>
  </separator>
  <separator name="linear response parameters" >
   <i type="logical" name="LEPSILON"> F  </i>
   <i type="logical" name="LRPA"> F  </i>
   <i type="logical" name="LNABLA"> F  </i>
   <i type="logical" name="LVEL"> F  </i>
   <i type="int" name="KINTER">     0</i>
   <i name="CSHIFT">      0.10000000</i>
   <i name="OMEGAMAX">     -1.00000000</i>
   <i name="DEG_THRESHOLD">      0.00200000</i>
   <i name="RTIME">     -0.10000000</i>
   <i name="WPLASMAI">      0.00000000</i>
   <v name="DFIELD">      0.00000000      0.00000000      0.00000000</v>
   <v name="WPLASMA">      0.00000000      0.00000000      0.00000000      0.00000000      0.00000000      0.00000000      0.00000000      0.00000000      0.00000000</v>
  </separator>
  <separator name="orbital magnetization" >
   <i type="logical" name="NUCIND"> F  </i>
   <v name="MAGPOS">      0.00000000      0.00000000      0.00000000</v>
   <i type="logical" name="LNICSALL"> T  </i>
   <i type="logical" name="ORBITALMAG"> F  </i>
   <i type="logical" name="LMAGBLOCH"> F  </i>
   <i type="logical" name="LCHIMAG"> F  </i>
   <i type="logical" name="LGAUGE"> T  </i>
   <i type="int" name="MAGATOM">     0</i>
   <v name="MAGDIPOL">      0.00000000      0.00000000      0.00000000</v>
   <v name="AVECCONST">      0.00000000      0.00000000      0.00000000</v>
  </separator>
  <separator name="response functions" >
   <i type="logical" name="LADDER"> F  </i>
   <i type="logical" name="LRPAFORCE"> F  </i>
   <i type="logical" name="LFXC"> F  </i>
   <i type="logical" name="LHARTREE"> T  </i>
   <i type="int" name="IBSE">     0</i>
   <v type="int" name="KPOINT">    -1     0     0     0</v>
   <i type="logical" name="LTCTE"> F  </i>
   <i type="logical" name="LTETE"> F  </i>
   <i type="logical" name="LTRIPLET"> F  </i>
   <i type="logical" name="LFXCEPS"> F  </i>
   <i type="logical" name="LFXHEG"> F  </i>
   <i type="int" name="NATURALO">     2</i>
   <i type="logical" name="L2ORDER"> F  </i>
   <i type="logical" name="LMP2LT"> F  </i>
   <i type="logical" name="LUSEW"> F  </i>
   <i name="ENCUTGW">     -2.00000000</i>
   <i name="ENCUTGWSOFT">     -2.00000000</i>
   <i name="ENCUTLF">     -1.00000000</i>
   <i type="int" name="LMAXMP2">    -1</i>
   <i name="SCISSOR">      0.00000000</i>
   <i type="int" name="NOMEGA">     0</i>
   <i type="int" name="NOMEGAR">     0</i>
   <i type="int" name="NBANDSGW">    -1</i>
   <i type="int" name="NBANDSO">    -1</i>
   <i type="int" name="NBANDSV">    -1</i>
   <i type="int" name="NELM">     1</i>
   <i type="int" name="NELMHF">     1</i>
   <i type="int" name="DIM">     3</i>
   <i type="int" name="ANTIRES">     0</i>
   <i name="OMEGAMAX">    -30.00000000</i>
   <i name="OMEGAMIN">    -30.00000000</i>
   <i name="OMEGATL">   -200.00000000</i>
   <i type="int" name="OMEGAGRID">   140</i>
   <i name="CSHIFT">     -0.10000000</i>
   <i type="logical" name="SELFENERGY"> F  </i>
   <i type="logical" name="LSPECTRAL"> F  </i>
   <i type="logical" name="LSPECTRALGW"> F  </i>
   <i type="logical" name="LSINGLES"> F  </i>
   <i type="logical" name="LFERMIGW"> F  </i>
   <i type="logical" name="ODDONLYGW"> F  </i>
   <i type="logical" name="EVENONLYGW"> F  </i>
   <i type="int" name="NKREDLFX">     1</i>
   <i type="int" name="NKREDLFY">     1</i>
   <i type="int" name="NKREDLFZ">     1</i>
   <i type="int" name="MAXMEM">  2800</i>
   <i type="int" name="TELESCOPE">     0</i>
   <i type="int" name="TAUPAR">     1</i>
   <i type="int" name="OMEGAPAR">    -1</i>
   <i name="LAMBDA">      1.00000000</i>
  </separator>
  <separator name="External order field" >
   <i name="OFIELD_KAPPA">      0.00000000</i>
   <v name="OFIELD_K">      0.00000000      0.00000000      0.00000000</v>
   <i name="OFIELD_Q6_NEAR">      0.00000000</i>
   <i name="OFIELD_Q6_FAR">      0.00000000</i>
   <i name="OFIELD_A">      0.00000000</i>
  </separator>
 </parameters>
 <atominfo>
  <atoms>       2 </atoms>
  <types>       1 </types>
  <array name="atoms" >
   <dimension dim="1">ion</dimension>
   <field type="string">element</field>
   <field type="int">atomtype</field>
   <set>
    <rc><c>Si</c><c>   1</c></rc>
    <rc><c>Si</c><c>   1</c></rc>
   </set>
  </array>
  <array name="atomtypes" >
   <dimension dim="1">type</dimension>
   <field type="int">atomspertype</field>
   <field type="string">element</field>
   <field>mass</field>
   <field>valence</field>
   <field type="string">pseudopotential</field>
   <set>
    <rc><c>   2</c><c>Si</c><c>     28.08500000</c><c>      4.00000000</c><c> PAW_PBE Si 05Jan2001                   </c></rc>
   </set>
  </array>
 </atominfo>
 <structure name="initialpos" >
  <crystal>
   <varray name="basis" >
    <v>      -2.45000000       2.45000000       1.27400000 </v>
    <v>       2.45000000      -2.45000000       1.27400000 </v>
    <v>       2.45000000       2.45000000      -1.27400000 </v>
   </varray>
   <i name="volume">     30.58874000 </i>
   <varray name="rec_basis" >
    <v>       0.00000000       0.20408163       0.39246468 </v>
    <v>       0.20408163       0.00000000       0.39246468 </v>
    <v>       0.20408163       0.20408163      -0.00000000 </v>
   </varray>
  </crystal>
  <varray name="positions" >
   <v>       0.25000000       0.75000000       0.50000000 </v>
   <v>       0.00000000       0.00000000       0.00000000 </v>
  </varray>
 </structure>
 <calculation>
  <scstep>
   <time name="dav">    2.03    2.04</time>
   <time name="total">    2.08    2.11</time>
   <energy>
    <i name="alphaZ">      4.40202223 </i>
    <i name="ewald">   -265.18101312 </i>
    <i name="hartreedc">     -2.30415367 </i>
    <i name="XCdc">    -17.81549222 </i>
    <i name="pawpsdc">     65.95520812 </i>
    <i name="pawaedc">    -30.76852678 </i>
    <i name="eentropy">     -0.01607134 </i>
    <i name="bandstr">     40.91629936 </i>
    <i name="atom">    206.13125414 </i>
    <i name="e_fr_energy">      1.31952672 </i>
    <i name="e_wo_entrp">      1.33559806 </i>
    <i name="e_0_energy">      1.32756239 </i>
   </energy>
  </scstep>
  <scstep>
   <time name="dav">    2.96    2.98</time>
   <time name="total">    2.96    2.99</time>
   <energy>
    <i name="e_fr_energy">    -10.12038631 </i>
    <i name="e_wo_entrp">    -10.10663043 </i>
    <i name="e_0_energy">    -10.11350837 </i>
   </energy>
  </scstep>
  <scstep>
   <time name="dav">    2.64    2.65</time>
   <time name="total">    2.64    2.65</time>
   <energy>
    <i name="e_fr_energy">    -10.25950288 </i>
    <i name="e_wo_entrp">    -10.24549287 </i>
    <i name="e_0_energy">    -10.25249787 </i>
   </energy>
  </scstep>
  <scstep>
   <time name="dav">    3.07    3.08</time>
   <time name="total">    3.08    3.09</time>
   <energy>
    <i name="e_fr_energy">    -10.26001351 </i>
    <i name="e_wo_entrp">    -10.24600929 </i>
    <i name="e_0_energy">    -10.25301140 </i>
   </energy>
  </scstep>
  <scstep>
   <time name="dav">    2.68    2.69</time>
   <time name="total">    2.83    2.84</time>
   <energy>
    <i name="e_fr_energy">    -10.26001474 </i>
    <i name="e_wo_entrp">    -10.24601051 </i>
    <i name="e_0_energy">    -10.25301262 </i>
   </energy>
  </scstep>
  <scstep>
   <time name="dav">    2.60    2.60</time>
   <time name="total">    2.78    2.80</time>
   <energy>
    <i name="e_fr_energy">    -10.25552062 </i>
    <i name="e_wo_entrp">    -10.24150939 </i>
    <i name="e_0_energy">    -10.24851500 </i>
   </energy>
  </scstep>
  <scstep>
   <time name="dav">    2.23    2.23</time>
   <time name="total">    2.41    2.43</time>
   <energy>
    <i name="e_fr_energy">    -10.25176429 </i>
    <i name="e_wo_entrp">    -10.23774252 </i>
    <i name="e_0_energy">    -10.24475341 </i>
   </energy>
  </scstep>
  <scstep>
   <time name="dav">    1.57    1.57</time>
   <time name="total">    1.62    1.64</time>
   <energy>
    <i name="alphaZ">      4.40202223 </i>
    <i name="ewald">   -265.18101312 </i>
    <i name="hartreedc">     -2.49017718 </i>
    <i name="XCdc">    -17.58452972 </i>
    <i name="pawpsdc">     70.17732051 </i>
    <i name="pawaedc">    -35.08857325 </i>
    <i name="eentropy">     -0.01401970 </i>
    <i name="bandstr">     29.39596589 </i>
    <i name="atom">    206.13125414 </i>
    <i name="e_fr_energy">    -10.25175018 </i>
    <i name="e_wo_entrp">    -10.23773049 </i>
    <i name="e_0_energy">    -10.24474034 </i>
   </energy>
  </scstep>
  <structure>
   <crystal>
    <varray name="basis" >
     <v>      -2.45000000       2.45000000       1.27400000 </v>
     <v>       2.45000000      -2.45000000       1.27400000 </v>
     <v>       2.45000000       2.45000000      -1.27400000 </v>
    </varray>
    <i name="volume">     30.58874000 </i>
    <varray name="rec_basis" >
     <v>       0.00000000       0.20408163       0.39246468 </v>
     <v>       0.20408163       0.00000000       0.39246468 </v>
     <v>       0.20408163       0.20408163      -0.00000000 </v>
    </varray>
   </crystal>
   <varray name="positions" >
    <v>       0.25000000       0.75000000       0.50000000 </v>
    <v>       0.00000000       0.00000000       0.00000000 </v>
   </varray>
  </structure>
  <varray name="forces" >
   <v>      -0.00000000      -0.00000000      -0.00000000 </v>
   <v>       0.00000000       0.00000000       0.00000000 </v>
  </varray>
  <varray name="stress" >
   <v>     -24.58792850       0.00000000       0.00000000 </v>
   <v>      -0.00000000     -24.58792850       0.00000000 </v>
   <v>       0.00000000       0.00000000      56.10415280 </v>
  </varray>
  <energy>
   <i name="e_fr_energy">    -10.25175018 </i>
   <i name="e_wo_entrp">    -10.24474034 </i>
   <i name="e_0_energy">     -0.01401970 </i>
  </energy>
  <time name="totalsc">   22.40   23.55</time>
 </calculation>
 <calculation>
  <scstep>
   <time name="dav">    1.16    1.16</time>
   <time name="total">    1.22    1.23</time>
   <energy>
    <i name="alphaZ">      4.39000658 </i>
    <i name="ewald">   -265.05157621 </i>
    <i name="hartreedc">     -2.47122892 </i>
    <i name="XCdc">    -17.59843977 </i>
    <i name="pawpsdc">     70.17095061 </i>
    <i name="pawaedc">    -35.08248657 </i>
    <i name="eentropy">     -0.01284326 </i>
    <i name="bandstr">     29.23571288 </i>
    <i name="atom">    206.13125414 </i>
    <i name="e_fr_energy">    -10.28865052 </i>
    <i name="e_wo_entrp">    -10.27580726 </i>
    <i name="e_0_energy">    -10.28222889 </i>
   </energy>
  </scstep>
  <scstep>
   <time name="dav">    0.96    0.96</time>
   <time name="total">    1.02    1.04</time>
   <energy>
    <i name="e_fr_energy">    -10.27859116 </i>
    <i name="e_wo_entrp">    -10.26579412 </i>
    <i name="e_0_energy">    -10.27219264 </i>
   </energy>
  </scstep>
  <scstep>
   <time name="dav">    1.11    1.11</time>
   <time name="total">    1.17    1.19</time>
   <energy>
    <i name="e_fr_energy">    -10.27368799 </i>
    <i name="e_wo_entrp">    -10.26091244 </i>
    <i name="e_0_energy">    -10.26730021 </i>
   </energy>
  </scstep>
  <scstep>
   <time name="dav">    0.62    0.62</time>
   <time name="total">    0.64    0.66</time>
   <energy>
    <i name="alphaZ">      4.39000658 </i>
    <i name="ewald">   -265.05157621 </i>
    <i name="hartreedc">     -2.46469808 </i>
    <i name="XCdc">    -17.59876657 </i>
    <i name="pawpsdc">     70.15718402 </i>
    <i name="pawaedc">    -35.06882276 </i>
    <i name="eentropy">     -0.01277573 </i>
    <i name="bandstr">     29.24446485 </i>
    <i name="atom">    206.13125414 </i>
    <i name="e_fr_energy">    -10.27372976 </i>
    <i name="e_wo_entrp">    -10.26095403 </i>
    <i name="e_0_energy">    -10.26734190 </i>
   </energy>
  </scstep>
  <structure>
   <crystal>
    <varray name="basis" >
     <v>      -2.42225784       2.42225784       1.30691673 </v>
     <v>       2.42225784      -2.42225784       1.30691673 </v>
     <v>       2.42225784       2.42225784      -1.30691673 </v>
    </varray>
    <i name="volume">     30.67246285 </i>
    <varray name="rec_basis" >
     <v>       0.00000000       0.20641898       0.38257985 </v>
     <v>       0.20641898       0.00000000       0.38257985 </v>
     <v>       0.20641898       0.20641898      -0.00000000 </v>
    </varray>
   </crystal>
   <varray name="positions" >
    <v>       0.25000000       0.75000000       0.50000000 </v>
    <v>       0.00000000       0.00000000       0.00000000 </v>
   </varray>
  </structure>
  <varray name="forces" >
   <v>       0.00000000       0.00000000       0.00000000 </v>
   <v>      -0.00000000      -0.00000000      -0.00000000 </v>
  </varray>
  <varray name="stress" >
   <v>      -5.75093250       0.00000000       0.00000000 </v>
   <v>      -0.00000000      -5.75093250       0.00000000 </v>
   <v>       0.00000000       0.00000000       7.36542629 </v>
  </varray>
  <energy>
   <i name="e_fr_energy">    -10.27372976 </i>
   <i name="e_wo_entrp">    -10.26734190 </i>
   <i name="e_0_energy">     -0.01277573 </i>
  </energy>
  <time name="totalsc">    4.65    5.75</time>
 </calculation>
 <calculation>
  <scstep>
   <time name="dav">    1.08    1.08</time>
   <time name="total">    1.15    1.16</time>
   <energy>
    <i name="alphaZ">      4.38816872 </i>
    <i name="ewald">   -265.01889159 </i>
    <i name="hartreedc">     -2.46032041 </i>
    <i name="XCdc">    -17.60153654 </i>
    <i name="pawpsdc">     70.15111340 </i>
    <i name="pawaedc">    -35.06241382 </i>
    <i name="eentropy">     -0.01269195 </i>
    <i name="bandstr">     29.21030861 </i>
    <i name="atom">    206.13125414 </i>
    <i name="e_fr_energy">    -10.27500945 </i>
    <i name="e_wo_entrp">    -10.26231749 </i>
    <i name="e_0_energy">    -10.26866347 </i>
   </energy>
  </scstep>
  <scstep>
   <time name="dav">    0.90    0.90</time>
   <time name="total">    0.92    0.93</time>
   <energy>
    <i name="alphaZ">      4.38816872 </i>
    <i name="ewald">   -265.01889159 </i>
    <i name="hartreedc">     -2.46210894 </i>
    <i name="XCdc">    -17.60125813 </i>
    <i name="pawpsdc">     70.15742782 </i>
    <i name="pawaedc">    -35.06894707 </i>
    <i name="eentropy">     -0.01269038 </i>
    <i name="bandstr">     29.21234513 </i>
    <i name="atom">    206.13125414 </i>
    <i name="e_fr_energy">    -10.27470031 </i>
    <i name="e_wo_entrp">    -10.26200993 </i>
    <i name="e_0_energy">    -10.26835512 </i>
   </energy>
  </scstep>
  <structure>
   <crystal>
    <varray name="basis" >
     <v>      -2.41696592       2.41696592       1.31319572 </v>
     <v>       2.41696592      -2.41696592       1.31319572 </v>
     <v>       2.41696592       2.41696592      -1.31319572 </v>
    </varray>
    <i name="volume">     30.68530914 </i>
    <varray name="rec_basis" >
     <v>       0.00000000       0.20687094       0.38075055 </v>
     <v>       0.20687094       0.00000000       0.38075055 </v>
     <v>       0.20687094       0.20687094       0.00000000 </v>
    </varray>
   </crystal>
   <varray name="positions" >
    <v>       0.25000000       0.75000000       0.50000000 </v>
    <v>       0.00000000       0.00000000       0.00000000 </v>
   </varray>
  </structure>
  <varray name="forces" >
   <v>       0.00000000       0.00000000      -0.00000000 </v>
   <v>      -0.00000000      -0.00000000       0.00000000 </v>
  </varray>
  <varray name="stress" >
   <v>      -4.77009015       0.00000000       0.00000000 </v>
   <v>       0.00000000      -4.77009015      -0.00000000 </v>
   <v>       0.00000000       0.00000000       5.79875007 </v>
  </varray>
  <energy>
   <i name="e_fr_energy">    -10.27470031 </i>
   <i name="e_wo_entrp">    -10.26835512 </i>
   <i name="e_0_energy">     -0.01269038 </i>
  </energy>
  <time name="totalsc">    2.63    3.05</time>
 </calculation>
 <calculation>
  <scstep>
   <time name="dav">    1.11    1.12</time>
   <time name="total">    1.18    1.19</time>
   <energy>
    <i name="alphaZ">      4.38492139 </i>
    <i name="ewald">   -264.94665800 </i>
    <i name="hartreedc">     -2.46145552 </i>
    <i name="XCdc">    -17.60501922 </i>
    <i name="pawpsdc">     70.16194165 </i>
    <i name="pawaedc">    -35.07365698 </i>
    <i name="eentropy">     -0.01248800 </i>
    <i name="bandstr">     29.14586393 </i>
    <i name="atom">    206.13125414 </i>
    <i name="e_fr_energy">    -10.27529661 </i>
    <i name="e_wo_entrp">    -10.26280861 </i>
    <i name="e_0_energy">    -10.26905261 </i>
   </energy>
  </scstep>
  <scstep>
   <time name="dav">    1.00    1.00</time>
   <time name="total">    1.07    1.08</time>
   <energy>
    <i name="e_fr_energy">    -10.27394864 </i>
    <i name="e_wo_entrp">    -10.26146934 </i>
    <i name="e_0_energy">    -10.26770899 </i>
   </energy>
  </scstep>
  <scstep>
   <time name="dav">    0.92    0.92</time>
   <time name="total">    0.99    1.00</time>
   <energy>
    <i name="e_fr_energy">    -10.27329897 </i>
    <i name="e_wo_entrp">    -10.26082774 </i>
    <i name="e_0_energy">    -10.26706336 </i>
   </energy>
  </scstep>
  <scstep>
   <time name="dav">    0.49    0.49</time>
   <time name="total">    0.51    0.54</time>
   <energy>
    <i name="alphaZ">      4.38492139 </i>
    <i name="ewald">   -264.94665800 </i>
    <i name="hartreedc">     -2.47716790 </i>
    <i name="XCdc">    -17.60274823 </i>
    <i name="pawpsdc">     70.19933301 </i>
    <i name="pawaedc">    -35.11230384 </i>
    <i name="eentropy">     -0.01247136 </i>
    <i name="bandstr">     29.16253512 </i>
    <i name="atom">    206.13125414 </i>
    <i name="e_fr_energy">    -10.27330566 </i>
    <i name="e_wo_entrp">    -10.26083430 </i>
    <i name="e_0_energy">    -10.26706998 </i>
   </energy>
  </scstep>
  <structure>
   <crystal>
    <varray name="basis" >
     <v>      -2.40638206       2.40638206       1.32575372 </v>
     <v>       2.40638206      -2.40638206       1.32575372 </v>
     <v>       2.40638206       2.40638206      -1.32575372 </v>
    </varray>
    <i name="volume">     30.70803364 </i>
    <varray name="rec_basis" >
     <v>       0.00000000       0.20778080       0.37714395 </v>
     <v>       0.20778080       0.00000000       0.37714395 </v>
     <v>       0.20778080       0.20778080       0.00000000 </v>
    </varray>
   </crystal>
   <varray name="positions" >
    <v>       0.25000000       0.75000000       0.50000000 </v>
    <v>       0.00000000       0.00000000       0.00000000 </v>
   </varray>
  </structure>
  <varray name="forces" >
   <v>       0.00000000      -0.00000000      -0.00000000 </v>
   <v>      -0.00000000       0.00000000       0.00000000 </v>
  </varray>
  <varray name="stress" >
   <v>       4.46518465       0.00000000       0.00000000 </v>
   <v>       0.00000000       4.46518465       0.00000000 </v>
   <v>       0.00000000       0.00000000     -12.96525102 </v>
  </varray>
  <energy>
   <i name="e_fr_energy">    -10.27330566 </i>
   <i name="e_wo_entrp">    -10.26706998 </i>
   <i name="e_0_energy">     -0.01247136 </i>
  </energy>
  <time name="totalsc">    4.34    5.18</time>
 </calculation>
 <calculation>
  <scstep>
   <time name="dav">    1.11    1.11</time>
   <time name="total">    1.17    1.18</time>
   <energy>
    <i name="alphaZ">      4.38689626 </i>
    <i name="ewald">   -264.99310689 </i>
    <i name="hartreedc">     -2.47809989 </i>
    <i name="XCdc">    -17.60038868 </i>
    <i name="pawpsdc">     70.19953965 </i>
    <i name="pawaedc">    -35.11248823 </i>
    <i name="eentropy">     -0.01260391 </i>
    <i name="bandstr">     29.20362247 </i>
    <i name="atom">    206.13125414 </i>
    <i name="e_fr_energy">    -10.27537507 </i>
    <i name="e_wo_entrp">    -10.26277116 </i>
    <i name="e_0_energy">    -10.26907311 </i>
   </energy>
  </scstep>
  <scstep>
   <time name="dav">    0.99    0.99</time>
   <time name="total">    1.06    1.08</time>
   <energy>
    <i name="e_fr_energy">    -10.27479542 </i>
    <i name="e_wo_entrp">    -10.26219102 </i>
    <i name="e_0_energy">    -10.26849322 </i>
   </energy>
  </scstep>
  <scstep>
   <time name="dav">    0.58    0.58</time>
   <time name="total">    0.60    0.61</time>
   <energy>
    <i name="alphaZ">      4.38689626 </i>
    <i name="ewald">   -264.99310689 </i>
    <i name="hartreedc">     -2.46605011 </i>
    <i name="XCdc">    -17.60227509 </i>
    <i name="pawpsdc">     70.16849426 </i>
    <i name="pawaedc">    -35.08035106 </i>
    <i name="eentropy">     -0.01260650 </i>
    <i name="bandstr">     29.19324019 </i>
    <i name="atom">    206.13125414 </i>
    <i name="e_fr_energy">    -10.27450481 </i>
    <i name="e_wo_entrp">    -10.26189831 </i>
    <i name="e_0_energy">    -10.26820156 </i>
   </energy>
  </scstep>
  <structure>
   <crystal>
    <varray name="basis" >
     <v>      -2.41303516       2.41303516       1.31785966 </v>
     <v>       2.41303516      -2.41303516       1.31785966 </v>
     <v>       2.41303516       2.41303516      -1.31785966 </v>
    </varray>
    <i name="volume">     30.69420964 </i>
    <varray name="rec_basis" >
     <v>      -0.00000000       0.20720792       0.37940307 </v>
     <v>       0.20720792      -0.00000000       0.37940307 </v>
     <v>       0.20720792       0.20720792      -0.00000000 </v>
    </varray>
   </crystal>
   <varray name="positions" >
    <v>       0.25000000       0.75000000       0.50000000 </v>
    <v>       0.00000000       0.00000000       0.00000000 </v>
   </varray>
  </structure>
  <varray name="forces" >
   <v>       0.00000000      -0.00000000      -0.00000000 </v>
   <v>      -0.00000000       0.00000000       0.00000000 </v>
  </varray>
  <varray name="stress" >
   <v>      -0.15760122       0.00000000       0.00000000 </v>
   <v>       0.00000000      -0.15760122       0.00000000 </v>
   <v>      -0.00000000       0.00000000      -3.91361946 </v>
  </varray>
  <energy>
   <i name="e_fr_energy">    -10.27450481 </i>
   <i name="e_wo_entrp">    -10.26820156 </i>
   <i name="e_0_energy">     -0.01260650 </i>
  </energy>
  <time name="totalsc">    3.39    3.84</time>
 </calculation>
 <calculation>
  <scstep>
   <time name="dav">    1.06    1.06</time>
   <time name="total">    1.12    1.13</time>
   <energy>
    <i name="alphaZ">      4.38723775 </i>
    <i name="ewald">   -265.00031085 </i>
    <i name="hartreedc">     -2.46668442 </i>
    <i name="XCdc">    -17.60179160 </i>
    <i name="pawpsdc">     70.16981860 </i>
    <i name="pawaedc">    -35.08172744 </i>
    <i name="eentropy">     -0.01263073 </i>
    <i name="bandstr">     29.20024721 </i>
    <i name="atom">    206.13125414 </i>
    <i name="e_fr_energy">    -10.27458733 </i>
    <i name="e_wo_entrp">    -10.26195659 </i>
    <i name="e_0_energy">    -10.26827196 </i>
   </energy>
  </scstep>
  <scstep>
   <time name="dav">    0.47    0.47</time>
   <time name="total">    0.49    0.50</time>
   <energy>
    <i name="alphaZ">      4.38723775 </i>
    <i name="ewald">   -265.00031085 </i>
    <i name="hartreedc">     -2.46630052 </i>
    <i name="XCdc">    -17.60184072 </i>
    <i name="pawpsdc">     70.16845513 </i>
    <i name="pawaedc">    -35.08033145 </i>
    <i name="eentropy">     -0.01263088 </i>
    <i name="bandstr">     29.19989058 </i>
    <i name="atom">    206.13125414 </i>
    <i name="e_fr_energy">    -10.27457681 </i>
    <i name="e_wo_entrp">    -10.26194593 </i>
    <i name="e_0_energy">    -10.26826137 </i>
   </energy>
  </scstep>
  <structure>
   <crystal>
    <varray name="basis" >
     <v>      -2.41411428       2.41411428       1.31657925 </v>
     <v>       2.41411428      -2.41411428       1.31657925 </v>
     <v>       2.41411428       2.41411428      -1.31657925 </v>
    </varray>
    <i name="volume">     30.69182050 </i>
    <varray name="rec_basis" >
     <v>      -0.00000000       0.20711530       0.37977205 </v>
     <v>       0.20711530      -0.00000000       0.37977205 </v>
     <v>       0.20711530       0.20711530       0.00000000 </v>
    </varray>
   </crystal>
   <varray name="positions" >
    <v>       0.25000000       0.75000000       0.50000000 </v>
    <v>       0.00000000       0.00000000       0.00000000 </v>
   </varray>
  </structure>
  <varray name="forces" >
   <v>      -0.00000000      -0.00000000       0.00000000 </v>
   <v>       0.00000000       0.00000000      -0.00000000 </v>
  </varray>
  <varray name="stress" >
   <v>      -0.34098445       0.00000000       0.00000000 </v>
   <v>       0.00000000      -0.34098445      -0.00000000 </v>
   <v>       0.00000000      -0.00000000      -3.80136410 </v>
  </varray>
  <energy>
   <i name="e_fr_energy">    -10.27457681 </i>
   <i name="e_wo_entrp">    -10.26826137 </i>
   <i name="e_0_energy">     -0.01263088 </i>
  </energy>
  <time name="totalsc">    2.18    2.61</time>
 </calculation>
 <calculation>
  <scstep>
   <time name="dav">    1.15    1.15</time>
   <time name="total">    1.22    1.22</time>
   <energy>
    <i name="alphaZ">      4.38769805 </i>
    <i name="ewald">   -265.00968448 </i>
    <i name="hartreedc">     -2.46630524 </i>
    <i name="XCdc">    -17.60131628 </i>
    <i name="pawpsdc">     70.16745182 </i>
    <i name="pawaedc">    -35.07930817 </i>
    <i name="eentropy">     -0.01266137 </i>
    <i name="bandstr">     29.20824358 </i>
    <i name="atom">    206.13125414 </i>
    <i name="e_fr_energy">    -10.27462794 </i>
    <i name="e_wo_entrp">    -10.26196657 </i>
    <i name="e_0_energy">    -10.26829726 </i>
   </energy>
  </scstep>
  <scstep>
   <time name="dav">    0.48    0.48</time>
   <time name="total">    0.50    0.51</time>
   <energy>
    <i name="alphaZ">      4.38769805 </i>
    <i name="ewald">   -265.00968448 </i>
    <i name="hartreedc">     -2.46556373 </i>
    <i name="XCdc">    -17.60143397 </i>
    <i name="pawpsdc">     70.16500929 </i>
    <i name="pawaedc">    -35.07678738 </i>
    <i name="eentropy">     -0.01266150 </i>
    <i name="bandstr">     29.20756548 </i>
    <i name="atom">    206.13125414 </i>
    <i name="e_fr_energy">    -10.27460409 </i>
    <i name="e_wo_entrp">    -10.26194259 </i>
    <i name="e_0_energy">    -10.26827334 </i>
   </energy>
  </scstep>
  <structure>
   <crystal>
    <varray name="basis" >
     <v>      -2.41554010       2.41554010       1.31488749 </v>
     <v>       2.41554010      -2.41554010       1.31488749 </v>
     <v>       2.41554010       2.41554010      -1.31488749 </v>
    </varray>
    <i name="volume">     30.68860074 </i>
    <varray name="rec_basis" >
     <v>       0.00000000       0.20699304       0.38026067 </v>
     <v>       0.20699304       0.00000000       0.38026067 </v>
     <v>       0.20699304       0.20699304      -0.00000000 </v>
    </varray>
   </crystal>
   <varray name="positions" >
    <v>       0.25000000       0.75000000       0.50000000 </v>
    <v>       0.00000000       0.00000000       0.00000000 </v>
   </varray>
  </structure>
  <varray name="forces" >
   <v>       0.00000000       0.00000000      -0.00000000 </v>
   <v>      -0.00000000      -0.00000000       0.00000000 </v>
  </varray>
  <varray name="stress" >
   <v>      -1.12907570       0.00000000       0.00000000 </v>
   <v>       0.00000000      -1.12907570      -0.00000000 </v>
   <v>       0.00000000       0.00000000      -2.29121781 </v>
  </varray>
  <energy>
   <i name="e_fr_energy">    -10.27460409 </i>
   <i name="e_wo_entrp">    -10.26827334 </i>
   <i name="e_0_energy">     -0.01266150 </i>
  </energy>
  <time name="totalsc">    2.28    2.70</time>
 </calculation>
 <calculation>
  <scstep>
   <time name="dav">    0.68    0.69</time>
   <time name="total">    0.75    0.76</time>
   <energy>
    <i name="alphaZ">      4.38791685 </i>
    <i name="ewald">   -265.01401084 </i>
    <i name="hartreedc">     -2.46491844 </i>
    <i name="XCdc">    -17.60128651 </i>
    <i name="pawpsdc">     70.16291032 </i>
    <i name="pawaedc">    -35.07461819 </i>
    <i name="eentropy">     -0.01267494 </i>
    <i name="bandstr">     29.21084197 </i>
    <i name="atom">    206.13125414 </i>
    <i name="e_fr_energy">    -10.27458564 </i>
    <i name="e_wo_entrp">    -10.26191070 </i>
    <i name="e_0_energy">    -10.26824817 </i>
   </energy>
  </scstep>
  <scstep>
   <time name="dav">    0.46    0.47</time>
   <time name="total">    0.49    0.50</time>
   <energy>
    <i name="alphaZ">      4.38791685 </i>
    <i name="ewald">   -265.01401084 </i>
    <i name="hartreedc">     -2.46469153 </i>
    <i name="XCdc">    -17.60131870 </i>
    <i name="pawpsdc">     70.16209873 </i>
    <i name="pawaedc">    -35.07378183 </i>
    <i name="eentropy">     -0.01267498 </i>
    <i name="bandstr">     29.21062698 </i>
    <i name="atom">    206.13125414 </i>
    <i name="e_fr_energy">    -10.27458117 </i>
    <i name="e_wo_entrp">    -10.26190619 </i>
    <i name="e_0_energy">    -10.26824368 </i>
   </energy>
  </scstep>
  <structure>
   <crystal>
    <varray name="basis" >
     <v>      -2.41620685       2.41620685       1.31409637 </v>
     <v>       2.41620685      -2.41620685       1.31409637 </v>
     <v>       2.41620685       2.41620685      -1.31409637 </v>
    </varray>
    <i name="volume">     30.68707044 </i>
    <varray name="rec_basis" >
     <v>       0.00000000       0.20693592       0.38048960 </v>
     <v>       0.20693592       0.00000000       0.38048960 </v>
     <v>       0.20693592       0.20693592      -0.00000000 </v>
    </varray>
   </crystal>
   <varray name="positions" >
    <v>       0.25000000       0.75000000       0.50000000 </v>
    <v>       0.00000000       0.00000000       0.00000000 </v>
   </varray>
  </structure>
  <varray name="forces" >
   <v>       0.00000000      -0.00000000       0.00000000 </v>
   <v>      -0.00000000       0.00000000      -0.00000000 </v>
  </varray>
  <varray name="stress" >
   <v>      -1.93038979       0.00000000       0.00000000 </v>
   <v>       0.00000000      -1.93038979       0.00000000 </v>
   <v>       0.00000000      -0.00000000      -0.61112143 </v>
  </varray>
  <energy>
   <i name="e_fr_energy">    -10.27458117 </i>
   <i name="e_wo_entrp">    -10.26824368 </i>
   <i name="e_0_energy">     -0.01267498 </i>
  </energy>
  <time name="totalsc">    1.79    2.19</time>
 </calculation>
 <calculation>
  <scstep>
   <time name="dav">    0.45    0.45</time>
   <time name="total">    0.52    0.52</time>
   <energy>
    <i name="alphaZ">      4.38781731 </i>
    <i name="ewald">   -265.01205262 </i>
    <i name="hartreedc">     -2.46424065 </i>
    <i name="XCdc">    -17.60148176 </i>
    <i name="pawpsdc">     70.16127435 </i>
    <i name="pawaedc">    -35.07292971 </i>
    <i name="eentropy">     -0.01266917 </i>
    <i name="bandstr">     29.20843944 </i>
    <i name="atom">    206.13125414 </i>
    <i name="e_fr_energy">    -10.27458868 </i>
    <i name="e_wo_entrp">    -10.26191950 </i>
    <i name="e_0_energy">    -10.26825409 </i>
   </energy>
  </scstep>
  <scstep>
   <time name="dav">    0.45    0.45</time>
   <time name="total">    0.47    0.48</time>
   <energy>
    <i name="alphaZ">      4.38781731 </i>
    <i name="ewald">   -265.01205262 </i>
    <i name="hartreedc">     -2.46443412 </i>
    <i name="XCdc">    -17.60144861 </i>
    <i name="pawpsdc">     70.16206509 </i>
    <i name="pawaedc">    -35.07374887 </i>
    <i name="eentropy">     -0.01266912 </i>
    <i name="bandstr">     29.20862883 </i>
    <i name="atom">    206.13125414 </i>
    <i name="e_fr_energy">    -10.27458797 </i>
    <i name="e_wo_entrp">    -10.26191885 </i>
    <i name="e_0_energy">    -10.26825341 </i>
   </energy>
  </scstep>
  <structure>
   <crystal>
    <varray name="basis" >
     <v>      -2.41590436       2.41590436       1.31445528 </v>
     <v>       2.41590436      -2.41590436       1.31445528 </v>
     <v>       2.41590436       2.41590436      -1.31445528 </v>
    </varray>
    <i name="volume">     30.68776664 </i>
    <varray name="rec_basis" >
     <v>       0.00000000       0.20696183       0.38038571 </v>
     <v>       0.20696183       0.00000000       0.38038571 </v>
     <v>       0.20696183       0.20696183      -0.00000000 </v>
    </varray>
   </crystal>
   <varray name="positions" >
    <v>       0.25000000       0.75000000       0.50000000 </v>
    <v>       0.00000000       0.00000000       0.00000000 </v>
   </varray>
  </structure>
  <varray name="forces" >
   <v>       0.00000000      -0.00000000      -0.00000000 </v>
   <v>      -0.00000000       0.00000000       0.00000000 </v>
  </varray>
  <varray name="stress" >
   <v>      -2.04633579       0.00000000       0.00000000 </v>
   <v>       0.00000000      -2.04633579       0.00000000 </v>
   <v>       0.00000000       0.00000000      -0.23110856 </v>
  </varray>
  <energy>
   <i name="e_fr_energy">    -10.27458797 </i>
   <i name="e_wo_entrp">    -10.26825341 </i>
   <i name="e_0_energy">     -0.01266912 </i>
  </energy>
  <time name="totalsc">    1.55    1.94</time>
 </calculation>
 <calculation>
  <scstep>
   <time name="dav">    0.45    0.45</time>
   <time name="total">    0.52    0.53</time>
   <energy>
    <i name="alphaZ">      4.38775216 </i>
    <i name="ewald">   -265.01076203 </i>
    <i name="hartreedc">     -2.46471157 </i>
    <i name="XCdc">    -17.60147167 </i>
    <i name="pawpsdc">     70.16284284 </i>
    <i name="pawaedc">    -35.07455545 </i>
    <i name="eentropy">     -0.01266510 </i>
    <i name="bandstr">     29.20772503 </i>
    <i name="atom">    206.13125414 </i>
    <i name="e_fr_energy">    -10.27459164 </i>
    <i name="e_wo_entrp">    -10.26192654 </i>
    <i name="e_0_energy">    -10.26825909 </i>
   </energy>
  </scstep>
  <scstep>
   <time name="dav">    0.45    0.45</time>
   <time name="total">    0.48    0.48</time>
   <energy>
    <i name="alphaZ">      4.38775216 </i>
    <i name="ewald">   -265.01076203 </i>
    <i name="hartreedc">     -2.46478546 </i>
    <i name="XCdc">    -17.60146177 </i>
    <i name="pawpsdc">     70.16311358 </i>
    <i name="pawaedc">    -35.07483562 </i>
    <i name="eentropy">     -0.01266507 </i>
    <i name="bandstr">     29.20779880 </i>
    <i name="atom">    206.13125414 </i>
    <i name="e_fr_energy">    -10.27459128 </i>
    <i name="e_wo_entrp">    -10.26192620 </i>
    <i name="e_0_energy">    -10.26825874 </i>
   </energy>
  </scstep>
  <structure>
   <crystal>
    <varray name="basis" >
     <v>      -2.41570564       2.41570564       1.31469107 </v>
     <v>       2.41570564      -2.41570564       1.31469107 </v>
     <v>       2.41570564       2.41570564      -1.31469107 </v>
    </varray>
    <i name="volume">     30.68822227 </i>
    <varray name="rec_basis" >
     <v>       0.00000000       0.20697886       0.38031748 </v>
     <v>       0.20697886       0.00000000       0.38031748 </v>
     <v>       0.20697886       0.20697886       0.00000000 </v>
    </varray>
   </crystal>
   <varray name="positions" >
    <v>       0.25000000       0.75000000       0.50000000 </v>
    <v>       0.00000000       0.00000000       0.00000000 </v>
   </varray>
  </structure>
  <varray name="forces" >
   <v>      -0.00000000      -0.00000000       0.00000000 </v>
   <v>       0.00000000       0.00000000      -0.00000000 </v>
  </varray>
  <varray name="stress" >
   <v>      -1.86032002       0.00000000       0.00000000 </v>
   <v>       0.00000000      -1.86032002       0.00000000 </v>
   <v>       0.00000000      -0.00000000      -0.62353408 </v>
  </varray>
  <energy>
   <i name="e_fr_energy">    -10.27459128 </i>
   <i name="e_wo_entrp">    -10.26825874 </i>
   <i name="e_0_energy">     -0.01266507 </i>
  </energy>
  <time name="totalsc">    1.55    1.95</time>
 </calculation>
 <calculation>
  <scstep>
   <time name="dav">    0.45    0.45</time>
   <time name="total">    0.51    0.52</time>
   <energy>
    <i name="alphaZ">      4.38772854 </i>
    <i name="ewald">   -265.01029227 </i>
    <i name="hartreedc">     -2.46489348 </i>
    <i name="XCdc">    -17.60147343 </i>
    <i name="pawpsdc">     70.16334247 </i>
    <i name="pawaedc">    -35.07507265 </i>
    <i name="eentropy">     -0.01266359 </i>
    <i name="bandstr">     29.20747812 </i>
    <i name="atom">    206.13125414 </i>
    <i name="e_fr_energy">    -10.27459214 </i>
    <i name="e_wo_entrp">    -10.26192855 </i>
    <i name="e_0_energy">    -10.26826035 </i>
   </energy>
  </scstep>
  <scstep>
   <time name="dav">    0.45    0.45</time>
   <time name="total">    0.47    0.49</time>
   <energy>
    <i name="alphaZ">      4.38772854 </i>
    <i name="ewald">   -265.01029227 </i>
    <i name="hartreedc">     -2.46491193 </i>
    <i name="XCdc">    -17.60147118 </i>
    <i name="pawpsdc">     70.16340295 </i>
    <i name="pawaedc">    -35.07513498 </i>
    <i name="eentropy">     -0.01266358 </i>
    <i name="bandstr">     29.20749622 </i>
    <i name="atom">    206.13125414 </i>
    <i name="e_fr_energy">    -10.27459210 </i>
    <i name="e_wo_entrp">    -10.26192851 </i>
    <i name="e_0_energy">    -10.26826030 </i>
   </energy>
  </scstep>
  <structure>
   <crystal>
    <varray name="basis" >
     <v>      -2.41563343       2.41563343       1.31477675 </v>
     <v>       2.41563343      -2.41563343       1.31477675 </v>
     <v>       2.41563343       2.41563343      -1.31477675 </v>
    </varray>
    <i name="volume">     30.68838748 </i>
    <varray name="rec_basis" >
     <v>      -0.00000000       0.20698505       0.38029270 </v>
     <v>       0.20698505      -0.00000000       0.38029270 </v>
     <v>       0.20698505       0.20698505       0.00000000 </v>
    </varray>
   </crystal>
   <varray name="positions" >
    <v>       0.25000000       0.75000000       0.50000000 </v>
    <v>       0.00000000       0.00000000       0.00000000 </v>
   </varray>
  </structure>
  <varray name="forces" >
   <v>       0.00000000      -0.00000000      -0.00000000 </v>
   <v>      -0.00000000       0.00000000       0.00000000 </v>
  </varray>
  <varray name="stress" >
   <v>      -1.76906902       0.00000000       0.00000000 </v>
   <v>       0.00000000      -1.76906902      -0.00000000 </v>
   <v>       0.00000000       0.00000000      -0.82270563 </v>
  </varray>
  <energy>
   <i name="e_fr_energy">    -10.27459210 </i>
   <i name="e_wo_entrp">    -10.26826030 </i>
   <i name="e_0_energy">     -0.01266358 </i>
  </energy>
  <time name="totalsc">    2.03    3.56</time>
 </calculation>
 <calculation>
  <scstep>
   <time name="dav">    0.45    0.45</time>
   <time name="total">    0.51    0.52</time>
   <energy>
    <i name="alphaZ">      4.38771329 </i>
    <i name="ewald">   -265.00998847 </i>
    <i name="hartreedc">     -2.46493439 </i>
    <i name="XCdc">    -17.60148586 </i>
    <i name="pawpsdc">     70.16347324 </i>
    <i name="pawaedc">    -35.07520759 </i>
    <i name="eentropy">     -0.01266264 </i>
    <i name="bandstr">     29.20724561 </i>
    <i name="atom">    206.13125414 </i>
    <i name="e_fr_energy">    -10.27459266 </i>
    <i name="e_wo_entrp">    -10.26193002 </i>
    <i name="e_0_energy">    -10.26826134 </i>
   </energy>
  </scstep>
  <scstep>
   <time name="dav">    0.45    0.45</time>
   <time name="total">    0.47    0.48</time>
   <energy>
    <i name="alphaZ">      4.38771329 </i>
    <i name="ewald">   -265.00998847 </i>
    <i name="hartreedc">     -2.46494930 </i>
    <i name="XCdc">    -17.60148365 </i>
    <i name="pawpsdc">     70.16352974 </i>
    <i name="pawaedc">    -35.07526586 </i>
    <i name="eentropy">     -0.01266263 </i>
    <i name="bandstr">     29.20726010 </i>
    <i name="atom">    206.13125414 </i>
    <i name="e_fr_energy">    -10.27459264 </i>
    <i name="e_wo_entrp">    -10.26193001 </i>
    <i name="e_0_energy">    -10.26826132 </i>
   </energy>
  </scstep>
  <structure>
   <crystal>
    <varray name="basis" >
     <v>      -2.41558676       2.41558676       1.31483212 </v>
     <v>       2.41558676      -2.41558676       1.31483212 </v>
     <v>       2.41558676       2.41558676      -1.31483212 </v>
    </varray>
    <i name="volume">     30.68849415 </i>
    <varray name="rec_basis" >
     <v>       0.00000000       0.20698905       0.38027669 </v>
     <v>       0.20698905      -0.00000000       0.38027669 </v>
     <v>       0.20698905       0.20698905      -0.00000000 </v>
    </varray>
   </crystal>
   <varray name="positions" >
    <v>       0.25000000       0.75000000       0.50000000 </v>
    <v>       0.00000000       0.00000000       0.00000000 </v>
   </varray>
  </structure>
  <varray name="forces" >
   <v>       0.00000000      -0.00000000      -0.00000000 </v>
   <v>      -0.00000000       0.00000000       0.00000000 </v>
  </varray>
  <varray name="stress" >
   <v>      -1.73159096      -0.00000000       0.00000000 </v>
   <v>      -0.00000000      -1.73159096       0.00000000 </v>
   <v>       0.00000000       0.00000000      -0.90258186 </v>
  </varray>
  <energy>
   <i name="e_fr_energy">    -10.27459264 </i>
   <i name="e_wo_entrp">    -10.26826132 </i>
   <i name="e_0_energy">     -0.01266263 </i>
  </energy>
  <time name="totalsc">    1.54    1.97</time>
 </calculation>
 <calculation>
  <scstep>
   <time name="dav">    0.45    0.45</time>
   <time name="total">    0.51    0.52</time>
   <energy>
    <i name="alphaZ">      4.38770567 </i>
    <i name="ewald">   -265.00983650 </i>
    <i name="hartreedc">     -2.46497012 </i>
    <i name="XCdc">    -17.60148922 </i>
    <i name="pawpsdc">     70.16358696 </i>
    <i name="pawaedc">    -35.07532492 </i>
    <i name="eentropy">     -0.01266215 </i>
    <i name="bandstr">     29.20714326 </i>
    <i name="atom">    206.13125414 </i>
    <i name="e_fr_energy">    -10.27459288 </i>
    <i name="e_wo_entrp">    -10.26193073 </i>
    <i name="e_0_energy">    -10.26826181 </i>
   </energy>
  </scstep>
  <scstep>
   <time name="dav">    0.45    0.45</time>
   <time name="total">    0.47    0.48</time>
   <energy>
    <i name="alphaZ">      4.38770567 </i>
    <i name="ewald">   -265.00983650 </i>
    <i name="hartreedc">     -2.46497647 </i>
    <i name="XCdc">    -17.60148824 </i>
    <i name="pawpsdc">     70.16360941 </i>
    <i name="pawaedc">    -35.07534801 </i>
    <i name="eentropy">     -0.01266215 </i>
    <i name="bandstr">     29.20714927 </i>
    <i name="atom">    206.13125414 </i>
    <i name="e_fr_energy">    -10.27459288 </i>
    <i name="e_wo_entrp">    -10.26193073 </i>
    <i name="e_0_energy">    -10.26826180 </i>
   </energy>
  </scstep>
  <structure>
   <crystal>
    <varray name="basis" >
     <v>      -2.41556343       2.41556343       1.31485980 </v>
     <v>       2.41556343      -2.41556343       1.31485980 </v>
     <v>       2.41556343       2.41556343      -1.31485980 </v>
    </varray>
    <i name="volume">     30.68854745 </i>
    <varray name="rec_basis" >
     <v>      -0.00000000       0.20699105       0.38026868 </v>
     <v>       0.20699105      -0.00000000       0.38026868 </v>
     <v>       0.20699105       0.20699105      -0.00000000 </v>
    </varray>
   </crystal>
   <varray name="positions" >
    <v>       0.25000000       0.75000000       0.50000000 </v>
    <v>       0.00000000       0.00000000       0.00000000 </v>
   </varray>
  </structure>
  <varray name="forces" >
   <v>       0.00000000      -0.00000000      -0.00000000 </v>
   <v>      -0.00000000       0.00000000       0.00000000 </v>
  </varray>
  <varray name="stress" >
   <v>      -1.70816106       0.00000000       0.00000000 </v>
   <v>       0.00000000      -1.70816106       0.00000000 </v>
   <v>       0.00000000       0.00000000      -0.95398550 </v>
  </varray>
  <energy>
   <i name="e_fr_energy">    -10.27459288 </i>
   <i name="e_wo_entrp">    -10.26826180 </i>
   <i name="e_0_energy">     -0.01266215 </i>
  </energy>
  <time name="totalsc">    1.58    2.49</time>
 </calculation>
 <calculation>
  <scstep>
   <time name="dav">    0.45    0.45</time>
   <time name="total">    0.52    0.54</time>
   <energy>
    <i name="alphaZ">      4.38770186 </i>
    <i name="ewald">   -265.00976050 </i>
    <i name="hartreedc">     -2.46498535 </i>
    <i name="XCdc">    -17.60149123 </i>
    <i name="pawpsdc">     70.16363549 </i>
    <i name="pawaedc">    -35.07537484 </i>
    <i name="eentropy">     -0.01266191 </i>
    <i name="bandstr">     29.20708934 </i>
    <i name="atom">    206.13125414 </i>
    <i name="e_fr_energy">    -10.27459300 </i>
    <i name="e_wo_entrp">    -10.26193108 </i>
    <i name="e_0_energy">    -10.26826204 </i>
   </energy>
  </scstep>
  <scstep>
   <time name="dav">    0.45    0.45</time>
   <time name="total">    0.47    0.49</time>
   <energy>
    <i name="alphaZ">      4.38770186 </i>
    <i name="ewald">   -265.00976050 </i>
    <i name="hartreedc">     -2.46498849 </i>
    <i name="XCdc">    -17.60149073 </i>
    <i name="pawpsdc">     70.16364690 </i>
    <i name="pawaedc">    -35.07538656 </i>
    <i name="eentropy">     -0.01266191 </i>
    <i name="bandstr">     29.20709230 </i>
    <i name="atom">    206.13125414 </i>
    <i name="e_fr_energy">    -10.27459299 </i>
    <i name="e_wo_entrp">    -10.26193108 </i>
    <i name="e_0_energy">    -10.26826204 </i>
   </energy>
  </scstep>
  <structure>
   <crystal>
    <varray name="basis" >
     <v>      -2.41555177       2.41555177       1.31487365 </v>
     <v>       2.41555177      -2.41555177       1.31487365 </v>
     <v>       2.41555177       2.41555177      -1.31487365 </v>
    </varray>
    <i name="volume">     30.68857410 </i>
    <varray name="rec_basis" >
     <v>       0.00000000       0.20699205       0.38026468 </v>
     <v>       0.20699205       0.00000000       0.38026468 </v>
     <v>       0.20699205       0.20699205      -0.00000000 </v>
    </varray>
   </crystal>
   <varray name="positions" >
    <v>       0.25000000       0.75000000       0.50000000 </v>
    <v>       0.00000000       0.00000000       0.00000000 </v>
   </varray>
  </structure>
  <varray name="forces" >
   <v>       0.00000000      -0.00000000       0.00000000 </v>
   <v>      -0.00000000       0.00000000      -0.00000000 </v>
  </varray>
  <varray name="stress" >
   <v>      -1.69695244       0.00000000       0.00000000 </v>
   <v>       0.00000000      -1.69695244       0.00000000 </v>
   <v>       0.00000000      -0.00000000      -0.97865404 </v>
  </varray>
  <energy>
   <i name="e_fr_energy">    -10.27459299 </i>
   <i name="e_wo_entrp">    -10.26826204 </i>
   <i name="e_0_energy">     -0.01266191 </i>
  </energy>
  <time name="totalsc">    1.54    2.06</time>
 </calculation>
 <calculation>
  <scstep>
   <time name="dav">    0.45    0.45</time>
   <time name="total">    0.52    0.52</time>
   <energy>
    <i name="alphaZ">      4.38769995 </i>
    <i name="ewald">   -265.00972249 </i>
    <i name="hartreedc">     -2.46499286 </i>
    <i name="XCdc">    -17.60149222 </i>
    <i name="pawpsdc">     70.16366028 </i>
    <i name="pawaedc">    -35.07540031 </i>
    <i name="eentropy">     -0.01266179 </i>
    <i name="bandstr">     29.20706224 </i>
    <i name="atom">    206.13125414 </i>
    <i name="e_fr_energy">    -10.27459305 </i>
    <i name="e_wo_entrp">    -10.26193126 </i>
    <i name="e_0_energy">    -10.26826216 </i>
   </energy>
  </scstep>
  <scstep>
   <time name="dav">    0.45    0.45</time>
   <time name="total">    0.47    0.48</time>
   <energy>
    <i name="alphaZ">      4.38769995 </i>
    <i name="ewald">   -265.00972249 </i>
    <i name="hartreedc">     -2.46499440 </i>
    <i name="XCdc">    -17.60149197 </i>
    <i name="pawpsdc">     70.16366586 </i>
    <i name="pawaedc">    -35.07540604 </i>
    <i name="eentropy">     -0.01266179 </i>
    <i name="bandstr">     29.20706369 </i>
    <i name="atom">    206.13125414 </i>
    <i name="e_fr_energy">    -10.27459305 </i>
    <i name="e_wo_entrp">    -10.26193126 </i>
    <i name="e_0_energy">    -10.26826216 </i>
   </energy>
  </scstep>
  <structure>
   <crystal>
    <varray name="basis" >
     <v>      -2.41554593       2.41554593       1.31488057 </v>
     <v>       2.41554593      -2.41554593       1.31488057 </v>
     <v>       2.41554593       2.41554593      -1.31488057 </v>
    </varray>
    <i name="volume">     30.68858742 </i>
    <varray name="rec_basis" >
     <v>       0.00000000       0.20699254       0.38026267 </v>
     <v>       0.20699254       0.00000000       0.38026267 </v>
     <v>       0.20699254       0.20699254      -0.00000000 </v>
    </varray>
   </crystal>
   <varray name="positions" >
    <v>       0.25000000       0.75000000       0.50000000 </v>
    <v>       0.00000000       0.00000000       0.00000000 </v>
   </varray>
  </structure>
  <varray name="forces" >
   <v>      -0.00000000       0.00000000       0.00000000 </v>
   <v>       0.00000000      -0.00000000      -0.00000000 </v>
  </varray>
  <varray name="stress" >
   <v>      -1.69126909       0.00000000       0.00000000 </v>
   <v>       0.00000000      -1.69126909       0.00000000 </v>
   <v>       0.00000000       0.00000000      -0.99116317 </v>
  </varray>
  <energy>
   <i name="e_fr_energy">    -10.27459305 </i>
   <i name="e_wo_entrp">    -10.26826216 </i>
   <i name="e_0_energy">     -0.01266179 </i>
  </energy>
  <time name="totalsc">    1.66    2.57</time>
  <eigenvalues>
   <array>
    <dimension dim="1">band</dimension>
    <dimension dim="2">kpoint</dimension>
    <dimension dim="3">spin</dimension>
    <field>eigene</field>
    <field>occ</field>
    <set>
     <set comment="spin 1">
      <set comment="kpoint 1">
       <r>   -4.3847    1.0000 </r>
       <r>    5.2864    1.0000 </r>
       <r>    6.7124    1.0000 </r>
       <r>    7.9535    1.0000 </r>
       <r>   11.3262    0.0000 </r>
       <r>   15.2949    0.0000 </r>
       <r>   16.2715    0.0000 </r>
       <r>   17.2227    0.0000 </r>
      </set>
      <set comment="kpoint 2">
       <r>   -3.8236    1.0000 </r>
       <r>    4.9022    1.0000 </r>
       <r>    6.8352    1.0000 </r>
       <r>    9.0285    0.6232 </r>
       <r>   12.3590    0.0000 </r>
       <r>   13.3662    0.0000 </r>
       <r>   13.7729    0.0000 </r>
       <r>   15.9980    0.0000 </r>
      </set>
      <set comment="kpoint 3">
       <r>   -2.8931    1.0000 </r>
       <r>    4.8232    1.0000 </r>
       <r>    6.9195    1.0000 </r>
       <r>    9.5421    0.0005 </r>
       <r>   11.3891    0.0000 </r>
       <r>   11.7323    0.0000 </r>
       <r>   13.7415    0.0000 </r>
       <r>   14.8532    0.0000 </r>
      </set>
      <set comment="kpoint 4">
       <r>   -1.6015    1.0000 </r>
       <r>    5.0442    1.0000 </r>
       <r>    6.9235    1.0000 </r>
       <r>    7.3788    1.0000 </r>
       <r>    9.8289    0.0000 </r>
       <r>   12.4684    0.0000 </r>
       <r>   13.1442    0.0000 </r>
       <r>   14.1862    0.0000 </r>
      </set>
      <set comment="kpoint 5">
       <r>    0.0319    1.0000 </r>
       <r>    4.3307    1.0000 </r>
       <r>    5.8297    1.0000 </r>
       <r>    7.3905    1.0000 </r>
       <r>    8.5649    0.9998 </r>
       <r>   11.1840    0.0000 </r>
       <r>   13.6859    0.0000 </r>
       <r>   14.3909    0.0000 </r>
      </set>
      <set comment="kpoint 6">
       <r>    1.6595    1.0000 </r>
       <r>    2.4478    1.0000 </r>
       <r>    6.5984    1.0000 </r>
       <r>    6.6792    1.0000 </r>
       <r>    8.4331    1.0000 </r>
       <r>   10.5530    0.0000 </r>
       <r>   13.5365    0.0000 </r>
       <r>   14.4876    0.0000 </r>
      </set>
      <set comment="kpoint 7">
       <r>   -4.5722    1.0000 </r>
       <r>    5.7227    1.0000 </r>
       <r>    6.3267    1.0000 </r>
       <r>    7.6615    1.0000 </r>
       <r>   10.9030    0.0000 </r>
       <r>   15.9172    0.0000 </r>
       <r>   17.8084    0.0000 </r>
       <r>   18.0199    0.0000 </r>
      </set>
      <set comment="kpoint 8">
       <r>   -2.9775    1.0000 </r>
       <r>    4.8050    1.0000 </r>
       <r>    7.7846    1.0000 </r>
       <r>    9.4066    0.0091 </r>
       <r>   11.1459    0.0000 </r>
       <r>   11.2100    0.0000 </r>
       <r>   13.8612    0.0000 </r>
       <r>   14.9831    0.0000 </r>
      </set>
      <set comment="kpoint 9">
       <r>   -1.7686    1.0000 </r>
       <r>    4.9871    1.0000 </r>
       <r>    7.5996    1.0000 </r>
       <r>    8.1531    1.0000 </r>
       <r>    9.5340    0.0006 </r>
       <r>   11.5870    0.0000 </r>
       <r>   13.2724    0.0000 </r>
       <r>   14.0895    0.0000 </r>
      </set>
      <set comment="kpoint 10">
       <r>   -0.2124    1.0000 </r>
       <r>    4.9443    1.0000 </r>
       <r>    5.7242    1.0000 </r>
       <r>    6.8887    1.0000 </r>
       <r>    9.4257    0.0063 </r>
       <r>   11.8060    0.0000 </r>
       <r>   12.9467    0.0000 </r>
       <r>   14.1649    0.0000 </r>
      </set>
      <set comment="kpoint 11">
       <r>    1.5840    1.0000 </r>
       <r>    2.8370    1.0000 </r>
       <r>    5.5273    1.0000 </r>
       <r>    6.4664    1.0000 </r>
       <r>    9.3620    0.0205 </r>
       <r>   11.3651    0.0000 </r>
       <r>   12.8488    0.0000 </r>
       <r>   15.2991    0.0000 </r>
      </set>
      <set comment="kpoint 12">
       <r>    0.6014    1.0000 </r>
       <r>    3.8294    1.0000 </r>
       <r>    4.7041    1.0000 </r>
       <r>    7.3640    1.0000 </r>
       <r>    8.9429    0.8211 </r>
       <r>   11.9994    0.0000 </r>
       <r>   13.0290    0.0000 </r>
       <r>   15.2588    0.0000 </r>
      </set>
      <set comment="kpoint 13">
       <r>   -1.1007    1.0000 </r>
       <r>    3.7340    1.0000 </r>
       <r>    6.5555    1.0000 </r>
       <r>    7.6131    1.0000 </r>
       <r>    9.6133    0.0001 </r>
       <r>   12.7569    0.0000 </r>
       <r>   13.4402    0.0000 </r>
       <r>   14.3402    0.0000 </r>
      </set>
      <set comment="kpoint 14">
       <r>   -2.4713    1.0000 </r>
       <r>    3.4039    1.0000 </r>
       <r>    7.2399    1.0000 </r>
       <r>    9.2931    0.0597 </r>
       <r>   11.2117    0.0000 </r>
       <r>   11.8467    0.0000 </r>
       <r>   13.5905    0.0000 </r>
       <r>   15.3895    0.0000 </r>
      </set>
      <set comment="kpoint 15">
       <r>   -3.4840    1.0000 </r>
       <r>    3.4022    1.0000 </r>
       <r>    7.1294    1.0000 </r>
       <r>    9.6461    0.0000 </r>
[...]
       <r>    2.1326    1.0000 </r>
       <r>    3.7001    1.0000 </r>
       <r>    5.0043    1.0000 </r>
       <r>    7.1286    1.0000 </r>
       <r>   15.8766    0.0000 </r>
       <r>   17.1450    0.0000 </r>
       <r>   18.8448    0.0000 </r>
      </set>
      <set comment="kpoint 149">
       <r>    1.5412    1.0000 </r>
       <r>    1.6038    1.0000 </r>
       <r>    4.0758    1.0000 </r>
       <r>    4.1022    1.0000 </r>
       <r>    7.0415    1.0000 </r>
       <r>   16.1644    0.0000 </r>
       <r>   17.8752    0.0000 </r>
       <r>   18.2389    0.0000 </r>
      </set>
      <set comment="kpoint 150">
       <r>    2.4326    1.0000 </r>
       <r>    2.9232    1.0000 </r>
       <r>    4.5145    1.0000 </r>
       <r>    4.6599    1.0000 </r>
       <r>    5.1343    1.0000 </r>
       <r>   14.5595    0.0000 </r>
       <r>   15.4748    0.0000 </r>
       <r>   16.3332    0.0000 </r>
      </set>
      <set comment="kpoint 151">
       <r>    2.1723    1.0000 </r>
       <r>    4.2505    1.0000 </r>
       <r>    4.5145    1.0000 </r>
       <r>    5.6384    1.0000 </r>
       <r>    5.6384    1.0000 </r>
       <r>   13.3940    0.0000 </r>
       <r>   13.7762    0.0000 </r>
       <r>   13.7762    0.0000 </r>
      </set>
      <set comment="kpoint 152">
       <r>   -1.2290    1.0000 </r>
       <r>    1.0914    1.0000 </r>
       <r>    2.6811    1.0000 </r>
       <r>    4.9530    1.0000 </r>
       <r>   15.2132    0.0000 </r>
       <r>   15.4777    0.0000 </r>
       <r>   18.6339    0.0000 </r>
       <r>   20.4817    0.0000 </r>
      </set>
      <set comment="kpoint 153">
       <r>   -0.4364    1.0000 </r>
       <r>    0.4415    1.0000 </r>
       <r>    2.9995    1.0000 </r>
       <r>    3.8614    1.0000 </r>
       <r>   15.2458    0.0000 </r>
       <r>   15.3176    0.0000 </r>
       <r>   19.6232    0.0000 </r>
       <r>   20.3575    0.0000 </r>
      </set>
      <set comment="kpoint 154">
       <r>   -0.3368    1.0000 </r>
       <r>    1.0205    1.0000 </r>
       <r>    2.6216    1.0000 </r>
       <r>    3.9566    1.0000 </r>
       <r>   12.3785    0.0000 </r>
       <r>   18.0387    0.0000 </r>
       <r>   19.7686    0.0000 </r>
       <r>   20.7140    0.0000 </r>
      </set>
      <set comment="kpoint 155">
       <r>    0.4499    1.0000 </r>
       <r>    0.4627    1.0000 </r>
       <r>    3.0150    1.0000 </r>
       <r>    3.0190    1.0000 </r>
       <r>   12.3124    0.0000 </r>
       <r>   18.0851    0.0000 </r>
       <r>   20.4811    0.0000 </r>
       <r>   20.8701    0.0000 </r>
      </set>
      <set comment="kpoint 156">
       <r>    0.8356    1.0000 </r>
       <r>    1.3156    1.0000 </r>
       <r>    2.9109    1.0000 </r>
       <r>    3.3834    1.0000 </r>
       <r>    9.5234    0.0007 </r>
       <r>   18.5884    0.0000 </r>
       <r>   19.7841    0.0000 </r>
       <r>   20.1087    0.0000 </r>
      </set>
      <set comment="kpoint 157">
       <r>    1.9210    1.0000 </r>
       <r>    2.0072    1.0000 </r>
       <r>    3.5456    1.0000 </r>
       <r>    3.5456    1.0000 </r>
       <r>    6.9570    1.0000 </r>
       <r>   17.0747    0.0000 </r>
       <r>   17.8062    0.0000 </r>
       <r>   17.8062    0.0000 </r>
      </set>
      <set comment="kpoint 158">
       <r>    0.2728    1.0000 </r>
       <r>    0.7516    1.0000 </r>
       <r>    2.3682    1.0000 </r>
       <r>    2.8416    1.0000 </r>
       <r>   15.1850    0.0000 </r>
       <r>   15.2045    0.0000 </r>
       <r>   21.0154    0.0000 </r>
       <r>   21.4919    0.0000 </r>
      </set>
      <set comment="kpoint 159">
       <r>    0.8420    1.0000 </r>
       <r>    0.8592    1.0000 </r>
       <r>    2.4649    1.0000 </r>
       <r>    2.4649    1.0000 </r>
       <r>   12.2450    0.0000 </r>
       <r>   18.1069    0.0000 </r>
       <r>   21.2304    0.0000 </r>
       <r>   21.4313    0.0000 </r>
      </set>
     </set>
    </set>
   </array>
  </eigenvalues>
  <separator name="orbital magnetization" >
   <v name="MAGDIPOLOUT">      0.00000000      0.00000000      0.00000000</v>
  </separator>
  <dos>
   <i name="efermi">      9.07289698 </i>
   <total>
    <array>
     <dimension dim="1">gridpoints</dimension>
     <dimension dim="2">spin</dimension>
     <field>energy</field>
     <field>total</field>
     <field>integrated</field>
     <set>
      <set comment="spin 1">
       <r>    -6.5722     0.0000     0.0000 </r>
       <r>    -6.4719     0.0000     0.0000 </r>
       <r>    -6.3717     0.0000     0.0000 </r>
       <r>    -6.2715     0.0000     0.0000 </r>
       <r>    -6.1713     0.0000     0.0000 </r>
       <r>    -6.0711     0.0000     0.0000 </r>
       <r>    -5.9709     0.0000     0.0000 </r>
       <r>    -5.8707     0.0000     0.0000 </r>
       <r>    -5.7705     0.0000     0.0000 </r>
       <r>    -5.6702     0.0000     0.0000 </r>
       <r>    -5.5700     0.0000     0.0000 </r>
       <r>    -5.4698     0.0000     0.0000 </r>
       <r>    -5.3696     0.0000     0.0000 </r>
       <r>    -5.2694     0.0000     0.0000 </r>
       <r>    -5.1692     0.0000     0.0000 </r>
       <r>    -5.0690     0.0000     0.0000 </r>
       <r>    -4.9687     0.0001     0.0000 </r>
       <r>    -4.8685     0.0008     0.0001 </r>
       <r>    -4.7683     0.0041     0.0005 </r>
       <r>    -4.6681     0.0136     0.0019 </r>
       <r>    -4.5679     0.0339     0.0053 </r>
       <r>    -4.4677     0.0643     0.0117 </r>
       <r>    -4.3675     0.0943     0.0212 </r>
       <r>    -4.2673     0.1143     0.0326 </r>
       <r>    -4.1670     0.1326     0.0459 </r>
       <r>    -4.0668     0.1583     0.0618 </r>
       <r>    -3.9666     0.1795     0.0798 </r>
       <r>    -3.8664     0.1893     0.0987 </r>
       <r>    -3.7662     0.1985     0.1186 </r>
       <r>    -3.6660     0.2130     0.1400 </r>
       <r>    -3.5658     0.2280     0.1628 </r>
       <r>    -3.4655     0.2385     0.1867 </r>
       <r>    -3.3653     0.2418     0.2110 </r>
       <r>    -3.2651     0.2367     0.2347 </r>
       <r>    -3.1649     0.2418     0.2589 </r>
       <r>    -3.0647     0.2838     0.2873 </r>
       <r>    -2.9645     0.3410     0.3215 </r>
       <r>    -2.8643     0.3566     0.3573 </r>
       <r>    -2.7640     0.3154     0.3889 </r>
       <r>    -2.6638     0.2603     0.4149 </r>
       <r>    -2.5636     0.2456     0.4396 </r>
       <r>    -2.4634     0.2871     0.4683 </r>
       <r>    -2.3632     0.3504     0.5034 </r>
       <r>    -2.2630     0.3890     0.5424 </r>
       <r>    -2.1628     0.3896     0.5815 </r>
       <r>    -2.0626     0.3808     0.6196 </r>
       <r>    -1.9623     0.3887     0.6586 </r>
       <r>    -1.8621     0.4023     0.6989 </r>
       <r>    -1.7619     0.3961     0.7386 </r>
       <r>    -1.6617     0.3689     0.7756 </r>
       <r>    -1.5615     0.3427     0.8099 </r>
       <r>    -1.4613     0.3415     0.8441 </r>
       <r>    -1.3611     0.3848     0.8827 </r>
       <r>    -1.2608     0.4561     0.9284 </r>
       <r>    -1.1606     0.5043     0.9789 </r>
       <r>    -1.0604     0.5017     1.0292 </r>
       <r>    -0.9602     0.4563     1.0749 </r>
       <r>    -0.8600     0.4013     1.1152 </r>
       <r>    -0.7598     0.3802     1.1533 </r>
       <r>    -0.6596     0.4076     1.1941 </r>
       <r>    -0.5594     0.4608     1.2403 </r>
       <r>    -0.4591     0.5141     1.2918 </r>
       <r>    -0.3589     0.5539     1.3473 </r>
       <r>    -0.2587     0.5663     1.4041 </r>
       <r>    -0.1585     0.5447     1.4587 </r>
       <r>    -0.0583     0.5095     1.5097 </r>
       <r>     0.0419     0.4814     1.5580 </r>
       <r>     0.1421     0.4596     1.6040 </r>
       <r>     0.2424     0.4656     1.6507 </r>
       <r>     0.3426     0.5172     1.7025 </r>
       <r>     0.4428     0.5574     1.7584 </r>
       <r>     0.5430     0.5356     1.8121 </r>
       <r>     0.6432     0.5081     1.8630 </r>
       <r>     0.7434     0.5457     1.9177 </r>
       <r>     0.8436     0.6336     1.9812 </r>
       <r>     0.9438     0.7182     2.0531 </r>
       <r>     1.0441     0.7544     2.1287 </r>
       <r>     1.1443     0.7106     2.1999 </r>
       <r>     1.2445     0.6115     2.2612 </r>
       <r>     1.3447     0.5457     2.3159 </r>
       <r>     1.4449     0.5594     2.3720 </r>
       <r>     1.5451     0.5884     2.4309 </r>
       <r>     1.6453     0.5570     2.4868 </r>
       <r>     1.7456     0.4800     2.5349 </r>
       <r>     1.8458     0.4350     2.5784 </r>
       <r>     1.9460     0.4757     2.6261 </r>
       <r>     2.0462     0.5684     2.6831 </r>
       <r>     2.1464     0.6364     2.7468 </r>
       <r>     2.2466     0.6590     2.8129 </r>
       <r>     2.3468     0.6491     2.8779 </r>
       <r>     2.4470     0.5994     2.9380 </r>
       <r>     2.5473     0.5295     2.9911 </r>
       <r>     2.6475     0.4810     3.0393 </r>
       <r>     2.7477     0.4668     3.0860 </r>
       <r>     2.8479     0.4888     3.1350 </r>
       <r>     2.9481     0.5398     3.1891 </r>
       <r>     3.0483     0.5851     3.2478 </r>
       <r>     3.1485     0.6070     3.3086 </r>
       <r>     3.2488     0.6310     3.3718 </r>
       <r>     3.3490     0.6694     3.4389 </r>
       <r>     3.4492     0.6923     3.5083 </r>
       <r>     3.5494     0.6691     3.5753 </r>
       <r>     3.6496     0.6182     3.6373 </r>
       <r>     3.7498     0.6078     3.6982 </r>
       <r>     3.8500     0.6726     3.7656 </r>
       <r>     3.9502     0.7555     3.8413 </r>
       <r>     4.0505     0.7736     3.9188 </r>
       <r>     4.1507     0.7002     3.9890 </r>
       <r>     4.2509     0.5861     4.0477 </r>
       <r>     4.3511     0.5130     4.0991 </r>
       <r>     4.4513     0.5153     4.1508 </r>
       <r>     4.5515     0.5778     4.2087 </r>
       <r>     4.6517     0.6736     4.2762 </r>
       <r>     4.7520     0.7795     4.3543 </r>
       <r>     4.8522     0.8875     4.4432 </r>
       <r>     4.9524     0.9647     4.5399 </r>
       <r>     5.0526     0.9453     4.6347 </r>
       <r>     5.1528     0.8394     4.7188 </r>
       <r>     5.2530     0.7424     4.7932 </r>
       <r>     5.3532     0.7041     4.8637 </r>
       <r>     5.4534     0.7116     4.9350 </r>
       <r>     5.5537     0.7474     5.0099 </r>
       <r>     5.6539     0.7779     5.0879 </r>
       <r>     5.7541     0.7703     5.1651 </r>
       <r>     5.8543     0.7413     5.2394 </r>
       <r>     5.9545     0.7346     5.3130 </r>
       <r>     6.0547     0.7760     5.3908 </r>
       <r>     6.1549     0.8696     5.4779 </r>
       <r>     6.2552     0.9859     5.5767 </r>
       <r>     6.3554     1.0457     5.6815 </r>
       <r>     6.4556     0.9781     5.7795 </r>
       <r>     6.5558     0.8178     5.8615 </r>
       <r>     6.6560     0.6972     5.9313 </r>
       <r>     6.7562     0.7333     6.0048 </r>
       <r>     6.8564     0.9092     6.0959 </r>
       <r>     6.9566     1.0641     6.2026 </r>
       <r>     7.0569     1.0752     6.3103 </r>
       <r>     7.1571     1.0137     6.4119 </r>
       <r>     7.2573     1.0087     6.5130 </r>
       <r>     7.3575     1.0534     6.6186 </r>
       <r>     7.4577     1.0715     6.7259 </r>
       <r>     7.5579     1.0530     6.8315 </r>
       <r>     7.6581     1.0116     6.9329 </r>
       <r>     7.7584     0.9455     7.0276 </r>
       <r>     7.8586     0.8785     7.1156 </r>
       <r>     7.9588     0.8404     7.1999 </r>
       <r>     8.0590     0.8292     7.2830 </r>
       <r>     8.1592     0.8131     7.3644 </r>
       <r>     8.2594     0.7647     7.4411 </r>
       <r>     8.3596     0.7130     7.5125 </r>
       <r>     8.4599     0.6916     7.5818 </r>
       <r>     8.5601     0.6683     7.6488 </r>
       <r>     8.6603     0.6392     7.7129 </r>
       <r>     8.7605     0.6555     7.7786 </r>
       <r>     8.8607     0.7121     7.8499 </r>
       <r>     8.9609     0.7369     7.9238 </r>
       <r>     9.0611     0.6857     7.9925 </r>
       <r>     9.1613     0.6099     8.0536 </r>
       <r>     9.2616     0.6105     8.1148 </r>
       <r>     9.3618     0.7097     8.1859 </r>
       <r>     9.4620     0.8279     8.2689 </r>
       <r>     9.5622     0.8755     8.3566 </r>
       <r>     9.6624     0.8237     8.4392 </r>
       <r>     9.7626     0.7210     8.5114 </r>
       <r>     9.8628     0.6344     8.5750 </r>
       <r>     9.9631     0.5892     8.6340 </r>
       <r>    10.0633     0.5837     8.6925 </r>
       <r>    10.1635     0.6093     8.7536 </r>
       <r>    10.2637     0.6631     8.8200 </r>
       <r>    10.3639     0.7498     8.8952 </r>
       <r>    10.4641     0.8243     8.9778 </r>
       <r>    10.5643     0.8111     9.0591 </r>
       <r>    10.6645     0.7375     9.1330 </r>
       <r>    10.7648     0.7236     9.2055 </r>
       <r>    10.8650     0.8227     9.2879 </r>
       <r>    10.9652     0.9702     9.3852 </r>
       <r>    11.0654     1.0569     9.4911 </r>
       <r>    11.1656     1.0398     9.5953 </r>
       <r>    11.2658     0.9756     9.6931 </r>
       <r>    11.3660     0.8968     9.7829 </r>
       <r>    11.4663     0.7976     9.8628 </r>
       <r>    11.5665     0.7428     9.9373 </r>
       <r>    11.6667     0.8002    10.0175 </r>
       <r>    11.7669     0.9115    10.1088 </r>
       <r>    11.8671     0.9721    10.2062 </r>
       <r>    11.9673     0.9734    10.3038 </r>
       <r>    12.0675     0.9591    10.3999 </r>
       <r>    12.1677     0.9435    10.4945 </r>
       <r>    12.2680     0.9388    10.5885 </r>
       <r>    12.3682     0.9589    10.6846 </r>
       <r>    12.4684     0.9849    10.7833 </r>
       <r>    12.5686     1.0051    10.8841 </r>
       <r>    12.6688     1.0605    10.9903 </r>
       <r>    12.7690     1.1606    11.1067 </r>
       <r>    12.8692     1.2203    11.2289 </r>
       <r>    12.9695     1.1884    11.3480 </r>
       <r>    13.0697     1.1161    11.4599 </r>
       <r>    13.1699     1.0464    11.5648 </r>
       <r>    13.2701     0.9942    11.6644 </r>
       <r>    13.3703     0.9868    11.7633 </r>
       <r>    13.4705     0.9996    11.8635 </r>
       <r>    13.5707     0.9879    11.9625 </r>
       <r>    13.6709     0.9709    12.0598 </r>
       <r>    13.7712     0.9632    12.1563 </r>
       <r>    13.8714     0.9401    12.2505 </r>
       <r>    13.9716     0.9214    12.3428 </r>
       <r>    14.0718     0.9742    12.4405 </r>
       <r>    14.1720     1.0895    12.5496 </r>
       <r>    14.2722     1.1744    12.6673 </r>
       <r>    14.3724     1.1882    12.7864 </r>
       <r>    14.4727     1.1632    12.9030 </r>
       <r>    14.5729     1.1073    13.0139 </r>
       <r>    14.6731     1.0127    13.1154 </r>
       <r>    14.7733     0.9369    13.2093 </r>
       <r>    14.8735     0.9258    13.3021 </r>
       <r>    14.9737     0.9236    13.3947 </r>
       <r>    15.0739     0.8963    13.4845 </r>
       <r>    15.1741     0.9145    13.5761 </r>
       <r>    15.2744     1.0177    13.6781 </r>
       <r>    15.3746     1.1394    13.7923 </r>
       <r>    15.4748     1.1862    13.9112 </r>
       <r>    15.5750     1.1212    14.0235 </r>
       <r>    15.6752     0.9867    14.1224 </r>
       <r>    15.7754     0.8401    14.2066 </r>
       <r>    15.8756     0.7211    14.2789 </r>
       <r>    15.9759     0.6443    14.3434 </r>
       <r>    16.0761     0.5904    14.4026 </r>
       <r>    16.1763     0.5830    14.4610 </r>
       <r>    16.2765     0.6569    14.5268 </r>
       <r>    16.3767     0.7423    14.6012 </r>
       <r>    16.4769     0.7461    14.6760 </r>
       <r>    16.5771     0.6632    14.7425 </r>
       <r>    16.6773     0.5595    14.7985 </r>
       <r>    16.7776     0.5133    14.8500 </r>
       <r>    16.8778     0.5356    14.9037 </r>
       <r>    16.9780     0.5711    14.9609 </r>
       <r>    17.0782     0.5886    15.0199 </r>
       <r>    17.1784     0.5902    15.0790 </r>
       <r>    17.2786     0.5782    15.1370 </r>
       <r>    17.3788     0.5796    15.1951 </r>
       <r>    17.4791     0.6209    15.2573 </r>
       <r>    17.5793     0.6643    15.3239 </r>
       <r>    17.6795     0.6501    15.3890 </r>
       <r>    17.7797     0.5831    15.4474 </r>
       <r>    17.8799     0.5049    15.4980 </r>
       <r>    17.9801     0.4375    15.5419 </r>
       <r>    18.0803     0.3886    15.5808 </r>
       <r>    18.1805     0.3604    15.6169 </r>
       <r>    18.2808     0.3488    15.6519 </r>
       <r>    18.3810     0.3372    15.6857 </r>
       <r>    18.4812     0.3097    15.7167 </r>
       <r>    18.5814     0.2781    15.7446 </r>
       <r>    18.6816     0.2533    15.7700 </r>
       <r>    18.7818     0.2126    15.7913 </r>
       <r>    18.8820     0.1479    15.8061 </r>
       <r>    18.9823     0.0971    15.8158 </r>
       <r>    19.0825     0.0940    15.8252 </r>
       <r>    19.1827     0.1247    15.8377 </r>
       <r>    19.2829     0.1405    15.8518 </r>
       <r>    19.3831     0.1174    15.8636 </r>
       <r>    19.4833     0.0910    15.8727 </r>
       <r>    19.5835     0.1063    15.8834 </r>
       <r>    19.6838     0.1493    15.8983 </r>
       <r>    19.7840     0.1634    15.9147 </r>
       <r>    19.8842     0.1256    15.9273 </r>
       <r>    19.9844     0.0729    15.9346 </r>
       <r>    20.0846     0.0443    15.9390 </r>
       <r>    20.1848     0.0391    15.9429 </r>
       <r>    20.2850     0.0449    15.9474 </r>
       <r>    20.3852     0.0566    15.9531 </r>
       <r>    20.4855     0.0648    15.9596 </r>
       <r>    20.5857     0.0618    15.9658 </r>
       <r>    20.6859     0.0550    15.9713 </r>
       <r>    20.7861     0.0528    15.9766 </r>
       <r>    20.8863     0.0508    15.9817 </r>
       <r>    20.9865     0.0430    15.9860 </r>
       <r>    21.0867     0.0308    15.9891 </r>
       <r>    21.1870     0.0206    15.9911 </r>
       <r>    21.2872     0.0167    15.9928 </r>
       <r>    21.3874     0.0185    15.9947 </r>
       <r>    21.4876     0.0208    15.9967 </r>
       <r>    21.5878     0.0177    15.9985 </r>
       <r>    21.6880     0.0101    15.9995 </r>
       <r>    21.7882     0.0037    15.9999 </r>
       <r>    21.8884     0.0008    16.0000 </r>
       <r>    21.9887     0.0001    16.0000 </r>
       <r>    22.0889     0.0000    16.0000 </r>
       <r>    22.1891     0.0000    16.0000 </r>
       <r>    22.2893     0.0000    16.0000 </r>
       <r>    22.3895     0.0000    16.0000 </r>
       <r>    22.4897     0.0000    16.0000 </r>
       <r>    22.5899     0.0000    16.0000 </r>
       <r>    22.6902     0.0000    16.0000 </r>
       <r>    22.7904     0.0000    16.0000 </r>
       <r>    22.8906     0.0000    16.0000 </r>
       <r>    22.9908     0.0000    16.0000 </r>
       <r>    23.0910     0.0000    16.0000 </r>
       <r>    23.1912     0.0000    16.0000 </r>
       <r>    23.2914     0.0000    16.0000 </r>
       <r>    23.3916     0.0000    16.0000 </r>
       <r>    23.4919     0.0000    16.0000 </r>
      </set>
     </set>
    </array>
   </total>
  </dos>
 </calculation>
 <structure name="finalpos" >
  <crystal>
   <varray name="basis" >
    <v>      -2.41554593       2.41554593       1.31488057 </v>
    <v>       2.41554593      -2.41554593       1.31488057 </v>
    <v>       2.41554593       2.41554593      -1.31488057 </v>
   </varray>
   <i name="volume">     30.68858742 </i>
   <varray name="rec_basis" >
    <v>       0.00000000       0.20699254       0.38026267 </v>
    <v>       0.20699254       0.00000000       0.38026267 </v>
    <v>       0.20699254       0.20699254      -0.00000000 </v>
   </varray>
  </crystal>
  <varray name="positions" >
   <v>       0.25000000       0.75000000       0.50000000 </v>
   <v>       0.00000000       0.00000000       0.00000000 </v>
  </varray>
 </structure>
</modeling>
