unknown system                          
   1.00000000000000     
    -2.450000    2.450000    1.274000
     2.450000   -2.450000    1.274000
     2.450000    2.450000   -1.274000
   Si
     2
Direct
  0.250000  0.750000  0.500000
  0.000000  0.000000  0.000000
 
   28   28   28
 -5.5819     -4.0487     -.52551E-01  4.8969      9.1089      11.449      11.712      10.510      8.7964      7.1722    
  5.8154      4.7860      4.0809      3.6736      3.5408      3.6736      4.0809      4.7860      5.8154      7.1722    
  8.7964      10.510      11.712      11.449      9.1089      4.8969     -.52563E-01 -4.0487     -4.0487     -4.8386    
 -2.6867      1.5540      6.2948      9.9644      11.669      11.440      10.013      8.3019      6.7465      5.4817    
  4.5465      3.9284      3.5999      3.5408      3.7461      4.2283      5.0124      6.1221      7.5499      9.2153    
  10.891      11.862      11.212      8.4905      4.1154     -.62519     -.52563E-01 -2.6867     -2.7454     -.21453    
  3.8879      8.0213      10.845      11.761      11.020      9.4287      7.7606      6.2981      5.1405      4.3072    
  3.7789      3.5290      3.5408      3.8135      4.3622      5.2124      6.3833      7.8563      9.5336      11.145    
  11.929      11.062      8.2652      4.1154      4.8969      1.5540     -.21453     0.32090      2.9250      6.5224    
  9.7389      11.543      11.639      10.459      8.7976      7.2033      5.8522      4.8104      4.0808      3.6402    
  3.4644      3.5408      3.8722      4.4751      5.3740      6.5827      8.0720      9.7325      11.271      11.947    
  11.062      8.4905      9.1089      6.2948      3.8879      2.9250      3.8322      6.2020      9.0112      11.142    
  11.903      11.276      9.7982      8.1546      6.6599      5.4317      4.5075      3.8780      3.5187      3.4091    
  3.5409      3.9189      4.5605      5.4875      6.7075      8.1834      9.8001      11.271      11.929      11.212    
  11.449      9.9644      8.0213      6.5224      6.2020      7.2300      9.1188      10.989      12.026      11.867    
  10.706      9.1080      7.5339      6.1574      5.0562      4.2450      3.7072      3.4195      3.3658      3.5409    
  3.9515      4.6137      5.5460      6.7501      8.1834      9.7325      11.145      11.862      11.712      11.669    
  10.845      9.7388      9.0112      9.1188      10.046      11.313      12.241      12.326      11.478      10.024    
  8.4403      6.9667      5.7185      4.7408      4.0328      3.5746      3.3463      3.3359      3.5409      3.9681    
  4.6318      5.5460      6.7075      8.0720      9.5336      10.891      10.510      11.440      11.761      11.543    
  11.142      10.989      11.313      11.992      12.618      12.738      12.117      10.865      9.3429      7.8335    
  6.4805      5.3609      4.4964      3.8773      3.4843      3.3015      3.3208      3.5409      3.9681      4.6137    
  5.4875      6.5827      7.8563      9.2153      8.7964      10.013      11.020      11.639      11.903      12.026    
  12.241      12.618      12.995      13.074      12.611      11.580      10.197      8.7244      7.3224      6.0971    
  5.0973      4.3301      3.7826      3.4386      3.2865      3.3208      3.5409      3.9515      4.5605      5.3740    
  6.3833      7.5499      7.1722      8.3019      9.4287      10.459      11.276      11.867      12.326      12.738    
  13.074      13.184      12.887      12.105      10.943      9.5930      8.2150      6.9357      5.8326      4.9360    
  4.2461      3.7509      3.4386      3.3015      3.3359      3.5409      3.9189      4.4751      5.2124      6.1221    
  5.8154      6.7465      7.7606      8.7976      9.7982      10.706      11.478      12.117      12.611      12.887    
  12.828      12.356      11.501      10.374      9.1132      7.8528      6.6950      5.6978      4.8818      4.2461    
  3.7826      3.4843      3.3463      3.3658      3.5409      3.8722      4.3622      5.0124      4.7860      5.4817    
  6.2981      7.2033      8.1546      9.1080      10.024      10.865      11.580      12.105      12.356      12.258    
  11.787      10.986      9.9506      8.8052      7.6647      6.6133      5.6978      4.9360      4.3301      3.8773    
  3.5746      3.4195      3.4091      3.5408      3.8135      4.2283      4.0809      4.5465      5.1405      5.8522    
  6.6599      7.5338      8.4403      9.3429      10.197      10.943      11.501      11.787      11.740      11.344    
  10.643      9.7250      8.6991      7.6647      6.6950      5.8326      5.0973      4.4964      4.0328      3.7072    
  3.5187      3.4644      3.5408      3.7461      3.6736      3.9284      4.3073      4.8104      5.4317      6.1574    
  6.9667      7.8335      8.7244      9.5930      10.374      10.986      11.344      11.389      11.103      10.523    
  9.7250      8.8052      7.8528      6.9357      6.0971      5.3609      4.7408      4.2450      3.8780      3.6402    
  3.5290      3.5408      3.5408      3.5999      3.7789      4.0808      4.5075      5.0562      5.7185      6.4805    
  7.3224      8.2150      9.1132      9.9506      10.643      11.103      11.265      11.103      10.643      9.9506    
  9.1132      8.2150      7.3224      6.4805      5.7185      5.0562      4.5075      4.0808      3.7789      3.5999    
  3.6736      3.5408      3.5290      3.6401      3.8779      4.2450      4.7408      5.3609      6.0971      6.9357    
  7.8528      8.8052      9.7250      10.523      11.103      11.389      11.344      10.986      10.374      9.5930    
  8.7244      7.8335      6.9667      6.1574      5.4317      4.8104      4.3072      3.9284      4.0809      3.7461    
  3.5408      3.4643      3.5186      3.7071      4.0327      4.4964      5.0973      5.8326      6.6950      7.6647    
  8.6991      9.7250      10.643      11.344      11.740      11.787      11.501      10.943      10.197      9.3429    
  8.4403      7.5339      6.6599      5.8522      5.1405      4.5465      4.7860      4.2283      3.8135      3.5408    
  3.4091      3.4195      3.5746      3.8773      4.3301      4.9360      5.6978      6.6133      7.6647      8.8052    
  9.9506      10.986      11.787      12.258      12.356      12.105      11.580      10.865      10.024      9.1080    
  8.1546      7.2033      6.2981      5.4817      5.8154      5.0124      4.3622      3.8722      3.5409      3.3658    
  3.3463      3.4843      3.7826      4.2461      4.8818      5.6978      6.6950      7.8528      9.1132      10.374    
  11.501      12.356      12.828      12.887      12.611      12.117      11.478      10.706      9.7982      8.7976    
  7.7606      6.7465      7.1722      6.1221      5.2124      4.4751      3.9189      3.5409      3.3359      3.3016    
  3.4386      3.7509      4.2461      4.9360      5.8326      6.9357      8.2150      9.5930      10.943      12.105    
  12.887      13.184      13.074      12.738      12.326      11.867      11.276      10.459      9.4287      8.3019    
  8.7964      7.5499      6.3833      5.3740      4.5605      3.9515      3.5409      3.3208      3.2865      3.4386    
  3.7826      4.3301      5.0973      6.0971      7.3224      8.7244      10.197      11.580      12.611      13.074    
  12.995      12.618      12.241      12.026      11.903      11.639      11.020      10.013      10.510      9.2153    
  7.8563      6.5827      5.4875      4.6137      3.9681      3.5409      3.3208      3.3016      3.4843      3.8773    
  4.4964      5.3609      6.4805      7.8335      9.3429      10.865      12.117      12.738      12.618      11.992    
  11.313      10.989      11.142      11.543      11.761      11.440      11.712      10.891      9.5336      8.0720    
  6.7076      5.5460      4.6318      3.9681      3.5409      3.3359      3.3463      3.5746      4.0327      4.7408    
  5.7185      6.9667      8.4403      10.024      11.478      12.326      12.241      11.313      10.046      9.1188    
  9.0112      9.7389      10.845      11.669      11.449      11.862      11.145      9.7325      8.1834      6.7501    
  5.5460      4.6137      3.9515      3.5409      3.3658      3.4195      3.7071      4.2450      5.0562      6.1574    
  7.5338      9.1080      10.706      11.867      12.026      10.989      9.1188      7.2300      6.2020      6.5224    
  8.0213      9.9644      9.1089      11.212      11.929      11.271      9.8001      8.1834      6.7076      5.4875    
  4.5605      3.9189      3.5409      3.4091      3.5186      3.8779      4.5075      5.4317      6.6599      8.1546    
  9.7982      11.276      11.903      11.142      9.0112      6.2020      3.8322      2.9250      3.8879      6.2948    
  4.8969      8.4905      11.062      11.947      11.271      9.7325      8.0720      6.5827      5.3740      4.4751    
  3.8722      3.5408      3.4643      3.6401      4.0808      4.8104      5.8522      7.2033      8.7976      10.459    
  11.639      11.543      9.7388      6.5224      2.9250     0.32090     -.21453      1.5540     -.52551E-01  4.1154    
  8.2652      11.062      11.929      11.145      9.5336      7.8563      6.3833      5.2124      4.3622      3.8135    
  3.5408      3.5290      3.7789      4.3073      5.1405      6.2981      7.7606      9.4287      11.020      11.761    
  10.845      8.0213      3.8879     -.21453     -2.7454     -2.6867     -4.0487     -.62517      4.1154      8.4905    
  11.212      11.862      10.891      9.2153      7.5499      6.1221      5.0124      4.2283      3.7461      3.5408    
  3.5999      3.9284      4.5465      5.4817      6.7465      8.3019      10.013      11.440      11.669      9.9644    
  6.2948      1.5540     -2.6867     -4.8386     -4.0486     -2.9382     0.55497      5.0830      9.0441      11.300    
  11.579      10.412      8.7090      7.0793      5.7072      4.6565      3.9260      3.4891      3.3207      3.4100    
  3.7634      4.4032      5.3570      6.6353      8.1940      9.8908      11.253      11.381      9.6101      6.0004    
  1.5023     -2.3382     -2.9382     -4.0486     -2.3382      1.5023      6.0004      9.6101      11.381      11.253    
  9.8907      8.1940      6.6353      5.3570      4.4032      3.7634      3.4100      3.3207      3.4891      3.9260    
  4.6566      5.7072      7.0793      8.7090      10.412      11.579      11.300      9.0442      5.0830     0.55497    
 0.65545     -2.2310     -2.6867     -.54760      3.3042      7.3862      10.322      11.416      10.824      9.2994    
  7.6450      6.1794      5.0099      4.1614      3.6161      3.3470      3.3359      3.5807      4.0960      4.9086    
  6.0418      7.4869      9.1618      10.839      11.825      11.269      8.7915      4.8425      5.3439      1.7912    
 -.34677     -.21451      2.0987      5.6099      8.9430      10.981      11.314      10.286      8.6738      7.0904    
  5.7351      4.6833      3.9427      3.4910      3.3033      3.3657      3.6805      4.2650      5.1458      6.3420    
  7.8342      9.5258      11.158      12.017      11.353      8.9404      9.4734      6.4908      3.7467      2.3693    
  2.9250      5.1282      7.9971      10.360      11.412      11.020      9.6607      8.0462      6.5570      5.3237    
  4.3922      3.7569      3.3937      3.2808      3.4092      3.7841      4.4245      5.3552      6.5897      8.0993    
  9.7778      11.357      12.163      11.568      11.866      10.271      8.0503      6.1562      5.4392      6.2020    
  8.0412      10.071      11.390      11.512      10.537      9.0032      7.4453      6.0691      4.9630      4.1487    
  3.6117      3.3282      3.2808      3.4644      3.8866      4.5660      5.5245      6.7693      8.2642      9.8996    
  11.424      12.247      12.234      12.155      11.145      9.7117      8.5923      8.3633      9.1187      10.421    
  11.552      11.901      11.272      9.9251      8.3668      6.8985      5.6471      4.6670      3.9618      3.5122    
  3.2970      3.3033      3.5291      3.9829      4.6817      5.6431      6.8684      8.3165      9.8804      11.345    
  11.112      12.080      12.324      11.889      11.164      10.665      10.729      11.313      12.015      12.321    
  11.899      10.772      9.2863      7.7852      6.4301      5.3076      4.4460      3.8373      3.4613      3.3008    
  3.3470      3.6001      4.0679      4.7647      5.7033      6.8795      8.2508      9.7183      9.4215      10.725    
  11.752      12.279      12.331      12.168      12.103      12.292      12.618      12.769      12.434      11.508    
  10.161      8.6944      7.2897      6.0605      5.0626      4.3062      3.7780      3.4599      3.3390      3.4100    
  3.6737      4.1369      4.8097      5.7003      6.8007      8.0700      7.7856      9.0085      10.205      11.245    
  11.973      12.382      12.609      12.805      13.003      13.074      12.810      12.078      10.931      9.5776    
  8.1932      6.9082      5.8059      4.9201      4.2511      3.7850      3.5073      3.4097      3.4890      3.7462    
  4.1854      4.8134      5.6337      6.6367      6.3982      7.4165      8.5060      9.5905      10.592      11.424    
  12.050      12.508      12.836      12.999      12.887      12.393      11.514      10.367      9.0910      7.8215    
  6.6635      5.6777      4.8849      4.2819      3.8572      3.6016      3.5100      3.5806      3.8135      4.2106    
  4.7750      5.5075      5.3297      6.1012      6.9877      7.9469      8.9231      9.8594      10.710      11.434    
  12.006      12.396      12.538      12.356      11.822      10.977      9.9136      8.7527      7.6103      6.5715    
  5.6826      4.9586      4.3974      3.9926      3.7395      3.6359      3.6805      3.8721      4.2106      4.6967    
  4.5835      5.1122      5.7656      6.5268      7.3659      8.2430      9.1162      9.9465      10.696      11.318    
  11.751      11.925      11.787      11.323      10.576      9.6323      8.6006      7.5798      6.6409      5.8227    
  5.1400      4.5951      4.1874      3.9166      3.7826      3.7840      3.9188      4.1854      4.1368      4.4426    
  4.8689      5.4122      6.0615      6.7965      7.5892      8.4085      9.2205      9.9848      10.647      11.139    
  11.389      11.344      10.993      10.373      9.5631      8.6559      7.7379      6.8719      6.0949      5.4247    
  4.8701      4.4363      4.1272      3.9443      3.8865      3.9513      3.9680      4.0679      4.2830      4.6146    
  5.0615      5.6172      6.2682      6.9959      7.7772      8.5837      9.3753      10.095      10.670      11.025    
  11.103      10.887      10.404      9.7211      8.9201      8.0789      7.2564      6.4907      5.8050      5.2146    
  4.7313      4.3632      4.1138      3.9828      4.0679      3.9680      3.9828      4.1138      4.3632      4.7313    
  5.2146      5.8050      6.4907      7.2564      8.0789      8.9201      9.7211      10.404      10.887      11.103    
  11.025      10.670      10.095      9.3753      8.5837      7.7772      6.9958      6.2682      5.6172      5.0615    
  4.6145      4.2830      4.4427      4.1368      3.9514      3.8865      3.9443      4.1272      4.4363      4.8701    
  5.4247      6.0949      6.8719      7.7379      8.6559      9.5631      10.373      10.993      11.344      11.389    
  11.139      10.647      9.9848      9.2205      8.4085      7.5892      6.7965      6.0615      5.4122      4.8689    
  5.1122      4.5835      4.1855      3.9189      3.7841      3.7826      3.9167      4.1874      4.5951      5.1400    
  5.8227      6.6409      7.5798      8.6006      9.6323      10.576      11.323      11.787      11.925      11.751    
  11.318      10.696      9.9464      9.1162      8.2430      7.3659      6.5268      5.7655      6.1012      5.3297    
  4.6967      4.2106      3.8721      3.6805      3.6359      3.7395      3.9926      4.3974      4.9586      5.6826    
  6.5715      7.6103      8.7527      9.9136      10.977      11.822      12.356      12.538      12.396      12.006    
  11.434      10.710      9.8594      8.9231      7.9469      6.9877      7.4165      6.3982      5.5075      4.7750    
  4.2106      3.8136      3.5806      3.5100      3.6016      3.8572      4.2818      4.8849      5.6777      6.6635    
  7.8215      9.0910      10.367      11.514      12.393      12.887      12.999      12.836      12.508      12.050    
  11.424      10.592      9.5905      8.5061      9.0085      7.7856      6.6367      5.6338      4.8134      4.1855    
  3.7462      3.4891      3.4098      3.5074      3.7850      4.2511      4.9201      5.8059      6.9082      8.1932    
  9.5776      10.931      12.078      12.810      13.074      13.003      12.805      12.609      12.382      11.973    
  11.245      10.205      10.725      9.4216      8.0700      6.8008      5.7004      4.8098      4.1369      3.6737    
  3.4100      3.3390      3.4599      3.7780      4.3062      5.0625      6.0605      7.2897      8.6944      10.161    
  11.508      12.434      12.769      12.618      12.292      12.103      12.168      12.331      12.279      11.752    
  12.080      11.112      9.7183      8.2508      6.8795      5.7033      4.7648      4.0679      3.6000      3.3470    
  3.3008      3.4613      3.8372      4.4459      5.3076      6.4300      7.7852      9.2863      10.772      11.899    
  12.321      12.015      11.313      10.729      10.665      11.164      11.889      12.324      12.155      12.234    
  11.345      9.8804      8.3165      6.8684      5.6432      4.6817      3.9829      3.5290      3.3033      3.2970    
  3.5122      3.9618      4.6670      5.6471      6.8985      8.3668      9.9251      11.272      11.901      11.552    
  10.421      9.1187      8.3633      8.5923      9.7117      11.145      10.271      11.866      12.247      11.424    
  9.8996      8.2642      6.7693      5.5244      4.5660      3.8866      3.4644      3.2808      3.3282      3.6117    
  4.1487      4.9630      6.0690      7.4453      9.0032      10.537      11.512      11.390      10.071      8.0413    
  6.2020      5.4392      6.1562      8.0504      6.4909      9.4734      11.568      12.163      11.357      9.7778    
  8.0993      6.5897      5.3552      4.4244      3.7841      3.4091      3.2808      3.3936      3.7569      4.3922    
  5.3237      6.5570      8.0462      9.6607      11.020      11.412      10.360      7.9972      5.1282      2.9251    
  2.3693      3.7467      1.7913      5.3439      8.9404      11.353      12.017      11.158      9.5258      7.8342    
  6.3420      5.1458      4.2650      3.6805      3.3657      3.3032      3.4910      3.9427      4.6833      5.7351    
  7.0904      8.6738      10.286      11.314      10.981      8.9430      5.6100      2.0987     -.21447     -.34673    
 -2.2310     0.65547      4.8425      8.7915      11.269      11.825      10.839      9.1618      7.4869      6.0418    
  4.9085      4.0960      3.5806      3.3359      3.3470      3.6161      4.1614      5.0099      6.1794      7.6450    
  9.2994      10.824      11.416      10.322      7.3862      3.3043     -.54757     -2.6867     -.52413E-01 0.65555    
  3.3531      6.9503      10.087      11.767      11.742      10.476      8.7733      7.1548      5.7860      4.7270    
  3.9769      3.5101      3.3016      3.3391      3.6262      4.1812      5.0304      6.1896      7.6330      9.2554    
  10.763      11.421      10.560      8.0753      4.6390      1.5024     0.55506     -.62502     0.55506      3.5999    
  7.2781      10.233      11.596      11.288      9.8919      8.2146      6.6731      5.4014      4.4428      3.7879    
  3.4098      3.2865      3.4098      3.7879      4.4428      5.4014      6.6731      8.2146      9.8919      11.288    
  11.596      10.233      7.2781      3.5999      3.3531     0.65555     -.52409E-01  1.5024      4.6390      8.0753    
  10.560      11.421      10.763      9.2554      7.6330      6.1897      5.0304      4.1812      3.6262      3.3391    
  3.3015      3.5100      3.9769      4.7270      5.7860      7.1548      8.7733      10.476      11.742      11.767    
  10.087      6.9503      7.1963      3.9659      1.7913      1.5541      3.3043      6.2414      9.1336      10.923    
  11.176      10.166      8.6014      7.0572      5.7279      4.6899      3.9536      3.4986      3.3009      3.3463    
  3.6359      4.1855      5.0209      6.1650      7.6094      9.2782      10.977      12.130      11.988      10.217    
  10.635      7.9869      5.3266      3.7467      3.8880      5.6100      8.0760      10.198      11.171      10.809    
  9.5164      7.9596      6.5130      5.3081      4.3944      3.7693      3.4105      3.2970      3.4195      3.7826    
  4.4044      5.3102      6.5180      8.0100      9.6980      11.370      12.448      12.274      12.594      11.267    
  9.1650      7.1715      6.1562      6.5224      7.9972      9.7923      11.033      11.195      10.308      8.8542    
  7.3558      6.0227      4.9472      4.1554      3.6356      3.3654      3.3282      3.5186      3.9443      4.6235    
  5.5794      6.8240      8.3307      10.003      11.629      12.677      12.781      12.877      11.969      10.487    
  9.1506      8.5923      9.0112      10.071      11.104      11.484      10.953      9.7089      8.2246      6.8135    
  5.6049      4.6582      3.9813      3.5572      3.3654      3.3936      3.6402      4.1138      4.8317      5.8131    
  7.0632      8.5482      10.169      11.730      11.652      12.719      13.030      12.568      11.684      10.913    
  10.665      10.988      11.552      11.850      11.509      10.490      9.0886      7.6549      6.3534      5.2743    
  4.4505      3.8776      3.5366      3.4104      3.4909      3.7789      4.2830      5.0175      5.9964      7.2184    
  8.6447      10.179      10.028      11.390      12.458      12.969      12.909      12.530      12.185      12.103    
  12.241      12.321      12.018      11.176      9.9118      8.5145      7.1706      5.9932      5.0416      4.3300    
  3.8467      3.5738      3.4985      3.6161      3.9284      4.4426      5.1693      6.1165      7.2772      8.6109    
  8.4472      9.7255      10.956      11.992      12.648      12.899      12.893      12.830      12.805      12.738    
  12.434      11.733      10.642      9.3469      8.0234      6.7956      5.7470      4.9142      4.2994      3.8886    
  3.6671      3.6261      3.7634      4.0809      4.5834      5.2770      6.1642      7.2341      7.0913      8.1651    
  9.2924      10.385      11.347      12.076      12.527      12.761      12.860      12.836      12.611      12.078    
  11.204      10.088      8.8624      7.6495      6.5503      5.6252      4.8960      4.3589      4.0013      3.8126    
  3.7877      3.9259      4.2283      4.6967      5.3329      6.1355      6.0319      6.8592      7.7853      8.7601    
  9.7172      10.588      11.319      11.868      12.233      12.419      12.396      12.105      11.514      10.659    
  9.6203      8.5060      7.4225      6.4507      5.6348      4.9882      4.5066      4.1810      4.0051      3.9768    
  4.0959      4.3622      4.7750      5.3329      5.2771      5.8611      6.5547      7.3354      8.1664      8.9995    
  9.7855      10.483      11.061      11.490      11.735      11.751      11.501      10.977      10.217      9.2980    
  8.3169      7.3649      6.5071      5.7784      5.1895      4.7388      4.4223      4.2378      4.1854      4.2649    
  4.4751      4.8134      4.8098      5.1694      5.6353      6.1996      6.8464      7.5501      8.2773      8.9925    
  9.6625      10.254      10.730      11.042      11.139      10.986      10.576      9.9462      9.1668      8.3222    
  7.4894      6.7235      6.0549      5.4958      5.0496      4.7178      4.5022      4.4044      4.4244      4.5605    
  4.6137      4.7648      5.0176      5.3700      5.8171      6.3486      6.9475      7.5915      8.2557      8.9129    
  9.5306      10.066      10.464      10.670      10.643      10.373      9.8903      9.2527      8.5330      7.7978    
  7.0962      6.4581      5.8997      5.4305      5.0579      4.7878      4.6236      4.5660      4.6818      4.6318    
  4.6818      4.8319      5.0820      5.4298      5.8692      6.3894      6.9765      7.6137      8.2798      8.9435    
  9.5591      10.067      10.404      10.523      10.404      10.067      9.5591      8.9435      8.2798      7.6137    
  6.9764      6.3894      5.8692      5.4298      5.0820      4.8319      5.0176      4.7648      4.6137      4.5660    
  4.6236      4.7878      5.0579      5.4305      5.8997      6.4581      7.0962      7.7977      8.5330      9.2527    
  9.8903      10.373      10.643      10.670      10.464      10.066      9.5306      8.9129      8.2557      7.5915    
  6.9475      6.3486      5.8171      5.3700      5.6353      5.1694      4.8098      4.5605      4.4244      4.4044    
  4.5022      4.7178      5.0496      5.4958      6.0549      6.7235      7.4894      8.3222      9.1668      9.9462    
  10.576      10.986      11.139      11.042      10.730      10.254      9.6625      8.9925      8.2773      7.5501    
  6.8464      6.1996      6.5547      5.8611      5.2771      4.8135      4.4751      4.2649      4.1854      4.2378    
  4.4223      4.7388      5.1895      5.7785      6.5072      7.3649      8.3169      9.2980      10.217      10.977    
  11.501      11.751      11.735      11.490      11.061      10.483      9.7855      8.9995      8.1664      7.3355    
  7.7853      6.8592      6.0320      5.3330      4.7750      4.3622      4.0959      3.9768      4.0051      4.1810    
  4.5066      4.9882      5.6348      6.4507      7.4225      8.5060      9.6203      10.659      11.514      12.105    
  12.396      12.419      12.233      11.868      11.319      10.588      9.7172      8.7601      9.2924      8.1651    
  7.0913      6.1355      5.3329      4.6967      4.2283      3.9259      3.7877      3.8126      4.0013      4.3589    
  4.8960      5.6252      6.5503      7.6495      8.8625      10.088      11.204      12.078      12.611      12.836    
  12.860      12.761      12.527      12.076      11.347      10.385      10.956      9.7255      8.4472      7.2341    
  6.1642      5.2770      4.5834      4.0809      3.7634      3.6261      3.6671      3.8886      4.2994      4.9142    
  5.7469      6.7956      8.0234      9.3469      10.642      11.733      12.434      12.738      12.805      12.830    
  12.893      12.899      12.648      11.992      12.458      11.390      10.028      8.6108      7.2772      6.1165    
  5.1693      4.4426      3.9284      3.6160      3.4985      3.5738      3.8467      4.3300      5.0416      5.9932    
  7.1706      8.5145      9.9118      11.176      12.018      12.321      12.241      12.103      12.185      12.530    
  12.909      12.969      13.030      12.719      11.652      10.179      8.6447      7.2184      5.9964      5.0175    
  4.2829      3.7789      3.4909      3.4104      3.5366      3.8776      4.4506      5.2743      6.3534      7.6549    
  9.0886      10.490      11.509      11.850      11.552      10.988      10.665      10.913      11.684      12.568    
  11.969      12.877      12.781      11.730      10.169      8.5482      7.0632      5.8131      4.8317      4.1138    
  3.6402      3.3936      3.3654      3.5572      3.9813      4.6582      5.6049      6.8135      8.2246      9.7089    
  10.953      11.484      11.104      10.071      9.0112      8.5923      9.1506      10.487      9.1650      11.267    
  12.594      12.677      11.629      10.003      8.3307      6.8240      5.5794      4.6235      3.9443      3.5186    
  3.3282      3.3654      3.6356      4.1554      4.9472      6.0227      7.3558      8.8542      10.308      11.195    
  11.033      9.7924      7.9972      6.5224      6.1562      7.1715      5.3266      7.9869      10.635      12.274    
  12.448      11.370      9.6980      8.0100      6.5180      5.3102      4.4044      3.7827      3.4195      3.2970    
  3.4105      3.7693      4.3944      5.3081      6.5130      7.9596      9.5165      10.809      11.171      10.198    
  8.0761      5.6100      3.8880      3.7467      1.7913      3.9660      7.1963      10.217      11.988      12.130    
  10.977      9.2782      7.6094      6.1650      5.0209      4.1855      3.6359      3.3463      3.3009      3.4986    
  3.9536      4.6899      5.7279      7.0572      8.6014      10.166      11.176      10.923      9.1336      6.2415    
  3.3043      1.5541      4.8970      5.3439      7.1963      9.6564      11.691      12.546      12.062      10.651    
  8.9735      7.3950      6.0535      5.0016      4.2379      3.7395      3.4842      3.4599      3.6672      4.1190    
  4.8374      5.8406      7.1180      8.5994      10.121      11.227      11.311      10.138      8.0753      6.0005    
  5.0831      4.1156      4.8426      6.9503      9.5104      11.464      12.131      11.474      9.9991      8.3614    
  6.8624      5.6191      4.6696      4.0052      3.6016      3.4385      3.5074      3.8127      4.3716      5.2079    
  6.3361      7.7324      9.3027      10.820      11.699      11.361      9.7060      7.2781      6.9503      4.8426    
  4.1156      5.0831      7.2781      9.7061      11.361      11.699      10.820      9.3027      7.7324      6.3361    
  5.2079      4.3716      3.8127      3.5074      3.4385      3.6016      4.0052      4.6696      5.6191      6.8623    
  8.3614      9.9991      11.474      12.131      11.464      9.5104      9.6564      7.1963      5.3439      4.8971    
  6.0005      8.0753      10.138      11.311      11.227      10.121      8.5994      7.1180      5.8406      4.8374    