unknown system                          
   1.00000000000000     
    -2.450000    2.450000    1.274000
     2.450000   -2.450000    1.274000
     2.450000    2.450000   -1.274000
   Si
     2
Direct
  0.250000  0.750000  0.500000
  0.000000  0.000000  0.000000
 
   28   28   28
 -5.5814     -4.0484     -.53209E-01  4.8949      9.1053      11.444      11.707      10.505      8.7937      7.1716    
  5.8167      4.7891      4.0852      3.6786      3.5460      3.6786      4.0853      4.7892      5.8168      7.1716    
  8.7937      10.505      11.707      11.444      9.1052      4.8948     -.53319E-01 -4.0485     -4.0485     -4.8379    
 -2.6860      1.5542      6.2942      9.9627      11.666      11.437      10.010      8.3000      6.7462      5.4831    
  4.5495      3.9326      3.6049      3.5460      3.7512      4.2328      5.0157      6.1234      7.5488      9.2116    
  10.885      11.855      11.205      8.4856      4.1126     -.62621     -.53319E-01 -2.6861     -2.7439     -.21252    
  3.8900      8.0230      10.846      11.761      11.019      9.4271      7.7594      6.2980      5.1419      4.3102    
  3.7830      3.5339      3.5461      3.8187      4.3669      5.2158      6.3845      7.8547      9.5291      11.138    
  11.921      11.055      8.2600      4.1126      4.8948      1.5541     -.21255     0.32427      2.9295      6.5274    
  9.7438      11.546      11.641      10.459      8.7969      7.2025      5.8522      4.8118      4.0837      3.6442    
  3.4692      3.5461      3.8775      4.4799      5.3775      6.5837      8.0700      9.7273      11.264      11.939    
  11.055      8.4856      9.1052      6.2941      3.8900      2.9295      3.8387      6.2102      9.0201      11.150    
  11.910      11.280      9.7998      8.1546      6.6594      5.4318      4.5089      3.8807      3.5225      3.4138    
  3.5461      3.9244      4.5655      5.4910      6.7085      8.1811      9.7947      11.264      11.921      11.205    
  11.444      9.9626      8.0230      6.5275      6.2102      7.2408      9.1313      11.002      12.038      11.876    
  10.711      9.1103      7.5341      6.1571      5.0564      4.2464      3.7098      3.4232      3.3703      3.5462    
  3.9570      4.6188      5.5496      6.7510      8.1811      9.7273      11.138      11.855      11.707      11.666    
  10.846      9.7438      9.0202      9.1314      10.062      11.330      12.258      12.341      11.489      10.031    
  8.4429      6.9672      5.7183      4.7411      4.0341      3.5771      3.3499      3.3404      3.5462      3.9738    
  4.6369      5.5496      6.7085      8.0700      9.5291      10.885      10.505      11.437      11.761      11.546    
  11.150      11.002      11.330      12.011      12.638      12.757      12.133      10.875      9.3491      7.8361    
  6.4811      5.3608      4.4968      3.8786      3.4867      3.3050      3.3252      3.5462      3.9738      4.6188    
  5.4910      6.5837      7.8547      9.2116      8.7937      10.010      11.019      11.642      11.910      12.038    
  12.258      12.638      13.017      13.096      12.631      11.595      10.208      8.7303      7.3249      6.0977    
  5.0973      4.3306      3.7839      3.4409      3.2899      3.3252      3.5462      3.9570      4.5655      5.3775    
  6.3845      7.5488      7.1716      8.3000      9.4271      10.459      11.280      11.876      12.341      12.757    
  13.096      13.207      12.908      12.124      10.957      9.6027      8.2206      6.9382      5.8333      4.9361    
  4.2465      3.7521      3.4409      3.3050      3.3404      3.5462      3.9244      4.4799      5.2158      6.1234    
  5.8168      6.7462      7.7594      8.7969      9.7998      10.711      11.489      12.133      12.631      12.908    
  12.850      12.377      11.518      10.387      9.1222      7.8581      6.6974      5.6985      4.8819      4.2465    
  3.7839      3.4867      3.3499      3.3703      3.5461      3.8775      4.3669      5.0157      4.7892      5.4831    
  6.2980      7.2025      8.1546      9.1104      10.031      10.875      11.595      12.124      12.377      12.278    
  11.806      11.002      9.9629      8.8137      7.6698      6.6157      5.6985      4.9361      4.3306      3.8786    
  3.5771      3.4232      3.4138      3.5461      3.8187      4.2328      4.0853      4.5495      5.1419      5.8522    
  6.6593      7.5341      8.4429      9.3491      10.208      10.957      11.518      11.806      11.758      11.361    
  10.658      9.7369      8.7075      7.6698      6.6974      5.8333      5.0973      4.4968      4.0341      3.7098    
  3.5225      3.4692      3.5461      3.7512      3.6786      3.9325      4.3101      4.8117      5.4318      6.1571    
  6.9672      7.8361      8.7303      9.6027      10.387      11.002      11.361      11.406      11.120      10.537    
  9.7369      8.8137      7.8581      6.9382      6.0977      5.3608      4.7411      4.2464      3.8807      3.6442    
  3.5339      3.5460      3.5460      3.6048      3.7829      4.0835      4.5088      5.0564      5.7183      6.4811    
  7.3249      8.2206      9.1222      9.9629      10.658      11.120      11.282      11.120      10.658      9.9629    
  9.1222      8.2206      7.3249      6.4811      5.7183      5.0564      4.5089      4.0837      3.7830      3.6049    
  3.6786      3.5459      3.5337      3.6440      3.8806      4.2463      4.7411      5.3609      6.0977      6.9382    
  7.8581      8.8137      9.7369      10.538      11.120      11.406      11.361      11.002      10.387      9.6027    
  8.7303      7.8361      6.9672      6.1571      5.4318      4.8118      4.3102      3.9326      4.0852      3.7511    
  3.5458      3.4689      3.5223      3.7097      4.0341      4.4968      5.0974      5.8333      6.6974      7.6698    
  8.7075      9.7369      10.658      11.361      11.758      11.806      11.518      10.957      10.208      9.3491    
  8.4429      7.5341      6.6594      5.8522      5.1419      4.5495      4.7891      4.2326      3.8185      3.5458    
  3.4136      3.4230      3.5770      3.8786      4.3306      4.9362      5.6985      6.6157      7.6698      8.8137    
  9.9629      11.002      11.806      12.278      12.377      12.124      11.595      10.875      10.031      9.1103    
  8.1546      7.2025      6.2980      5.4831      5.8167      5.0155      4.3667      3.8772      3.5458      3.3701    
  3.3497      3.4866      3.7839      4.2466      4.8820      5.6985      6.6974      7.8581      9.1222      10.387    
  11.518      12.377      12.850      12.908      12.631      12.133      11.489      10.711      9.7998      8.7969    
  7.7594      6.7462      7.1716      6.1234      5.2156      4.4797      3.9241      3.5459      3.3403      3.3049    
  3.4409      3.7522      4.2466      4.9362      5.8333      6.9382      8.2206      9.6027      10.957      12.124    
  12.908      13.207      13.096      12.757      12.341      11.876      11.280      10.459      9.4271      8.3000    
  8.7937      7.5488      6.3845      5.3774      4.5653      3.9568      3.5460      3.3251      3.2898      3.4409    
  3.7839      4.3306      5.0974      6.0977      7.3249      8.7303      10.208      11.595      12.631      13.096    
  13.017      12.638      12.258      12.038      11.910      11.641      11.019      10.010      10.505      9.2117    
  7.8547      6.5837      5.4909      4.6187      3.9735      3.5460      3.3251      3.3049      3.4866      3.8786    
  4.4968      5.3609      6.4811      7.8361      9.3491      10.875      12.133      12.757      12.638      12.011    
  11.330      11.002      11.150      11.546      11.761      11.437      11.707      10.885      9.5291      8.0700    
  6.7085      5.5495      4.6368      3.9735      3.5460      3.3403      3.3497      3.5770      4.0341      4.7411    
  5.7183      6.9672      8.4429      10.031      11.489      12.341      12.258      11.330      10.062      9.1313    
  9.0201      9.7438      10.846      11.666      11.444      11.855      11.138      9.7273      8.1811      6.7510    
  5.5495      4.6187      3.9568      3.5459      3.3701      3.4230      3.7097      4.2463      5.0564      6.1571    
  7.5341      9.1104      10.711      11.876      12.038      11.002      9.1314      7.2408      6.2102      6.5274    
  8.0230      9.9627      9.1053      11.206      11.921      11.264      9.7947      8.1811      6.7085      5.4909    
  4.5653      3.9241      3.5458      3.4136      3.5223      3.8806      4.5088      5.4318      6.6593      8.1546    
  9.7998      11.280      11.910      11.150      9.0202      6.2102      3.8387      2.9295      3.8900      6.2942    
  4.8949      8.4857      11.055      11.939      11.264      9.7273      8.0700      6.5837      5.3774      4.4797    
  3.8772      3.5458      3.4689      3.6440      4.0835      4.8117      5.8522      7.2025      8.7969      10.459    
  11.642      11.546      9.7438      6.5275      2.9295     0.32427     -.21252      1.5542     -.53209E-01  4.1127    
  8.2601      11.055      11.921      11.138      9.5291      7.8547      6.3845      5.2156      4.3667      3.8185    
  3.5458      3.5337      3.7829      4.3101      5.1419      6.2980      7.7594      9.4271      11.019      11.761    
  10.846      8.0230      3.8900     -.21255     -2.7439     -2.6860     -4.0484     -.62609      4.1127      8.4857    
  11.206      11.855      10.885      9.2117      7.5488      6.1234      5.0155      4.2326      3.7511      3.5459    
  3.6048      3.9325      4.5495      5.4831      6.7462      8.3000      10.010      11.437      11.666      9.9626    
  6.2941      1.5541     -2.6861     -4.8379     -4.0484     -2.9384     0.55347      5.0796      9.0389      11.293    
  11.572      10.407      8.7057      7.0783      5.7082      4.6592      3.9297      3.4934      3.3252      3.4143    
  3.7671      4.4058      5.3581      6.6347      8.1917      9.8870      11.248      11.376      9.6062      5.9979    
  1.5012     -2.3383     -2.9384     -4.0484     -2.3383      1.5012      5.9979      9.6062      11.376      11.248    
  9.8870      8.1917      6.6347      5.3581      4.4057      3.7671      3.4143      3.3253      3.4935      3.9299    
  4.6593      5.7083      7.0783      8.7057      10.407      11.572      11.293      9.0389      5.0796     0.55342    
 0.65412     -2.2309     -2.6859     -.54692      3.3043      7.3855      10.320      11.413      10.821      9.2970    
  7.6434      6.1790      5.0110      4.1638      3.6197      3.3513      3.3405      3.5852      4.1000      4.9114    
  6.0428      7.4854      9.1576      10.833      11.818      11.261      8.7857      4.8390      5.3409      1.7907    
 -.34564     -.21243      2.1012      5.6124      8.9451      10.982      11.314      10.285      8.6726      7.0893    
  5.7349      4.6844      3.9451      3.4945      3.3075      3.3704      3.6852      4.2692      5.1488      6.3429    
  7.8322      9.5208      11.150      12.009      11.346      8.9348      9.4687      6.4892      3.7477      2.3724    
  2.9296      5.1337      8.0031      10.366      11.416      11.023      9.6614      8.0458      6.5563      5.3236    
  4.3933      3.7593      3.3971      3.2850      3.4139      3.7890      4.4289      5.3583      6.5905      8.0970    
  9.7722      11.349      12.154      11.561      11.860      10.268      8.0508      6.1597      5.4454      6.2103    
  8.0510      10.081      11.400      11.519      10.541      9.0050      7.4454      6.0686      4.9630      4.1499    
  3.6141      3.3316      3.2850      3.4692      3.8916      4.5706      5.5276      6.7700      8.2617      9.8940    
  11.416      12.239      12.228      12.151      11.145      9.7150      8.5993      8.3736      9.1315      10.435    
  11.566      11.914      11.281      9.9307      8.3692      6.8989      5.6468      4.6672      3.9630      3.5145    
  3.3003      3.3074      3.5339      3.9881      4.6864      5.6464      6.8691      8.3141      9.8753      11.339    
  11.107      12.075      12.322      11.891      11.170      10.676      10.744      11.330      12.033      12.338    
  11.913      10.783      9.2922      7.7877      6.4306      5.3074      4.4461      3.8384      3.4635      3.3040    
  3.3512      3.6050      4.0732      4.7696      5.7065      6.8802      8.2487      9.7139      9.4180      10.721    
  11.750      12.279      12.336      12.178      12.118      12.310      12.638      12.789      12.452      11.522    
  10.171      8.7003      7.2922      6.0611      5.0625      4.3064      3.7791      3.4620      3.3422      3.4142    
  3.6788      4.1422      4.8145      5.7035      6.8016      8.0683      7.7843      9.0058      10.202      11.244    
  11.976      12.390      12.621      12.822      13.024      13.096      12.831      12.096      10.945      9.5873    
  8.1988      6.9107      5.8065      4.9201      4.2514      3.7860      3.5095      3.4130      3.4933      3.7513    
  4.1908      4.8181      5.6369      6.6377      6.3993      7.4157      8.5041      9.5889      10.592      11.429    
  12.059      12.522      12.855      13.020      12.908      12.414      11.531      10.380      9.1001      7.8267    
  6.6658      5.6783      4.8849      4.2821      3.8583      3.6038      3.5133      3.5850      3.8187      4.2158    
  4.7796      5.5106      5.3327      6.1024      6.9871      7.9454      8.9222      9.8608      10.715      11.444    
  12.021      12.414      12.558      12.377      11.841      10.993      9.9259      8.7611      7.6152      6.5737    
  5.6831      4.9585      4.3976      3.9937      3.7418      3.6394      3.6850      3.8773      4.2158      4.7012    
  4.5879      5.1151      5.7667      6.5264      7.3648      8.2426      9.1180      9.9519      10.706      11.332    
  11.768      11.944      11.806      11.341      10.591      9.6439      8.6087      7.5846      6.6430      5.8231    
  5.1398      4.5953      4.1886      3.9191      3.7863      3.7888      3.9241      4.1906      4.1420      4.4469    
  4.8718      5.4134      6.0613      6.7956      7.5891      8.4104      9.2258      9.9940      10.660      11.155    
  11.406      11.361      11.009      10.388      9.5743      8.6638      7.7426      6.8740      6.0952      5.4244    
  4.8702      4.4375      4.1298      3.9482      3.8914      3.9567      3.9734      4.0730      4.2871      4.6173    
  5.0626      5.6170      6.2675      6.9959      7.7792      8.5887      9.3839      10.107      10.685      11.041    
  11.120      10.903      10.418      9.7325      8.9282      8.0837      7.2584      6.4909      5.8045      5.2146    
  4.7325      4.3659      4.1179      3.9879      4.0730      3.9733      3.9878      4.1178      4.3658      4.7325    
  5.2146      5.8045      6.4909      7.2584      8.0837      8.9282      9.7325      10.418      10.903      11.120    
  11.041      10.685      10.107      9.3839      8.5887      7.7792      6.9959      6.2676      5.6170      5.0627    
  4.6174      4.2872      4.4470      4.1419      3.9566      3.8913      3.9481      4.1297      4.4374      4.8702    
  5.4244      6.0952      6.8740      7.7426      8.6638      9.5743      10.388      11.009      11.361      11.406    
  11.155      10.660      9.9940      9.2258      8.4104      7.5891      6.7957      6.0613      5.4134      4.8718    
  5.1152      4.5878      4.1905      3.9240      3.7886      3.7862      3.9190      4.1885      4.5953      5.1398    
  5.8232      6.6430      7.5846      8.6087      9.6439      10.591      11.341      11.806      11.944      11.768    
  11.332      10.706      9.9519      9.1180      8.2426      7.3648      6.5264      5.7668      6.1024      5.3327    
  4.7011      4.2157      3.8772      3.6849      3.6393      3.7417      3.9937      4.3976      4.9586      5.6832    
  6.5737      7.6152      8.7611      9.9259      10.993      11.841      12.377      12.558      12.414      12.021    
  11.444      10.715      9.8608      8.9222      7.9455      6.9871      7.4157      6.3992      5.5105      4.7795    
  4.2157      3.8185      3.5849      3.5132      3.6037      3.8583      4.2821      4.8849      5.6783      6.6658    
  7.8267      9.1001      10.380      11.531      12.413      12.908      13.020      12.854      12.522      12.059    
  11.429      10.592      9.5889      8.5041      9.0058      7.7843      6.6377      5.6369      4.8180      4.1906    
  3.7511      3.4933      3.4129      3.5095      3.7861      4.2514      4.9201      5.8065      6.9107      8.1988    
  9.5873      10.945      12.096      12.831      13.096      13.023      12.822      12.621      12.390      11.976    
  11.244      10.202      10.721      9.4180      8.0683      6.8016      5.7035      4.8145      4.1421      3.6786    
  3.4141      3.3422      3.4621      3.7791      4.3065      5.0625      6.0611      7.2923      8.7003      10.171    
  11.522      12.452      12.789      12.638      12.309      12.118      12.178      12.336      12.279      11.750    
  12.076      11.107      9.7139      8.2487      6.8802      5.7065      4.7695      4.0731      3.6049      3.3511    
  3.3040      3.4635      3.8384      4.4462      5.3075      6.4306      7.7878      9.2922      10.782      11.913    
  12.338      12.033      11.329      10.744      10.675      11.170      11.891      12.322      12.151      12.228    
  11.339      9.8753      8.3141      6.8690      5.6463      4.6864      3.9880      3.5338      3.3073      3.3002    
  3.5144      3.9630      4.6672      5.6468      6.8989      8.3692      9.9307      11.281      11.913      11.565    
  10.435      9.1312      8.3733      8.5992      9.7150      11.145      10.268      11.860      12.240      11.416    
  9.8941      8.2617      6.7699      5.5276      4.5705      3.8915      3.4690      3.2849      3.3314      3.6140    
  4.1498      4.9630      6.0686      7.4454      9.0050      10.541      11.519      11.399      10.081      8.0507    
  6.2101      5.4452      6.1597      8.0508      6.4893      9.4688      11.561      12.155      11.349      9.7723    
  8.0969      6.5904      5.3582      4.4287      3.7888      3.4137      3.2849      3.3970      3.7592      4.3933    
  5.3236      6.5563      8.0458      9.6615      11.023      11.416      10.366      8.0030      5.1336      2.9295    
  2.3723      3.7478      1.7908      5.3410      8.9348      11.346      12.009      11.150      9.5208      7.8322    
  6.3428      5.1487      4.2690      3.6850      3.3702      3.3074      3.4944      3.9451      4.6844      5.7349    
  7.0893      8.6726      10.285      11.314      10.982      8.9450      5.6124      2.1011     -.21245     -.34560    
 -2.2308     0.65421      4.8390      8.7857      11.261      11.818      10.833      9.1576      7.4854      6.0428    
  4.9113      4.0998      3.5850      3.3404      3.3512      3.6197      4.1638      5.0110      6.1790      7.6435    
  9.2970      10.821      11.414      10.320      7.3855      3.3044     -.54693     -2.6859     -.52978E-01 0.65433    
  3.3501      6.9449      10.079      11.759      11.734      10.469      8.7691      7.1531      5.7863      4.7289    
  3.9798      3.5135      3.3052      3.3425      3.6289      4.1829      5.0308      6.1887      7.6306      9.2518    
  10.758      11.416      10.555      8.0717      4.6368      1.5014     0.55364     -.62587     0.55360      3.5969    
  7.2731      10.226      11.589      11.281      9.8867      8.2114      6.6718      5.4018      4.4445      3.7906    
  3.4132      3.2901      3.4132      3.7907      4.4446      5.4018      6.6718      8.2114      9.8867      11.282    
  11.589      10.226      7.2732      3.5970      3.3501     0.65433     -.53000E-01  1.5013      4.6367      8.0716    
  10.555      11.416      10.758      9.2517      7.6306      6.1887      5.0308      4.1829      3.6289      3.3425    
  3.3052      3.5135      3.9798      4.7289      5.7863      7.1531      8.7691      10.469      11.734      11.759    
  10.079      6.9450      7.1915      3.9637      1.7909      1.5545      3.3045      6.2410      9.1322      10.921    
  11.173      10.164      8.5990      7.0555      5.7271      4.6903      3.9552      3.5013      3.3042      3.3499    
  3.6395      4.1885      5.0229      6.1652      7.6071      9.2731      10.970      12.121      11.978      10.209    
  10.628      7.9831      5.3257      3.7479      3.8903      5.6126      8.0785      10.199      11.172      10.809    
  9.5155      7.9582      6.5117      5.3075      4.3948      3.7709      3.4131      3.3003      3.4231      3.7863    
  4.4076      5.3123      6.5180      8.0073      9.6922      11.362      12.438      12.265      12.586      11.262    
  9.1631      7.1727      6.1599      6.5277      8.0033      9.7985      11.038      11.199      10.310      8.8547    
  7.3551      6.0217      4.9467      4.1558      3.6372      3.3680      3.3314      3.5224      3.9482      4.6269    
  5.5816      6.8240      8.3277      9.9970      11.621      12.668      12.773      12.871      11.966      10.488    
  9.1548      8.5995      9.0204      10.082      11.114      11.493      10.960      9.7126      8.2259      6.8132    
  5.6041      4.6578      3.9818      3.5587      3.3679      3.3969      3.6440      4.1179      4.8354      5.8153    
  7.0631      8.5451      10.163      11.722      11.646      12.712      13.026      12.567      11.688      10.921    
  10.676      11.002      11.566      11.863      11.520      10.498      9.0932      7.6567      6.3534      5.2736    
  4.4502      3.8781      3.5381      3.4129      3.4943      3.7829      4.2872      5.0212      5.9986      7.2182    
  8.6417      10.173      10.023      11.385      12.453      12.967      12.911      12.537      12.197      12.118    
  12.258      12.338      12.034      11.188      9.9204      8.5193      7.1725      5.9933      5.0411      4.3297    
  3.8472      3.5753      3.5010      3.6195      3.9325      4.4470      5.1731      6.1187      7.2771      8.6082    
  8.4449      9.7216      10.952      11.989      12.648      12.904      12.903      12.844      12.822      12.757    
  12.452      11.749      10.654      9.3554      8.0282      6.7975      5.7471      4.9137      4.2991      3.8891    
  3.6686      3.6286      3.7669      4.0852      4.5879      5.2808      6.1665      7.2341      7.0915      8.1632    
  9.2892      10.381      11.346      12.078      12.534      12.772      12.875      12.854      12.630      12.096    
  11.220      10.100      8.8705      7.6540      6.5521      5.6254      4.8955      4.3586      4.0018      3.8141    
  3.7904      3.9296      4.2326      4.7011      5.3367      6.1377      6.0342      6.8595      7.7838      8.7575    
  9.7149      10.588      11.322      11.876      12.245      12.434      12.414      12.124      11.531      10.673    
  9.6315      8.5135      7.4267      6.4523      5.6348      4.9876      4.5063      4.1815      4.0068      3.9796    
  4.0997      4.3667      4.7795      5.3367      5.2808      5.8634      6.5551      7.3342      8.1642      8.9978    
  9.7858      10.487      11.069      11.502      11.750      11.767      11.518      10.993      10.231      9.3083    
  8.3239      7.3688      6.5086      5.7783      5.1888      4.7385      4.4228      4.2396      4.1884      4.2689    
  4.4797      4.8179      4.8144      5.1731      5.6375      6.2000      6.8453      7.5483      8.2759      8.9931    
  9.6662      10.262      10.741      11.056      11.155      11.001      10.591      9.9588      9.1766      8.3288    
  7.4931      6.7247      6.0546      5.4950      5.0492      4.7184      4.5041      4.4076      4.4286      4.5652    
  4.6185      4.7694      5.0213      5.3721      5.8176      6.3477      6.9460      7.5905      8.2564      8.9165    
  9.5377      10.076      10.477      10.685      10.658      10.387      9.9025      9.2623      8.5395      7.8013    
  7.0973      6.4576      5.8986      5.4299      5.0585      4.7898      4.6269      4.5704      4.6863      4.6367    
  4.6863      4.8354      5.0841      5.4304      5.8684      6.3881      6.9757      7.6146      8.2833      8.9502    
  9.5689      10.079      10.418      10.537      10.418      10.079      9.5689      8.9503      8.2834      7.6146    
  6.9757      6.3881      5.8685      5.4304      5.0841      4.8354      5.0213      4.7694      4.6186      4.5704    
  4.6270      4.7898      5.0585      5.4299      5.8986      6.4576      7.0972      7.8013      8.5395      9.2623    
  9.9025      10.387      10.658      10.685      10.477      10.076      9.5377      8.9166      8.2565      7.5905    
  6.9460      6.3477      5.8176      5.3722      5.6375      5.1731      4.8145      4.5653      4.4287      4.4076    
  4.5040      4.7183      5.0491      5.4949      6.0546      6.7247      7.4930      8.3288      9.1766      9.9588    
  10.591      11.001      11.155      11.056      10.741      10.262      9.6662      8.9932      8.2760      7.5483    
  6.8454      6.2000      6.5552      5.8634      5.2809      4.8180      4.4797      4.2690      4.1884      4.2395    
  4.4227      4.7384      5.1888      5.7783      6.5086      7.3688      8.3240      9.3083      10.231      10.993    
  11.518      11.767      11.750      11.502      11.069      10.487      9.7858      8.9979      8.1643      7.3342    
  7.7838      6.8595      6.0343      5.3368      4.7796      4.3667      4.0998      3.9796      4.0067      4.1815    
  4.5063      4.9876      5.6348      6.4523      7.4267      8.5135      9.6315      10.673      11.531      12.124    
  12.413      12.434      12.245      11.876      11.322      10.588      9.7149      8.7576      9.2892      8.1632    
  7.0915      6.1378      5.3368      4.7012      4.2327      3.9297      3.7904      3.8142      4.0018      4.3586    
  4.8955      5.6254      6.5521      7.6540      8.8705      10.100      11.220      12.096      12.630      12.854    
  12.875      12.772      12.534      12.078      11.346      10.381      10.952      9.7216      8.4449      7.2341    
  6.1665      5.2808      4.5880      4.0853      3.7670      3.6287      3.6686      3.8892      4.2992      4.9137    
  5.7471      6.7975      8.0282      9.3554      10.654      11.748      12.452      12.756      12.822      12.844    
  12.903      12.904      12.648      11.989      12.453      11.385      10.023      8.6082      7.2771      6.1188    
  5.1731      4.4471      3.9326      3.6196      3.5011      3.5754      3.8473      4.3298      5.0411      5.9933    
  7.1726      8.5194      9.9204      11.188      12.033      12.338      12.258      12.118      12.196      12.537    
  12.911      12.967      13.026      12.712      11.646      10.173      8.6417      7.2182      5.9987      5.0213    
  4.2873      3.7830      3.4944      3.4130      3.5382      3.8782      4.4502      5.2736      6.3534      7.6567    
  9.0932      10.498      11.519      11.863      11.565      11.001      10.675      10.920      11.688      12.567    
  11.966      12.871      12.773      11.722      10.163      8.5450      7.0631      5.8154      4.8355      4.1180    
  3.6442      3.3970      3.3680      3.5588      3.9819      4.6578      5.6041      6.8132      8.2259      9.7126    
  10.960      11.493      11.114      10.081      9.0201      8.5992      9.1547      10.488      9.1632      11.262    
  12.586      12.668      11.621      9.9970      8.3277      6.8240      5.5816      4.6270      3.9483      3.5225    
  3.3315      3.3681      3.6372      4.1558      4.9467      6.0217      7.3551      8.8547      10.310      11.198    
  11.038      9.7983      8.0031      6.5275      6.1598      7.1727      5.3257      7.9832      10.628      12.265    
  12.438      11.362      9.6922      8.0073      6.5180      5.3123      4.4077      3.7864      3.4232      3.3003    
  3.4131      3.7709      4.3948      5.3075      6.5117      7.9582      9.5156      10.809      11.172      10.199    
  8.0784      5.6125      3.8902      3.7479      1.7909      3.9637      7.1915      10.209      11.978      12.120    
  10.970      9.2731      7.6071      6.1652      5.0229      4.1885      3.6395      3.3500      3.3042      3.5013    
  3.9552      4.6903      5.7271      7.0555      8.5991      10.164      11.173      10.921      9.1322      6.2410    
  3.3045      1.5545      4.8951      5.3411      7.1914      9.6489      11.682      12.536      12.052      10.643    
  8.9682      7.3923      6.0528      5.0023      4.2396      3.7419      3.4867      3.4622      3.6687      4.1196    
  4.8369      5.8390      7.1153      8.5956      10.117      11.222      11.306      10.133      8.0718      5.9982    
  5.0798      4.1129      4.8391      6.9449      9.5028      11.454      12.121      11.465      9.9925      8.3571    
  6.8601      5.6185      4.6703      4.0068      3.6039      3.4410      3.5096      3.8143      4.3722      5.2074    
  6.3342      7.7290      9.2975      10.814      11.691      11.353      9.6995      7.2733      6.9451      4.8392    
  4.1129      5.0797      7.2731      9.6993      11.353      11.691      10.814      9.2975      7.7290      6.3342    
  5.2074      4.3722      3.8143      3.5096      3.4409      3.6038      4.0068      4.6703      5.6185      6.8601    
  8.3571      9.9925      11.465      12.121      11.454      9.5029      9.6490      7.1915      5.3411      4.8951    
  5.9981      8.0717      10.133      11.306      11.222      10.117      8.5956      7.1153      5.8390      4.8369    