unknown system                          
   1.00000000000000     
    -2.450000    2.450000    1.274000
     2.450000   -2.450000    1.274000
     2.450000    2.450000   -1.274000
   Si
     2
Direct
  0.250000  0.750000  0.500000
  0.000000  0.000000  0.000000
 
   28   28   28
 -.55818987528E+01 -.40486781368E+01 -.52550911519E-01 0.48969195758E+01 0.91088984976E+01
 0.11448618937E+02 0.11711980083E+02 0.10509716690E+02 0.87964076216E+01 0.71722488457E+01
 0.58153552577E+01 0.47860177720E+01 0.40809130029E+01 0.36736288909E+01 0.35407737859E+01
 0.36736233997E+01 0.40809227469E+01 0.47860423796E+01 0.58153700603E+01 0.71722462518E+01
 0.87964055871E+01 0.10509723147E+02 0.11711983584E+02 0.11448616865E+02 0.91089005450E+01
 0.48969215695E+01 -.52562798120E-01 -.40486958574E+01 -.40486958574E+01 -.48386349166E+01
 -.26867283517E+01 0.15539743308E+01 0.62947859185E+01 0.99643890331E+01 0.11669035951E+02
 0.11439649725E+02 0.10012728769E+02 0.83018632989E+01 0.67465342020E+01 0.54816911010E+01
 0.45464849039E+01 0.39283580935E+01 0.35999371014E+01 0.35407828709E+01 0.37461331068E+01
 0.42283080487E+01 0.50124402621E+01 0.61221284936E+01 0.75499343266E+01 0.92152813054E+01
 0.10891002903E+02 0.11862077419E+02 0.11211800503E+02 0.84904910958E+01 0.41154391812E+01
 -.62518660851E+00 -.52562798120E-01 -.26867397965E+01 -.27453967727E+01 -.21452573709E+00
 0.38879079702E+01 0.80213176333E+01 0.10845438919E+02 0.11760790538E+02 0.11020145566E+02
 0.94286729613E+01 0.77606015306E+01 0.62981191582E+01 0.51405257589E+01 0.43072477317E+01
 0.37788970769E+01 0.35289745347E+01 0.35408084580E+01 0.38135262863E+01 0.43622396467E+01
 0.52124335713E+01 0.63833239562E+01 0.78562853973E+01 0.95336166122E+01 0.11145085612E+02
 0.11929097091E+02 0.11062430863E+02 0.82652302645E+01 0.41154391812E+01 0.48969215695E+01
 0.15539685100E+01 -.21452682486E+00 0.32090410485E+00 0.29250320789E+01 0.65223800681E+01
 0.97388565704E+01 0.11542537256E+02 0.11639368321E+02 0.10458813753E+02 0.87975716569E+01
 0.72033022314E+01 0.58521693380E+01 0.48103688357E+01 0.40808217323E+01 0.36401604588E+01
 0.34643502521E+01 0.35408447106E+01 0.38721607758E+01 0.44751049282E+01 0.53740377375E+01
 0.65826567261E+01 0.80720122111E+01 0.97324799922E+01 0.11271091924E+02 0.11947008243E+02
 0.11062430863E+02 0.84904910958E+01 0.91089005450E+01 0.62947840846E+01 0.38879099199E+01
 0.29250418345E+01 0.38321514953E+01 0.62020156087E+01 0.90112098442E+01 0.11141914599E+02
 0.11902884235E+02 0.11275516971E+02 0.97981794552E+01 0.81546372112E+01 0.66598971708E+01
 0.54317143276E+01 0.45074834560E+01 0.38779572617E+01 0.35186500035E+01 0.34091398272E+01
 0.35408837862E+01 0.39189353126E+01 0.45605174008E+01 0.54874994400E+01 0.67075421002E+01
 0.81834197078E+01 0.98000968212E+01 0.11271091924E+02 0.11929097091E+02 0.11211800503E+02
 0.11448616865E+02 0.99643846982E+01 0.80213120251E+01 0.65223888666E+01 0.62020330061E+01
 0.72300334678E+01 0.91187520445E+01 0.10988556415E+02 0.12026102109E+02 0.11867008764E+02
 0.10705903236E+02 0.91080265640E+01 0.75338502323E+01 0.61574191504E+01 0.50562099794E+01
 0.42450243201E+01 0.37071529519E+01 0.34194723264E+01 0.33657587589E+01 0.35409178885E+01
 0.39514564195E+01 0.46137128949E+01 0.55459839436E+01 0.67500687435E+01 0.81834197078E+01
 0.97324799922E+01 0.11145085612E+02 0.11862077419E+02 0.11711983584E+02 0.11669039153E+02
 0.10845429630E+02 0.97388487290E+01 0.90112223394E+01 0.91187714473E+01 0.10046343619E+02
 0.11312689327E+02 0.12241308800E+02 0.12326399166E+02 0.11478262796E+02 0.10024393464E+02
 0.84402915707E+01 0.69667321747E+01 0.57185360889E+01 0.47408238529E+01 0.40327567397E+01
 0.35745676364E+01 0.33463048205E+01 0.33359371993E+01 0.35409408507E+01 0.39681175632E+01
 0.46317717100E+01 0.55459839436E+01 0.67075421002E+01 0.80720122111E+01 0.95336166122E+01
 0.10891002903E+02 0.10509723147E+02 0.11439666877E+02 0.11760798323E+02 0.11542526494E+02
 0.11141906945E+02 0.10988568430E+02 0.11312704792E+02 0.11991951496E+02 0.12617905561E+02
 0.12737951573E+02 0.12117431276E+02 0.10864758091E+02 0.93428853319E+01 0.78334841696E+01
 0.64805045918E+01 0.53609100531E+01 0.44964320827E+01 0.38772902699E+01 0.34842552741E+01
 0.33015351667E+01 0.33207658613E+01 0.35409489167E+01 0.39681175632E+01 0.46137128949E+01
 0.54874994400E+01 0.65826567261E+01 0.78562853973E+01 0.92152813054E+01 0.87964055871E+01
 0.10012742736E+02 0.11020170355E+02 0.11639378991E+02 0.11902876135E+02 0.12026096992E+02
 0.12241316707E+02 0.12617913012E+02 0.12994866239E+02 0.13073999439E+02 0.12611297395E+02
 0.11579729603E+02 0.10197320662E+02 0.87243807619E+01 0.73223660341E+01 0.60970550213E+01
 0.50972814272E+01 0.43301449123E+01 0.37826414477E+01 0.34385709984E+01 0.32864740398E+01
 0.33207658613E+01 0.35409408507E+01 0.39514564195E+01 0.45605174008E+01 0.53740377375E+01
 0.63833239562E+01 0.75499343266E+01 0.71722462518E+01 0.83018611352E+01 0.94286887018E+01
 0.10458838276E+02 0.11275528337E+02 0.11867006405E+02 0.12326397970E+02 0.12737953603E+02
 0.13073998001E+02 0.13183776116E+02 0.12886675527E+02 0.12105220417E+02 0.10942837888E+02
 0.95930226438E+01 0.82149981063E+01 0.69357384645E+01 0.58325976722E+01 0.49360112849E+01
 0.42460790996E+01 0.37508823712E+01 0.34385709984E+01 0.33015351667E+01 0.33359371993E+01
 0.35409178885E+01 0.39189353126E+01 0.44751049282E+01 0.52124335713E+01 0.61221284936E+01
 0.58153700603E+01 0.67465327272E+01 0.77605993814E+01 0.87975833744E+01 0.97981968357E+01
 0.10705913129E+02 0.11478266878E+02 0.12117433949E+02 0.12611294142E+02 0.12886667483E+02
 0.12828454263E+02 0.12356381175E+02 0.11500563306E+02 0.10374086830E+02 0.91132015308E+01
 0.78527942580E+01 0.66949951088E+01 0.56977515891E+01 0.48817588436E+01 0.42460790996E+01
 0.37826414477E+01 0.34842552741E+01 0.33463048205E+01 0.33657587589E+01 0.35408837862E+01
 0.38721607758E+01 0.43622396467E+01 0.50124402621E+01 0.47860423796E+01 0.54817070990E+01
 0.62981201583E+01 0.72033002765E+01 0.81546413403E+01 0.91080332457E+01 0.10024400107E+02
 0.10864766623E+02 0.11579734803E+02 0.12105214317E+02 0.12356370595E+02 0.12257586432E+02
 0.11786885103E+02 0.10985597890E+02 0.99505866842E+01 0.88051779801E+01 0.76647220730E+01
 0.66132717845E+01 0.56977515891E+01 0.49360112849E+01 0.43301449123E+01 0.38772902699E+01
 0.35745676364E+01 0.34194723264E+01 0.34091398272E+01 0.35408447106E+01 0.38135262863E+01
 0.42283080487E+01 0.40809227469E+01 0.45465029837E+01 0.51405392887E+01 0.58521731535E+01
 0.66598956915E+01 0.75338467479E+01 0.84402881087E+01 0.93428875504E+01 0.10197329845E+02
 0.10942843661E+02 0.11500557342E+02 0.11786875809E+02 0.11739668008E+02 0.11344085740E+02
 0.10642884137E+02 0.97250374247E+01 0.86990643044E+01 0.76647220730E+01 0.66949951088E+01
 0.58325976722E+01 0.50972814272E+01 0.44964320827E+01 0.40327567397E+01 0.37071529519E+01
 0.35186500035E+01 0.34643502521E+01 0.35408084580E+01 0.37461331068E+01 0.36736233997E+01
 0.39283575660E+01 0.43072543243E+01 0.48103774680E+01 0.54317199541E+01 0.61574185538E+01
 0.69667243340E+01 0.78334742924E+01 0.87243780894E+01 0.95930285979E+01 0.10374091510E+02
 0.10985594143E+02 0.11344079587E+02 0.11388743258E+02 0.11103141509E+02 0.10522867034E+02
 0.97250374247E+01 0.88051779801E+01 0.78527942580E+01 0.69357384645E+01 0.60970550213E+01
 0.53609100531E+01 0.47408238529E+01 0.42450243201E+01 0.38779572617E+01 0.36401604588E+01
 0.35289745347E+01 0.35407828709E+01 0.35407737859E+01 0.35999278094E+01 0.37788861936E+01
 0.40808170242E+01 0.45074862883E+01 0.50562153105E+01 0.57185368250E+01 0.64804972307E+01
 0.73223545201E+01 0.82149908352E+01 0.91132020883E+01 0.99505895976E+01 0.10642882888E+02
 0.11103137799E+02 0.11264884398E+02 0.11103141509E+02 0.10642884137E+02 0.99505866842E+01
 0.91132015308E+01 0.82149981063E+01 0.73223660341E+01 0.64805045918E+01 0.57185360889E+01
 0.50562099794E+01 0.45074834560E+01 0.40808217323E+01 0.37788970769E+01 0.35999371014E+01
 0.36736288909E+01 0.35407832256E+01 0.35289635275E+01 0.36401440226E+01 0.38779458744E+01
 0.42450217008E+01 0.47408264781E+01 0.53609124443E+01 0.60970521984E+01 0.69357288648E+01
 0.78527834160E+01 0.88051736707E+01 0.97250390690E+01 0.10522866850E+02 0.11103137799E+02
 0.11388743258E+02 0.11344085740E+02 0.10985597890E+02 0.10374086830E+02 0.95930226438E+01
 0.87243807619E+01 0.78334841696E+01 0.69667321747E+01 0.61574191504E+01 0.54317143276E+01
 0.48103688357E+01 0.43072477317E+01 0.39283580935E+01 0.40809130029E+01 0.37461343531E+01
 0.35408087259E+01 0.34643407809E+01 0.35186356543E+01 0.37071414179E+01 0.40327497434E+01
 0.44964303469E+01 0.50972854841E+01 0.58326007608E+01 0.66949883619E+01 0.76647092801E+01
 0.86990580558E+01 0.97250390690E+01 0.10642882888E+02 0.11344079587E+02 0.11739668008E+02
 0.11786885103E+02 0.11500563306E+02 0.10942837888E+02 0.10197320662E+02 0.93428853319E+01
 0.84402915707E+01 0.75338502323E+01 0.66598971708E+01 0.58521693380E+01 0.51405257589E+01
 0.45464849039E+01 0.47860177720E+01 0.42282928451E+01 0.38135242101E+01 0.35408441876E+01
 0.34091351804E+01 0.34194671736E+01 0.35745612944E+01 0.38772802259E+01 0.43301387398E+01
 0.49360165962E+01 0.56977587195E+01 0.66132663278E+01 0.76647092801E+01 0.88051736707E+01
 0.99505895976E+01 0.10985594143E+02 0.11786875809E+02 0.12257586432E+02 0.12356381175E+02
 0.12105220417E+02 0.11579729603E+02 0.10864758091E+02 0.10024393464E+02 0.91080265640E+01
 0.81546372112E+01 0.72033022314E+01 0.62981191582E+01 0.54816911010E+01 0.58153552577E+01
 0.50124176614E+01 0.43622262956E+01 0.38721569253E+01 0.35408818273E+01 0.33657609382E+01
 0.33463122523E+01 0.34842559673E+01 0.37826296566E+01 0.42460701497E+01 0.48817646234E+01
 0.56977587195E+01 0.66949883619E+01 0.78527834160E+01 0.91132020883E+01 0.10374091510E+02
 0.11500557342E+02 0.12356370595E+02 0.12828454263E+02 0.12886675527E+02 0.12611297395E+02
 0.12117431276E+02 0.11478262796E+02 0.10705903236E+02 0.97981794552E+01 0.87975716569E+01
 0.77606015306E+01 0.67465342020E+01 0.71722488457E+01 0.61221188391E+01 0.52124218096E+01
 0.44751000015E+01 0.39189310899E+01 0.35409142493E+01 0.33359459805E+01 0.33015532554E+01
 0.34385765320E+01 0.37508700169E+01 0.42460701497E+01 0.49360165962E+01 0.58326007608E+01
 0.69357288648E+01 0.82149908352E+01 0.95930285979E+01 0.10942843661E+02 0.12105214317E+02
 0.12886667483E+02 0.13183776116E+02 0.13073999439E+02 0.12737951573E+02 0.12326399166E+02
 0.11867008764E+02 0.11275516971E+02 0.10458813753E+02 0.94286729613E+01 0.83018632989E+01
 0.87964076216E+01 0.75499363720E+01 0.63833223689E+01 0.53740423251E+01 0.45605239023E+01
 0.39514525928E+01 0.35409358670E+01 0.33207786866E+01 0.32864962795E+01 0.34385765320E+01
 0.37826296566E+01 0.43301387398E+01 0.50972854841E+01 0.60970521984E+01 0.73223545201E+01
 0.87243780894E+01 0.10197329845E+02 0.11579734803E+02 0.12611294142E+02 0.13073998001E+02
 0.12994866239E+02 0.12617905561E+02 0.12241308800E+02 0.12026102109E+02 0.11902884235E+02
 0.11639368321E+02 0.11020145566E+02 0.10012728769E+02 0.10509716690E+02 0.92152830854E+01
 0.78562856756E+01 0.65826639153E+01 0.54875201341E+01 0.46137289972E+01 0.39681141702E+01
 0.35409434207E+01 0.33207786866E+01 0.33015532554E+01 0.34842559673E+01 0.38772802259E+01
 0.44964303469E+01 0.53609124443E+01 0.64804972307E+01 0.78334742924E+01 0.93428875504E+01
 0.10864766623E+02 0.12117433949E+02 0.12737953603E+02 0.12617913012E+02 0.11991951496E+02
 0.11312689327E+02 0.10988556415E+02 0.11141914599E+02 0.11542537256E+02 0.11760790538E+02
 0.11439649725E+02 0.11711980083E+02 0.10891007334E+02 0.95336180784E+01 0.80720104483E+01
 0.67075560646E+01 0.55460145597E+01 0.46317915358E+01 0.39681141702E+01 0.35409358670E+01
 0.33359459805E+01 0.33463122523E+01 0.35745612944E+01 0.40327497434E+01 0.47408264781E+01
 0.57185368250E+01 0.69667243340E+01 0.84402881087E+01 0.10024400107E+02 0.11478266878E+02
 0.12326397970E+02 0.12241316707E+02 0.11312704792E+02 0.10046343619E+02 0.91187520445E+01
 0.90112098442E+01 0.97388565704E+01 0.10845438919E+02 0.11669035951E+02 0.11448618937E+02
 0.11862089328E+02 0.11145100554E+02 0.97324811995E+01 0.81834166184E+01 0.67500852536E+01
 0.55460145597E+01 0.46137289972E+01 0.39514525928E+01 0.35409142493E+01 0.33657609382E+01
 0.34194671736E+01 0.37071414179E+01 0.42450217008E+01 0.50562153105E+01 0.61574185538E+01
 0.75338467479E+01 0.91080332457E+01 0.10705913129E+02 0.11867006405E+02 0.12026096992E+02
 0.10988568430E+02 0.91187714473E+01 0.72300334678E+01 0.62020156087E+01 0.65223800681E+01
 0.80213176333E+01 0.99643890331E+01 0.91088984976E+01 0.11211807209E+02 0.11929121038E+02
 0.11271113272E+02 0.98000979285E+01 0.81834166184E+01 0.67075560646E+01 0.54875201341E+01
 0.45605239023E+01 0.39189310899E+01 0.35408818273E+01 0.34091351804E+01 0.35186356543E+01
 0.38779458744E+01 0.45074862883E+01 0.54317199541E+01 0.66598956915E+01 0.81546413403E+01
 0.97981968357E+01 0.11275528337E+02 0.11902876135E+02 0.11141906945E+02 0.90112223394E+01
 0.62020330061E+01 0.38321514953E+01 0.29250320789E+01 0.38879079702E+01 0.62947859185E+01
 0.48969195758E+01 0.84904838153E+01 0.11062440282E+02 0.11947036729E+02 0.11271113272E+02
 0.97324811995E+01 0.80720104483E+01 0.65826639153E+01 0.53740423251E+01 0.44751000015E+01
 0.38721569253E+01 0.35408441876E+01 0.34643407809E+01 0.36401440226E+01 0.40808170242E+01
 0.48103774680E+01 0.58521731535E+01 0.72033002765E+01 0.87975833744E+01 0.10458838276E+02
 0.11639378991E+02 0.11542526494E+02 0.97388487290E+01 0.65223888666E+01 0.29250418345E+01
 0.32090410485E+00 -.21452573709E+00 0.15539743308E+01 -.52550911519E-01 0.41154348092E+01
 0.82652209768E+01 0.11062440282E+02 0.11929121038E+02 0.11145100554E+02 0.95336180784E+01
 0.78562856756E+01 0.63833223689E+01 0.52124218096E+01 0.43622262956E+01 0.38135242101E+01
 0.35408087259E+01 0.35289635275E+01 0.37788861936E+01 0.43072543243E+01 0.51405392887E+01
 0.62981201583E+01 0.77605993814E+01 0.94286887018E+01 0.11020170355E+02 0.11760798323E+02
 0.10845429630E+02 0.80213120251E+01 0.38879099199E+01 -.21452682486E+00 -.27453967727E+01
 -.26867283517E+01 -.40486781368E+01 -.62517243808E+00 0.41154348092E+01 0.84904838153E+01
 0.11211807209E+02 0.11862089328E+02 0.10891007334E+02 0.92152830854E+01 0.75499363720E+01
 0.61221188391E+01 0.50124176614E+01 0.42282928451E+01 0.37461343531E+01 0.35407832256E+01
 0.35999278094E+01 0.39283575660E+01 0.45465029837E+01 0.54817070990E+01 0.67465327272E+01
 0.83018611352E+01 0.10012742736E+02 0.11439666877E+02 0.11669039153E+02 0.99643846982E+01
 0.62947840846E+01 0.15539685100E+01 -.26867397965E+01 -.48386349166E+01 -.40486211089E+01
 -.29382007900E+01 0.55496588317E+00 0.50829825301E+01 0.90441405399E+01 0.11299875519E+02
 0.11578696607E+02 0.10412209761E+02 0.87089910796E+01 0.70792895164E+01 0.57071921579E+01
 0.46565209205E+01 0.39259938305E+01 0.34890628487E+01 0.33206981647E+01 0.34099589806E+01
 0.37634376384E+01 0.44032038663E+01 0.53570024922E+01 0.66352869070E+01 0.81940086859E+01
 0.98907714099E+01 0.11252936477E+02 0.11380857727E+02 0.96100804512E+01 0.60004318902E+01
 0.15023396711E+01 -.23381679699E+01 -.29382140602E+01 -.40486325099E+01 -.23381791645E+01
 0.15023155421E+01 0.60003994371E+01 0.96100538194E+01 0.11380833921E+02 0.11252906745E+02
 0.98907471787E+01 0.81940045606E+01 0.66352896408E+01 0.53569895349E+01 0.44031816960E+01
 0.37634290455E+01 0.34099640300E+01 0.33207018774E+01 0.34890700652E+01 0.39260198838E+01
 0.46565561719E+01 0.57072119890E+01 0.70792939139E+01 0.87090011768E+01 0.10412231291E+02
 0.11578718522E+02 0.11299897387E+02 0.90441688765E+01 0.50830065548E+01 0.55496845149E+00
 0.65544993221E+00 -.22310494573E+01 -.26866961389E+01 -.54760226046E+00 0.33042273218E+01
 0.73861881127E+01 0.10321755796E+02 0.11415777761E+02 0.10824056261E+02 0.92993739163E+01
 0.76450372900E+01 0.61794023806E+01 0.50099045530E+01 0.41613546385E+01 0.36161259246E+01
 0.33470255925E+01 0.33358929753E+01 0.35806563131E+01 0.40960076831E+01 0.49085530378E+01
 0.60418497787E+01 0.74869226701E+01 0.91617917591E+01 0.10839431337E+02 0.11825454690E+02
 0.11268534606E+02 0.87915441427E+01 0.48424860971E+01 0.53438511171E+01 0.17912230624E+01
 -.34677356895E+00 -.21450728658E+00 0.20986562558E+01 0.56099423462E+01 0.89429626721E+01
 0.10980565376E+02 0.11313655059E+02 0.10285615577E+02 0.86738180167E+01 0.70903936406E+01
 0.57351359886E+01 0.46832826289E+01 0.39426733051E+01 0.34909988011E+01 0.33032607197E+01
 0.33657482317E+01 0.36805327011E+01 0.42650070966E+01 0.51458153828E+01 0.63420026325E+01
 0.78342033111E+01 0.95258014871E+01 0.11157875375E+02 0.12017331144E+02 0.11353384072E+02
 0.89403990103E+01 0.94733733680E+01 0.64908342319E+01 0.37466650152E+01 0.23692730476E+01
 0.29250368872E+01 0.51281538489E+01 0.79971492929E+01 0.10360352569E+02 0.11412026425E+02
 0.11019941632E+02 0.96606597791E+01 0.80461873469E+01 0.65569910370E+01 0.53236957584E+01
 0.43921857626E+01 0.37569431383E+01 0.33936678490E+01 0.32808205796E+01 0.34091715731E+01
 0.37841366073E+01 0.44244559545E+01 0.53551827402E+01 0.65897274028E+01 0.80993055130E+01
 0.97777696746E+01 0.11356590120E+02 0.12162912696E+02 0.11567943144E+02 0.11865992993E+02
 0.10271232433E+02 0.80503345463E+01 0.61561518204E+01 0.54391755317E+01 0.62020075379E+01
 0.80412469851E+01 0.10071339437E+02 0.11390314416E+02 0.11512130434E+02 0.10536754102E+02
 0.90031977535E+01 0.74453359204E+01 0.60690564885E+01 0.49629850959E+01 0.41487378489E+01
 0.36117339216E+01 0.33281991622E+01 0.32808272392E+01 0.34644238625E+01 0.38866130243E+01
 0.45659687394E+01 0.55244506876E+01 0.67692841763E+01 0.82642270962E+01 0.98996154987E+01
 0.11423522221E+02 0.12247084524E+02 0.12233972746E+02 0.12154758157E+02 0.11145281174E+02
 0.97117021779E+01 0.85922858552E+01 0.83632951754E+01 0.91187335119E+01 0.10421117659E+02
 0.11551592344E+02 0.11901344311E+02 0.11271529866E+02 0.99251488640E+01 0.83667912391E+01
 0.68985079155E+01 0.56471458842E+01 0.46670426787E+01 0.39618395210E+01 0.35122278973E+01
 0.32969933052E+01 0.33032770687E+01 0.35290785274E+01 0.39829086688E+01 0.46816947863E+01
 0.56431348133E+01 0.68683968166E+01 0.83165075194E+01 0.98804331671E+01 0.11345335604E+02
 0.11112146217E+02 0.12079950478E+02 0.12323546804E+02 0.11888641091E+02 0.11163761457E+02
 0.10664740550E+02 0.10729303867E+02 0.11312664899E+02 0.12015043438E+02 0.12321278924E+02
 0.11898564831E+02 0.10772408127E+02 0.92862826714E+01 0.77851783713E+01 0.64300583538E+01
 0.53076132707E+01 0.44459549124E+01 0.38372594228E+01 0.34613237462E+01 0.33008313774E+01
 0.33470422508E+01 0.36000502764E+01 0.40679361582E+01 0.47647494665E+01 0.57032868907E+01
 0.68794894651E+01 0.82508039594E+01 0.97183237529E+01 0.94215487576E+01 0.10725342278E+02
 0.11752063103E+02 0.12278633657E+02 0.12331137117E+02 0.12167992118E+02 0.12103316338E+02
 0.12291551194E+02 0.12617881034E+02 0.12768681777E+02 0.12433901688E+02 0.11507622985E+02
 0.10161046030E+02 0.86943853972E+01 0.72896852415E+01 0.60604859477E+01 0.50625500813E+01
 0.43061812453E+01 0.37780247487E+01 0.34599320726E+01 0.33390433941E+01 0.34099696902E+01
 0.36737256032E+01 0.41368521237E+01 0.48097463690E+01 0.57003249820E+01 0.68007410886E+01
 0.80700136696E+01 0.77855530903E+01 0.90084746283E+01 0.10205022321E+02 0.11245200392E+02
 0.11973383309E+02 0.12382107735E+02 0.12608552995E+02 0.12804949123E+02 0.13003291798E+02
 0.13073979804E+02 0.12809971438E+02 0.12077791243E+02 0.10930643438E+02 0.95776047197E+01
 0.81931656712E+01 0.69082285655E+01 0.58058753513E+01 0.49200910965E+01 0.42511410441E+01
 0.37849657499E+01 0.35073494617E+01 0.34097303705E+01 0.34890487884E+01 0.37461920428E+01
 0.41854460467E+01 0.48133843266E+01 0.56337388511E+01 0.66366960711E+01 0.63981579448E+01
 0.74165109022E+01 0.85060371805E+01 0.95905413545E+01 0.10591764484E+02 0.11424493927E+02
 0.12049885133E+02 0.12507784957E+02 0.12836173196E+02 0.12998989196E+02 0.12886663103E+02
 0.12393242146E+02 0.11513863437E+02 0.10366779803E+02 0.90910435243E+01 0.78214894702E+01
 0.66634765392E+01 0.56776719987E+01 0.48848972496E+01 0.42818546514E+01 0.38572313842E+01
 0.36015780610E+01 0.35099587846E+01 0.35806019447E+01 0.38135300575E+01 0.42105787732E+01
 0.47749633150E+01 0.55074597948E+01 0.53297002431E+01 0.61012238766E+01 0.69876754214E+01
 0.79468978494E+01 0.89230700449E+01 0.98594127714E+01 0.10709924744E+02 0.11434238761E+02
 0.12006483778E+02 0.12395573583E+02 0.12537566103E+02 0.12356375149E+02 0.11822021778E+02
 0.10977133402E+02 0.99136402167E+01 0.87526936416E+01 0.76102903738E+01 0.65715103323E+01
 0.56826197108E+01 0.49585935448E+01 0.43974166556E+01 0.39925962357E+01 0.37394725867E+01
 0.36358593792E+01 0.36804520743E+01 0.38721107821E+01 0.42105680404E+01 0.46966646277E+01
 0.45834634264E+01 0.51121881334E+01 0.57655535280E+01 0.65267795670E+01 0.73658834726E+01
 0.82430418600E+01 0.91161696951E+01 0.99464582449E+01 0.10695880516E+02 0.11317818953E+02
 0.11750622871E+02 0.11925041818E+02 0.11786882714E+02 0.11323250612E+02 0.10575836885E+02
 0.96323277024E+01 0.86006386080E+01 0.75798264391E+01 0.66408750130E+01 0.58226879421E+01
 0.51399588705E+01 0.45951141349E+01 0.41874301885E+01 0.39166496403E+01 0.37826027910E+01
 0.37840425380E+01 0.39188437690E+01 0.41854147638E+01 0.41368030966E+01 0.44426397285E+01
 0.48688999859E+01 0.54122044508E+01 0.60615489978E+01 0.67965024214E+01 0.75892462214E+01
 0.84084648384E+01 0.92204893173E+01 0.99848404117E+01 0.10647365023E+02 0.11139317468E+02
 0.11389030646E+02 0.11344084175E+02 0.10992934639E+02 0.10373451161E+02 0.95630804935E+01
 0.86558547025E+01 0.77378853342E+01 0.68719216751E+01 0.60948600205E+01 0.54247281647E+01
 0.48700937505E+01 0.44363027731E+01 0.41271801461E+01 0.39442854096E+01 0.38865207966E+01
 0.39513410865E+01 0.39679965932E+01 0.40678741371E+01 0.42829774956E+01 0.46145558879E+01
 0.50614977972E+01 0.56171729360E+01 0.62682374267E+01 0.69958581201E+01 0.77771826186E+01
 0.85836681405E+01 0.93753322960E+01 0.10095038420E+02 0.10670002290E+02 0.11024874954E+02
 0.11103139045E+02 0.10886853133E+02 0.10404273093E+02 0.97211219267E+01 0.89200860307E+01
 0.80788616069E+01 0.72563856495E+01 0.64907168919E+01 0.58049779447E+01 0.52146230534E+01
 0.47313270081E+01 0.43631855882E+01 0.41138217032E+01 0.39828321950E+01 0.40678849763E+01
 0.39680066121E+01 0.39828402226E+01 0.41138371178E+01 0.43632079850E+01 0.47313477145E+01
 0.52146424070E+01 0.58050001896E+01 0.64907334589E+01 0.72563860295E+01 0.80788556056E+01
 0.89200918976E+01 0.97211371900E+01 0.10404280610E+02 0.10886850547E+02 0.11103137083E+02
 0.11024871522E+02 0.10669985546E+02 0.10095013526E+02 0.93753183172E+01 0.85836679107E+01
 0.77771797918E+01 0.69958442953E+01 0.62682195251E+01 0.56171546276E+01 0.50614766600E+01
 0.46145386589E+01 0.42829758383E+01 0.44426512705E+01 0.41368299516E+01 0.39513682266E+01
 0.38865460298E+01 0.39443132748E+01 0.41272048256E+01 0.44363179103E+01 0.48701080697E+01
 0.54247499526E+01 0.60948775782E+01 0.68719212137E+01 0.77378763854E+01 0.86558546224E+01
 0.95630854908E+01 0.10373446808E+02 0.10992923549E+02 0.11344077566E+02 0.11389022612E+02
 0.11139294436E+02 0.10647333348E+02 0.99848191311E+01 0.92204812226E+01 0.84084576520E+01
 0.75892358885E+01 0.67964932280E+01 0.60615380680E+01 0.54121885208E+01 0.48688907927E+01
 0.51121895306E+01 0.45834861767E+01 0.41854510515E+01 0.39188802278E+01 0.37840792144E+01
 0.37826395211E+01 0.39166736113E+01 0.41874365208E+01 0.45951197742E+01 0.51399762098E+01
 0.58227034766E+01 0.66408738124E+01 0.75798177635E+01 0.86006359464E+01 0.96323233300E+01
 0.10575819369E+02 0.11323229108E+02 0.11786869873E+02 0.11925029057E+02 0.11750596371E+02
 0.11317785692E+02 0.10695856261E+02 0.99464434611E+01 0.91161575503E+01 0.82430354858E+01
 0.73658856093E+01 0.65267801796E+01 0.57655472862E+01 0.61012292922E+01 0.53297136983E+01
 0.46966953910E+01 0.42106052155E+01 0.38721463959E+01 0.36804918098E+01 0.36358990716E+01
 0.37394925712E+01 0.39925931194E+01 0.43974134713E+01 0.49586040574E+01 0.56826294579E+01
 0.65715068334E+01 0.76102836669E+01 0.87526909007E+01 0.99136281090E+01 0.10977103962E+02
 0.11821990469E+02 0.12356355153E+02 0.12537547896E+02 0.12395546589E+02 0.12006455739E+02
 0.11434218346E+02 0.10709907324E+02 0.98593975352E+01 0.89230683876E+01 0.79469112416E+01
 0.69876879073E+01 0.74165315180E+01 0.63981738168E+01 0.55074846892E+01 0.47749978046E+01
 0.42106085871E+01 0.38135554786E+01 0.35806358445E+01 0.35099939224E+01 0.36015905878E+01
 0.38572205082E+01 0.42818455135E+01 0.48849003514E+01 0.56776726884E+01 0.66634685167E+01
 0.78214843520E+01 0.90910410080E+01 0.10366761843E+02 0.11513826502E+02 0.12393205370E+02
 0.12886637327E+02 0.12998966013E+02 0.12836149385E+02 0.12507769042E+02 0.12049875570E+02
 0.11424479596E+02 0.10591750425E+02 0.95905454789E+01 0.85060588592E+01 0.90084994280E+01
 0.77855752900E+01 0.66367182869E+01 0.56337717650E+01 0.48134173682E+01 0.41854625879E+01
 0.37462014503E+01 0.34890696218E+01 0.34097533245E+01 0.35073513841E+01 0.37849500990E+01
 0.42511301431E+01 0.49200876736E+01 0.58058656836E+01 0.69082147345E+01 0.81931602764E+01
 0.95776006189E+01 0.10930621773E+02 0.12077754070E+02 0.12809936966E+02 0.13073952789E+02
 0.13003266830E+02 0.12804933024E+02 0.12608554188E+02 0.12382113511E+02 0.11973377387E+02
 0.11245192802E+02 0.10205033019E+02 0.10725359231E+02 0.94215707643E+01 0.80700303943E+01
 0.68007637165E+01 0.57003597669E+01 0.48097724209E+01 0.41368530293E+01 0.36737180110E+01
 0.34099735019E+01 0.33390484135E+01 0.34599215139E+01 0.37780073806E+01 0.43061720699E+01
 0.50625418745E+01 0.60604675696E+01 0.72896666419E+01 0.86943778083E+01 0.10161037869E+02
 0.11507600393E+02 0.12433872910E+02 0.12768658925E+02 0.12617859861E+02 0.12291530465E+02
 0.12103312543E+02 0.12168011654E+02 0.12331158183E+02 0.12278638947E+02 0.11752066137E+02
 0.12079965169E+02 0.11112167397E+02 0.97183380107E+01 0.82508100570E+01 0.68795064024E+01
 0.57033158069E+01 0.47647635064E+01 0.40679226437E+01 0.36000290967E+01 0.33470290581E+01
 0.33008165075E+01 0.34613011846E+01 0.38372426324E+01 0.44459488486E+01 0.53076022482E+01
 0.64300357836E+01 0.77851587590E+01 0.92862724734E+01 0.10772394838E+02 0.11898545050E+02
 0.12321266315E+02 0.12015040047E+02 0.11312656993E+02 0.10729294545E+02 0.10664752140E+02
 0.11163795933E+02 0.11888672430E+02 0.12323562303E+02 0.12154779163E+02 0.12233996067E+02
 0.11345357278E+02 0.98804370674E+01 0.83165014333E+01 0.68684035105E+01 0.56431505068E+01
 0.46816934187E+01 0.39828845821E+01 0.35290498179E+01 0.33032505509E+01 0.32969614674E+01
 0.35121968663E+01 0.39618247097E+01 0.46670388266E+01 0.56471338161E+01 0.68984873334E+01
 0.83667762196E+01 0.99251380250E+01 0.11271513302E+02 0.11901331761E+02 0.11551600396E+02
 0.10421137051E+02 0.91187436756E+01 0.83633026945E+01 0.85923127209E+01 0.97117440973E+01
 0.11145314214E+02 0.10271257786E+02 0.11866012583E+02 0.12247109998E+02 0.11423539704E+02
 0.98996093744E+01 0.82642112004E+01 0.67692788743E+01 0.55244484419E+01 0.45659512990E+01
 0.38865834759E+01 0.34643940865E+01 0.32807935642E+01 0.33281578289E+01 0.36117008227E+01
 0.41487259692E+01 0.49629812924E+01 0.60690448705E+01 0.74453232891E+01 0.90031928934E+01
 0.10536746552E+02 0.11512115343E+02 0.11390313138E+02 0.10071367639E+02 0.80412861595E+01
 0.62020355213E+01 0.54392008503E+01 0.61561897498E+01 0.80503742237E+01 0.64908624569E+01
 0.94733839199E+01 0.11567954565E+02 0.12162932408E+02 0.11356599049E+02 0.97777564096E+01
 0.80992850474E+01 0.65897115595E+01 0.53551622080E+01 0.44244252167E+01 0.37841067581E+01
 0.34091457829E+01 0.32807867476E+01 0.33936272092E+01 0.37569159554E+01 0.43921779406E+01
 0.53236902501E+01 0.65569812679E+01 0.80461864967E+01 0.96606683618E+01 0.11019941615E+02
 0.11412018777E+02 0.10360364720E+02 0.79971918236E+01 0.51282037886E+01 0.29250766482E+01
 0.23693113275E+01 0.37467060995E+01 0.17912574835E+01 0.53438617350E+01 0.89403922734E+01
 0.11353383140E+02 0.12017338434E+02 0.11157873092E+02 0.95257853800E+01 0.78341843689E+01
 0.63419803106E+01 0.51457810828E+01 0.42649692324E+01 0.36805070566E+01 0.33657292481E+01
 0.33032329374E+01 0.34909689741E+01 0.39426595004E+01 0.46832804321E+01 0.57351288014E+01
 0.70903871734E+01 0.86738294016E+01 0.10285636974E+02 0.11313665033E+02 0.10980569777E+02
 0.89429872228E+01 0.56099894028E+01 0.20987043626E+01 -.21446618043E+00 -.34673216086E+00
 -.22310169372E+01 0.65546864547E+00 0.48424776573E+01 0.87915230119E+01 0.11268521216E+02
 0.11825446520E+02 0.10839417908E+02 0.91617770984E+01 0.74869100227E+01 0.60418262676E+01
 0.49085133206E+01 0.40959712283E+01 0.35806385052E+01 0.33358816777E+01 0.33470081741E+01
 0.36161141291E+01 0.41613588116E+01 0.50099095753E+01 0.61793956793E+01 0.76450355759E+01
 0.92993944946E+01 0.10824085666E+02 0.11415796854E+02 0.10321773179E+02 0.73862203989E+01
 0.33042676967E+01 -.54756840804E+00 -.26866653504E+01 -.52412854202E-01 0.65555111974E+00
 0.33530628618E+01 0.69502635696E+01 0.10086871438E+02 0.11767308649E+02 0.11742129396E+02
 0.10475789405E+02 0.87732821049E+01 0.71548362405E+01 0.57859813357E+01 0.47270391126E+01
 0.39769298219E+01 0.35100575359E+01 0.33015579561E+01 0.33391051943E+01 0.36262075782E+01
 0.41812070300E+01 0.50303684816E+01 0.61896408519E+01 0.76330278347E+01 0.92554460530E+01
 0.10762888620E+02 0.11421320424E+02 0.10559778237E+02 0.80753345214E+01 0.46390226339E+01
 0.15024109342E+01 0.55505983449E+00 -.62502385843E+00 0.55506267968E+00 0.35999323565E+01
 0.72780773053E+01 0.10232755758E+02 0.11596328853E+02 0.11288161504E+02 0.98918522453E+01
 0.82146359046E+01 0.66730833276E+01 0.54014205267E+01 0.44427984501E+01 0.37878687025E+01
 0.34098200119E+01 0.32864953921E+01 0.34098126605E+01 0.37878683282E+01 0.44428010743E+01
 0.54014066550E+01 0.66730559918E+01 0.82146217858E+01 0.98918602103E+01 0.11288171774E+02
 0.11596328331E+02 0.10232753765E+02 0.72780807750E+01 0.35999340033E+01 0.33530625643E+01
 0.65554977536E+00 -.52408879237E-01 0.15024128190E+01 0.46390175992E+01 0.80753348652E+01