unknown system                          
   1.00000000000000     
    -2.450000    2.450000    1.274000
     2.450000   -2.450000    1.274000
     2.450000    2.450000   -1.274000
   Si
     2
Direct
  0.250000  0.750000  0.500000
  0.000000  0.000000  0.000000
 
   28   28   28
 -.55813575636E+01 -.40484234545E+01 -.53209256783E-01 0.48948512884E+01 0.91052808277E+01
 0.11443850105E+02 0.11706936851E+02 0.10505438182E+02 0.87937178248E+01 0.71715716959E+01
 0.58167022687E+01 0.47890667377E+01 0.40851695022E+01 0.36785827237E+01 0.35459692861E+01
 0.36786277477E+01 0.40852552721E+01 0.47891588263E+01 0.58167531805E+01 0.71715726075E+01
 0.87937012147E+01 0.10505426020E+02 0.11706917843E+02 0.11443808155E+02 0.91052124653E+01
 0.48947560545E+01 -.53319251749E-01 -.40485034470E+01 -.40485034470E+01 -.48378907397E+01
 -.26859964661E+01 0.15542200458E+01 0.62941518079E+01 0.99626675786E+01 0.11666357735E+02
 0.11436519510E+02 0.10009876757E+02 0.83000050887E+01 0.67461951035E+01 0.54830821702E+01
 0.45494721852E+01 0.39325601859E+01 0.36048844607E+01 0.35460284438E+01 0.37512475012E+01
 0.42327938222E+01 0.50156762908E+01 0.61234434144E+01 0.75488164779E+01 0.92116296749E+01
 0.10885286976E+02 0.11855359347E+02 0.11205448516E+02 0.84856472875E+01 0.41126018682E+01
 -.62620968452E+00 -.53319251749E-01 -.26860571519E+01 -.27438508887E+01 -.21251847933E+00
 0.38900060791E+01 0.80230387626E+01 0.10846298516E+02 0.11760528968E+02 0.11018922797E+02
 0.94270585771E+01 0.77593751783E+01 0.62980033073E+01 0.51419336646E+01 0.43101782139E+01
 0.37830294897E+01 0.35338716773E+01 0.35460611435E+01 0.38187357181E+01 0.43668839592E+01
 0.52157788268E+01 0.63845237299E+01 0.78546778764E+01 0.95290745962E+01 0.11138227364E+02
 0.11921270874E+02 0.11055274919E+02 0.82600076824E+01 0.41126018682E+01 0.48947560545E+01
 0.15541478013E+01 -.21254760173E+00 0.32427428545E+00 0.29294862808E+01 0.65274474775E+01
 0.97437570282E+01 0.11546364949E+02 0.11641496973E+02 0.10459226092E+02 0.87968870932E+01
 0.72025020247E+01 0.58521954648E+01 0.48117812394E+01 0.40836836247E+01 0.36441843621E+01
 0.34691513425E+01 0.35460841133E+01 0.38774756157E+01 0.44799211407E+01 0.53774821067E+01
 0.65837279878E+01 0.80699800589E+01 0.97272987720E+01 0.11263595419E+02 0.11938792234E+02
 0.11055274919E+02 0.84856472875E+01 0.91052124653E+01 0.62940979763E+01 0.38899815139E+01
 0.29294904372E+01 0.38386590924E+01 0.62101517150E+01 0.90201433418E+01 0.11150389010E+02
 0.11909590599E+02 0.11279645627E+02 0.97997802210E+01 0.81545583452E+01 0.66593674261E+01
 0.54318424126E+01 0.45088926702E+01 0.38807255549E+01 0.35225275468E+01 0.34138246726E+01
 0.35461204202E+01 0.39243752942E+01 0.45655035043E+01 0.54910238112E+01 0.67085130111E+01
 0.81811398484E+01 0.97946827124E+01 0.11263595419E+02 0.11921270874E+02 0.11205448516E+02
 0.11443808155E+02 0.99626396066E+01 0.80230284517E+01 0.65274659744E+01 0.62101813088E+01
 0.72408127531E+01 0.91313453804E+01 0.11001599381E+02 0.12037876159E+02 0.11875996100E+02
 0.10711381501E+02 0.91103262591E+01 0.75341134671E+01 0.61570710993E+01 0.50564275094E+01
 0.42464198463E+01 0.37098031025E+01 0.34231880977E+01 0.33703384091E+01 0.35461730816E+01
 0.39570176797E+01 0.46188277708E+01 0.55495537240E+01 0.67510016860E+01 0.81811398484E+01
 0.97272987720E+01 0.11138227364E+02 0.11855359347E+02 0.11706917843E+02 0.11666358409E+02
 0.10846307347E+02 0.97437813931E+01 0.90201900127E+01 0.91313870574E+01 0.10061802144E+02
 0.11329622994E+02 0.12257837609E+02 0.12340546299E+02 0.11488591949E+02 0.10030507318E+02
 0.84428817289E+01 0.69671735851E+01 0.57183352391E+01 0.47411254937E+01 0.40341233053E+01
 0.35770879390E+01 0.33498719567E+01 0.33404406149E+01 0.35462212555E+01 0.39737544720E+01
 0.46369348200E+01 0.55495537240E+01 0.67085130111E+01 0.80699800589E+01 0.95290745962E+01
 0.10885286976E+02 0.10505426020E+02 0.11436538040E+02 0.11760563163E+02 0.11546399910E+02
 0.11150433672E+02 0.11001655658E+02 0.11329663056E+02 0.12011471381E+02 0.12638097802E+02
 0.12756633383E+02 0.12132672095E+02 0.10875457272E+02 0.93490643473E+01 0.78361113056E+01
 0.64810532934E+01 0.53608432215E+01 0.44968010510E+01 0.38786116681E+01 0.34866570411E+01
 0.33049950004E+01 0.33252291362E+01 0.35462405782E+01 0.39737544720E+01 0.46188277708E+01
 0.54910238112E+01 0.65837279878E+01 0.78546778764E+01 0.92116296749E+01 0.87937012147E+01
 0.10009884820E+02 0.11018965467E+02 0.11641549807E+02 0.11909638641E+02 0.12037926608E+02
 0.12257887715E+02 0.12638126716E+02 0.13016951866E+02 0.13095762339E+02 0.12630561642E+02
 0.11594874674E+02 0.10207684153E+02 0.87303021790E+01 0.73249290501E+01 0.60976876561E+01
 0.50973235786E+01 0.43305508538E+01 0.37839157739E+01 0.34408990526E+01 0.32898941292E+01
 0.33252291362E+01 0.35462212555E+01 0.39570176797E+01 0.45655035043E+01 0.53774821067E+01
 0.63845237299E+01 0.75488164779E+01 0.71715726075E+01 0.82999922999E+01 0.94270761611E+01
 0.10459275769E+02 0.11279701515E+02 0.11876045693E+02 0.12340591982E+02 0.12756668657E+02
 0.13095777015E+02 0.13206592489E+02 0.12908326681E+02 0.12123798857E+02 0.10957141409E+02
 0.96027255690E+01 0.82205717710E+01 0.69382274830E+01 0.58332930463E+01 0.49361193682E+01
 0.42464960138E+01 0.37521358517E+01 0.34408990526E+01 0.33049950004E+01 0.33404406149E+01
 0.35461730816E+01 0.39243752942E+01 0.44799211407E+01 0.52157788268E+01 0.61234434144E+01
 0.58167531805E+01 0.67461884781E+01 0.77593615643E+01 0.87969029921E+01 0.97998221087E+01
 0.10711428797E+02 0.11488635433E+02 0.12132707964E+02 0.12630581303E+02 0.12908329912E+02
 0.12850471941E+02 0.12376784510E+02 0.11517821246E+02 0.10387323946E+02 0.91222389524E+01
 0.78580784106E+01 0.66974330764E+01 0.56984790408E+01 0.48818876830E+01 0.42464960138E+01
 0.37839157739E+01 0.34866570411E+01 0.33498719567E+01 0.33703384091E+01 0.35461204202E+01
 0.38774756157E+01 0.43668839592E+01 0.50156762908E+01 0.47891588263E+01 0.54831021144E+01
 0.62979829978E+01 0.72024846940E+01 0.81545663201E+01 0.91103530615E+01 0.10030540485E+02
 0.10875490746E+02 0.11594900140E+02 0.12123807774E+02 0.12376782430E+02 0.12278004458E+02
 0.11805667418E+02 0.11001513785E+02 0.99629212242E+01 0.88137484026E+01 0.76698469308E+01
 0.66156915651E+01 0.56984790408E+01 0.49361193682E+01 0.43305508538E+01 0.38786116681E+01
 0.35770879390E+01 0.34231880977E+01 0.34138246726E+01 0.35460841133E+01 0.38187357181E+01
 0.42327938222E+01 0.40852552721E+01 0.45494903507E+01 0.51419092402E+01 0.58521614459E+01
 0.66593493883E+01 0.75341153108E+01 0.84428943421E+01 0.93490827412E+01 0.10207706149E+02
 0.10957158601E+02 0.11517826600E+02 0.11805666305E+02 0.11758445610E+02 0.11361484079E+02
 0.10657845712E+02 0.97368678724E+01 0.87074687170E+01 0.76698469308E+01 0.66974330764E+01
 0.58332930463E+01 0.50973235786E+01 0.44968010510E+01 0.40341233053E+01 0.37098031025E+01
 0.35225275468E+01 0.34691513425E+01 0.35460611435E+01 0.37512475012E+01 0.36786277477E+01
 0.39325298612E+01 0.43101110031E+01 0.48117162483E+01 0.54318041030E+01 0.61570609870E+01
 0.69671767260E+01 0.78361154673E+01 0.87303080150E+01 0.96027367575E+01 0.10387336526E+02
 0.11001521723E+02 0.11361487488E+02 0.11406350439E+02 0.11119761999E+02 0.10537487030E+02
 0.97368678724E+01 0.88137484026E+01 0.78580784106E+01 0.69382274830E+01 0.60976876561E+01
 0.53608432215E+01 0.47411254937E+01 0.42464198463E+01 0.38807255549E+01 0.36441843621E+01
 0.35338716773E+01 0.35460284438E+01 0.35459692861E+01 0.36047925657E+01 0.37828877748E+01
 0.40835498820E+01 0.45088081437E+01 0.50563996183E+01 0.57183424232E+01 0.64810660207E+01
 0.73249318619E+01 0.82205692490E+01 0.91222423483E+01 0.99629328651E+01 0.10657858480E+02
 0.11119769273E+02 0.11282071925E+02 0.11119761999E+02 0.10657845712E+02 0.99629212242E+01
 0.91222389524E+01 0.82205717710E+01 0.73249290501E+01 0.64810532934E+01 0.57183352391E+01
 0.50564275094E+01 0.45088926702E+01 0.40836836247E+01 0.37830294897E+01 0.36048844607E+01
 0.36785827237E+01 0.35458913672E+01 0.35336664803E+01 0.36439708596E+01 0.38805658576E+01
 0.42463433728E+01 0.47411206206E+01 0.53608736351E+01 0.60977159195E+01 0.69382349744E+01
 0.78580724245E+01 0.88137479698E+01 0.97368802214E+01 0.10537502135E+02 0.11119769273E+02
 0.11406350439E+02 0.11361484079E+02 0.11001513785E+02 0.10387323946E+02 0.96027255690E+01
 0.87303021790E+01 0.78361113056E+01 0.69671735851E+01 0.61570710993E+01 0.54318424126E+01
 0.48117812394E+01 0.43101782139E+01 0.39325601859E+01 0.40851695022E+01 0.37510814182E+01
 0.35458234329E+01 0.34688849570E+01 0.35222980607E+01 0.37096607068E+01 0.40340769106E+01
 0.44968253364E+01 0.50973782518E+01 0.58333381708E+01 0.66974473398E+01 0.76698405347E+01
 0.87074673189E+01 0.97368802214E+01 0.10657858480E+02 0.11361487488E+02 0.11758445610E+02
 0.11805667418E+02 0.11517821246E+02 0.10957141409E+02 0.10207684153E+02 0.93490643473E+01
 0.84428817289E+01 0.75341134671E+01 0.66593674261E+01 0.58521954648E+01 0.51419336646E+01
 0.45494721852E+01 0.47890667377E+01 0.42326221028E+01 0.38184933196E+01 0.35457996755E+01
 0.34135538072E+01 0.34229910374E+01 0.35769920358E+01 0.38786046651E+01 0.43306025230E+01
 0.49361932134E+01 0.56985355063E+01 0.66157090335E+01 0.76698405347E+01 0.88137479698E+01
 0.99629328651E+01 0.11001521723E+02 0.11805666305E+02 0.12278004458E+02 0.12376784510E+02
 0.12123798857E+02 0.11594874674E+02 0.10875457272E+02 0.10030507318E+02 0.91103262591E+01
 0.81545583452E+01 0.72025020247E+01 0.62980033073E+01 0.54830821702E+01 0.58167022687E+01
 0.50155431802E+01 0.43666732394E+01 0.38772078030E+01 0.35458376158E+01 0.33701033526E+01
 0.33497319947E+01 0.34866137428E+01 0.37839419559E+01 0.42465646402E+01 0.48819689633E+01
 0.56985355063E+01 0.66974473398E+01 0.78580724245E+01 0.91222423483E+01 0.10387336526E+02
 0.11517826600E+02 0.12376782430E+02 0.12850471941E+02 0.12908326681E+02 0.12630561642E+02
 0.12132672095E+02 0.11488591949E+02 0.10711381501E+02 0.97997802210E+01 0.87968870932E+01
 0.77593751783E+01 0.67461951035E+01 0.71715716959E+01 0.61233820046E+01 0.52156410770E+01
 0.44797137673E+01 0.39241200575E+01 0.35459199481E+01 0.33402543359E+01 0.33049068013E+01
 0.34408901785E+01 0.37521750523E+01 0.42465646402E+01 0.49361932134E+01 0.58333381708E+01
 0.69382349744E+01 0.82205692490E+01 0.96027367575E+01 0.10957158601E+02 0.12123807774E+02
 0.12908329912E+02 0.13206592489E+02 0.13095762339E+02 0.12756633383E+02 0.12340546299E+02
 0.11875996100E+02 0.11279645627E+02 0.10459226092E+02 0.94270585771E+01 0.83000050887E+01
 0.87937178248E+01 0.75488143390E+01 0.63844689978E+01 0.53773654101E+01 0.45653238470E+01
 0.39567909282E+01 0.35460005316E+01 0.33250764541E+01 0.32898266346E+01 0.34408901785E+01
 0.37839419559E+01 0.43306025230E+01 0.50973782518E+01 0.60977159195E+01 0.73249318619E+01
 0.87303080150E+01 0.10207706149E+02 0.11594900140E+02 0.12630581303E+02 0.13095777015E+02
 0.13016951866E+02 0.12638097802E+02 0.12257837609E+02 0.12037876159E+02 0.11909590599E+02
 0.11641496973E+02 0.11018922797E+02 0.10009876757E+02 0.10505438182E+02 0.92116534102E+01
 0.78546785918E+01 0.65836890314E+01 0.54909367911E+01 0.46186777767E+01 0.39735494181E+01
 0.35460335341E+01 0.33250764541E+01 0.33049068013E+01 0.34866137428E+01 0.38786046651E+01
 0.44968253364E+01 0.53608736351E+01 0.64810660207E+01 0.78361154673E+01 0.93490827412E+01
 0.10875490746E+02 0.12132707964E+02 0.12756668657E+02 0.12638126716E+02 0.12011471381E+02
 0.11329622994E+02 0.11001599381E+02 0.11150389010E+02 0.11546364949E+02 0.11760528968E+02
 0.11436519510E+02 0.11706936851E+02 0.10885325739E+02 0.95291070470E+01 0.80699855763E+01
 0.67084894914E+01 0.55494874331E+01 0.46367972934E+01 0.39735494181E+01 0.35460005316E+01
 0.33402543359E+01 0.33497319947E+01 0.35769920358E+01 0.40340769106E+01 0.47411206206E+01
 0.57183424232E+01 0.69671767260E+01 0.84428943421E+01 0.10030540485E+02 0.11488635433E+02
 0.12340591982E+02 0.12257887715E+02 0.11329663056E+02 0.10061802144E+02 0.91313453804E+01
 0.90201433418E+01 0.97437570282E+01 0.10846298516E+02 0.11666357735E+02 0.11443850105E+02
 0.11855420517E+02 0.11138292168E+02 0.97273390638E+01 0.81811492197E+01 0.67509845722E+01
 0.55494874331E+01 0.46186777767E+01 0.39567909282E+01 0.35459199481E+01 0.33701033526E+01
 0.34229910374E+01 0.37096607068E+01 0.42463433728E+01 0.50563996183E+01 0.61570609870E+01
 0.75341153108E+01 0.91103530615E+01 0.10711428797E+02 0.11876045693E+02 0.12037926608E+02
 0.11001655658E+02 0.91313870574E+01 0.72408127531E+01 0.62101517150E+01 0.65274474775E+01
 0.80230387626E+01 0.99626675786E+01 0.91052808277E+01 0.11205531427E+02 0.11921366111E+02
 0.11263676776E+02 0.97947262817E+01 0.81811492197E+01 0.67084894914E+01 0.54909367911E+01
 0.45653238470E+01 0.39241200575E+01 0.35458376158E+01 0.34135538072E+01 0.35222980607E+01
 0.38805658576E+01 0.45088081437E+01 0.54318041030E+01 0.66593493883E+01 0.81545663201E+01
 0.97998221087E+01 0.11279701515E+02 0.11909638641E+02 0.11150433672E+02 0.90201900127E+01
 0.62101813088E+01 0.38386590924E+01 0.29294862808E+01 0.38900060791E+01 0.62941518079E+01
 0.48948512884E+01 0.84857480991E+01 0.11055383435E+02 0.11938900687E+02 0.11263676776E+02
 0.97273390638E+01 0.80699855763E+01 0.65836890314E+01 0.53773654101E+01 0.44797137673E+01
 0.38772078030E+01 0.35457996755E+01 0.34688849570E+01 0.36439708596E+01 0.40835498820E+01
 0.48117162483E+01 0.58521614459E+01 0.72024846940E+01 0.87969029921E+01 0.10459275769E+02
 0.11641549807E+02 0.11546399910E+02 0.97437813931E+01 0.65274659744E+01 0.29294904372E+01
 0.32427428545E+00 -.21251847933E+00 0.15542200458E+01 -.53209256783E-01 0.41127227458E+01
 0.82601210574E+01 0.11055383435E+02 0.11921366111E+02 0.11138292168E+02 0.95291070470E+01
 0.78546785918E+01 0.63844689978E+01 0.52156410770E+01 0.43666732394E+01 0.38184933196E+01
 0.35458234329E+01 0.35336664803E+01 0.37828877748E+01 0.43101110031E+01 0.51419092402E+01
 0.62979829978E+01 0.77593615643E+01 0.94270761611E+01 0.11018965467E+02 0.11760563163E+02
 0.10846307347E+02 0.80230284517E+01 0.38899815139E+01 -.21254760173E+00 -.27438508887E+01
 -.26859964661E+01 -.40484234545E+01 -.62608526438E+00 0.41127227458E+01 0.84857480991E+01
 0.11205531427E+02 0.11855420517E+02 0.10885325739E+02 0.92116534102E+01 0.75488143390E+01
 0.61233820046E+01 0.50155431802E+01 0.42326221028E+01 0.37510814182E+01 0.35458913672E+01
 0.36047925657E+01 0.39325298612E+01 0.45494903507E+01 0.54831021144E+01 0.67461884781E+01
 0.82999922999E+01 0.10009884820E+02 0.11436538040E+02 0.11666358409E+02 0.99626396066E+01
 0.62940979763E+01 0.15541478013E+01 -.26860571519E+01 -.48378907397E+01 -.40483516565E+01
 -.29383899842E+01 0.55346904969E+00 0.50796009596E+01 0.90388708575E+01 0.11293413535E+02
 0.11572229358E+02 0.10406948272E+02 0.87057286537E+01 0.70782716469E+01 0.57082299057E+01
 0.46591666400E+01 0.39297268420E+01 0.34934063225E+01 0.33252374724E+01 0.34142931487E+01
 0.37671325783E+01 0.44058047250E+01 0.53581124214E+01 0.66346719890E+01 0.81916796586E+01
 0.98870182910E+01 0.11248340555E+02 0.11376232698E+02 0.96062333528E+01 0.59978858628E+01
 0.15011790855E+01 -.23382841412E+01 -.29384414590E+01 -.40483652052E+01 -.23382665377E+01
 0.15011882318E+01 0.59978621074E+01 0.96061792092E+01 0.11376157538E+02 0.11248260692E+02
 0.98869629679E+01 0.81916611313E+01 0.66346585659E+01 0.53580647181E+01 0.44057314053E+01
 0.37670807685E+01 0.34142947747E+01 0.33252945851E+01 0.34935123206E+01 0.39298627400E+01
 0.46592868221E+01 0.57082938135E+01 0.70782902357E+01 0.87057487567E+01 0.10406994461E+02
 0.11572287805E+02 0.11293462372E+02 0.90388946193E+01 0.50795854244E+01 0.55341730083E+00
 0.65411735934E+00 -.22309116629E+01 -.26859353120E+01 -.54692008034E+00 0.33043475107E+01
 0.73854654236E+01 0.10320126032E+02 0.11413430698E+02 0.10821415336E+02 0.92969879024E+01
 0.76434453711E+01 0.61790386469E+01 0.50109914772E+01 0.41638410185E+01 0.36197274428E+01
 0.33513445208E+01 0.33405262091E+01 0.35852096685E+01 0.41000186975E+01 0.49114147517E+01
 0.60428487212E+01 0.74854360247E+01 0.91575769720E+01 0.10832867486E+02 0.11817641995E+02
 0.11261013727E+02 0.87856888001E+01 0.48389709324E+01 0.53409149600E+01 0.17906889734E+01
 -.34564256840E+00 -.21243140879E+00 0.21011537731E+01 0.56124488916E+01 0.89450516167E+01
 0.10981823761E+02 0.11313852812E+02 0.10284862266E+02 0.86725762181E+01 0.70893410589E+01
 0.57349436390E+01 0.46843777610E+01 0.39451164768E+01 0.34945463091E+01 0.33075434433E+01
 0.33704097186E+01 0.36852141952E+01 0.42692111279E+01 0.51488030502E+01 0.63428804182E+01
 0.78322283998E+01 0.95207701494E+01 0.11150386322E+02 0.12008800829E+02 0.11345590182E+02
 0.89347581306E+01 0.94687031771E+01 0.64891811051E+01 0.37476987052E+01 0.23723631649E+01
 0.29296152527E+01 0.51337376409E+01 0.80031471349E+01 0.10365959834E+02 0.11416390315E+02
 0.11022504807E+02 0.96614330666E+01 0.80457624226E+01 0.65562917131E+01 0.53236208795E+01
 0.43932936443E+01 0.37593396772E+01 0.33971351036E+01 0.32850455324E+01 0.34138705136E+01
 0.37889772332E+01 0.44288704082E+01 0.53582829711E+01 0.65904820732E+01 0.80969516391E+01
 0.97722479230E+01 0.11348759182E+02 0.12154434100E+02 0.11560692404E+02 0.11860038675E+02
 0.10268269169E+02 0.80507656784E+01 0.61597281666E+01 0.54453948164E+01 0.62103218779E+01
 0.80509669984E+01 0.10081456391E+02 0.11399545252E+02 0.11519273466E+02 0.10541153379E+02
 0.90050090869E+01 0.74454175826E+01 0.60685830879E+01 0.49630059733E+01 0.41498567773E+01
 0.36140645373E+01 0.33315639497E+01 0.32849971971E+01 0.34691882785E+01 0.38916341785E+01
 0.45705804652E+01 0.55276362403E+01 0.67699547532E+01 0.82617023773E+01 0.98940431692E+01
 0.11415997021E+02 0.12239409460E+02 0.12227717216E+02 0.12150718440E+02 0.11144687600E+02
 0.97150030443E+01 0.85993303122E+01 0.83735951971E+01 0.91315373467E+01 0.10435304823E+02
 0.11565640717E+02 0.11913586688E+02 0.11280655047E+02 0.99306653911E+01 0.83691608621E+01
 0.68988638112E+01 0.56468309476E+01 0.46671512824E+01 0.39629579270E+01 0.35144744775E+01
 0.33002559747E+01 0.33074181874E+01 0.35339327936E+01 0.39880958932E+01 0.46864486243E+01
 0.56463663248E+01 0.68690524861E+01 0.83140640836E+01 0.98752545039E+01 0.11338690584E+02
 0.11106767624E+02 0.12075499486E+02 0.12321813379E+02 0.11890860407E+02 0.11170436154E+02
 0.10675726487E+02 0.10743940276E+02 0.11329804209E+02 0.12033057438E+02 0.12338237125E+02
 0.11912665842E+02 0.10782507831E+02 0.92922304693E+01 0.77877438590E+01 0.64305543673E+01
 0.53074265377E+01 0.44461375544E+01 0.38383589633E+01 0.34634840719E+01 0.33040203293E+01
 0.33511924641E+01 0.36049982915E+01 0.40732350298E+01 0.47695603639E+01 0.57065219852E+01
 0.68802060290E+01 0.82486652208E+01 0.97138769517E+01 0.94179957516E+01 0.10721368626E+02
 0.11749516679E+02 0.12279283275E+02 0.12336221216E+02 0.12177995784E+02 0.12117956340E+02
 0.12309843996E+02 0.12638234491E+02 0.12789078555E+02 0.12452260714E+02 0.11522293214E+02
 0.10171233551E+02 0.87002797298E+01 0.72922419742E+01 0.60610583895E+01 0.50624628038E+01
 0.43064082291E+01 0.37790925308E+01 0.34620330878E+01 0.33422148194E+01 0.34141703994E+01
 0.36787518651E+01 0.41421883782E+01 0.48145277324E+01 0.57035295990E+01 0.68015756027E+01
 0.80683149606E+01 0.77843174450E+01 0.90057929633E+01 0.10202355577E+02 0.11244379557E+02
 0.11976143144E+02 0.12389632332E+02 0.12621201092E+02 0.12822189377E+02 0.13023795393E+02
 0.13095835359E+02 0.12831026605E+02 0.12096095943E+02 0.10944880668E+02 0.95873322401E+01
 0.81987648855E+01 0.69106919439E+01 0.58064809110E+01 0.49200564017E+01 0.42513782020E+01
 0.37860125131E+01 0.35094509572E+01 0.34129579160E+01 0.34933385945E+01 0.37512756182E+01
 0.41907574889E+01 0.48180779849E+01 0.56368949048E+01 0.66376695451E+01 0.63992505235E+01
 0.74156671596E+01 0.85040724362E+01 0.95889220323E+01 0.10592283032E+02 0.11428802946E+02
 0.12059035033E+02 0.12521933147E+02 0.12854535538E+02 0.13020009528E+02 0.12908341457E+02
 0.12413551132E+02 0.11531159149E+02 0.10380083671E+02 0.91001092640E+01 0.78267370937E+01
 0.66658187229E+01 0.56782624517E+01 0.48848611155E+01 0.42820816985E+01 0.38582915832E+01
 0.36037523201E+01 0.35133115970E+01 0.35850133967E+01 0.38186633758E+01 0.42158406149E+01
 0.47795522981E+01 0.55105611424E+01 0.53327394476E+01 0.61023874474E+01 0.69871098638E+01
 0.79454486654E+01 0.89221818427E+01 0.98607971620E+01 0.10715093870E+02 0.11444059931E+02
 0.12020917208E+02 0.12413679681E+02 0.12557749263E+02 0.12376764410E+02 0.11840867812E+02
 0.10993101672E+02 0.99259497410E+01 0.87611482497E+01 0.76152361398E+01 0.65737281561E+01
 0.56831489769E+01 0.49585093040E+01 0.43976226908E+01 0.39937015724E+01 0.37417733507E+01
 0.36393857914E+01 0.36850141163E+01 0.38773078021E+01 0.42157904955E+01 0.47011574330E+01
 0.45878647869E+01 0.51151493168E+01 0.57667379225E+01 0.65263916163E+01 0.73647757447E+01
 0.82426027838E+01 0.91179898432E+01 0.99518786340E+01 0.10705589617E+02 0.11331650390E+02
 0.11767618445E+02 0.11943729165E+02 0.11805635578E+02 0.11340596000E+02 0.10590641476E+02
 0.96438805345E+01 0.86086849889E+01 0.75845804197E+01 0.66429857982E+01 0.58231194943E+01
 0.51397829201E+01 0.45952782750E+01 0.41885874407E+01 0.39190998039E+01 0.37863282844E+01
 0.37887769097E+01 0.39241225838E+01 0.41906120863E+01 0.41419630704E+01 0.44469340274E+01
 0.48717626419E+01 0.54133776774E+01 0.60612801836E+01 0.67956264382E+01 0.75890658700E+01
 0.84104299082E+01 0.92257795416E+01 0.99940160943E+01 0.10660222378E+02 0.11154986305E+02
 0.11406238478E+02 0.11361451445E+02 0.11009192467E+02 0.10387557838E+02 0.95742871655E+01
 0.86637785636E+01 0.77425923893E+01 0.68739583325E+01 0.60951651181E+01 0.54244167888E+01
 0.48701847898E+01 0.44374995073E+01 0.41297790942E+01 0.39482114391E+01 0.38914249669E+01
 0.39566937896E+01 0.39733774941E+01 0.40729529229E+01 0.42871310004E+01 0.46172996628E+01
 0.50626478491E+01 0.56170053427E+01 0.62675494263E+01 0.69958508795E+01 0.77791672701E+01
 0.85886956206E+01 0.93838981644E+01 0.10106978524E+02 0.10684593883E+02 0.11041056823E+02
 0.11119729204E+02 0.10902690924E+02 0.10418299488E+02 0.97324653063E+01 0.89281984141E+01
 0.80836739977E+01 0.72583883781E+01 0.64908792038E+01 0.58045012551E+01 0.52146180670E+01
 0.47325479415E+01 0.43659165752E+01 0.41179215588E+01 0.39878674771E+01 0.40729885901E+01
 0.39733487075E+01 0.39877795632E+01 0.41178104300E+01 0.43658157625E+01 0.47324746224E+01
 0.52145809391E+01 0.58044967084E+01 0.64908840822E+01 0.72583812520E+01 0.80836620621E+01
 0.89282028629E+01 0.97324858052E+01 0.10418316046E+02 0.10902694634E+02 0.11119725768E+02
 0.11041045015E+02 0.10684568230E+02 0.10106951230E+02 0.93838910052E+01 0.85887090738E+01
 0.77791818769E+01 0.69958599827E+01 0.62675680332E+01 0.56170462093E+01 0.50627092020E+01
 0.46173737419E+01 0.42872019468E+01 0.44469560403E+01 0.41419430686E+01 0.39566130009E+01
 0.38912993019E+01 0.39480790549E+01 0.41296687611E+01 0.44374258208E+01 0.48701572756E+01
 0.54244288612E+01 0.60951859855E+01 0.68739615033E+01 0.77425847398E+01 0.86637809225E+01
 0.95742983545E+01 0.10387560977E+02 0.11009184125E+02 0.11361438450E+02 0.11406216404E+02
 0.11154948461E+02 0.10660182804E+02 0.99939975897E+01 0.92257838504E+01 0.84104422674E+01
 0.75890825245E+01 0.67956553229E+01 0.60613206311E+01 0.54134200996E+01 0.48718005459E+01
 0.51151520056E+01 0.45878416972E+01 0.41905444989E+01 0.39240042570E+01 0.37886342510E+01
 0.37861977669E+01 0.39190003893E+01 0.41885280989E+01 0.45952682632E+01 0.51398128487E+01
 0.58231532618E+01 0.66429958058E+01 0.75845755251E+01 0.86086846638E+01 0.96438807804E+01
 0.10590627493E+02 0.11340568561E+02 0.11805600687E+02 0.11943679172E+02 0.11767548547E+02
 0.11331579802E+02 0.10705543297E+02 0.99518599891E+01 0.91179900214E+01 0.82426213274E+01
 0.73648117969E+01 0.65264293524E+01 0.57667601984E+01 0.61023934631E+01 0.53327170187E+01
 0.47011028218E+01 0.42156907039E+01 0.38771701274E+01 0.36848755687E+01 0.36392787937E+01
 0.37417045790E+01 0.39936722958E+01 0.43976386407E+01 0.49585560883E+01 0.56831885477E+01
 0.65737391346E+01 0.76152335174E+01 0.87611481327E+01 0.99259405851E+01 0.10993065937E+02
 0.11840805625E+02 0.12376679067E+02 0.12557635466E+02 0.12413545196E+02 0.12020793769E+02
 0.11443974734E+02 0.10715048474E+02 0.98607850629E+01 0.89222023758E+01 0.79454902014E+01
 0.69871437257E+01 0.74156963298E+01 0.63992471581E+01 0.55105277885E+01 0.47794827631E+01
 0.42157254225E+01 0.38185239978E+01 0.35848965963E+01 0.35132437891E+01 0.36037273716E+01
 0.38583018698E+01 0.42821256692E+01 0.48849182071E+01 0.56782988412E+01 0.66658272799E+01
 0.78267399025E+01 0.91001130390E+01 0.10380062616E+02 0.11531088048E+02 0.12413426611E+02
 0.12908167656E+02 0.13019795791E+02 0.12854315350E+02 0.12521754384E+02 0.12058921130E+02
 0.11428745328E+02 0.10592270762E+02 0.95889495496E+01 0.85041179413E+01 0.90058405093E+01
 0.77843412953E+01 0.66376633092E+01 0.56368623352E+01 0.48180068055E+01 0.41906413401E+01
 0.37511489783E+01 0.34932532933E+01 0.34129313880E+01 0.35094662541E+01 0.37860553231E+01
 0.42514396075E+01 0.49201123205E+01 0.58065082586E+01 0.69106999550E+01 0.81987759250E+01
 0.95873352528E+01 0.10944833310E+02 0.12095967563E+02 0.12830814446E+02 0.13095552781E+02
 0.13023477464E+02 0.12821899622E+02 0.12620996418E+02 0.12389521290E+02 0.11976099764E+02
 0.11244384353E+02 0.10202395915E+02 0.10721425268E+02 0.94180429155E+01 0.80683324878E+01
 0.68015696490E+01 0.57035030590E+01 0.48144618112E+01 0.41420802197E+01 0.36786435820E+01
 0.34141103555E+01 0.33422101115E+01 0.34620631975E+01 0.37791437459E+01 0.43064681127E+01
 0.50625074814E+01 0.60610768776E+01 0.72922527081E+01 0.87002940348E+01 0.10171219720E+02
 0.11522200780E+02 0.12452064232E+02 0.12788783028E+02 0.12637867350E+02 0.12309466034E+02
 0.12117651215E+02 0.12177814599E+02 0.12336149612E+02 0.12279278564E+02 0.11749552332E+02
 0.12075570399E+02 0.11106838854E+02 0.97139200729E+01 0.82486749361E+01 0.68801998282E+01
 0.57064995323E+01 0.47694978127E+01 0.40731326331E+01 0.36048980186E+01 0.33511322475E+01
 0.33040012103E+01 0.34634933372E+01 0.38383911740E+01 0.44461793971E+01 0.53074552253E+01
 0.64305668287E+01 0.77877568371E+01 0.92922372911E+01 0.10782463455E+02 0.11912527128E+02
 0.12337994012E+02 0.12032724303E+02 0.11329418617E+02 0.10743577571E+02 0.10675472572E+02
 0.11170323189E+02 0.11890852230E+02 0.12321859222E+02 0.12150809288E+02 0.12227814734E+02
 0.11338767530E+02 0.98752888188E+01 0.83140650689E+01 0.68690426229E+01 0.56463385387E+01
 0.46863767026E+01 0.39879836208E+01 0.35338170475E+01 0.33073257710E+01 0.33001902452E+01
 0.35144387706E+01 0.39629560510E+01 0.46671675792E+01 0.56468433727E+01 0.68988732500E+01
 0.83691755362E+01 0.99306617322E+01 0.11280586896E+02 0.11913429632E+02 0.11565401252E+02
 0.10435001308E+02 0.91312093061E+01 0.83733185346E+01 0.85991767097E+01 0.97149797565E+01
 0.11144745214E+02 0.10268372476E+02 0.11860151827E+02 0.12239512479E+02 0.11416065138E+02
 0.98940642104E+01 0.82616946386E+01 0.67699352719E+01 0.55275882976E+01 0.45704805124E+01
 0.38914925780E+01 0.34690368629E+01 0.32848559043E+01 0.33314448081E+01 0.36139859376E+01
 0.41498248062E+01 0.49629999266E+01 0.60685839897E+01 0.74454301551E+01 0.90050318679E+01
 0.10541151483E+02 0.11519208575E+02 0.11399412735E+02 0.10081272192E+02 0.80507471422E+01
 0.62101026203E+01 0.54452423327E+01 0.61596893515E+01 0.80508237342E+01 0.64892865841E+01
 0.94688163180E+01 0.11560794885E+02 0.12154515527E+02 0.11348803025E+02 0.97722531231E+01
 0.80969360917E+01 0.65904470823E+01 0.53582026101E+01 0.44287307887E+01 0.37887994209E+01
 0.34136840850E+01 0.32848685872E+01 0.33969886159E+01 0.37592471550E+01 0.43932528339E+01
 0.53236054832E+01 0.65562909078E+01 0.80457870255E+01 0.96614742584E+01 0.11022522836E+02
 0.11416357594E+02 0.10365884118E+02 0.80030442975E+01 0.51336191330E+01 0.29295139396E+01
 0.23723302612E+01 0.37477524812E+01 0.17907879132E+01 0.53410219665E+01 0.89348428057E+01
 0.11345650882E+02 0.12008837880E+02 0.11150396004E+02 0.95207608837E+01 0.78322079162E+01
 0.63428286617E+01 0.51486897293E+01 0.42690386889E+01 0.36850166643E+01 0.33702166859E+01
 0.33073734721E+01 0.34944229233E+01 0.39450536967E+01 0.46843560646E+01 0.57349342051E+01
 0.70893470793E+01 0.86726170962E+01 0.10284925949E+02 0.11313900470E+02 0.10981836296E+02
 0.89450380769E+01 0.56124180059E+01 0.21011151066E+01 -.21244509645E+00 -.34559601143E+00
 -.22308405453E+01 0.65420972994E+00 0.48390402299E+01 0.87857196972E+01 0.11261016433E+02
 0.11817626347E+02 0.10832843911E+02 0.91575590416E+01 0.74854149132E+01 0.60427853591E+01
 0.49112834219E+01 0.40998420918E+01 0.35850324041E+01 0.33403762209E+01 0.33512378306E+01
 0.36196792033E+01 0.41638433205E+01 0.50110061786E+01 0.61790420956E+01 0.76434593606E+01
 0.92970407025E+01 0.10821494887E+02 0.11413502436E+02 0.10320174136E+02 0.73854908854E+01
 0.33043506961E+01 -.54692523541E+00 -.26859125938E+01 -.52977696572E-01 0.65433413814E+00
 0.33500993570E+01 0.69449280562E+01 0.10079360293E+02 0.11758660521E+02 0.11733834446E+02
 0.10469180474E+02 0.87690714937E+01 0.71530787361E+01 0.57863054377E+01 0.47289040889E+01
 0.39798119836E+01 0.35135091360E+01 0.33051732860E+01 0.33424739853E+01 0.36289169875E+01
 0.41828950407E+01 0.50307829073E+01 0.61886599505E+01 0.76306475303E+01 0.92517834666E+01
 0.10758245983E+02 0.11416273729E+02 0.10555093178E+02 0.80717105720E+01 0.46368018700E+01
 0.15013925446E+01 0.55363727466E+00 -.62587225315E+00 0.55360486683E+00 0.35968972002E+01
 0.72730779286E+01 0.10226153146E+02 0.11589098007E+02 0.11281489175E+02 0.98866741770E+01
 0.82113818478E+01 0.66717586745E+01 0.54017935965E+01 0.44445414536E+01 0.37906237464E+01
 0.34132065081E+01 0.32901046543E+01 0.34132190715E+01 0.37906539033E+01 0.44445732696E+01
 0.54018016098E+01 0.66717505827E+01 0.82113970806E+01 0.98867344097E+01 0.11281579264E+02
 0.11589197936E+02 0.10226256753E+02 0.72731748084E+01 0.35969667794E+01 0.33501285922E+01
 0.65433221422E+00 -.53000311368E-01 0.15013460986E+01 0.46367306387E+01 0.80716322974E+01