   2   2   0   0
  0.1529437E+02  0.3691622E-09  0.3691622E-09  0.3691622E-09  0.5000000E-15
  1.000000000000000E-004
  CAR 
 unknown system                          
     22.97982007     -6.61382182  301      9.11831979      1.00000000
     -6.614  0.0000E+00  0.0000E+00
     -6.515  0.0000E+00  0.0000E+00
     -6.417  0.0000E+00  0.0000E+00
     -6.318  0.0000E+00  0.0000E+00
     -6.219  0.0000E+00  0.0000E+00
     -6.121  0.0000E+00  0.0000E+00
     -6.022  0.0000E+00  0.0000E+00
     -5.923  0.0000E+00  0.0000E+00
     -5.825  0.0000E+00  0.0000E+00
     -5.726  0.3396E-17  0.3350E-18
     -5.627  0.7089E-15  0.7027E-16
     -5.529  0.9077E-13  0.9025E-14
     -5.430  0.7216E-11  0.7208E-12
     -5.331  0.3569E-09  0.3593E-10
     -5.233  0.1103E-07  0.1124E-08
     -5.134  0.2143E-06  0.2227E-07
     -5.035  0.2649E-05  0.2835E-06
     -4.937  0.2121E-04  0.2376E-05
     -4.838  0.1136E-03  0.1358E-04
     -4.740  0.4255E-03  0.5556E-04
     -4.641  0.1178E-02  0.1717E-03
     -4.542  0.2552E-02  0.4234E-03
     -4.444  0.4523E-02  0.8696E-03
     -4.345  0.6625E-02  0.1523E-02
     -4.246  0.8069E-02  0.2319E-02
     -4.148  0.9156E-02  0.3222E-02
     -4.049  0.1142E-01  0.4349E-02
     -3.950  0.1408E-01  0.5738E-02
     -3.852  0.1407E-01  0.7126E-02
     -3.753  0.1141E-01  0.8252E-02
     -3.654  0.9399E-02  0.9179E-02
     -3.556  0.1048E-01  0.1021E-01
     -3.457  0.1495E-01  0.1169E-01
     -3.359  0.2027E-01  0.1369E-01
     -3.260  0.2305E-01  0.1596E-01
     -3.161  0.2285E-01  0.1821E-01
     -3.063  0.2075E-01  0.2026E-01
     -2.964  0.1795E-01  0.2203E-01
     -2.865  0.1662E-01  0.2367E-01
     -2.767  0.1710E-01  0.2536E-01
     -2.668  0.1771E-01  0.2710E-01
     -2.569  0.1828E-01  0.2891E-01
     -2.471  0.1942E-01  0.3082E-01
     -2.372  0.2132E-01  0.3293E-01
     -2.273  0.2498E-01  0.3539E-01
     -2.175  0.2922E-01  0.3827E-01
     -2.076  0.2977E-01  0.4121E-01
     -1.977  0.2546E-01  0.4372E-01
     -1.879  0.2158E-01  0.4585E-01
     -1.780  0.2333E-01  0.4815E-01
     -1.682  0.2781E-01  0.5090E-01
     -1.583  0.2821E-01  0.5368E-01
     -1.484  0.2414E-01  0.5606E-01
     -1.386  0.2142E-01  0.5817E-01
     -1.287  0.2370E-01  0.6051E-01
     -1.188  0.3005E-01  0.6348E-01
     -1.090  0.3724E-01  0.6715E-01
     -0.991  0.4090E-01  0.7118E-01
     -0.892  0.3808E-01  0.7494E-01
     -0.794  0.3059E-01  0.7796E-01
     -0.695  0.2440E-01  0.8036E-01
     -0.596  0.2321E-01  0.8265E-01
     -0.498  0.2475E-01  0.8509E-01
     -0.399  0.2535E-01  0.8760E-01
     -0.301  0.2425E-01  0.8999E-01
     -0.202  0.2412E-01  0.9237E-01
     -0.103  0.2900E-01  0.9523E-01
     -0.005  0.3853E-01  0.9903E-01
      0.094  0.4705E-01  0.1037E+00
      0.193  0.4972E-01  0.1086E+00
      0.291  0.4683E-01  0.1132E+00
      0.390  0.4213E-01  0.1174E+00
      0.489  0.3881E-01  0.1212E+00
      0.587  0.3763E-01  0.1249E+00
      0.686  0.3815E-01  0.1287E+00
      0.785  0.3922E-01  0.1325E+00
      0.883  0.3969E-01  0.1364E+00
      0.982  0.4047E-01  0.1404E+00
      1.081  0.4121E-01  0.1445E+00
      1.179  0.3814E-01  0.1483E+00
      1.278  0.3010E-01  0.1512E+00
      1.376  0.2240E-01  0.1534E+00
      1.475  0.2215E-01  0.1556E+00
      1.574  0.2955E-01  0.1585E+00
      1.672  0.3678E-01  0.1622E+00
      1.771  0.3822E-01  0.1659E+00
      1.870  0.3660E-01  0.1695E+00
      1.968  0.3777E-01  0.1733E+00
      2.067  0.4375E-01  0.1776E+00
      2.166  0.5083E-01  0.1826E+00
      2.264  0.5454E-01  0.1880E+00
      2.363  0.5398E-01  0.1933E+00
      2.462  0.4750E-01  0.1980E+00
      2.560  0.3403E-01  0.2013E+00
      2.659  0.2096E-01  0.2034E+00
      2.757  0.1724E-01  0.2051E+00
      2.856  0.2155E-01  0.2072E+00
      2.955  0.2606E-01  0.2098E+00
      3.053  0.2899E-01  0.2127E+00
      3.152  0.3610E-01  0.2162E+00
      3.251  0.5038E-01  0.2212E+00
      3.349  0.6371E-01  0.2275E+00
      3.448  0.6328E-01  0.2337E+00
      3.547  0.4949E-01  0.2386E+00
      3.645  0.3572E-01  0.2421E+00
      3.744  0.3301E-01  0.2454E+00
      3.843  0.4318E-01  0.2497E+00
      3.941  0.5728E-01  0.2553E+00
      4.040  0.6226E-01  0.2614E+00
      4.139  0.5431E-01  0.2668E+00
      4.237  0.4114E-01  0.2709E+00
      4.336  0.3194E-01  0.2740E+00
      4.434  0.2823E-01  0.2768E+00
      4.533  0.2697E-01  0.2795E+00
      4.632  0.2819E-01  0.2822E+00
      4.730  0.3414E-01  0.2856E+00
      4.829  0.4556E-01  0.2901E+00
      4.928  0.5843E-01  0.2959E+00
      5.026  0.6402E-01  0.3022E+00
      5.125  0.6037E-01  0.3081E+00
      5.224  0.5673E-01  0.3137E+00
      5.322  0.5928E-01  0.3196E+00
      5.421  0.6276E-01  0.3258E+00
      5.520  0.6195E-01  0.3319E+00
      5.618  0.5861E-01  0.3377E+00
      5.717  0.5234E-01  0.3428E+00
      5.816  0.4197E-01  0.3470E+00
      5.914  0.3383E-01  0.3503E+00
      6.013  0.3337E-01  0.3536E+00
      6.111  0.4020E-01  0.3576E+00
      6.210  0.5539E-01  0.3630E+00
      6.309  0.7505E-01  0.3704E+00
      6.407  0.8465E-01  0.3788E+00
      6.506  0.7627E-01  0.3863E+00
      6.605  0.6021E-01  0.3922E+00
      6.703  0.5286E-01  0.3975E+00
      6.802  0.5884E-01  0.4033E+00
      6.901  0.6870E-01  0.4100E+00
      6.999  0.7202E-01  0.4171E+00
      7.098  0.6772E-01  0.4238E+00
      7.197  0.6086E-01  0.4298E+00
      7.295  0.5410E-01  0.4352E+00
      7.394  0.4998E-01  0.4401E+00
      7.492  0.5252E-01  0.4453E+00
      7.591  0.5845E-01  0.4510E+00
      7.690  0.5974E-01  0.4569E+00
      7.788  0.5579E-01  0.4624E+00
      7.887  0.5192E-01  0.4676E+00
      7.986  0.5275E-01  0.4728E+00
      8.084  0.6195E-01  0.4789E+00
      8.183  0.7410E-01  0.4862E+00
      8.282  0.7344E-01  0.4934E+00
      8.380  0.5708E-01  0.4991E+00
      8.479  0.4187E-01  0.5032E+00
      8.578  0.3994E-01  0.5071E+00
      8.676  0.4670E-01  0.5117E+00
      8.775  0.5258E-01  0.5169E+00
      8.874  0.5337E-01  0.5222E+00
      8.972  0.4991E-01  0.5271E+00
      9.071  0.4412E-01  0.5315E+00
      9.169  0.3819E-01  0.5352E+00
      9.268  0.3515E-01  0.5387E+00
      9.367  0.3565E-01  0.5422E+00
      9.465  0.3872E-01  0.5460E+00
      9.564  0.4561E-01  0.5505E+00
      9.663  0.5613E-01  0.5561E+00
      9.761  0.6452E-01  0.5624E+00
      9.860  0.6655E-01  0.5690E+00
      9.959  0.6753E-01  0.5757E+00
     10.057  0.7090E-01  0.5826E+00
     10.156  0.6778E-01  0.5893E+00
     10.255  0.5218E-01  0.5945E+00
     10.353  0.3375E-01  0.5978E+00
     10.452  0.2585E-01  0.6004E+00
     10.550  0.3179E-01  0.6035E+00
     10.649  0.4460E-01  0.6079E+00
     10.748  0.5289E-01  0.6131E+00
     10.846  0.5119E-01  0.6182E+00
     10.945  0.4519E-01  0.6226E+00
     11.044  0.4271E-01  0.6268E+00
     11.142  0.4500E-01  0.6313E+00
     11.241  0.4884E-01  0.6361E+00
     11.340  0.5218E-01  0.6412E+00
     11.438  0.5485E-01  0.6467E+00
     11.537  0.5687E-01  0.6523E+00
     11.636  0.5790E-01  0.6580E+00
     11.734  0.5680E-01  0.6636E+00
     11.833  0.5439E-01  0.6689E+00
     11.932  0.5412E-01  0.6743E+00
     12.030  0.5744E-01  0.6799E+00
     12.129  0.6279E-01  0.6861E+00
     12.227  0.6951E-01  0.6930E+00
     12.326  0.7922E-01  0.7008E+00
     12.425  0.8922E-01  0.7096E+00
     12.523  0.9152E-01  0.7186E+00
     12.622  0.8416E-01  0.7269E+00
     12.721  0.7424E-01  0.7343E+00
     12.819  0.6908E-01  0.7411E+00
     12.918  0.7230E-01  0.7482E+00
     13.017  0.8012E-01  0.7561E+00
     13.115  0.7981E-01  0.7640E+00
     13.214  0.6743E-01  0.7706E+00
     13.313  0.5835E-01  0.7764E+00
     13.411  0.6374E-01  0.7827E+00
     13.510  0.7432E-01  0.7900E+00
     13.609  0.7590E-01  0.7975E+00
     13.707  0.6677E-01  0.8041E+00
     13.806  0.5610E-01  0.8096E+00
     13.904  0.5092E-01  0.8146E+00
     14.003  0.5052E-01  0.8196E+00
     14.102  0.5325E-01  0.8249E+00
     14.200  0.5966E-01  0.8308E+00
     14.299  0.6810E-01  0.8375E+00
     14.398  0.7428E-01  0.8448E+00
     14.496  0.7636E-01  0.8523E+00
     14.595  0.7440E-01  0.8597E+00
     14.694  0.6976E-01  0.8666E+00
     14.792  0.6616E-01  0.8731E+00
     14.891  0.6604E-01  0.8796E+00
     14.990  0.6874E-01  0.8864E+00
     15.088  0.7357E-01  0.8936E+00
     15.187  0.7776E-01  0.9013E+00
     15.285  0.7271E-01  0.9085E+00
     15.384  0.5665E-01  0.9141E+00
     15.483  0.4150E-01  0.9182E+00
     15.581  0.3723E-01  0.9218E+00
     15.680  0.4419E-01  0.9262E+00
     15.779  0.5850E-01  0.9320E+00
     15.877  0.7404E-01  0.9393E+00
     15.976  0.8264E-01  0.9474E+00
     16.075  0.7804E-01  0.9551E+00
     16.173  0.6086E-01  0.9611E+00
     16.272  0.4091E-01  0.9652E+00
     16.371  0.2933E-01  0.9681E+00
     16.469  0.2857E-01  0.9709E+00
     16.568  0.3383E-01  0.9742E+00
     16.667  0.3858E-01  0.9780E+00
     16.765  0.3752E-01  0.9817E+00
     16.864  0.3106E-01  0.9848E+00
     16.962  0.2714E-01  0.9875E+00
     17.061  0.3355E-01  0.9908E+00
     17.160  0.4801E-01  0.9955E+00
     17.258  0.5846E-01  0.1001E+01
     17.357  0.5477E-01  0.1007E+01
     17.456  0.4029E-01  0.1011E+01
     17.554  0.2729E-01  0.1013E+01
     17.653  0.2101E-01  0.1015E+01
     17.752  0.1783E-01  0.1017E+01
     17.850  0.1624E-01  0.1019E+01
     17.949  0.1800E-01  0.1021E+01
     18.048  0.2208E-01  0.1023E+01
     18.146  0.2534E-01  0.1025E+01
     18.245  0.2789E-01  0.1028E+01
     18.343  0.3149E-01  0.1031E+01
     18.442  0.3547E-01  0.1035E+01
     18.541  0.3855E-01  0.1038E+01
     18.639  0.3911E-01  0.1042E+01
     18.738  0.3464E-01  0.1046E+01
     18.837  0.2632E-01  0.1048E+01
     18.935  0.1889E-01  0.1050E+01
     19.034  0.1484E-01  0.1052E+01
     19.133  0.1419E-01  0.1053E+01
     19.231  0.1554E-01  0.1055E+01
     19.330  0.1540E-01  0.1056E+01
     19.429  0.1239E-01  0.1057E+01
     19.527  0.9384E-02  0.1058E+01
     19.626  0.8023E-02  0.1059E+01
     19.725  0.7432E-02  0.1060E+01
     19.823  0.7466E-02  0.1060E+01
     19.922  0.8065E-02  0.1061E+01
     20.020  0.8161E-02  0.1062E+01
     20.119  0.7074E-02  0.1063E+01
     20.218  0.5124E-02  0.1063E+01
     20.316  0.3011E-02  0.1064E+01
     20.415  0.1378E-02  0.1064E+01
     20.514  0.6245E-03  0.1064E+01
     20.612  0.9842E-03  0.1064E+01
     20.711  0.2767E-02  0.1064E+01
     20.810  0.5614E-02  0.1065E+01
     20.908  0.7544E-02  0.1065E+01
     21.007  0.6701E-02  0.1066E+01
     21.106  0.3941E-02  0.1066E+01
     21.204  0.1537E-02  0.1067E+01
     21.303  0.3975E-03  0.1067E+01
     21.401  0.6803E-04  0.1067E+01
     21.500  0.7666E-05  0.1067E+01
     21.599  0.5642E-06  0.1067E+01
     21.697  0.2687E-07  0.1067E+01
     21.796  0.8195E-09  0.1067E+01
     21.895  0.1587E-10  0.1067E+01
     21.993  0.1937E-12  0.1067E+01
     22.092  0.1481E-14  0.1067E+01
     22.191  0.6587E-17  0.1067E+01
     22.289  0.0000E+00  0.1067E+01
     22.388  0.0000E+00  0.1067E+01
     22.487  0.0000E+00  0.1067E+01
     22.585  0.0000E+00  0.1067E+01
     22.684  0.0000E+00  0.1067E+01
     22.783  0.0000E+00  0.1067E+01
     22.881  0.0000E+00  0.1067E+01
     22.980  0.0000E+00  0.1067E+01
