    2    2   15    1
  0.1529437E+02  0.3691622E-09  0.3691622E-09  0.3691622E-09  0.5000000E-15
  1.000000000000000E-004
  CAR 
 unknown system                          
      8     75      8
 
  0.0000000E+00  0.0000000E+00  0.0000000E+00  0.1371742E-02
    1       -4.613822   1.000000
    2        6.203059   1.000000
    3        6.303194   1.000000
    4        6.303208   1.000000
    5       10.598963   0.000000
    6       16.950011   0.000000
    7       17.377382   0.000000
    8       17.377401   0.000000
 
  0.1111111E+00 -0.9377698E-17  0.9377698E-17  0.1097394E-01
    1       -4.265394   1.000000
    2        5.316165   1.000000
    3        6.249024   1.000000
    4        7.796962   1.000000
    5       11.304138   0.000000
    6       15.241113   0.000000
    7       16.035540   0.000000
    8       17.344024   0.000000
 
  0.2222222E+00  0.6918512E-17 -0.6918512E-17  0.1097394E-01
    1       -3.223851   1.000000
    2        5.026451   1.000000
    3        6.328987   1.000000
    4        9.632706   0.000138
    5       12.164863   0.000000
    6       12.957861   0.000000
    7       13.092255   0.000000
    8       15.188203   0.000000
 
  0.3333333E+00 -0.3591853E-16  0.3591853E-16  0.1097394E-01
    1       -1.502565   1.000000
    2        5.363993   1.000000
    3        6.799874   1.000000
    4        7.478541   1.000000
    5       10.289525   0.000000
    6       12.701933   0.000000
    7       13.049423   0.000000
    8       14.035057   0.000000
 
  0.4444444E+00  0.1383702E-16 -0.1383702E-16  0.1097394E-01
    1        0.863648   1.000000
    2        3.903599   1.000000
    3        6.385195   1.000000
    4        7.576439   1.000000
    5        8.202945   1.000000
    6       10.773824   0.000000
    7       13.557532   0.000000
    8       14.573418   0.000000
 
  0.1111111E+00  0.1111111E+00  0.1875540E-16  0.1097394E-01
    1       -3.369897   1.000000
    2        5.343698   1.000000
    3        7.356531   1.000000
    4        8.557951   0.999963
    5       12.356638   0.000000
    6       12.621428   0.000000
    7       13.042940   0.000000
    8       15.687555   0.000000
 
  0.2222222E+00  0.1111111E+00 -0.2719765E-16  0.2194787E-01
    1       -1.792081   1.000000
    2        5.619674   1.000000
    3        7.900112   1.000000
    4        8.312687   1.000000
    5        9.763877   0.000003
    6       11.413529   0.000000
    7       13.059389   0.000000
    8       14.067783   0.000000
 
  0.3333333E+00  0.1111111E+00  0.2951719E-16  0.2194787E-01
    1        0.443270   1.000000
    2        4.711730   1.000000
    3        6.492262   1.000000
    4        6.936570   1.000000
    5        9.055301   0.672059
    6       11.143886   0.000000
    7       12.658089   0.000000
    8       14.560122   0.000000
 
  0.4444444E+00  0.1111111E+00  0.7517205E-17  0.2194787E-01
    1        1.553262   1.000000
    2        3.358095   1.000000
    3        5.237032   1.000000
    4        7.471002   1.000000
    5        8.696120   0.998584
    6       11.514936   0.000000
    7       12.437311   0.000000
    8       15.867151   0.000000
 
 -0.4444444E+00  0.1111111E+00  0.4279628E-16  0.2194787E-01
    1       -0.927240   1.000000
    2        4.000606   1.000000
    3        6.701730   1.000000
    4        7.013506   1.000000
    5       10.121169   0.000000
    6       12.418379   0.000000
    7       13.605375   0.000000
    8       14.507430   0.000000
 
 -0.3333333E+00  0.1111111E+00 -0.1456430E-16  0.2194787E-01
    1       -2.786753   1.000000
    2        3.479866   1.000000
    3        6.343907   1.000000
    4       10.166072   0.000000
    5       11.951620   0.000000
    6       12.070972   0.000000
    7       13.978559   0.000000
    8       15.184001   0.000000
 
 -0.2222222E+00  0.1111111E+00  0.1629621E-16  0.2194787E-01
    1       -3.971933   1.000000
    2        3.594812   1.000000
    3        6.306764   1.000000
    4        8.929058   0.909598
    5       12.817691   0.000000
    6       13.476884   0.000000
    7       15.373795   0.000000
    8       16.684144   0.000000
 
 -0.1111111E+00  0.1111111E+00  0.7914115E-18  0.5486968E-02
    1       -4.466811   1.000000
    2        4.327684   1.000000
    3        6.439930   1.000000
    4        7.665811   1.000000
    5       11.497690   0.000000
    6       14.951654   0.000000
    7       16.367784   0.000000
    8       19.528194   0.000000
 
  0.2222222E+00  0.2222222E+00 -0.4159260E-16  0.1097394E-01
    1        0.302010   1.000000
    2        5.722415   1.000000
    3        5.780011   1.000000
    4        6.441305   1.000000
    5        9.980011   0.000000
    6       11.628826   0.000000
    7       12.585957   0.000000
    8       12.850381   0.000000
 
  0.3333333E+00  0.2222222E+00  0.4287781E-16  0.2194787E-01
    1        2.444580   1.000000
    2        3.107909   1.000000
    3        3.890549   1.000000
    4        7.521150   1.000000
    5        9.270538   0.140886
    6       10.812913   0.000000
    7       13.615238   0.000000
    8       15.678792   0.000000
 
  0.4444444E+00  0.2222222E+00  0.2087783E-16  0.2194787E-01
    1       -0.070286   1.000000
    2        2.436105   1.000000
    3        6.408048   1.000000
    4        7.583365   1.000000
    5        9.493737   0.003970
    6       11.335399   0.000000
    7       14.800688   0.000000
    8       15.823600   0.000000
 
 -0.4444444E+00  0.2222222E+00  0.6918512E-17  0.2194787E-01
    1       -2.061604   1.000000
    2        1.756537   1.000000
    3        6.963093   1.000000
    4        9.957068   0.000000
    5       10.651805   0.000000
    6       12.530776   0.000000
    7       13.425086   0.000000
    8       15.857813   0.000000
 
 -0.3333333E+00  0.2222222E+00 -0.1251408E-16  0.2194787E-01
    1       -3.386711   1.000000
    2        1.733965   1.000000
    3        6.835574   1.000000
    4        9.765643   0.000002
    5       11.679603   0.000000
    6       14.243725   0.000000
    7       15.191054   0.000000
    8       15.881081   0.000000
 
 -0.2222222E+00  0.2222222E+00  0.1582823E-17  0.5486968E-02
    1       -4.026474   1.000000
    2        2.364705   1.000000
    3        6.850536   1.000000
    4        8.541872   0.999977
    5       12.961304   0.000000
    6       13.723691   0.000000
    7       14.725566   0.000000
    8       19.216995   0.000000
 
  0.3333333E+00  0.3333333E+00  0.7183707E-16  0.1097394E-01
    1        1.048419   1.000000
    2        1.067206   1.000000
    3        6.282912   1.000000
    4        8.247372   1.000000
    5        8.818886   0.982883
    6       10.968072   0.000000
    7       15.510117   0.000000
    8       16.536159   0.000000
 
  0.4444444E+00  0.3333333E+00  0.4983708E-16  0.2194787E-01
    1       -1.053861   1.000000
    2        0.225973   1.000000
    3        7.875762   1.000000
    4        9.011934   0.774054
    5       10.081758   0.000000
    6       13.063953   0.000000
    7       13.410212   0.000000
    8       14.727012   0.000000
 
 -0.4444444E+00  0.3333333E+00  0.6553460E-16  0.2194787E-01
    1       -2.513898   1.000000
    2        0.063217   1.000000
    3        7.650520   1.000000
    4       10.081552   0.000000
    5       10.676383   0.000000
    6       13.008436   0.000000
    7       15.187853   0.000000
    8       16.019946   0.000000
 
 -0.3333333E+00  0.3333333E+00  0.1438931E-16  0.5486968E-02
    1       -3.295165   1.000000
    2        0.571989   1.000000
    3        7.535508   1.000000
    4        9.387353   0.028563
    5       11.218252   0.000000
    6       13.112764   0.000000
    7       16.523683   0.000000
    8       18.938244   0.000000
 
  0.4444444E+00  0.4444444E+00 -0.8318520E-16  0.1097394E-01
    1       -1.360673   1.000000
    2       -1.359695   1.000000
    3        8.724746   0.997307
    4        8.754715   0.994931
    5       11.650043   0.000000
    6       11.865381   0.000000
    7       15.037560   0.000000
    8       15.952163   0.000000
 
 -0.4444444E+00  0.4444444E+00  0.3165646E-17  0.5486968E-02
    1       -2.278647   1.000000
    2       -0.984900   1.000000
    3        8.490736   0.999995
    4        9.718768   0.000011
    5       10.412098   0.000000
    6       11.656305   0.000000
    7       18.799964   0.000000
    8       18.844698   0.000000
 
  0.1111111E+00  0.1111111E+00  0.1111111E+00  0.1097394E-01
    1       -2.931881   1.000000
    2        3.410626   1.000000
    3        7.740267   1.000000
    4        9.365284   0.040379
    5       11.938017   0.000000
    6       12.107073   0.000000
    7       14.516253   0.000000
    8       15.150465   0.000000
 
  0.2222222E+00  0.1111111E+00  0.1111111E+00  0.2194787E-01
    1       -1.213359   1.000000
    2        3.821479   1.000000
    3        7.622638   1.000000
    4        8.226367   1.000000
    5        9.704695   0.000017
    6       12.064315   0.000000
    7       13.851470   0.000000
    8       14.703802   0.000000
 
  0.3333333E+00  0.1111111E+00  0.1111111E+00  0.2194787E-01
    1        1.147979   1.000000
    2        4.133034   1.000000
    3        4.944632   1.000000
    4        6.525666   1.000000
    5       10.013912   0.000000
    6       12.345255   0.000000
    7       13.877033   0.000000
    8       14.374572   0.000000
 
 -0.1111111E+00  0.1111111E+00  0.1111111E+00  0.5486968E-02
    1       -4.320081   1.000000
    2        4.000738   1.000000
    3        5.349473   1.000000
    4        8.987663   0.822226
    5       12.104408   0.000000
    6       13.386569   0.000000
    7       17.620149   0.000000
    8       18.211063   0.000000
 
  0.2222222E+00  0.2222222E+00  0.1111111E+00  0.1097394E-01
    1        1.010712   1.000000
    2        4.652010   1.000000
    3        5.278945   1.000000
    4        5.373442   1.000000
    5       11.125225   0.000000
    6       13.293357   0.000000
    7       13.561592   0.000000
    8       13.714448   0.000000
 
  0.3333333E+00  0.2222222E+00  0.1111111E+00  0.2194787E-01
    1        2.118727   1.000000
    2        3.307595   1.000000
    3        4.040234   1.000000
    4        6.304983   1.000000
    5       10.963167   0.000000
    6       12.458325   0.000000
    7       14.286726   0.000000
    8       15.226292   0.000000
 
  0.4444444E+00  0.2222222E+00  0.1111111E+00  0.2194787E-01
    1       -0.351391   1.000000
    2        2.186358   1.000000
    3        7.297556   1.000000
    4        8.199746   1.000000
    5       10.149561   0.000000
    6       12.451750   0.000000
    7       12.960739   0.000000
    8       14.932824   0.000000
 
 -0.4444444E+00  0.2222222E+00  0.1111111E+00  0.1097394E-01
    1       -2.205083   1.000000
    2        1.636192   1.000000
    3        8.361125   1.000000
    4        9.999685   0.000000
    5       11.304051   0.000000
    6       11.683712   0.000000
    7       13.286179   0.000000
    8       14.242405   0.000000
 
 -0.2222222E+00  0.2222222E+00  0.1111111E+00  0.1097394E-01
    1       -3.880367   1.000000
    2        2.432991   1.000000
    3        5.363205   1.000000
    4       10.170781   0.000000
    5       11.449945   0.000000
    6       14.037883   0.000000
    7       16.306440   0.000000
    8       18.955694   0.000000
 
 -0.1111111E+00  0.2222222E+00  0.1111111E+00  0.1097394E-01
    1       -3.679547   1.000000
    2        3.335335   1.000000
    3        4.872476   1.000000
    4       10.659906   0.000000
    5       11.614623   0.000000
    6       13.788762   0.000000
    7       14.903497   0.000000
    8       17.602709   0.000000
 
  0.3333333E+00  0.3333333E+00  0.1111111E+00  0.1097394E-01
    1        0.783506   1.000000
    2        0.789494   1.000000
    3        7.181664   1.000000
    4        8.158687   1.000000
    5       10.797354   0.000000
    6       11.538917   0.000000
    7       13.606402   0.000000
    8       14.294975   0.000000
 
  0.4444444E+00  0.3333333E+00  0.1111111E+00  0.1097394E-01
    1       -1.194010   1.000000
    2        0.091319   1.000000
    3        9.172318   0.351296
    4        9.984739   0.000000
    5       11.170113   0.000000
    6       11.426393   0.000000
    7       12.651994   0.000000
    8       13.125307   0.000000
 
 -0.3333333E+00  0.3333333E+00  0.1111111E+00  0.1097394E-01
    1       -3.150999   1.000000
    2        0.692621   1.000000
    3        6.000527   1.000000
    4        9.696571   0.000022
    5       11.098796   0.000000
    6       14.759714   0.000000
    7       16.710838   0.000000
    8       18.579552   0.000000
 
 -0.2222222E+00  0.3333333E+00  0.1111111E+00  0.2194787E-01
    1       -3.096972   1.000000
    2        1.920006   1.000000
    3        4.939225   1.000000
    4        9.764056   0.000002
    5       11.813582   0.000000
    6       14.338658   0.000000
    7       15.943221   0.000000
    8       17.244985   0.000000
 
 -0.1111111E+00  0.3333333E+00  0.1111111E+00  0.1097394E-01
    1       -2.352485   1.000000
    2        3.331691   1.000000
    3        4.952852   1.000000
    4        9.817477   0.000000
    5       10.492609   0.000000
    6       13.481567   0.000000
    7       14.828515   0.000000
    8       15.534863   0.000000
 
 -0.4444444E+00  0.4444444E+00  0.1111111E+00  0.1097394E-01
    1       -2.137491   1.000000
    2       -0.849721   1.000000
    3        6.957223   1.000000
    4        8.195708   1.000000
    5       12.128209   0.000000
    6       13.354518   0.000000
    7       18.263153   0.000000
    8       18.369759   0.000000
 
 -0.3333333E+00  0.4444444E+00  0.1111111E+00  0.2194787E-01
    1       -2.228921   1.000000
    2        0.318302   1.000000
    3        5.694645   1.000000
    4        8.147052   1.000000
    5       12.545389   0.000000
    6       14.139359   0.000000
    7       16.077316   0.000000
    8       17.231601   0.000000
 
 -0.2222222E+00  0.4444444E+00  0.1111111E+00  0.2194787E-01
    1       -1.632626   1.000000
    2        2.073669   1.000000
    3        5.118419   1.000000
    4        8.614284   0.999817
    5        9.594475   0.000380
    6       14.474848   0.000000
    7       14.972702   0.000000
    8       17.083573   0.000000
 
 -0.1111111E+00  0.4444444E+00  0.1111111E+00  0.1097394E-01
    1       -0.358184   1.000000
    2        3.970512   1.000000
    3        5.627891   1.000000
    4        6.205659   1.000000
    5        9.561126   0.000871
    6       12.302186   0.000000
    7       13.674606   0.000000
    8       16.199876   0.000000
 
 -0.4444444E+00 -0.4444444E+00  0.1111111E+00  0.1097394E-01
    1       -1.085825   1.000000
    2       -1.082952   1.000000
    3        6.775920   1.000000
    4        6.783210   1.000000
    5       12.834937   0.000000
    6       14.260186   0.000000
    7       15.395941   0.000000
    8       17.216820   0.000000
 
 -0.3333333E+00 -0.4444444E+00  0.1111111E+00  0.2194787E-01
    1       -0.635796   1.000000
    2        0.619716   1.000000
    3        5.989158   1.000000
    4        7.183846   1.000000
    5        9.321964   0.074936
    6       14.464060   0.000000
    7       15.817487   0.000000
    8       17.137825   0.000000
 
 -0.2222222E+00 -0.4444444E+00  0.1111111E+00  0.2194787E-01
    1        0.486311   1.000000
    2        2.881453   1.000000
    3        5.682320   1.000000
    4        6.018085   1.000000
    5        8.191807   1.000000
    6       12.261136   0.000000
    7       14.955416   0.000000
    8       17.288099   0.000000
 
 -0.1111111E+00 -0.4444444E+00  0.1111111E+00  0.1097394E-01
    1        2.162581   1.000000
    2        2.889660   1.000000
    3        5.369823   1.000000
    4        6.835971   1.000000
    5        8.841630   0.974796
    6       11.128086   0.000000
    7       11.731306   0.000000
    8       16.616383   0.000000
 
 -0.3333333E+00 -0.3333333E+00  0.1111111E+00  0.1097394E-01
    1        1.569606   1.000000
    2        1.604499   1.000000
    3        5.604379   1.000000
    4        6.850116   1.000000
    5        7.006078   1.000000
    6       12.177381   0.000000
    7       16.525821   0.000000
    8       16.783033   0.000000
 
 -0.2222222E+00 -0.3333333E+00  0.1111111E+00  0.2194787E-01
    1        2.379105   1.000000
    2        3.331281   1.000000
    3        4.435193   1.000000
    4        7.208886   1.000000
    5        8.181658   1.000000
    6       10.679500   0.000000
    7       13.082554   0.000000
    8       15.214986   0.000000
 
 -0.1111111E+00 -0.3333333E+00  0.1111111E+00  0.1097394E-01
    1        0.016608   1.000000
    2        5.504325   1.000000
    3        7.129020   1.000000
    4        8.066304   1.000000
    5        8.105027   1.000000
    6       10.917597   0.000000
    7       11.280241   0.000000
    8       13.585466   0.000000
 
 -0.2222222E+00 -0.2222222E+00  0.1111111E+00  0.1097394E-01
    1       -0.126035   1.000000
    2        6.452226   1.000000
    3        6.490725   1.000000
    4        7.815813   1.000000
    5        8.852375   0.969981
    6       10.510505   0.000000
    7       11.859301   0.000000
    8       12.219284   0.000000
 
 -0.1111111E+00 -0.2222222E+00  0.1111111E+00  0.1097394E-01
    1       -2.082065   1.000000
    2        7.213077   1.000000
    3        7.970829   1.000000
    4        8.661046   0.999388
    5        9.797507   0.000001
    6       10.725031   0.000000
    7       12.432308   0.000000
    8       13.095472   0.000000
 
 -0.1111111E+00 -0.1111111E+00  0.1111111E+00  0.2743484E-02
    1       -3.516260   1.000000
    2        7.194912   1.000000
    3        7.227470   1.000000
    4        7.227483   1.000000
    5       11.687354   0.000000
    6       12.909871   0.000000
    7       13.266021   0.000000
    8       15.471098   0.000000
 
  0.2222222E+00  0.2222222E+00  0.2222222E+00  0.1097394E-01
    1        1.991525   1.000000
    2        3.226212   1.000000
    3        5.030730   1.000000
    4        5.051130   1.000000
    5       12.312427   0.000000
    6       13.471069   0.000000
    7       14.609230   0.000000
    8       14.642473   0.000000
 
 -0.2222222E+00  0.2222222E+00  0.2222222E+00  0.5486968E-02
    1       -3.443630   1.000000
    2        2.279024   1.000000
    3        3.937013   1.000000
    4        9.489451   0.004341
    5       12.118900   0.000000
    6       15.207676   0.000000
    7       17.560225   0.000000
    8       18.497683   0.000000
 
 -0.3333333E+00  0.3333333E+00  0.2222222E+00  0.1097394E-01
    1       -2.719952   1.000000
    2        1.010652   1.000000
    3        4.101528   1.000000
    4        7.727593   1.000000
    5       13.449941   0.000000
    6       16.695711   0.000000
    7       17.368355   0.000000
    8       18.308244   0.000000
 
 -0.2222222E+00  0.3333333E+00  0.2222222E+00  0.1097394E-01
    1       -2.520361   1.000000
    2        1.893500   1.000000
    3        3.613371   1.000000
    4        7.906372   1.000000
    5       12.803051   0.000000
    6       14.954064   0.000000
    7       17.209648   0.000000
    8       18.466954   0.000000
 
 -0.4444444E+00  0.4444444E+00  0.2222222E+00  0.1097394E-01
    1       -1.717487   1.000000
    2       -0.454164   1.000000
    3        4.988591   1.000000
    4        6.216336   1.000000
    5       14.530867   0.000000
    6       15.618664   0.000000
    7       17.868108   0.000000
    8       18.009011   0.000000
 
 -0.3333333E+00  0.4444444E+00  0.2222222E+00  0.2194787E-01
    1       -1.664185   1.000000
    2        0.774151   1.000000
    3        3.892854   1.000000
    4        6.273015   1.000000
    5       12.744983   0.000000
    6       16.064412   0.000000
    7       18.367236   0.000000
    8       18.619798   0.000000
 
 -0.2222222E+00  0.4444444E+00  0.2222222E+00  0.1097394E-01
    1       -0.924877   1.000000
    2        2.183890   1.000000
    3        3.923861   1.000000
    4        6.935923   1.000000
    5        9.067859   0.639384
    6       15.686501   0.000000
    7       17.085987   0.000000
    8       17.293022   0.000000
 
 -0.4444444E+00 -0.4444444E+00  0.2222222E+00  0.1097394E-01
    1       -0.548324   1.000000
    2       -0.543199   1.000000
    3        4.910562   1.000000
    4        4.912698   1.000000
    5       12.673150   0.000000
    6       16.862694   0.000000
    7       17.616891   0.000000
    8       18.620190   0.000000
 
 -0.3333333E+00 -0.4444444E+00  0.2222222E+00  0.2194787E-01
    1        0.044355   1.000000
    2        1.215099   1.000000
    3        4.327786   1.000000
    4        5.466920   1.000000
    5        8.806561   0.986254
    6       16.041530   0.000000
    7       18.034958   0.000000
    8       18.670691   0.000000
 
 -0.2222222E+00 -0.4444444E+00  0.2222222E+00  0.1097394E-01
    1        1.301464   1.000000
    2        3.118592   1.000000
    3        4.865083   1.000000
    4        5.392966   1.000000
    5        6.684521   1.000000
    6       13.541408   0.000000
    7       15.062636   0.000000
    8       17.717997   0.000000
 
 -0.3333333E+00 -0.3333333E+00  0.2222222E+00  0.1097394E-01
    1        2.282171   1.000000
    2        2.343633   1.000000
    3        5.111220   1.000000
    4        5.393391   1.000000
    5        5.580139   1.000000
    6       13.859726   0.000000
    7       16.138007   0.000000
    8       16.696459   0.000000
 
 -0.2222222E+00 -0.3333333E+00  0.2222222E+00  0.1097394E-01
    1        2.149122   1.000000
    2        4.156827   1.000000
    3        4.834108   1.000000
    4        6.385032   1.000000
    5        7.023891   1.000000
    6       11.919278   0.000000
    7       13.053779   0.000000
    8       14.265503   0.000000
 
 -0.2222222E+00 -0.2222222E+00  0.2222222E+00  0.2743484E-02
    1       -0.268073   1.000000
    2        6.925898   1.000000
    3        7.072150   1.000000
    4        8.120531   1.000000
    5        8.120540   1.000000
    6       10.644015   0.000000
    7       11.623795   0.000000
    8       11.623817   0.000000
 
 -0.3333333E+00  0.3333333E+00  0.3333333E+00  0.5486968E-02
    1       -2.008490   1.000000
    2        1.116743   1.000000
    3        2.892328   1.000000
    4        5.957444   1.000000
    5       15.246002   0.000000
    6       16.833064   0.000000
    7       18.092216   0.000000
    8       19.036733   0.000000
 
 -0.4444444E+00  0.4444444E+00  0.3333333E+00  0.1097394E-01
    1       -1.033821   1.000000
    2        0.143130   1.000000
    3        3.297190   1.000000
    4        4.453095   1.000000
    5       16.091560   0.000000
    6       16.494615   0.000000
    7       18.500358   0.000000
    8       19.234517   0.000000
 
 -0.3333333E+00  0.4444444E+00  0.3333333E+00  0.1097394E-01
    1       -0.836075   1.000000
    2        1.020140   1.000000
    3        2.816630   1.000000
    4        4.642055   1.000000
    5       12.482660   0.000000
    6       18.131542   0.000000
    7       19.600382   0.000000
    8       19.992576   0.000000
 
 -0.4444444E+00 -0.4444444E+00  0.3333333E+00  0.1097394E-01
    1        0.191053   1.000000
    2        0.198892   1.000000
    3        3.351598   1.000000
    4        3.353672   1.000000
    5       12.376128   0.000000
    6       19.249370   0.000000
    7       19.842178   0.000000
    8       20.885397   0.000000
 
 -0.3333333E+00 -0.4444444E+00  0.3333333E+00  0.1097394E-01
    1        0.926534   1.000000
    2        1.603912   1.000000
    3        3.390919   1.000000
    4        4.059095   1.000000
    5        8.544507   0.999975
    6       17.350033   0.000000
    7       18.741468   0.000000
    8       19.302577   0.000000
 
 -0.3333333E+00 -0.3333333E+00  0.3333333E+00  0.2743484E-02
    1        2.782134   1.000000
    2        2.882722   1.000000
    3        4.604497   1.000000
    4        4.604499   1.000000
    5        5.183934   1.000000
    6       15.162752   0.000000
    7       16.002883   0.000000
    8       16.002903   0.000000
 
 -0.4444444E+00  0.4444444E+00  0.4444444E+00  0.5486968E-02
    1       -0.147810   1.000000
    2        0.530736   1.000000
    3        2.354314   1.000000
    4        3.025271   1.000000
    5       16.334315   0.000000
    6       16.411190   0.000000
    7       20.132879   0.000000
    8       20.807664   0.000000
 
 -0.4444444E+00 -0.4444444E+00  0.4444444E+00  0.2743484E-02
    1        0.721837   1.000000
    2        0.732818   1.000000
    3        2.546815   1.000000
    4        2.546815   1.000000
    5       12.265624   0.000000
    6       20.231056   0.000000
    7       20.907830   0.000000
    8       20.979820   0.000000
