unknown system                          
   1.00000000000000     
    -2.450000    2.450000    1.274000
     2.450000   -2.450000    1.274000
     2.450000    2.450000   -1.274000
   Si
     2
Direct
  0.250000  0.750000  0.500000
  0.000000  0.000000  0.000000
 
   32   32   32
 -5.3440     -4.1675     -1.0084      3.1774      7.2310      10.204      11.630      11.573      10.499      9.0315    
  7.5856      6.3057      5.2646      4.4832      3.9508      3.6443      3.5447      3.6443      3.9507      4.4832    
  5.2645      6.3057      7.5856      9.0315      10.499      11.573      11.630      10.204      7.2310      3.1774    
 -1.0084     -4.1675     -4.1675     -4.7788     -3.1118     0.30605      4.4502      8.2013      10.730      11.710    
  11.322      10.088      8.6095      7.2032      5.9868      5.0179      4.3071      3.8391      3.5907      3.5449    
  3.6977      4.0597      4.6521      5.4965      6.5982      7.9256      9.3931      10.825      11.733      11.513    
  9.7763      6.5738      2.4882     -1.4688     -1.0084     -3.1118     -3.1622     -1.1493      2.2848      6.1139    
  9.3223      11.239      11.693      10.965      9.6063      8.1441      6.7948      5.6550      4.7667      4.1313    
  3.7294      3.5388      3.5453      3.7483      4.1615      4.8067      5.7034      6.8509      8.2083      9.6795    
  11.057      11.823      11.415      9.5370      6.3416      2.4882      3.1774     0.30603     -1.1493     -.71935    
  1.4472      4.6493      7.9245      10.412      11.623      11.534      10.504      9.0780      7.6536      6.3768    
  5.3239      4.5214      3.9625      3.6258      3.4906      3.5458      3.7942      4.2515      4.9398      5.8756    
  7.0523      8.4207      9.8780      11.196      11.862      11.378      9.5370      6.5738      7.2310      4.4502    
  2.2848      1.4472      2.2187      4.3305      7.0822      9.6308      11.302      11.794      11.212      9.9600    
  8.5244      7.1574      5.9661      5.0062      4.2907      3.8066      3.5318      3.4475      3.5459      3.8329    
  4.3257      5.0453      6.0050      7.1923      8.5525      9.9796      11.243      11.862      11.415      9.7763    
  10.204      8.2013      6.1139      4.6493      4.3305      5.2735      7.1393      9.2835      11.021      11.875    
  11.714      10.742      9.3722      7.9675      6.6752      5.5781      4.7134      4.0828      3.6690      3.4504    
  3.4107      3.5457      3.8632      4.3810      5.1185      6.0852      7.2642      8.5972      9.9796      11.196    
  11.823      11.513      11.630      10.730      9.3223      7.9245      7.0822      7.1393      8.0853      9.5620    
  11.023      11.958      12.078      11.394      10.171      8.7796      7.4302      6.2258      5.2272      4.4555    
  3.9041      3.5538      3.3840      3.3818      3.5452      3.8838      4.4150      5.1559      6.1124      7.2642    
  8.5525      9.8780      11.057      11.733      11.573      11.710      11.239      10.412      9.6308      9.2835    
  9.5620      10.374      11.385      12.173      12.398      11.935      10.897      9.5703      8.2099      6.9354    
  5.8266      4.9253      4.2403      3.7600      3.4644      3.3350      3.3616      3.5446      3.8943      4.4265    
  5.1559      6.0852      7.1923      8.4207      9.6795      10.825      10.499      11.322      11.693      11.623    
  11.302      11.021      11.023      11.385      11.977      12.521      12.720      12.390      11.530      10.317    
  8.9924      7.6906      6.5036      5.4917      4.6817      4.0742      3.6545      3.4033      3.3048      3.3513    
  3.5444      3.8943      4.4150      5.1185      6.0050      7.0523      8.2083      9.3931      9.0315      10.088    
  10.965      11.534      11.794      11.875      11.958      12.173      12.521      12.866      13.003      12.753    
  12.054      10.992      9.7518      8.4711      7.2463      6.1518      5.2322      4.5035      3.9612      3.5900    
  3.3723      3.2947      3.3513      3.5446      3.8838      4.3810      5.0453      5.8756      6.8509      7.9256    
  7.5856      8.6095      9.6063      10.504      11.212      11.714      12.078      12.398      12.720      13.003    
  13.129      12.965      12.431      11.552      10.452      9.2481      8.0354      6.8969      5.8925      5.0554    
  4.3949      3.9041      3.5684      3.3723      3.3048      3.3616      3.5452      3.8632      4.3257      4.9398    
  5.7034      6.5982      6.3057      7.2032      8.1441      9.0780      9.9600      10.742      11.394      11.935    
  12.390      12.753      12.965      12.938      12.602      11.948      11.046      9.9811      8.8404      7.7086    
  6.6567      5.7340      4.9660      4.3585      3.9041      3.5900      3.4033      3.3350      3.3818      3.5457    
  3.8329      4.2515      4.8067      5.4965      5.2645      5.9868      6.7948      7.6537      8.5244      9.3722    
  10.171      10.897      11.530      12.054      12.431      12.602      12.507      12.124      11.477      10.618    
  9.6170      8.5545      7.5064      6.5345      5.6807      4.9660      4.3949      3.9612      3.6545      3.4644    
  3.3840      3.4107      3.5459      3.7942      4.1615      4.6521      4.4832      5.0178      5.6550      6.3769    
  7.1574      7.9675      8.7796      9.5703      10.317      10.992      11.552      11.948      12.124      12.044    
  11.696      11.102      10.310      9.3876      8.4074      7.4380      6.5345      5.7340      5.0554      4.5035    
  4.0742      3.7600      3.5538      3.4504      3.4475      3.5458      3.7483      4.0597      3.9507      4.3071    
  4.7667      5.3239      5.9661      6.6752      7.4302      8.2099      8.9924      9.7518      10.452      11.046    
  11.477      11.696      11.666      11.381      10.860      10.149      9.3093      8.4074      7.5064      6.6567    
  5.8925      5.2322      4.6817      4.2403      3.9041      3.6690      3.5318      3.4906      3.5453      3.6977    
  3.6443      3.8391      4.1313      4.5214      5.0062      5.5782      6.2259      6.9354      7.6906      8.4711    
  9.2481      9.9811      10.618      11.102      11.381      11.422      11.215      10.777      10.149      9.3876    
  8.5545      7.7086      6.8969      6.1518      5.4917      4.9253      4.4555      4.0828      3.8066      3.6258    
  3.5388      3.5449      3.5447      3.5907      3.7295      3.9625      4.2907      4.7134      5.2272      5.8266    
  6.5036      7.2463      8.0354      8.8404      9.6170      10.310      10.860      11.215      11.337      11.215    
  10.860      10.310      9.6170      8.8404      8.0354      7.2463      6.5036      5.8266      5.2272      4.7134    
  4.2907      3.9625      3.7294      3.5907      3.6443      3.5449      3.5389      3.6259      3.8067      4.0828    
  4.4555      4.9253      5.4917      6.1518      6.8969      7.7086      8.5545      9.3876      10.149      10.777    
  11.215      11.422      11.381      11.102      10.618      9.9811      9.2481      8.4711      7.6906      6.9354    
  6.2258      5.5781      5.0062      4.5214      4.1313      3.8391      3.9508      3.6977      3.5454      3.4907    
  3.5319      3.6691      3.9042      4.2403      4.6817      5.2322      5.8925      6.6567      7.5064      8.4074    
  9.3093      10.149      10.860      11.381      11.666      11.696      11.477      11.046      10.452      9.7518    
  8.9924      8.2099      7.4302      6.6752      5.9661      5.3239      4.7667      4.3071      4.4832      4.0598    
  3.7484      3.5459      3.4476      3.4504      3.5538      3.7600      4.0742      4.5035      5.0554      5.7340    
  6.5345      7.4380      8.4074      9.3876      10.310      11.102      11.696      12.044      12.124      11.948    
  11.552      10.992      10.317      9.5703      8.7796      7.9675      7.1574      6.3768      5.6550      5.0179    
  5.2646      4.6522      4.1616      3.7943      3.5460      3.4108      3.3841      3.4644      3.6545      3.9612    
  4.3949      4.9660      5.6807      6.5345      7.5064      8.5545      9.6170      10.618      11.477      12.124    
  12.507      12.602      12.431      12.054      11.530      10.897      10.171      9.3722      8.5244      7.6536    
  6.7948      5.9868      6.3057      5.4966      4.8068      4.2516      3.8330      3.5457      3.3818      3.3350    
  3.4033      3.5900      3.9041      4.3584      4.9660      5.7340      6.6567      7.7086      8.8404      9.9811    
  11.046      11.948      12.602      12.938      12.965      12.753      12.390      11.935      11.394      10.742    
  9.9600      9.0780      8.1441      7.2032      7.5856      6.5982      5.7034      4.9398      4.3257      3.8633    
  3.5452      3.3616      3.3048      3.3723      3.5684      3.9041      4.3949      5.0554      5.8925      6.8969    
  8.0354      9.2481      10.452      11.552      12.431      12.965      13.129      13.003      12.720      12.398    
  12.078      11.714      11.212      10.504      9.6063      8.6095      9.0315      7.9256      6.8509      5.8756    
  5.0454      4.3810      3.8839      3.5446      3.3513      3.2947      3.3723      3.5900      3.9612      4.5035    
  5.2322      6.1518      7.2463      8.4711      9.7518      10.992      12.054      12.753      13.003      12.866    
  12.521      12.173      11.958      11.875      11.794      11.534      10.965      10.088      10.499      9.3931    
  8.2083      7.0523      6.0050      5.1185      4.4150      3.8943      3.5444      3.3513      3.3048      3.4033    
  3.6545      4.0742      4.6817      5.4917      6.5036      7.6906      8.9924      10.317      11.530      12.390    
  12.720      12.521      11.977      11.385      11.023      11.021      11.302      11.623      11.693      11.322    
  11.573      10.825      9.6795      8.4207      7.1924      6.0852      5.1559      4.4265      3.8943      3.5446    
  3.3616      3.3350      3.4644      3.7600      4.2403      4.9253      5.8266      6.9354      8.2099      9.5703    
  10.897      11.935      12.398      12.173      11.385      10.374      9.5620      9.2835      9.6308      10.412    
  11.239      11.710      11.630      11.733      11.057      9.8780      8.5525      7.2642      6.1124      5.1559    
  4.4150      3.8839      3.5452      3.3818      3.3841      3.5538      3.9042      4.4555      5.2272      6.2259    
  7.4302      8.7796      10.171      11.394      12.078      11.958      11.023      9.5620      8.0853      7.1393    
  7.0822      7.9245      9.3223      10.730      10.204      11.513      11.823      11.196      9.9796      8.5972    
  7.2642      6.0852      5.1185      4.3810      3.8633      3.5457      3.4108      3.4504      3.6691      4.0828    
  4.7134      5.5782      6.6752      7.9675      9.3722      10.742      11.714      11.875      11.021      9.2835    
  7.1393      5.2735      4.3305      4.6493      6.1139      8.2013      7.2310      9.7763      11.415      11.862    
  11.243      9.9796      8.5525      7.1924      6.0050      5.0454      4.3257      3.8330      3.5460      3.4476    
  3.5319      3.8067      4.2907      5.0062      5.9661      7.1574      8.5244      9.9600      11.212      11.794    
  11.302      9.6308      7.0822      4.3305      2.2187      1.4472      2.2848      4.4502      3.1774      6.5738    
  9.5370      11.378      11.862      11.196      9.8780      8.4207      7.0523      5.8756      4.9398      4.2516    
  3.7943      3.5459      3.4907      3.6259      3.9625      4.5214      5.3239      6.3769      7.6537      9.0780    
  10.504      11.534      11.623      10.412      7.9245      4.6493      1.4472     -.71935     -1.1493     0.30605    
 -1.0084      2.4882      6.3417      9.5370      11.415      11.823      11.057      9.6795      8.2083      6.8509    
  5.7034      4.8068      4.1616      3.7484      3.5454      3.5389      3.7295      4.1313      4.7667      5.6550    
  6.7948      8.1441      9.6063      10.965      11.693      11.239      9.3223      6.1139      2.2848     -1.1493    
 -3.1622     -3.1118     -4.1675     -1.4688      2.4882      6.5738      9.7763      11.513      11.733      10.825    
  9.3931      7.9256      6.5982      5.4966      4.6522      4.0598      3.6977      3.5449      3.5907      3.8391    
  4.3071      5.0178      5.9868      7.2032      8.6095      10.088      11.322      11.710      10.730      8.2013    
  4.4502     0.30603     -3.1118     -4.7788     -4.1674     -3.3028     -.52001      3.3304      7.1593      10.035    
  11.459      11.445      10.412      8.9575      7.5087      6.2170      5.1590      4.3586      3.8057      3.4769    
  3.3514      3.4198      3.6877      4.1736      4.9015      5.8865      7.1147      8.5233      9.9871      11.163    
  11.457      10.386      7.8303      4.1678     0.24847     -2.8429     -3.3028     -4.1675     -2.8429     0.24851    
  4.1679      7.8302      10.386      11.457      11.163      9.9871      8.5232      7.1146      5.8865      4.9015    
  4.1736      3.6876      3.4198      3.3514      3.4769      3.8056      4.3585      5.1590      6.2171      7.5087    
  8.9574      10.412      11.445      11.459      10.035      7.1593      3.3304     -.51994     -.42654     -2.7415    
 -3.1117     -1.4287      1.7634      5.4946      8.7467      10.799      11.410      10.804      9.5037      8.0544    
  6.7018      5.5502      4.6471      3.9967      3.5799      3.3734      3.3617      3.5428      3.9296      4.5445    
  5.4093      6.5285      7.8682      9.3404      10.766      11.665      11.468      9.8368      6.8587      3.1174    
  3.5667     0.51765     -1.2381     -1.1493     0.73813      3.8023      7.1034      9.7442      11.165      11.268    
  10.363      8.9821      7.5677      6.2857      5.2209      4.4053      3.8342      3.4862      3.3394      3.3818    
  3.6150      4.0546      4.7237      5.6419      6.8074      8.1775      9.6560      11.040      11.835      11.524    
  9.8513      6.9888      7.5355      4.6132      2.1768     0.99596      1.4472      3.3565      6.0759      8.7525    
  10.651      11.387      10.996      9.8477      8.4420      7.0803      5.8817      4.9104      4.1842      3.6914    
  3.4095      3.3188      3.4107      3.6905      4.1756      4.8889      5.8465      7.0407      8.4220      9.8895    
  11.229      11.964      11.643      10.090      10.514      8.4118      6.1003      4.3155      3.6549      4.3305    
  6.0794      8.2807      10.213      11.324      11.401      10.590      9.2877      7.9016      6.6094      5.5038    
  4.6292      3.9910      3.5727      3.3519      3.3118      3.4474      3.7665      4.2877      5.0325      6.0134    
  7.2172      8.5896      10.029      11.327      12.048      11.814      11.999      11.046      9.4757      7.8095    
  6.6400      6.3919      7.1393      8.5765      10.154      11.309      11.674      11.189      10.077      8.7204    
  7.3804      6.1721      5.1650      4.3862      3.8313      3.4813      3.3150      3.3188      3.4905      3.8402    
  4.3863      5.1483      6.1346      7.3276      8.6707      10.065      11.325      12.073      12.015      12.145    
  11.579      10.556      9.4988      8.8509      8.8805      9.5620      10.590      11.518      11.949      11.685    
  10.785      9.5141      8.1715      6.8989      5.7842      4.8765      4.1885      3.7097      3.4198      3.3000    
  3.3394      3.5387      3.9088      4.4673      5.2307      6.2037      7.3657      8.6603      9.9947      11.216    
  10.996      11.852      12.193      12.006      11.485      10.947      10.695      10.870      11.385      11.973    
  12.303      12.134      11.408      10.265      8.9612      7.6660      6.4765      5.4596      4.6471      4.0417    
  3.6293      3.3899      3.3073      3.3734      3.5906      3.9698      4.5270      5.2757      6.2171      7.3292    
  8.5580      9.8198      9.5477      10.666      11.566      12.092      12.234      12.130      11.994      12.007    
  12.219      12.521      12.701      12.546      11.947      10.947      9.7262      8.4529      7.2280      6.1303    
  5.2092      4.4835      3.9497      3.5921      3.3924      3.3369      3.4197      3.6442      4.0207      4.5628    
  5.2809      6.1737      7.2192      8.3684      8.1002      9.1898      10.238      11.152      11.817      12.211    
  12.417      12.560      12.727      12.909      13.003      12.861      12.372      11.528      10.434      9.2324    
  8.0189      6.8783      5.8737      5.0408      4.3902      3.9148      3.5993      3.4275      3.3880      3.4769    
  3.6976      4.0591      4.5725      5.2456      6.0755      7.0414      6.8041      7.7663      8.7623      9.7344    
  10.627      11.370      11.932      12.344      12.660      12.902      13.032      12.965      12.617      11.957    
  11.040      9.9660      8.8194      7.6844      6.6330      5.7159      4.9596      4.3697      3.9381      3.6507    
  3.4942      3.4593      3.5429      3.7484      4.0830      4.5556      5.1715      5.9272      5.7360      6.5191    
  7.3820      8.2838      9.1788      10.026      10.792      11.443      11.974      12.386      12.662      12.754    
  12.602      12.172      11.487      10.603      9.5865      8.5166      7.4680      6.5027      5.6625      4.9680    
  4.4227      4.0191      3.7455      3.5909      3.5481      3.6151      3.7943      4.0912      4.5125      5.0619    
  4.9224      5.5113      6.1998      6.9649      7.7752      8.5959      9.3949      10.147      10.829      11.418    
  11.883      12.185      12.277      12.124      11.719      11.084      10.265      9.3286      8.3450      7.3819    
  6.4935      5.7158      5.0665      4.5486      4.1565      3.8812      3.7147      3.6518      3.6907      3.8331    
  4.0830      4.4452      4.3572      4.7595      5.2636      5.8605      6.5332      7.2587      8.0114      8.7668    
  9.5025      10.195      10.813      11.317      11.659      11.795      11.696      11.356      10.796      10.063    
  9.2143      8.3170      7.4316      6.6069      5.8753      5.2533      4.7449      4.3471      4.0545      3.8620    
  3.7665      3.7667      3.8634      4.0592      4.0208      4.2526      4.5809      5.0042      5.5162      6.1054    
  6.7562      7.4511      8.1719      8.8983      9.6047      10.255      10.805      11.203      11.405      11.381    
  11.125      10.656      10.014      9.2546      8.4369      7.6172      6.8407      6.1377      5.5244      5.0071    
  4.5863      4.2605      4.0282      3.8884      3.8403      3.8840      3.8944      3.9699      4.1363      4.3944    
  4.7438      5.1808      5.6986      6.2884      6.9391      7.6379      8.3663      9.0969      9.7907      10.398    
  10.867      11.149      11.215      11.053      10.679      10.128      9.4501      8.7008      7.9328      7.1883    
  6.4960      5.8730      5.3283      4.8671      4.4928      4.2079      4.0132      3.9089      3.9699      3.8945    
  3.9090      4.0132      4.2078      4.4929      4.8671      5.3283      5.8730      6.4960      7.1883      7.9329    
  8.7008      9.4501      10.128      10.679      11.053      11.215      11.149      10.867      10.398      9.7907    
  9.0969      8.3663      7.6379      6.9391      6.2883      5.6986      5.1808      4.7438      4.3944      4.1362    
  4.2526      4.0208      3.8840      3.8403      3.8885      4.0283      4.2605      4.5863      5.0071      5.5245    
  6.1377      6.8407      7.6172      8.4369      9.2546      10.014      10.656      11.125      11.381      11.405    
  11.203      10.805      10.255      9.6047      8.8983      8.1718      7.4511      6.7562      6.1054      5.5161    
  5.0041      4.5809      4.7595      4.3572      4.0591      3.8634      3.7667      3.7665      3.8620      4.0545    
  4.3471      4.7449      5.2533      5.8753      6.6069      7.4317      8.3170      9.2143      10.063      10.796    
  11.356      11.696      11.795      11.659      11.317      10.813      10.195      9.5025      8.7668      8.0114    
  7.2587      6.5332      5.8605      5.2637      5.5113      4.9224      4.4453      4.0830      3.8331      3.6906    
  3.6517      3.7147      3.8812      4.1565      4.5486      5.0665      5.7158      6.4935      7.3819      8.3450    
  9.3287      10.265      11.084      11.719      12.124      12.277      12.185      11.883      11.418      10.830    
  10.147      9.3949      8.5959      7.7752      6.9649      6.1997      6.5191      5.7360      5.0620      4.5125    
  4.0911      3.7942      3.6151      3.5481      3.5908      3.7454      4.0191      4.4227      4.9680      5.6625    
  6.5027      7.4680      8.5166      9.5865      10.603      11.487      12.172      12.602      12.753      12.662    
  12.386      11.974      11.443      10.792      10.026      9.1789      8.2838      7.3820      7.7663      6.8042    
  5.9272      5.1715      4.5555      4.0830      3.7484      3.5429      3.4592      3.4942      3.6507      3.9380    
  4.3697      4.9596      5.7159      6.6330      7.6844      8.8194      9.9660      11.040      11.957      12.617    
  12.965      13.032      12.902      12.660      12.344      11.932      11.370      10.627      9.7343      8.7623    
  9.1899      8.1003      7.0413      6.0755      5.2456      4.5725      4.0591      3.6976      3.4769      3.3881    
  3.4275      3.5992      3.9148      4.3902      5.0408      5.8737      6.8783      8.0189      9.2324      10.434    
  11.528      12.372      12.860      13.003      12.909      12.727      12.560      12.417      12.211      11.817    
  11.152      10.238      10.666      9.5476      8.3684      7.2193      6.1738      5.2808      4.5628      4.0207    
  3.6442      3.4197      3.3369      3.3925      3.5921      3.9497      4.4835      5.2091      6.1303      7.2280    
  8.4529      9.7262      10.947      11.947      12.546      12.701      12.521      12.218      12.007      11.994    
  12.129      12.234      12.092      11.566      11.852      10.996      9.8199      8.5581      7.3291      6.2171    
  5.2757      4.5271      3.9699      3.5906      3.3734      3.3073      3.3899      3.6292      4.0417      4.6471    
  5.4596      6.4765      7.6660      8.9612      10.265      11.408      12.134      12.303      11.972      11.385    
  10.869      10.695      10.947      11.485      12.006      12.193      12.145      12.016      11.216      9.9947    
  8.6603      7.3657      6.2037      5.2307      4.4673      3.9089      3.5388      3.3395      3.3000      3.4199    
  3.7097      4.1885      4.8764      5.7842      6.8989      8.1715      9.5141      10.785      11.685      11.949    
  11.518      10.590      9.5618      8.8805      8.8509      9.4988      10.556      11.579      11.046      11.999    
  12.073      11.325      10.065      8.6707      7.3276      6.1345      5.1483      4.3864      3.8403      3.4905    
  3.3188      3.3151      3.4814      3.8313      4.3861      5.1650      6.1721      7.3804      8.7203      10.077    
  11.189      11.674      11.309      10.154      8.5764      7.1393      6.3918      6.6400      7.8094      9.4757    
  8.4119      10.514      11.814      12.048      11.327      10.029      8.5895      7.2172      6.0134      5.0325    
  4.2878      3.7666      3.4475      3.3119      3.3519      3.5727      3.9910      4.6292      5.5038      6.6094    
  7.9016      9.2877      10.590      11.401      11.324      10.213      8.2807      6.0794      4.3305      3.6549    
  4.3155      6.1004      4.6131      7.5355      10.090      11.643      11.964      11.229      9.8895      8.4221    
  7.0407      5.8464      4.8889      4.1757      3.6906      3.4108      3.3188      3.4095      3.6914      4.1842    
  4.9104      5.8817      7.0803      8.4421      9.8477      10.996      11.387      10.651      8.7526      6.0759    
  3.3565      1.4473     0.99609      2.1769     0.51765      3.5668      6.9889      9.8513      11.524      11.835    
  11.040      9.6560      8.1774      6.8073      5.6419      4.7238      4.0547      3.6151      3.3818      3.3395    
  3.4863      3.8342      4.4052      5.2209      6.2858      7.5677      8.9821      10.363      11.268      11.165    
  9.7441      7.1034      3.8023     0.73825     -1.1493     -1.2381     -2.7414     -.42642      3.1174      6.8586    
  9.8368      11.468      11.665      10.766      9.3404      7.8682      6.5285      5.4093      4.5444      3.9296    
  3.5429      3.3618      3.3734      3.5799      3.9967      4.6472      5.5502      6.7018      8.0544      9.5038    
  10.804      11.410      10.799      8.7467      5.4947      1.7634     -1.4287     -3.1117     -1.0081     -.42633    
  1.8143      5.0073      8.2085      10.589      11.692      11.516      10.432      8.9810      7.5417      6.2540    
  5.1922      4.3807      3.8106      3.4591      3.3048      3.3368      3.5584      3.9858      4.6424      5.5459    
  6.6909      8.0282      9.4545      10.735      11.359      10.852      9.0332      6.1596      2.9204     0.24866    
 -.51982     -1.4686     -.51981      2.0162      5.3400      8.4858      10.673      11.532      11.153      9.9662    
  8.5179      7.1220      5.8992      4.9120      4.1752      3.6750      3.3880      3.2947      3.3879      3.6750    
  4.1752      4.9120      5.8992      7.1220      8.5179      9.9662      11.153      11.532      10.673      8.4859    
  5.3400      2.0162      1.8143     -.42633     -1.0081     0.24868      2.9204      6.1596      9.0332      10.852    
  11.359      10.735      9.4545      8.0282      6.6909      5.5460      4.6424      3.9858      3.5584      3.3368    
  3.3048      3.4591      3.8106      4.3808      5.1922      6.2540      7.5417      8.9810      10.432      11.516    
  11.692      10.589      8.2085      5.0073      5.2269      2.3515     0.51781     0.30624      1.7635      4.3836    
  7.3221      9.7295      11.044      11.134      10.260      8.9164      7.5291      6.2638      5.2069      4.3929    
  3.8188      3.4642      3.3072      3.3350      3.5481      3.9605      4.5951      5.4727      6.5965      7.9334    
  9.3995      10.837      11.831      11.870      10.657      8.2719      8.6830      5.9736      3.5516      2.1769    
  2.2849      3.8024      6.1813      8.6311      10.429      11.163      10.823      9.7329      8.3697      7.0365    
  5.8552      4.8932      4.1711      3.6790      3.3952      3.3000      3.3841      3.6516      4.1194      4.8101    
  5.7419      6.9121      8.2797      9.7547      11.167      12.096      12.082      10.897      11.283      9.3837    
  7.1372      5.2410      4.3156      4.6494      6.0759      8.0493      9.8774      10.992      11.138      10.411    
  9.1739      7.8302      6.5661      5.4780      4.6144      3.9836      3.5704      3.3532      3.3151      3.4504    
  3.7664      4.2814      5.0172      5.9882      7.1861      8.5638      10.028      11.408      12.303      12.316    
  12.543      11.753      10.263      8.5433      7.1790      6.6400      7.0821      8.2807      9.7340      10.880    
  11.317      10.934      9.9122      8.6138      7.3140      6.1326      5.1439      4.3787      3.8353      3.4956    
  3.3391      3.3520      3.5318      3.8884      4.4403      5.2074      6.2002      7.4048      8.7702      10.204    
  11.544      12.436      12.471      12.713      12.220      11.177      9.9851      9.1012      8.8508      9.2834    
  10.154      11.038      11.520      11.357      10.561      9.3663      8.0744      6.8387      5.7504      4.8629    
  4.1923      3.7300      3.4565      3.3533      3.4096      3.6258      4.0133      4.5897      5.3723      6.3672    
  7.5564      8.8870      10.270      11.564      11.456      12.383      12.776      12.588      11.978      11.261    
  10.767      10.695      11.023      11.518      11.855      11.760      11.132      10.073      8.8271      7.5769    
  6.4217      5.4320      4.6432      4.0603      3.6703      3.4540      3.3953      3.4863      3.7295      4.1363    
  4.7232      5.5039      6.4806      7.6321      8.9062      10.220      10.054      11.219      12.155      12.686    
  12.774      12.540      12.209      11.998      12.007      12.172      12.303      12.174      11.644      10.718    
  9.5532      8.3274      7.1427      6.0790      5.1880      4.4911      3.9860      3.6577      3.4884      3.4643    
  3.5800      3.8391      4.2527      4.8347      5.5956      6.5339      7.6271      8.8256      8.6482      9.7799    
  10.859      11.782      12.415      12.723      12.783      12.738      12.708      12.727      12.720      12.546    
  12.079      11.280      10.228      9.0668      7.8945      6.7923      5.8239      5.0263      4.4110      3.9717    
  3.6930      3.5590      3.5585      3.6877      3.9507      4.3573      4.9187      5.6424      6.5240      7.5410    
  7.3779      8.3829      9.4101      10.396      11.276      11.966      12.425      12.690      12.833      12.906    
  12.902      12.753      12.372      11.714      10.811      9.7621      8.6501      7.5535      6.5421      5.6662    
  4.9521      4.4055      4.0180      3.7755      3.6643      3.6752      3.8058      4.0598      4.4453      4.9711    
  5.6415      6.4509      6.3183      7.1461      8.0427      8.9623      9.8538      10.670      11.368      11.912    
  12.302      12.559      12.688      12.662      12.431      11.957      11.250      10.367      9.3711      8.3331    