unknown system                          
   1.00000000000000     
    -2.450000    2.450000    1.274000
     2.450000   -2.450000    1.274000
     2.450000    2.450000   -1.274000
   Si
     2
Direct
  0.250000  0.750000  0.500000
  0.000000  0.000000  0.000000
 
   32   32   32
 -5.3438     -4.1671     -1.0076      3.1788      7.2333      10.207      11.633      11.577      10.502      9.0334    
  7.5863      6.3053      5.2631      4.4810      3.9479      3.6411      3.5413      3.6411      3.9479      4.4810    
  5.2631      6.3053      7.5863      9.0334      10.502      11.577      11.633      10.207      7.2333      3.1789    
 -1.0076     -4.1671     -4.1671     -4.7787     -3.1118     0.30608      4.4506      8.2022      10.731      11.712    
  11.324      10.090      8.6109      7.2037      5.9863      5.0165      4.3050      3.8363      3.5875      3.5415    
  3.6944      4.0568      4.6498      5.4951      6.5978      7.9266      9.3956      10.828      11.738      11.518    
  9.7805      6.5770      2.4902     -1.4678     -1.0076     -3.1118     -3.1628     -1.1504      2.2834      6.1126    
  9.3214      11.239      11.694      10.966      9.6075      8.1450      6.7950      5.6545      4.7654      4.1292    
  3.7268      3.5357      3.5419      3.7450      4.1585      4.8043      5.7019      6.8507      8.2096      9.6825    
  11.062      11.828      11.421      9.5418      6.3451      2.4902      3.1789     0.30607     -1.1504     -.72130    
  1.4444      4.6460      7.9210      10.409      11.621      11.533      10.505      9.0786      7.6542      6.3770    
  5.3234      4.5202      3.9605      3.6232      3.4875      3.5424      3.7908      4.2484      4.9373      5.8741    
  7.0521      8.4222      9.8814      11.202      11.868      11.384      9.5418      6.5770      7.2333      4.4506    
  2.2834      1.4444      2.2147      4.3254      7.0763      9.6249      11.297      11.791      11.210      9.9594    
  8.5246      7.1578      5.9661      5.0057      4.2896      3.8048      3.5293      3.4444      3.5425      3.8296    
  4.3226      5.0429      6.0035      7.1922      8.5542      9.9832      11.248      11.868      11.421      9.7805    
  10.207      8.2022      6.1126      4.6460      4.3254      5.2668      7.1314      9.2750      11.013      11.868    
  11.709      10.739      9.3711      7.9674      6.6754      5.5782      4.7130      4.0818      3.6673      3.4479    
  3.4077      3.5423      3.8598      4.3779      5.1160      6.0837      7.2642      8.5990      9.9832      11.202    
  11.828      11.518      11.633      10.731      9.3214      7.9210      7.0763      7.1314      8.0757      9.5512    
  11.012      11.948      12.070      11.389      10.168      8.7782      7.4299      6.2259      5.2272      4.4551    
  3.9032      3.5521      3.3816      3.3787      3.5418      3.8805      4.4119      5.1534      6.1109      7.2642    
  8.5542      9.8814      11.062      11.738      11.577      11.712      11.239      10.409      9.6249      9.2750    
  9.5512      10.361      11.372      12.160      12.387      11.926      10.891      9.5669      8.2084      6.9350    
  5.8266      4.9253      4.2400      3.7592      3.4628      3.3326      3.3586      3.5413      3.8909      4.4234    
  5.1534      6.0837      7.1922      8.4222      9.6825      10.828      10.502      11.324      11.694      11.621    
  11.297      11.013      11.012      11.372      11.963      12.506      12.706      12.378      11.521      10.311    
  8.9890      7.6890      6.5031      5.4917      4.6818      4.0740      3.6536      3.4017      3.3025      3.3483    
  3.5411      3.8909      4.4119      5.1160      6.0035      7.0521      8.2096      9.3956      9.0334      10.090    
  10.966      11.533      11.791      11.868      11.948      12.160      12.506      12.851      12.988      12.739    
  12.043      10.983      9.7460      8.4676      7.2445      6.1512      5.2321      4.5035      3.9610      3.5892    
  3.3708      3.2923      3.3483      3.5413      3.8805      4.3779      5.0429      5.8741      6.8507      7.9266    
  7.5863      8.6108      9.6075      10.505      11.210      11.709      12.070      12.387      12.706      12.988    
  13.114      12.950      12.418      11.541      10.444      9.2424      8.0319      6.8951      5.8918      5.0553    
  4.3950      3.9039      3.5676      3.3708      3.3025      3.3586      3.5418      3.8598      4.3226      4.9373    
  5.7019      6.5978      6.3053      7.2037      8.1450      9.0786      9.9594      10.739      11.389      11.926    
  12.378      12.739      12.950      12.923      12.587      11.935      11.035      9.9730      8.8347      7.7050    
  6.6548      5.7332      4.9659      4.3585      3.9039      3.5892      3.4017      3.3326      3.3787      3.5423    
  3.8296      4.2484      4.8043      5.4951      5.2631      5.9863      6.7951      7.6542      8.5246      9.3711    
  10.168      10.891      11.521      12.043      12.418      12.587      12.492      12.110      11.465      10.608    
  9.6090      8.5487      7.5027      6.5326      5.6799      4.9659      4.3950      3.9610      3.6536      3.4628    
  3.3816      3.4077      3.5425      3.7908      4.1585      4.6498      4.4810      5.0165      5.6545      6.3770    
  7.1578      7.9674      8.7782      9.5669      10.311      10.983      11.541      11.935      12.110      12.029    
  11.682      11.090      10.300      9.3795      8.4016      7.4343      6.5326      5.7332      5.0553      4.5035    
  4.0740      3.7592      3.5521      3.4479      3.4444      3.5424      3.7450      4.0568      3.9479      4.3050    
  4.7654      5.3234      5.9662      6.6754      7.4299      8.2084      8.9890      9.7460      10.444      11.035    
  11.465      11.682      11.653      11.368      10.848      10.139      9.3012      8.4016      7.5027      6.6548    
  5.8918      5.2321      4.6818      4.2400      3.9032      3.6673      3.5293      3.4875      3.5419      3.6944    
  3.6411      3.8363      4.1292      4.5202      5.0057      5.5782      6.2259      6.9350      7.6890      8.4676    
  9.2424      9.9730      10.608      11.090      11.368      11.408      11.202      10.765      10.139      9.3795    
  8.5487      7.7050      6.8951      6.1512      5.4917      4.9253      4.4551      4.0818      3.8048      3.6232    
  3.5357      3.5415      3.5413      3.5875      3.7268      3.9606      4.2896      4.7130      5.2272      5.8267    
  6.5031      7.2445      8.0319      8.8347      9.6090      10.300      10.848      11.202      11.324      11.202    
  10.848      10.300      9.6090      8.8347      8.0319      7.2445      6.5031      5.8266      5.2272      4.7130    
  4.2896      3.9605      3.7268      3.5875      3.6411      3.5415      3.5358      3.6233      3.8048      4.0818    
  4.4551      4.9253      5.4917      6.1512      6.8951      7.7050      8.5487      9.3795      10.139      10.765    
  11.202      11.408      11.368      11.090      10.608      9.9730      9.2424      8.4676      7.6890      6.9350    
  6.2259      5.5782      5.0057      4.5202      4.1292      3.8363      3.9479      3.6944      3.5419      3.4875    
  3.5293      3.6673      3.9032      4.2400      4.6818      5.2321      5.8918      6.6548      7.5027      8.4016    
  9.3012      10.139      10.848      11.368      11.653      11.682      11.465      11.035      10.444      9.7460    
  8.9890      8.2084      7.4299      6.6754      5.9661      5.3234      4.7654      4.3050      4.4810      4.0568    
  3.7451      3.5424      3.4444      3.4479      3.5521      3.7592      4.0739      4.5035      5.0553      5.7332    
  6.5325      7.4343      8.4016      9.3795      10.300      11.090      11.682      12.029      12.110      11.935    
  11.541      10.983      10.311      9.5669      8.7782      7.9674      7.1578      6.3770      5.6545      5.0165    
  5.2631      4.6499      4.1585      3.7909      3.5426      3.4077      3.3816      3.4628      3.6536      3.9610    
  4.3949      4.9659      5.6799      6.5325      7.5027      8.5487      9.6090      10.608      11.465      12.110    
  12.492      12.587      12.418      12.043      11.521      10.891      10.168      9.3711      8.5246      7.6542    
  6.7950      5.9863      6.3053      5.4951      4.8044      4.2485      3.8296      3.5423      3.3787      3.3326    
  3.4017      3.5892      3.9039      4.3585      4.9659      5.7332      6.6548      7.7050      8.8347      9.9730    
  11.035      11.935      12.587      12.923      12.950      12.739      12.378      11.926      11.389      10.739    
  9.9594      9.0786      8.1450      7.2037      7.5863      6.5978      5.7019      4.9374      4.3226      3.8598    
  3.5418      3.3586      3.3024      3.3707      3.5676      3.9039      4.3949      5.0553      5.8918      6.8951    
  8.0319      9.2424      10.444      11.541      12.418      12.950      13.114      12.988      12.706      12.387    
  12.070      11.709      11.210      10.505      9.6075      8.6109      9.0334      7.9266      6.8507      5.8741    
  5.0429      4.3779      3.8804      3.5412      3.3482      3.2923      3.3707      3.5892      3.9610      4.5035    
  5.2321      6.1512      7.2445      8.4676      9.7460      10.983      12.043      12.739      12.988      12.851    
  12.506      12.160      11.948      11.868      11.791      11.533      10.966      10.090      10.502      9.3956    
  8.2096      7.0521      6.0035      5.1160      4.4118      3.8909      3.5410      3.3482      3.3024      3.4017    
  3.6536      4.0739      4.6818      5.4917      6.5031      7.6890      8.9890      10.311      11.521      12.378    
  12.706      12.506      11.963      11.372      11.012      11.013      11.297      11.621      11.694      11.324    
  11.577      10.828      9.6825      8.4222      7.1922      6.0837      5.1534      4.4234      3.8909      3.5412    
  3.3586      3.3326      3.4628      3.7592      4.2400      4.9253      5.8267      6.9350      8.2084      9.5669    
  10.891      11.926      12.387      12.160      11.372      10.361      9.5512      9.2750      9.6249      10.409    
  11.239      11.712      11.633      11.738      11.062      9.8814      8.5542      7.2642      6.1109      5.1534    
  4.4118      3.8804      3.5418      3.3787      3.3816      3.5521      3.9032      4.4551      5.2272      6.2259    
  7.4299      8.7782      10.168      11.389      12.070      11.948      11.012      9.5512      8.0757      7.1314    
  7.0763      7.9210      9.3214      10.731      10.207      11.518      11.828      11.202      9.9832      8.5990    
  7.2642      6.0837      5.1160      4.3779      3.8598      3.5423      3.4077      3.4479      3.6673      4.0818    
  4.7130      5.5782      6.6754      7.9674      9.3711      10.739      11.709      11.868      11.013      9.2750    
  7.1314      5.2668      4.3254      4.6460      6.1126      8.2022      7.2333      9.7805      11.421      11.868    
  11.248      9.9832      8.5542      7.1922      6.0035      5.0429      4.3226      3.8296      3.5426      3.4444    
  3.5293      3.8048      4.2896      5.0057      5.9662      7.1578      8.5246      9.9594      11.210      11.791    
  11.297      9.6249      7.0763      4.3254      2.2147      1.4444      2.2834      4.4506      3.1788      6.5769    
  9.5418      11.384      11.868      11.202      9.8814      8.4222      7.0521      5.8741      4.9374      4.2485    
  3.7909      3.5424      3.4875      3.6233      3.9606      4.5202      5.3234      6.3770      7.6542      9.0786    
  10.505      11.533      11.621      10.409      7.9210      4.6460      1.4444     -.72130     -1.1504     0.30608    
 -1.0076      2.4902      6.3450      9.5418      11.421      11.828      11.062      9.6825      8.2096      6.8507    
  5.7019      4.8044      4.1585      3.7451      3.5419      3.5358      3.7268      4.1292      4.7654      5.6545    
  6.7951      8.1450      9.6075      10.966      11.694      11.239      9.3214      6.1126      2.2834     -1.1504    
 -3.1628     -3.1118     -4.1671     -1.4678      2.4902      6.5769      9.7805      11.518      11.738      10.828    
  9.3956      7.9266      6.5978      5.4951      4.6499      4.0568      3.6944      3.5415      3.5875      3.8363    
  4.3050      5.0165      5.9863      7.2037      8.6108      10.090      11.324      11.712      10.731      8.2022    
  4.4506     0.30607     -3.1118     -4.7787     -4.1670     -3.3021     -.51868      3.3327      7.1628      10.039    
  11.463      11.450      10.416      8.9598      7.5097      6.2168      5.1578      4.3566      3.8032      3.4740    
  3.3484      3.4169      3.6852      4.1717      4.9004      5.8862      7.1154      8.5251      9.9897      11.167    
  11.460      10.389      7.8328      4.1696     0.24951     -2.8423     -3.3022     -4.1671     -2.8424     0.24954    
  4.1696      7.8327      10.389      11.460      11.167      9.9897      8.5250      7.1154      5.8862      4.9004    
  4.1717      3.6852      3.4169      3.3484      3.4740      3.8031      4.3566      5.1578      6.2169      7.5097    
  8.9597      10.416      11.450      11.463      10.039      7.1628      3.3328     -.51859     -.42540     -2.7412    
 -3.1117     -1.4288      1.7635      5.4951      8.7476      10.800      11.412      10.806      9.5055      8.0557    
  6.7023      5.5499      4.6460      3.9949      3.5776      3.3707      3.3587      3.5399      3.9270      4.5424    
  5.4081      6.5284      7.8695      9.3433      10.770      11.670      11.474      9.8419      6.8625      3.1198    
  3.5686     0.51810     -1.2386     -1.1504     0.73674      3.8008      7.1019      9.7431      11.164      11.268    
  10.364      8.9832      7.5685      6.2861      5.2206      4.4043      3.8325      3.4839      3.3367      3.3788    
  3.6120      4.0519      4.7216      5.6407      6.8073      8.1790      9.6593      11.045      11.841      11.530    
  9.8565      6.9924      7.5383      4.6140      2.1761     0.99402      1.4444      3.3531      6.0721      8.7487    
  10.648      11.385      10.995      9.8476      8.4425      7.0808      5.8819      4.9101      4.1833      3.6898    
  3.4072      3.3161      3.4077      3.6874      4.1728      4.8867      5.8452      7.0407      8.4238      9.8932    
  11.235      11.970      11.649      10.094      10.518      8.4134      6.0997      4.3130      3.6509      4.3253    
  6.0734      8.2742      10.206      11.318      11.397      10.588      9.2870      7.9017      6.6098      5.5040    
  4.6289      3.9901      3.5712      3.3497      3.3091      3.4443      3.7634      4.2849      5.0303      6.0121    
  7.2173      8.5914      10.032      11.332      12.054      11.819      12.003      11.048      9.4755      7.8069    
  6.6352      6.3853      7.1313      8.5676      10.145      11.300      11.667      11.184      10.074      8.7192    
  7.3803      6.1723      5.1652      4.3860      3.8306      3.4798      3.3129      3.3160      3.4874      3.8370    
  4.3834      5.1460      6.1332      7.3277      8.6725      10.069      11.330      12.078      12.020      12.148    
  11.580      10.554      9.4939      8.8435      8.8712      9.5512      10.578      11.507      11.939      11.677    
  10.779      9.5110      8.1701      6.8986      5.7844      4.8766      4.1883      3.7090      3.4184      3.2978    
  3.3367      3.5356      3.9056      4.4644      5.2284      6.2023      7.3658      8.6621      9.9981      11.220    
  10.999      11.855      12.194      12.005      11.480      10.940      10.685      10.858      11.372      11.959    
  12.290      12.123      11.399      10.259      8.9579      7.6645      6.4761      5.4597      4.6472      4.0416    
  3.6286      3.3885      3.3051      3.3706      3.5874      3.9666      4.5241      5.2733      6.2158      7.3292    
  8.5596      9.8227      9.5500      10.669      11.568      12.092      12.231      12.124      11.984      11.995    
  12.205      12.506      12.686      12.533      11.936      10.939      9.7205      8.4496      7.2264      6.1298    
  5.2092      4.4837      3.9496      3.5914      3.3910      3.3347      3.4169      3.6410      4.0174      4.5598    
  5.2785      6.1724      7.2191      8.3697      8.1012      9.1916      10.240      11.153      11.815      12.207    
  12.410      12.550      12.714      12.895      12.988      12.846      12.359      11.517      10.426      9.2268    
  8.0155      6.8766      5.8731      5.0408      4.3904      3.9148      3.5986      3.4260      3.3858      3.4740    
  3.6943      4.0558      4.5695      5.2432      6.0741      7.0412      6.8038      7.7670      8.7636      9.7355    
  10.627      11.368      11.927      12.336      12.649      12.889      13.017      12.950      12.603      11.944    
  11.030      9.9580      8.8138      7.6809      6.6312      5.7153      4.9596      4.3699      3.9380      3.6500    
  3.4927      3.4569      3.5400      3.7450      4.0796      4.5525      5.1692      5.9258      5.7346      6.5188    
  7.3825      8.2847      9.1794      10.025      10.789      11.438      11.965      12.375      12.649      12.739    
  12.587      12.159      11.475      10.592      9.5787      8.5110      7.4645      6.5009      5.6619      4.9681    
  4.4229      4.0190      3.7447      3.5893      3.5458      3.6121      3.7909      4.0878      4.5095      5.0596    
  4.9201      5.5100      6.1993      6.9652      7.7758      8.5961      9.3939      10.144      10.824      11.410    
  11.873      12.173      12.264      12.110      11.706      11.072      10.255      9.3208      8.3394      7.3784    
  6.4917      5.7152      5.0665      4.5488      4.1563      3.8804      3.7131      3.6493      3.6876      3.8297    
  4.0796      4.4423      4.3543      4.7573      5.2623      5.8601      6.5335      7.2591      8.0114      8.7656    
  9.4994      10.189      10.805      11.306      11.647      11.782      11.682      11.343      10.785      10.053    
  9.2065      8.3114      7.4281      6.6051      5.8748      5.2534      4.7450      4.3469      4.0536      3.8604    
  3.7640      3.7635      3.8599      4.0558      4.0174      4.2497      4.5788      5.0029      5.5158      6.1055    
  6.7565      7.4509      8.1705      8.8952      9.5992      10.248      10.795      11.192      11.392      11.368    
  11.112      10.645      10.005      9.2469      8.4313      7.6138      6.8390      6.1372      5.5245      5.0073    
  4.5860      4.2595      4.0265      3.8858      3.8371      3.8806      3.8910      3.9666      4.1335      4.3924    
  4.7426      5.1804      5.6988      6.2886      6.9388      7.6364      8.3631      9.0915      9.7829      10.388    
  10.855      11.137      11.202      11.041      10.668      10.118      9.4424      8.6953      7.9295      7.1867    
  6.4956      5.8731      5.3284      4.8668      4.4918      4.2060      4.0106      3.9057      3.9666      3.8910    
  3.9057      4.0106      4.2059      4.4918      4.8668      5.3284      5.8731      6.4956      7.1867      7.9295    
  8.6953      9.4424      10.118      10.668      11.041      11.202      11.137      10.855      10.388      9.7829    
  9.0915      8.3631      7.6364      6.9388      6.2885      5.6987      5.1804      4.7427      4.3924      4.1335    
  4.2498      4.0174      3.8805      3.8371      3.8858      4.0265      4.2595      4.5860      5.0073      5.5245    
  6.1372      6.8390      7.6138      8.4313      9.2469      10.005      10.645      11.112      11.368      11.392    
  11.192      10.795      10.248      9.5993      8.8952      8.1705      7.4509      6.7565      6.1055      5.5157    
  5.0029      4.5788      4.7573      4.3543      4.0557      3.8599      3.7635      3.7640      3.8603      4.0536    
  4.3469      4.7451      5.2533      5.8747      6.6051      7.4281      8.3115      9.2065      10.053      10.785    
  11.343      11.682      11.782      11.647      11.306      10.805      10.189      9.4994      8.7657      8.0114    
  7.2591      6.5334      5.8601      5.2624      5.5099      4.9201      4.4423      4.0796      3.8296      3.6875    
  3.6493      3.7131      3.8804      4.1563      4.5488      5.0665      5.7152      6.4917      7.3784      8.3394    
  9.3208      10.255      11.072      11.706      12.110      12.263      12.173      11.873      11.410      10.824    
  10.144      9.3939      8.5961      7.7758      6.9652      6.1993      6.5187      5.7346      5.0597      4.5094    
  4.0877      3.7908      3.6121      3.5457      3.5893      3.7447      4.0190      4.4229      4.9681      5.6618    
  6.5009      7.4645      8.5110      9.5786      10.592      11.475      12.159      12.587      12.739      12.649    
  12.375      11.965      11.438      10.789      10.025      9.1795      8.2847      7.3825      7.7670      6.8039    
  5.9258      5.1691      4.5525      4.0796      3.7450      3.5399      3.4569      3.4927      3.6501      3.9380    
  4.3699      4.9596      5.7153      6.6312      7.6809      8.8138      9.9580      11.030      11.944      12.603    
  12.950      13.017      12.889      12.649      12.336      11.927      11.368      10.627      9.7354      8.7636    
  9.1917      8.1012      7.0411      6.0741      5.2433      4.5695      4.0557      3.6943      3.4740      3.3858    
  3.4260      3.5986      3.9147      4.3904      5.0409      5.8731      6.8766      8.0156      9.2268      10.426    
  11.517      12.359      12.846      12.988      12.895      12.714      12.550      12.410      12.207      11.815    
  11.153      10.240      10.669      9.5500      8.3697      7.2192      6.1724      5.2785      4.5597      4.0174    
  3.6410      3.4169      3.3347      3.3910      3.5914      3.9496      4.4837      5.2092      6.1298      7.2264    
  8.4496      9.7205      10.939      11.936      12.533      12.686      12.506      12.205      11.995      11.984    
  12.123      12.231      12.092      11.568      11.855      10.999      9.8228      8.5597      7.3291      6.2157    
  5.2733      4.5241      3.9666      3.5874      3.3706      3.3051      3.3885      3.6286      4.0416      4.6472    
  5.4597      6.4761      7.6645      8.9579      10.259      11.399      12.123      12.290      11.959      11.372    
  10.858      10.685      10.940      11.480      12.005      12.194      12.148      12.020      11.220      9.9980    
  8.6621      7.3658      6.2024      5.2283      4.4644      3.9057      3.5356      3.3367      3.2979      3.4184    
  3.7090      4.1883      4.8766      5.7844      6.8986      8.1702      9.5110      10.779      11.677      11.939    
  11.507      10.578      9.5512      8.8712      8.8436      9.4939      10.554      11.580      11.048      12.003    
  12.078      11.330      10.069      8.6726      7.3277      6.1332      5.1460      4.3835      3.8371      3.4874    
  3.3161      3.3129      3.4799      3.8306      4.3859      5.1652      6.1724      7.3803      8.7192      10.074    
  11.184      11.667      11.300      10.145      8.5676      7.1314      6.3853      6.6352      7.8068      9.4755    
  8.4134      10.518      11.819      12.054      11.332      10.032      8.5914      7.2173      6.0121      5.0303    
  4.2849      3.7635      3.4444      3.3092      3.3497      3.5711      3.9901      4.6289      5.5040      6.6098    
  7.9017      9.2870      10.588      11.397      11.318      10.206      8.2743      6.0735      4.3254      3.6509    
  4.3130      6.0997      4.6140      7.5383      10.094      11.649      11.970      11.235      9.8932      8.4238    
  7.0408      5.8452      4.8867      4.1729      3.6875      3.4077      3.3161      3.4073      3.6898      4.1833    
  4.9101      5.8819      7.0809      8.4426      9.8476      10.995      11.385      10.648      8.7487      6.0721    
  3.3531      1.4446     0.99419      2.1761     0.51809      3.5686      6.9925      9.8565      11.530      11.841    
  11.045      9.6593      8.1790      6.8073      5.6407      4.7217      4.0519      3.6120      3.3788      3.3368    
  3.4839      3.8325      4.4042      5.2206      6.2861      7.5686      8.9831      10.363      11.268      11.164    
  9.7430      7.1019      3.8008     0.73688     -1.1503     -1.2386     -2.7411     -.42530      3.1198      6.8624    
  9.8419      11.474      11.670      10.770      9.3432      7.8695      6.5284      5.4081      4.5424      3.9270    
  3.5400      3.3587      3.3706      3.5775      3.9949      4.6461      5.5499      6.7023      8.0557      9.5056    
  10.806      11.412      10.800      8.7477      5.4952      1.7635     -1.4288     -3.1117     -1.0073     -.42522    
  1.8164      5.0108      8.2134      10.595      11.698      11.522      10.437      8.9839      7.5432      6.2543    
  5.1915      4.3793      3.8086      3.4568      3.3025      3.3346      3.5566      3.9846      4.6418      5.5461    
  6.6919      8.0301      9.4571      10.738      11.362      10.855      9.0363      6.1621      2.9220     0.24966    
 -.51851     -1.4676     -.51849      2.0184      5.3433      8.4902      10.677      11.537      11.157      9.9697    
  8.5202      7.1232      5.8995      4.9113      4.1738      3.6731      3.3857      3.2924      3.3857      3.6731    
  4.1739      4.9114      5.8995      7.1232      8.5202      9.9697      11.157      11.537      10.677      8.4902    
  5.3433      2.0184      1.8164     -.42523     -1.0073     0.24968      2.9221      6.1621      9.0363      10.855    
  11.362      10.738      9.4571      8.0301      6.6919      5.5461      4.6418      3.9845      3.5566      3.3346    
  3.3025      3.4568      3.8087      4.3793      5.1915      6.2543      7.5432      8.9839      10.437      11.522    
  11.698      10.595      8.2134      5.0108      5.2300      2.3529     0.51822     0.30622      1.7636      4.3841    
  7.3230      9.7308      11.046      11.136      10.262      8.9181      7.5305      6.2646      5.2070      4.3923    
  3.8176      3.4624      3.3051      3.3326      3.5457      3.9584      4.5935      5.4719      6.5969      7.9351    
  9.4029      10.842      11.837      11.877      10.663      8.2766      8.6871      5.9757      3.5520      2.1761    
  2.2835      3.8009      6.1798      8.6298      10.428      11.163      10.823      9.7338      8.3709      7.0376    
  5.8559      4.8933      4.1706      3.6779      3.3935      3.2979      3.3816      3.6492      4.1172      4.8085    
  5.7412      6.9125      8.2816      9.7584      11.172      12.102      12.088      10.902      11.287      9.3866    
  7.1378      5.2398      4.3130      4.6460      6.0721      8.0453      9.8737      10.989      11.135      10.410    
  9.1740      7.8308      6.5669      5.4786      4.6145      3.9831      3.5693      3.3515      3.3129      3.4479    
  3.7639      4.2792      5.0155      5.9874      7.1866      8.5659      10.032      11.413      12.310      12.323    
  12.548      11.756      10.264      8.5422      7.1757      6.6352      7.0762      8.2742      9.7274      10.874    
  11.312      10.930      9.9104      8.6133      7.3143      6.1333      5.1444      4.3788      3.8349      3.4945    
  3.3374      3.3498      3.5293      3.8858      4.4380      5.2057      6.1994      7.4053      8.7724      10.208    
  11.550      12.442      12.476      12.718      12.222      11.177      9.9819      9.0957      8.8435      9.2748    
  10.145      11.029      11.512      11.351      10.557      9.3639      8.0736      6.8388      5.7509      4.8633    
  4.1925      3.7296      3.4555      3.3516      3.4073      3.6232      4.0106      4.5873      5.3705      6.3664    
  7.5569      8.8892      10.273      11.569      11.460      12.387      12.779      12.588      11.976      11.255    
  10.759      10.685      11.012      11.507      11.844      11.751      11.125      10.069      8.8244      7.5758    
  6.4217      5.4324      4.6436      4.0605      3.6699      3.4530      3.3936      3.4840      3.7268      4.1336    
  4.7207      5.5021      6.4797      7.6326      8.9083      10.223      10.057      11.222      12.158      12.687    
  12.772      12.536      12.202      11.988      11.995      12.160      12.290      12.162      11.634      10.711    
  9.5482      8.3246      7.1416      6.0789      5.1884      4.4916      3.9862      3.6574      3.4874      3.4625    
  3.5776      3.8363      4.2498      4.8321      5.5937      6.5330      7.6275      8.8274      8.6498      9.7824    
  10.861      11.783      12.415      12.721      12.778      12.729      12.696      12.714      12.706      12.533    
  12.067      11.270      10.220      9.0618      7.8916      6.7911      5.8237      5.0266      4.4115      3.9719    
  3.6926      3.5579      3.5567      3.6852      3.9479      4.3544      4.9161      5.6404      6.5231      7.5413    
  7.3781      8.3842      9.4121      10.398      11.276      11.965      12.421      12.683      12.823      12.894    
  12.889      12.739      12.359      11.702      10.801      9.7549      8.6452      7.5506      6.5408      5.6659    
  4.9525      4.4060      4.0182      3.7751      3.6631      3.6733      3.8032      4.0568      4.4423      4.9684    
  5.6396      6.4500      6.3173      7.1462      8.0437      8.9639      9.8551      10.670      11.367      11.908    
  12.295      12.549      12.676      12.649      12.418      11.944      11.239      10.358      9.3639      8.3282    