unknown system                          
   1.00000000000000     
    -2.450000    2.450000    1.274000
     2.450000   -2.450000    1.274000
     2.450000    2.450000   -1.274000
   Si
     2
Direct
  0.250000  0.750000  0.500000
  0.000000  0.000000  0.000000
 
   32   32   32
 -.53440453013E+01 -.41674799617E+01 -.10083953419E+01 0.31774041990E+01 0.72309860581E+01
 0.10204338659E+02 0.11629869215E+02 0.11573104506E+02 0.10499149745E+02 0.90315155614E+01
 0.75855893317E+01 0.63057314696E+01 0.52645536798E+01 0.44832424300E+01 0.39507593854E+01
 0.36443388070E+01 0.35446505272E+01 0.36443306749E+01 0.39507205961E+01 0.44831849907E+01
 0.52645190047E+01 0.63057261337E+01 0.75855837158E+01 0.90315040600E+01 0.10499153044E+02
 0.11573116513E+02 0.11629863101E+02 0.10204320607E+02 0.72309812521E+01 0.31773980171E+01
 -.10084348961E+01 -.41675289346E+01 -.41675289346E+01 -.47787696002E+01 -.31117674495E+01
 0.30605111173E+00 0.44502124103E+01 0.82013189483E+01 0.10729652069E+02 0.11709727123E+02
 0.11321862500E+02 0.10087928180E+02 0.86094931957E+01 0.72032063233E+01 0.59868288139E+01
 0.50178614632E+01 0.43071464890E+01 0.38390713447E+01 0.35906690336E+01 0.35448733682E+01
 0.36976712768E+01 0.40596920532E+01 0.46521293556E+01 0.54965284380E+01 0.65981975699E+01
 0.79255933893E+01 0.93931033770E+01 0.10824552033E+02 0.11733132646E+02 0.11512840648E+02
 0.97762811177E+01 0.65738185095E+01 0.24882063616E+01 -.14688493911E+01 -.10084348961E+01
 -.31118053808E+01 -.31621638189E+01 -.11493252368E+01 0.22847648779E+01 0.61138898322E+01
 0.93223338854E+01 0.11239492745E+02 0.11693209739E+02 0.10965258266E+02 0.96062711756E+01
 0.81441216725E+01 0.67947818788E+01 0.56550244424E+01 0.47667380262E+01 0.41312769546E+01
 0.37294477324E+01 0.35388450187E+01 0.35452819266E+01 0.37483428983E+01 0.41614823716E+01
 0.48067140279E+01 0.57034077709E+01 0.68509284479E+01 0.82083057309E+01 0.96794903339E+01
 0.11057423288E+02 0.11822664889E+02 0.11415378620E+02 0.95369813015E+01 0.63416446680E+01
 0.24882063616E+01 0.31773980171E+01 0.30602890940E+00 -.11493451394E+01 -.71935366165E+00
 0.14471907129E+01 0.46492987081E+01 0.79244776148E+01 0.10411692453E+02 0.11622679337E+02
 0.11533950714E+02 0.10504395569E+02 0.90780208872E+01 0.76536498539E+01 0.63768281765E+01
 0.53238708825E+01 0.45213750913E+01 0.39624613938E+01 0.36257917997E+01 0.34905596365E+01
 0.35457535868E+01 0.37941813338E+01 0.42514641052E+01 0.49397566853E+01 0.58756163016E+01
 0.70522928951E+01 0.84207069642E+01 0.98779663996E+01 0.11196435619E+02 0.11861629684E+02
 0.11378114702E+02 0.95369813015E+01 0.65738185095E+01 0.72309812521E+01 0.44502167395E+01
 0.22847618641E+01 0.14471884790E+01 0.22187086318E+01 0.43304869878E+01 0.70821798341E+01
 0.96307705727E+01 0.11302375853E+02 0.11794409342E+02 0.11212243377E+02 0.99600059050E+01
 0.85244492325E+01 0.71574384447E+01 0.59660921934E+01 0.50061863805E+01 0.42907043811E+01
 0.38066154243E+01 0.35317795858E+01 0.34474734636E+01 0.35459216890E+01 0.38329436251E+01
 0.43256618027E+01 0.50453383225E+01 0.60050063347E+01 0.71923408874E+01 0.85524706010E+01
 0.99795675487E+01 0.11242655216E+02 0.11861629684E+02 0.11415378620E+02 0.97762811177E+01
 0.10204320607E+02 0.82013194764E+01 0.61139004977E+01 0.46493113409E+01 0.43304984243E+01
 0.52735029834E+01 0.71393050232E+01 0.92834859120E+01 0.11020848078E+02 0.11875039198E+02
 0.11714159052E+02 0.10742016496E+02 0.93722351337E+01 0.79675317722E+01 0.66752175612E+01
 0.55781367275E+01 0.47133722585E+01 0.40827690252E+01 0.36690304236E+01 0.34503545037E+01
 0.34107384049E+01 0.35456617343E+01 0.38632198921E+01 0.43809506574E+01 0.51184572961E+01
 0.60852025987E+01 0.72642203160E+01 0.85972108905E+01 0.99795675487E+01 0.11196435619E+02
 0.11822664889E+02 0.11512840648E+02 0.11629863101E+02 0.10729644798E+02 0.93223381668E+01
 0.79244926492E+01 0.70822004073E+01 0.71393217573E+01 0.80852715458E+01 0.95619572267E+01
 0.11022770472E+02 0.11957666433E+02 0.12078206222E+02 0.11394279785E+02 0.10171186558E+02
 0.87795906244E+01 0.74302307165E+01 0.62258488888E+01 0.52272120258E+01 0.44554653806E+01
 0.39041372246E+01 0.35537783081E+01 0.33840358072E+01 0.33817674527E+01 0.35451691728E+01
 0.38838303074E+01 0.44149559722E+01 0.51558854461E+01 0.61124340786E+01 0.72642203160E+01
 0.85524706010E+01 0.98779663996E+01 0.11057423288E+02 0.11733132646E+02 0.11573116513E+02
 0.11709733986E+02 0.11239497651E+02 0.10411698817E+02 0.96307819758E+01 0.92835043489E+01
 0.95619735723E+01 0.10373717334E+02 0.11385334556E+02 0.12172580278E+02 0.12397786749E+02
 0.11934504404E+02 0.10896512285E+02 0.95702837887E+01 0.82098799777E+01 0.69353906217E+01
 0.58266207599E+01 0.49252783783E+01 0.42403363477E+01 0.37600329019E+01 0.34643821869E+01
 0.33350152947E+01 0.33616148464E+01 0.35446288593E+01 0.38942749856E+01 0.44264825349E+01
 0.51558854461E+01 0.60852025987E+01 0.71923408874E+01 0.84207069642E+01 0.96794903339E+01
 0.10824552033E+02 0.10499153044E+02 0.11321878101E+02 0.11693225610E+02 0.11622687674E+02
 0.11302378596E+02 0.11020854425E+02 0.11022785107E+02 0.11385348106E+02 0.11977282566E+02
 0.12520755092E+02 0.12719850255E+02 0.12389737541E+02 0.11529900152E+02 0.10317276086E+02
 0.89924390591E+01 0.76905972650E+01 0.65036029390E+01 0.54917143423E+01 0.46817420474E+01
 0.40742002831E+01 0.36544607307E+01 0.34033063092E+01 0.33048443729E+01 0.33512871014E+01
 0.35444492466E+01 0.38942749856E+01 0.44149559722E+01 0.51184572961E+01 0.60050063347E+01
 0.70522928951E+01 0.82083057309E+01 0.93931033770E+01 0.90315040600E+01 0.10087927933E+02
 0.10965267392E+02 0.11533963538E+02 0.11794419813E+02 0.11875043727E+02 0.11957669205E+02
 0.12172588320E+02 0.12520764827E+02 0.12866491545E+02 0.13002861541E+02 0.12752750462E+02
 0.12054033028E+02 0.10991748142E+02 0.97517965241E+01 0.84710724791E+01 0.72462727619E+01
 0.61517846620E+01 0.52321594407E+01 0.45034896827E+01 0.39612334985E+01 0.35900336109E+01
 0.33723429484E+01 0.32946996331E+01 0.33512871014E+01 0.35446288593E+01 0.38838303074E+01
 0.43809506574E+01 0.50453383225E+01 0.58756163016E+01 0.68509284479E+01 0.79255933893E+01
 0.75855837158E+01 0.86094818812E+01 0.96062614709E+01 0.10504397306E+02 0.11212257285E+02
 0.11714172760E+02 0.12078208449E+02 0.12397783473E+02 0.12719854767E+02 0.13002871147E+02
 0.13129364488E+02 0.12965054706E+02 0.12431105889E+02 0.11552477182E+02 0.10452131841E+02
 0.92481161352E+01 0.80354169194E+01 0.68969061323E+01 0.58925263009E+01 0.50553862840E+01
 0.43948824675E+01 0.39041378295E+01 0.35684207248E+01 0.33723429484E+01 0.33048443729E+01
 0.33616148464E+01 0.35451691728E+01 0.38632198921E+01 0.43256618027E+01 0.49397566853E+01
 0.57034077709E+01 0.65981975699E+01 0.63057261337E+01 0.72032042891E+01 0.81441157947E+01
 0.90780133025E+01 0.99600045450E+01 0.10742025161E+02 0.11394289773E+02 0.11934505486E+02
 0.12389734799E+02 0.12752755815E+02 0.12965064612E+02 0.12938286121E+02 0.12601534355E+02
 0.11947604927E+02 0.11045693105E+02 0.99811212650E+01 0.88403939835E+01 0.77085676805E+01
 0.66566904512E+01 0.57339615942E+01 0.49659742551E+01 0.43584559077E+01 0.39041378295E+01
 0.35900336109E+01 0.34033063092E+01 0.33350152947E+01 0.33817674527E+01 0.35456617343E+01
 0.38329436251E+01 0.42514641052E+01 0.48067140279E+01 0.54965284380E+01 0.52645190047E+01
 0.59868263595E+01 0.67947956069E+01 0.76536561766E+01 0.85244396624E+01 0.93722258052E+01
 0.10171193045E+02 0.10896525306E+02 0.11529902536E+02 0.12054028758E+02 0.12431110196E+02
 0.12601544277E+02 0.12506919055E+02 0.12123896360E+02 0.11477361336E+02 0.10618014245E+02
 0.96170419137E+01 0.85544862432E+01 0.75063845639E+01 0.65345290438E+01 0.56806695647E+01
 0.49659742551E+01 0.43948824675E+01 0.39612334985E+01 0.36544607307E+01 0.34643821869E+01
 0.33840358072E+01 0.34107384049E+01 0.35459216890E+01 0.37941813338E+01 0.41614823716E+01
 0.46521293556E+01 0.44831849907E+01 0.50178396460E+01 0.56550355220E+01 0.63768504426E+01
 0.71574466814E+01 0.79675236765E+01 0.87795862659E+01 0.95702937186E+01 0.10317286306E+02
 0.10991745754E+02 0.11552471915E+02 0.11947610034E+02 0.12123905195E+02 0.12043500644E+02
 0.11695748353E+02 0.11101690783E+02 0.10310036076E+02 0.93875570548E+01 0.84074172767E+01
 0.74380475611E+01 0.65345290438E+01 0.57339615942E+01 0.50553862840E+01 0.45034896827E+01
 0.40742002831E+01 0.37600329019E+01 0.35537783081E+01 0.34503545037E+01 0.34474734636E+01
 0.35457535868E+01 0.37483428983E+01 0.40596920532E+01 0.39507205961E+01 0.43071250710E+01
 0.47667337415E+01 0.53238881698E+01 0.59661203199E+01 0.66752342020E+01 0.74302292867E+01
 0.82098763145E+01 0.89924449607E+01 0.97518037758E+01 0.10452130654E+02 0.11045689283E+02
 0.11477363576E+02 0.11695752814E+02 0.11666338006E+02 0.11380943980E+02 0.10860179037E+02
 0.10149208957E+02 0.93092755934E+01 0.84074172767E+01 0.75063845639E+01 0.66566904512E+01
 0.58925263009E+01 0.52321594407E+01 0.46817420474E+01 0.42403363477E+01 0.39041372246E+01
 0.36690304236E+01 0.35317795858E+01 0.34905596365E+01 0.35452819266E+01 0.36976712768E+01
 0.36443306749E+01 0.38390848982E+01 0.41312913178E+01 0.45213939788E+01 0.50062178927E+01
 0.55781687424E+01 0.62258618038E+01 0.69353860776E+01 0.76905949545E+01 0.84710807898E+01
 0.92481238602E+01 0.99811193246E+01 0.10618008573E+02 0.11101689195E+02 0.11380944762E+02
 0.11421726168E+02 0.11214673526E+02 0.10777017721E+02 0.10149208957E+02 0.93875570548E+01
 0.85544862432E+01 0.77085676805E+01 0.68969061323E+01 0.61517846620E+01 0.54917143423E+01
 0.49252783783E+01 0.44554653806E+01 0.40827690252E+01 0.38066154243E+01 0.36257917997E+01
 0.35388450187E+01 0.35448733682E+01 0.35446505272E+01 0.35907144793E+01 0.37295121842E+01
 0.39625184976E+01 0.42907463241E+01 0.47134023701E+01 0.52272312499E+01 0.58266283246E+01
 0.65036033020E+01 0.72462733653E+01 0.80354203536E+01 0.88403970706E+01 0.96170415931E+01
 0.10310032862E+02 0.10860175337E+02 0.11214671254E+02 0.11337152197E+02 0.11214673526E+02
 0.10860179037E+02 0.10310036076E+02 0.96170419137E+01 0.88403939835E+01 0.80354169194E+01
 0.72462727619E+01 0.65036029390E+01 0.58266207599E+01 0.52272120258E+01 0.47133722585E+01
 0.42907043811E+01 0.39624613938E+01 0.37294477324E+01 0.35906690336E+01 0.36443388070E+01
 0.35449280711E+01 0.35389411371E+01 0.36258940698E+01 0.38066909804E+01 0.40828113053E+01
 0.44554872680E+01 0.49252914247E+01 0.54917196874E+01 0.61517808698E+01 0.68968988720E+01
 0.77085663341E+01 0.85544920168E+01 0.93875612462E+01 0.10149205674E+02 0.10777011745E+02
 0.11214671254E+02 0.11421726168E+02 0.11380943980E+02 0.11101690783E+02 0.10618014245E+02
 0.99811212650E+01 0.92481161352E+01 0.84710724791E+01 0.76905972650E+01 0.69353906217E+01
 0.62258488888E+01 0.55781367275E+01 0.50061863805E+01 0.45213750913E+01 0.41312769546E+01
 0.38390713447E+01 0.39507593854E+01 0.36977375658E+01 0.35453786022E+01 0.34906717431E+01
 0.35318832050E+01 0.36691059867E+01 0.39041769699E+01 0.42403469976E+01 0.46817390640E+01
 0.52321536356E+01 0.58925188576E+01 0.66566825322E+01 0.75063823128E+01 0.84074219064E+01
 0.93092787846E+01 0.10149205674E+02 0.10860175337E+02 0.11380944762E+02 0.11666338006E+02
 0.11695748353E+02 0.11477361336E+02 0.11045693105E+02 0.10452131841E+02 0.97517965241E+01
 0.89924390591E+01 0.82098799777E+01 0.74302307165E+01 0.66752175612E+01 0.59660921934E+01
 0.53238708825E+01 0.47667380262E+01 0.43071464890E+01 0.44832424300E+01 0.40597747322E+01
 0.37484385688E+01 0.35458548529E+01 0.34475763446E+01 0.34504478306E+01 0.35538399015E+01
 0.37600489128E+01 0.40741858704E+01 0.45034746804E+01 0.50553810453E+01 0.57339543413E+01
 0.65345155873E+01 0.74380405389E+01 0.84074219064E+01 0.93875612462E+01 0.10310032862E+02
 0.11101689195E+02 0.11695752814E+02 0.12043500644E+02 0.12123896360E+02 0.11947604927E+02
 0.11552477182E+02 0.10991748142E+02 0.10317276086E+02 0.95702837887E+01 0.87795906244E+01
 0.79675317722E+01 0.71574384447E+01 0.63768281765E+01 0.56550244424E+01 0.50178614632E+01
 0.52645536798E+01 0.46521979016E+01 0.41615754433E+01 0.37942822993E+01 0.35460152093E+01
 0.34108174459E+01 0.33840944408E+01 0.34644087322E+01 0.36544516711E+01 0.39612074208E+01
 0.43948628787E+01 0.49659634193E+01 0.56806564299E+01 0.65345155873E+01 0.75063823128E+01
 0.85544920168E+01 0.96170415931E+01 0.10618008573E+02 0.11477363576E+02 0.12123905195E+02
 0.12506919055E+02 0.12601534355E+02 0.12431105889E+02 0.12054033028E+02 0.11529900152E+02
 0.10896512285E+02 0.10171186558E+02 0.93722351337E+01 0.85244492325E+01 0.76536498539E+01
 0.67947818788E+01 0.59868288139E+01 0.63057314696E+01 0.54965543277E+01 0.48067768461E+01
 0.42515568063E+01 0.38330337610E+01 0.35457236893E+01 0.33818050214E+01 0.33350399830E+01
 0.34033107996E+01 0.35900078598E+01 0.39040972039E+01 0.43584275785E+01 0.49659634193E+01
 0.57339543413E+01 0.66566825322E+01 0.77085663341E+01 0.88403970706E+01 0.99811193246E+01
 0.11045689283E+02 0.11947610034E+02 0.12601544277E+02 0.12938286121E+02 0.12965054706E+02
 0.12752750462E+02 0.12389737541E+02 0.11934504404E+02 0.11394279785E+02 0.10742016496E+02
 0.99600059050E+01 0.90780208872E+01 0.81441216725E+01 0.72032063233E+01 0.75855893317E+01
 0.65982021076E+01 0.57034285861E+01 0.49398073920E+01 0.43257310796E+01 0.38632780818E+01
 0.35452005206E+01 0.33616282447E+01 0.33048470347E+01 0.33723252791E+01 0.35683803698E+01
 0.39040972039E+01 0.43948628787E+01 0.50553810453E+01 0.58925188576E+01 0.68968988720E+01
 0.80354203536E+01 0.92481238602E+01 0.10452130654E+02 0.11552471915E+02 0.12431110196E+02
 0.12965064612E+02 0.13129364488E+02 0.13002861541E+02 0.12719850255E+02 0.12397786749E+02
 0.12078206222E+02 0.11714159052E+02 0.11212243377E+02 0.10504395569E+02 0.96062711756E+01
 0.86094931957E+01 0.90315155614E+01 0.79256083967E+01 0.68509368433E+01 0.58756237443E+01
 0.50453631793E+01 0.43809949368E+01 0.38838693502E+01 0.35446409630E+01 0.33512780367E+01
 0.32946854847E+01 0.33723252791E+01 0.35900078598E+01 0.39612074208E+01 0.45034746804E+01
 0.52321536356E+01 0.61517808698E+01 0.72462733653E+01 0.84710807898E+01 0.97518037758E+01
 0.10991745754E+02 0.12054028758E+02 0.12752755815E+02 0.13002871147E+02 0.12866491545E+02
 0.12520755092E+02 0.12172580278E+02 0.11957666433E+02 0.11875039198E+02 0.11794409342E+02
 0.11533950714E+02 0.10965258266E+02 0.10087928180E+02 0.10499149745E+02 0.93931160501E+01
 0.82083214971E+01 0.70522967688E+01 0.60050045430E+01 0.51184701496E+01 0.44149842005E+01
 0.38942940551E+01 0.35444457078E+01 0.33512780367E+01 0.33048470347E+01 0.34033107996E+01
 0.36544516711E+01 0.40741858704E+01 0.46817390640E+01 0.54917196874E+01 0.65036033020E+01
 0.76905949545E+01 0.89924449607E+01 0.10317286306E+02 0.11529902536E+02 0.12389734799E+02
 0.12719854767E+02 0.12520764827E+02 0.11977282566E+02 0.11385334556E+02 0.11022770472E+02
 0.11020848078E+02 0.11302375853E+02 0.11622679337E+02 0.11693209739E+02 0.11321862500E+02
 0.11573104506E+02 0.10824540834E+02 0.96794927193E+01 0.84207219427E+01 0.71923503568E+01
 0.60851988767E+01 0.51558843536E+01 0.44264967450E+01 0.38942940551E+01 0.35446409630E+01
 0.33616282447E+01 0.33350399830E+01 0.34644087322E+01 0.37600489128E+01 0.42403469976E+01
 0.49252914247E+01 0.58266283246E+01 0.69353860776E+01 0.82098763145E+01 0.95702937186E+01
 0.10896525306E+02 0.11934505486E+02 0.12397783473E+02 0.12172588320E+02 0.11385348106E+02
 0.10373717334E+02 0.95619572267E+01 0.92834859120E+01 0.96307705727E+01 0.10411692453E+02
 0.11239492745E+02 0.11709727123E+02 0.11629869215E+02 0.11733122044E+02 0.11057404710E+02
 0.98779653339E+01 0.85524877256E+01 0.72642276615E+01 0.61124230143E+01 0.51558843536E+01
 0.44149842005E+01 0.38838693502E+01 0.35452005206E+01 0.33818050214E+01 0.33840944408E+01
 0.35538399015E+01 0.39041769699E+01 0.44554872680E+01 0.52272312499E+01 0.62258618038E+01
 0.74302292867E+01 0.87795862659E+01 0.10171193045E+02 0.11394289773E+02 0.12078208449E+02
 0.11957669205E+02 0.11022785107E+02 0.95619735723E+01 0.80852715458E+01 0.71393050232E+01
 0.70821798341E+01 0.79244776148E+01 0.93223338854E+01 0.10729652069E+02 0.10204338659E+02
 0.11512862055E+02 0.11822663152E+02 0.11196415301E+02 0.99795600075E+01 0.85972231713E+01
 0.72642276615E+01 0.60851988767E+01 0.51184701496E+01 0.43809949368E+01 0.38632780818E+01
 0.35457236893E+01 0.34108174459E+01 0.34504478306E+01 0.36691059867E+01 0.40828113053E+01
 0.47134023701E+01 0.55781687424E+01 0.66752342020E+01 0.79675236765E+01 0.93722258052E+01
 0.10742025161E+02 0.11714172760E+02 0.11875043727E+02 0.11020854425E+02 0.92835043489E+01
 0.71393217573E+01 0.52735029834E+01 0.43304869878E+01 0.46492987081E+01 0.61138898322E+01
 0.82013189483E+01 0.72309860581E+01 0.97763139765E+01 0.11415415855E+02 0.11861631440E+02
 0.11242630265E+02 0.99795600075E+01 0.85524877256E+01 0.71923503568E+01 0.60050045430E+01
 0.50453631793E+01 0.43257310796E+01 0.38330337610E+01 0.35460152093E+01 0.34475763446E+01
 0.35318832050E+01 0.38066909804E+01 0.42907463241E+01 0.50062178927E+01 0.59661203199E+01
 0.71574466814E+01 0.85244396624E+01 0.99600045450E+01 0.11212257285E+02 0.11794419813E+02
 0.11302378596E+02 0.96307819758E+01 0.70822004073E+01 0.43304984243E+01 0.22187086318E+01
 0.14471907129E+01 0.22847648779E+01 0.44502124103E+01 0.31774041990E+01 0.65738308752E+01
 0.95370222385E+01 0.11378155356E+02 0.11861631440E+02 0.11196415301E+02 0.98779653339E+01
 0.84207219427E+01 0.70522967688E+01 0.58756237443E+01 0.49398073920E+01 0.42515568063E+01
 0.37942822993E+01 0.35458548529E+01 0.34906717431E+01 0.36258940698E+01 0.39625184976E+01
 0.45213939788E+01 0.53238881698E+01 0.63768504426E+01 0.76536561766E+01 0.90780133025E+01
 0.10504397306E+02 0.11533963538E+02 0.11622687674E+02 0.10411698817E+02 0.79244926492E+01
 0.46493113409E+01 0.14471884790E+01 -.71935366165E+00 -.11493252368E+01 0.30605111173E+00
 -.10083953419E+01 0.24882191846E+01 0.63416585008E+01 0.95370222385E+01 0.11415415855E+02
 0.11822663152E+02 0.11057404710E+02 0.96794927193E+01 0.82083214971E+01 0.68509368433E+01
 0.57034285861E+01 0.48067768461E+01 0.41615754433E+01 0.37484385688E+01 0.35453786022E+01
 0.35389411371E+01 0.37295121842E+01 0.41312913178E+01 0.47667337415E+01 0.56550355220E+01
 0.67947956069E+01 0.81441157947E+01 0.96062614709E+01 0.10965267392E+02 0.11693225610E+02
 0.11239497651E+02 0.93223381668E+01 0.61139004977E+01 0.22847618641E+01 -.11493451394E+01
 -.31621638189E+01 -.31117674495E+01 -.41674799617E+01 -.14688038036E+01 0.24882191846E+01
 0.65738308752E+01 0.97763139765E+01 0.11512862055E+02 0.11733122044E+02 0.10824540834E+02
 0.93931160501E+01 0.79256083967E+01 0.65982021076E+01 0.54965543277E+01 0.46521979016E+01
 0.40597747322E+01 0.36977375658E+01 0.35449280711E+01 0.35907144793E+01 0.38390848982E+01
 0.43071250710E+01 0.50178396460E+01 0.59868263595E+01 0.72032042891E+01 0.86094818812E+01
 0.10087927933E+02 0.11321878101E+02 0.11709733986E+02 0.10729644798E+02 0.82013194764E+01
 0.44502167395E+01 0.30602890940E+00 -.31118053808E+01 -.47787696002E+01 -.41673671262E+01
 -.33027906392E+01 -.52000595760E+00 0.33303933486E+01 0.71593228120E+01 0.10034656282E+02
 0.11458733799E+02 0.11445341220E+02 0.10412015141E+02 0.89574781722E+01 0.75087451956E+01
 0.62170307026E+01 0.51589640122E+01 0.43585800414E+01 0.38057204793E+01 0.34769427135E+01
 0.33513755087E+01 0.34197571633E+01 0.36876632806E+01 0.41735995942E+01 0.49014900566E+01
 0.58864633586E+01 0.71146826940E+01 0.85233081306E+01 0.99870792477E+01 0.11163307772E+02
 0.11456776318E+02 0.10386301183E+02 0.78302640991E+01 0.41678136999E+01 0.24846682630E+00
 -.28428994605E+01 -.33028282167E+01 -.41674738344E+01 -.28429487250E+01 0.24851134270E+00
 0.41678551470E+01 0.78302284418E+01 0.10386245217E+02 0.11456788432E+02 0.11163365684E+02
 0.99870864969E+01 0.85232472542E+01 0.71146435692E+01 0.58865036985E+01 0.49015481581E+01
 0.41735950251E+01 0.36876218140E+01 0.34197586154E+01 0.33514123594E+01 0.34769269684E+01
 0.38056337505E+01 0.43585182602E+01 0.51589935623E+01 0.62170860395E+01 0.75087369897E+01
 0.89574353099E+01 0.10412026543E+02 0.11445396795E+02 0.11458734511E+02 0.10034581790E+02
 0.71592770378E+01 0.33304428593E+01 -.51994434822E+00 -.42654266858E+00 -.27415342548E+01
 -.31116697639E+01 -.14286761979E+01 0.17633727297E+01 0.54946450739E+01 0.87467112407E+01
 0.10798769006E+02 0.11409995817E+02 0.10804364815E+02 0.95037320749E+01 0.80544186911E+01
 0.67018062438E+01 0.55501655922E+01 0.46471190623E+01 0.39966975736E+01 0.35799359875E+01
 0.33734437756E+01 0.33616598621E+01 0.35428313003E+01 0.39296070826E+01 0.45444656637E+01
 0.54092966083E+01 0.65284775219E+01 0.78681822561E+01 0.93404150896E+01 0.10765738508E+02
 0.11664542116E+02 0.11467985963E+02 0.98368146356E+01 0.68586505630E+01 0.31174048654E+01
 0.35667176005E+01 0.51764715475E+00 -.12381313573E+01 -.11493488743E+01 0.73813279254E+00
 0.38023076454E+01 0.71034134036E+01 0.97441730934E+01 0.11164710345E+02 0.11267744263E+02
 0.10362684618E+02 0.89821115776E+01 0.75676969681E+01 0.62857209186E+01 0.52208818492E+01
 0.44052891917E+01 0.38341948599E+01 0.34861818024E+01 0.33394457379E+01 0.33817778449E+01
 0.36150231072E+01 0.40545828807E+01 0.47237138579E+01 0.56419070508E+01 0.68073696176E+01
 0.81774728861E+01 0.96559900809E+01 0.11040214109E+02 0.11835093104E+02 0.11524091789E+02
 0.98512744701E+01 0.69888196615E+01 0.75355051738E+01 0.46131825654E+01 0.21768117170E+01
 0.99595731039E+00 0.14472325896E+01 0.33565369651E+01 0.60759362758E+01 0.87525410531E+01
 0.10651047843E+02 0.11386987567E+02 0.10996360109E+02 0.98476928361E+01 0.84420038797E+01
 0.70802581743E+01 0.58816951517E+01 0.49104305672E+01 0.41841864200E+01 0.36913639068E+01
 0.34094616131E+01 0.33188160553E+01 0.34107229845E+01 0.36904875807E+01 0.41755777967E+01
 0.48888571202E+01 0.58464802803E+01 0.70407121810E+01 0.84220379398E+01 0.98895440268E+01
 0.11229446034E+02 0.11964185836E+02 0.11643035531E+02 0.10089581151E+02 0.10514198862E+02
 0.84118472347E+01 0.61003229374E+01 0.43154884542E+01 0.36549273854E+01 0.43304956931E+01
 0.60794383508E+01 0.82807235157E+01 0.10212779240E+02 0.11323767081E+02 0.11400757884E+02
 0.10590211184E+02 0.92877029601E+01 0.79016151952E+01 0.66094231636E+01 0.55037883448E+01
 0.46291758583E+01 0.39909898129E+01 0.35726655520E+01 0.33518833527E+01 0.33118338100E+01
 0.34473632733E+01 0.37665166298E+01 0.42877097592E+01 0.50324975904E+01 0.60133662621E+01
 0.72171993306E+01 0.85895848138E+01 0.10028650285E+02 0.11326684424E+02 0.12048302914E+02
 0.11813679285E+02 0.11999028959E+02 0.11045731237E+02 0.94756756068E+01 0.78095086922E+01
 0.66400278471E+01 0.63918505458E+01 0.71392844135E+01 0.85764841326E+01 0.10154157420E+02
 0.11308920823E+02 0.11674186628E+02 0.11188706613E+02 0.10077159431E+02 0.87203628146E+01
 0.73804180293E+01 0.61720865470E+01 0.51650227983E+01 0.43861660537E+01 0.38313461466E+01
 0.34812826611E+01 0.33150280818E+01 0.33187949592E+01 0.34904963570E+01 0.38401576393E+01
 0.43862802565E+01 0.51482622057E+01 0.61345520157E+01 0.73275726662E+01 0.86706663335E+01
 0.10064894270E+02 0.11324631721E+02 0.12072894652E+02 0.12015484797E+02 0.12145078316E+02
 0.11579473287E+02 0.10555826962E+02 0.94987698283E+01 0.88508893976E+01 0.88805488495E+01
 0.95619769130E+01 0.10589857968E+02 0.11518079960E+02 0.11949037790E+02 0.11685021653E+02
 0.10784585606E+02 0.95141040538E+01 0.81714963184E+01 0.68988774677E+01 0.57842476690E+01
 0.48764665927E+01 0.41884777298E+01 0.37096771594E+01 0.34198378719E+01 0.33000064115E+01
 0.33394427183E+01 0.35386879671E+01 0.39088107815E+01 0.44672829084E+01 0.52306758779E+01
 0.62036857434E+01 0.73657079265E+01 0.86603316230E+01 0.99947088634E+01 0.11215810552E+02
 0.10995828774E+02 0.11852437893E+02 0.12192740213E+02 0.12005888490E+02 0.11484556190E+02
 0.10947349058E+02 0.10695206786E+02 0.10869576626E+02 0.11385301712E+02 0.11972538846E+02
 0.12302843915E+02 0.12134015584E+02 0.11407801397E+02 0.10264583248E+02 0.89611914629E+01
 0.76660393912E+01 0.64764959192E+01 0.54595673162E+01 0.46470685871E+01 0.40417476072E+01
 0.36292559739E+01 0.33899006369E+01 0.33072724142E+01 0.33734018789E+01 0.35905545116E+01
 0.39698335194E+01 0.45270230381E+01 0.52756741270E+01 0.62171324563E+01 0.73291544938E+01
 0.85580491555E+01 0.98198438953E+01 0.95476558092E+01 0.10666322484E+02 0.11565934071E+02
 0.12092237255E+02 0.12234174484E+02 0.12129517398E+02 0.11993587248E+02 0.12006712901E+02
 0.12218588995E+02 0.12520778606E+02 0.12700704353E+02 0.12546194583E+02 0.11946978671E+02
 0.10947262432E+02 0.97261759303E+01 0.84529155596E+01 0.72279862750E+01 0.61302976685E+01
 0.52091510954E+01 0.44835315291E+01 0.39497343572E+01 0.35920840157E+01 0.33924310345E+01
 0.33368977373E+01 0.34197325400E+01 0.36441957146E+01 0.40207020681E+01 0.45627779608E+01
 0.52808623854E+01 0.61737429860E+01 0.72192371697E+01 0.83683943284E+01 0.81002493456E+01
 0.91898381520E+01 0.10238391746E+02 0.11152321306E+02 0.11816644775E+02 0.12210961675E+02
 0.12417114625E+02 0.12560098812E+02 0.12726922280E+02 0.12909379207E+02 0.13002853304E+02
 0.12860518658E+02 0.12372324458E+02 0.11528127107E+02 0.10434401360E+02 0.92323755456E+01
 0.80189156836E+01 0.68783119656E+01 0.58736872955E+01 0.50408171259E+01 0.43902167829E+01
 0.39148458877E+01 0.35992804762E+01 0.34274698219E+01 0.33880366653E+01 0.34769370692E+01
 0.36976119565E+01 0.40591038296E+01 0.45725163968E+01 0.52456093402E+01 0.60755228951E+01
 0.70413732812E+01 0.68041173156E+01 0.77662547838E+01 0.87623213503E+01 0.97343657419E+01
 0.10626926756E+02 0.11370287490E+02 0.11932034455E+02 0.12344239373E+02 0.12660297734E+02
 0.12902195831E+02 0.13032006548E+02 0.12965078721E+02 0.12616914957E+02 0.11957044219E+02
 0.11040238622E+02 0.99659821373E+01 0.88194105869E+01 0.76843846784E+01 0.66329593469E+01
 0.57158897492E+01 0.49596195341E+01 0.43697033458E+01 0.39380545253E+01 0.36507359228E+01
 0.34941912407E+01 0.34592510099E+01 0.35429461921E+01 0.37483795046E+01 0.40830112776E+01
 0.45555720470E+01 0.51715112786E+01 0.59271728428E+01 0.57359849852E+01 0.65191362332E+01
 0.73820335660E+01 0.82837843856E+01 0.91788035288E+01 0.10025907125E+02 0.10791557389E+02
 0.11443094679E+02 0.11973835841E+02 0.12386266594E+02 0.12662174901E+02 0.12753547925E+02
 0.12601534070E+02 0.12172343974E+02 0.11487149054E+02 0.10602614911E+02 0.95865317279E+01
 0.85165859436E+01 0.74680281573E+01 0.65027321661E+01 0.56625094149E+01 0.49680395669E+01
 0.44227192022E+01 0.40191060433E+01 0.37454675530E+01 0.35908531310E+01 0.35481339919E+01
 0.36151268173E+01 0.37942559066E+01 0.40911866988E+01 0.45124713090E+01 0.50619365973E+01
 0.49223872670E+01 0.55113226391E+01 0.61997506685E+01 0.69648526436E+01 0.77752027188E+01
 0.85959240807E+01 0.93949336563E+01 0.10146597208E+02 0.10829490497E+02 0.11418299535E+02
 0.11883395781E+02 0.12185278892E+02 0.12277203113E+02 0.12123908965E+02 0.11719056222E+02
 0.11083881996E+02 0.10265453678E+02 0.93286259170E+01 0.83450040105E+01 0.73819065072E+01
 0.64934895369E+01 0.57157897914E+01 0.50664762752E+01 0.45486124519E+01 0.41564742573E+01
 0.38811828956E+01 0.37146784870E+01 0.36517571065E+01 0.36907033385E+01 0.38331078730E+01
 0.40830263209E+01 0.44452380267E+01 0.43572222436E+01 0.47594689812E+01 0.52636175422E+01
 0.58605277669E+01 0.65332489258E+01 0.72587017871E+01 0.80113641612E+01 0.87668083191E+01
 0.95024971280E+01 0.10194629307E+02 0.10812764388E+02 0.11316574798E+02 0.11658833288E+02
 0.11795055512E+02 0.11695750379E+02 0.11355626467E+02 0.10796290802E+02 0.10062524064E+02
 0.92143166671E+01 0.83170287383E+01 0.74316324293E+01 0.66069140918E+01 0.58753377896E+01
 0.52532948941E+01 0.47448748382E+01 0.43470917461E+01 0.40544884063E+01 0.38620485016E+01
 0.37664999390E+01 0.37666596801E+01 0.38633730898E+01 0.40591573639E+01 0.40207711685E+01
 0.42525711178E+01 0.45808596550E+01 0.50041628601E+01 0.55161935673E+01 0.61053917323E+01
 0.67561878716E+01 0.74510841062E+01 0.81718539154E+01 0.88983217157E+01 0.96046592158E+01
 0.10255445311E+02 0.10805141216E+02 0.11203387708E+02 0.11405049219E+02 0.11380939312E+02
 0.11125012560E+02 0.10656068906E+02 0.10014373635E+02 0.92546225762E+01 0.84368623115E+01
 0.76172390451E+01 0.68407389529E+01 0.61376841658E+01 0.55244308466E+01 0.50071055718E+01
 0.45862521314E+01 0.42604681076E+01 0.40282416726E+01 0.38884271461E+01 0.38403333418E+01
 0.38840418990E+01 0.38944382761E+01 0.39699326404E+01 0.41362930754E+01 0.43944468801E+01
 0.47437783952E+01 0.51807538865E+01 0.56986491269E+01 0.62883526452E+01 0.69391263156E+01
 0.76378741707E+01 0.83662948570E+01 0.90969375508E+01 0.97906773616E+01 0.10398255862E+02
 0.10866771499E+02 0.11149358354E+02 0.11214677032E+02 0.11053255582E+02 0.10679338733E+02
 0.10128272308E+02 0.94501223506E+01 0.87008046925E+01 0.79328334773E+01 0.71882983085E+01
 0.64960155850E+01 0.58729742736E+01 0.53282792927E+01 0.48670790856E+01 0.44928326423E+01
 0.42078677617E+01 0.40132432018E+01 0.39089072203E+01 0.39698992355E+01 0.38944806223E+01
 0.39089626394E+01 0.40132392821E+01 0.42078348750E+01 0.44928507159E+01 0.48671470678E+01
 0.53283213675E+01 0.58729631049E+01 0.64960041300E+01 0.71883209987E+01 0.79328544721E+01
 0.87007903123E+01 0.94500999060E+01 0.10128279267E+02 0.10679360394E+02 0.11053254160E+02
 0.11214652974E+02 0.11149344528E+02 0.10866781337E+02 0.10398268971E+02 0.97906744812E+01
 0.90969278295E+01 0.83662994899E+01 0.76378904312E+01 0.69391236489E+01 0.62883159050E+01
 0.56986108428E+01 0.51807532101E+01 0.47437946148E+01 0.43944210919E+01 0.41362253494E+01
 0.42526011353E+01 0.40207540546E+01 0.38839940146E+01 0.38403107814E+01 0.38884505293E+01
 0.40282815757E+01 0.42604917649E+01 0.45862606854E+01 0.50071215007E+01 0.55244591462E+01
 0.61377010337E+01 0.68407278952E+01 0.76172226678E+01 0.84368721696E+01 0.92546466733E+01
 0.10014372057E+02 0.10656040630E+02 0.11124998915E+02 0.11380951387E+02 0.11405046856E+02
 0.11203354348E+02 0.10805122397E+02 0.10255473543E+02 0.96046935222E+01 0.88983139490E+01
 0.81718297849E+01 0.74510947404E+01 0.67562147693E+01 0.61053733451E+01 0.55161313574E+01