   2   2   0   0
  0.1529437E+02  0.3691622E-09  0.3691622E-09  0.3691622E-09  0.5000000E-15
  1.000000000000000E-004
  CAR 
 unknown system                          
     23.07622169     -6.57453323  301      9.07528298      1.00000000
     -6.575  0.0000E+00  0.0000E+00
     -6.476  0.0000E+00  0.0000E+00
     -6.377  0.0000E+00  0.0000E+00
     -6.278  0.0000E+00  0.0000E+00
     -6.179  0.0000E+00  0.0000E+00
     -6.080  0.0000E+00  0.0000E+00
     -5.982  0.0000E+00  0.0000E+00
     -5.883  0.0000E+00  0.0000E+00
     -5.784  0.0000E+00  0.0000E+00
     -5.685  0.6414E-17  0.6339E-18
     -5.586  0.1317E-14  0.1308E-15
     -5.487  0.1686E-12  0.1679E-13
     -5.389  0.1337E-10  0.1338E-11
     -5.290  0.6578E-09  0.6635E-10
     -5.191  0.2016E-07  0.2059E-08
     -5.092  0.3866E-06  0.4027E-07
     -4.993  0.4685E-05  0.5033E-06
     -4.894  0.3647E-04  0.4108E-05
     -4.795  0.1881E-03  0.2270E-04
     -4.697  0.6750E-03  0.8942E-04
     -4.598  0.1785E-02  0.2658E-03
     -4.499  0.3623E-02  0.6239E-03
     -4.400  0.5730E-02  0.1190E-02
     -4.301  0.7323E-02  0.1914E-02
     -4.202  0.8454E-02  0.2750E-02
     -4.104  0.9834E-02  0.3722E-02
     -4.005  0.1123E-01  0.4831E-02
     -3.906  0.1211E-01  0.6029E-02
     -3.807  0.1304E-01  0.7317E-02
     -3.708  0.1434E-01  0.8735E-02
     -3.609  0.1539E-01  0.1026E-01
     -3.511  0.1574E-01  0.1181E-01
     -3.412  0.1553E-01  0.1335E-01
     -3.313  0.1498E-01  0.1483E-01
     -3.214  0.1516E-01  0.1633E-01
     -3.115  0.1753E-01  0.1806E-01
     -3.016  0.2134E-01  0.2017E-01
     -2.918  0.2388E-01  0.2253E-01
     -2.819  0.2313E-01  0.2481E-01
     -2.720  0.1938E-01  0.2673E-01
     -2.621  0.1632E-01  0.2834E-01
     -2.522  0.1783E-01  0.3010E-01
     -2.423  0.2225E-01  0.3230E-01
     -2.325  0.2460E-01  0.3473E-01
     -2.226  0.2418E-01  0.3712E-01
     -2.127  0.2395E-01  0.3949E-01
     -2.028  0.2489E-01  0.4195E-01
     -1.929  0.2595E-01  0.4451E-01
     -1.830  0.2624E-01  0.4711E-01
     -1.732  0.2569E-01  0.4965E-01
     -1.633  0.2532E-01  0.5215E-01
     -1.534  0.2579E-01  0.5470E-01
     -1.435  0.2654E-01  0.5732E-01
     -1.336  0.2772E-01  0.6006E-01
     -1.237  0.3044E-01  0.6307E-01
     -1.139  0.3310E-01  0.6634E-01
     -1.040  0.3165E-01  0.6947E-01
     -0.941  0.2643E-01  0.7208E-01
     -0.842  0.2243E-01  0.7430E-01
     -0.743  0.2301E-01  0.7657E-01
     -0.644  0.2783E-01  0.7932E-01
     -0.546  0.3431E-01  0.8272E-01
     -0.447  0.3911E-01  0.8658E-01
     -0.348  0.3984E-01  0.9052E-01
     -0.249  0.3721E-01  0.9420E-01
     -0.150  0.3480E-01  0.9764E-01
     -0.051  0.3473E-01  0.1011E+00
      0.047  0.3484E-01  0.1045E+00
      0.146  0.3310E-01  0.1078E+00
      0.245  0.3158E-01  0.1109E+00
      0.344  0.3202E-01  0.1141E+00
      0.443  0.3328E-01  0.1174E+00
      0.542  0.3511E-01  0.1208E+00
      0.640  0.3872E-01  0.1247E+00
      0.739  0.4323E-01  0.1289E+00
      0.838  0.4466E-01  0.1333E+00
      0.937  0.4130E-01  0.1374E+00
      1.036  0.3719E-01  0.1411E+00
      1.135  0.3713E-01  0.1448E+00
      1.233  0.4118E-01  0.1488E+00
      1.332  0.4433E-01  0.1532E+00
      1.431  0.4175E-01  0.1573E+00
      1.530  0.3424E-01  0.1607E+00
      1.629  0.2764E-01  0.1635E+00
      1.728  0.2771E-01  0.1662E+00
      1.827  0.3380E-01  0.1695E+00
      1.925  0.4009E-01  0.1735E+00
      2.024  0.4322E-01  0.1778E+00
      2.123  0.4295E-01  0.1820E+00
      2.222  0.3987E-01  0.1860E+00
      2.321  0.3706E-01  0.1896E+00
      2.420  0.3674E-01  0.1933E+00
      2.518  0.3629E-01  0.1968E+00
      2.617  0.3400E-01  0.2002E+00
      2.716  0.3156E-01  0.2033E+00
      2.815  0.3031E-01  0.2063E+00
      2.914  0.3074E-01  0.2094E+00
      3.013  0.3384E-01  0.2127E+00
      3.111  0.4053E-01  0.2167E+00
      3.210  0.4891E-01  0.2215E+00
      3.309  0.5392E-01  0.2269E+00
      3.408  0.5268E-01  0.2321E+00
      3.507  0.4686E-01  0.2367E+00
      3.606  0.4059E-01  0.2407E+00
      3.704  0.3855E-01  0.2445E+00
      3.803  0.4081E-01  0.2486E+00
      3.902  0.4256E-01  0.2528E+00
      4.001  0.4222E-01  0.2569E+00
      4.100  0.4283E-01  0.2612E+00
      4.199  0.4547E-01  0.2657E+00
      4.297  0.4661E-01  0.2703E+00
      4.396  0.4343E-01  0.2746E+00
      4.495  0.3998E-01  0.2785E+00
      4.594  0.4261E-01  0.2827E+00
      4.693  0.4970E-01  0.2876E+00
      4.792  0.5458E-01  0.2930E+00
      4.890  0.5567E-01  0.2985E+00
      4.989  0.5440E-01  0.3039E+00
      5.088  0.5121E-01  0.3090E+00
      5.187  0.4771E-01  0.3137E+00
      5.286  0.4552E-01  0.3182E+00
      5.385  0.4503E-01  0.3226E+00
      5.483  0.4640E-01  0.3272E+00
      5.582  0.4931E-01  0.3321E+00
      5.681  0.5300E-01  0.3373E+00
      5.780  0.5693E-01  0.3430E+00
      5.879  0.6051E-01  0.3489E+00
      5.978  0.6288E-01  0.3552E+00
      6.076  0.6255E-01  0.3613E+00
      6.175  0.5930E-01  0.3672E+00
      6.274  0.5552E-01  0.3727E+00
      6.373  0.5313E-01  0.3779E+00
      6.472  0.5413E-01  0.3833E+00
      6.571  0.5975E-01  0.3892E+00
      6.669  0.6477E-01  0.3956E+00
      6.768  0.6381E-01  0.4019E+00
      6.867  0.5860E-01  0.4077E+00
      6.966  0.5283E-01  0.4129E+00
      7.065  0.4961E-01  0.4178E+00
      7.164  0.5126E-01  0.4229E+00
      7.262  0.5778E-01  0.4286E+00
      7.361  0.6819E-01  0.4353E+00
      7.460  0.7850E-01  0.4431E+00
      7.559  0.8154E-01  0.4512E+00
      7.658  0.7450E-01  0.4585E+00
      7.757  0.6187E-01  0.4646E+00
      7.856  0.5138E-01  0.4697E+00
      7.954  0.4876E-01  0.4745E+00
      8.053  0.5288E-01  0.4798E+00
      8.152  0.5874E-01  0.4856E+00
      8.251  0.6256E-01  0.4918E+00
      8.350  0.6132E-01  0.4978E+00
      8.449  0.5500E-01  0.5032E+00
      8.547  0.4844E-01  0.5080E+00
      8.646  0.4599E-01  0.5126E+00
      8.745  0.4754E-01  0.5173E+00
      8.844  0.4970E-01  0.5222E+00
      8.943  0.4935E-01  0.5271E+00
      9.042  0.4743E-01  0.5318E+00
      9.140  0.4676E-01  0.5364E+00
      9.239  0.4672E-01  0.5410E+00
      9.338  0.4530E-01  0.5455E+00
      9.437  0.4478E-01  0.5499E+00
      9.536  0.4803E-01  0.5546E+00
      9.635  0.5205E-01  0.5598E+00
      9.733  0.5195E-01  0.5649E+00
      9.832  0.4727E-01  0.5696E+00
      9.931  0.4215E-01  0.5738E+00
     10.030  0.4081E-01  0.5778E+00
     10.129  0.4266E-01  0.5820E+00
     10.228  0.4384E-01  0.5863E+00
     10.326  0.4332E-01  0.5906E+00
     10.425  0.4315E-01  0.5949E+00
     10.524  0.4422E-01  0.5993E+00
     10.623  0.4525E-01  0.6037E+00
     10.722  0.4585E-01  0.6083E+00
     10.821  0.4796E-01  0.6130E+00
     10.919  0.5247E-01  0.6182E+00
     11.018  0.5826E-01  0.6239E+00
     11.117  0.6428E-01  0.6303E+00
     11.216  0.7047E-01  0.6373E+00
     11.315  0.7740E-01  0.6449E+00
     11.414  0.8195E-01  0.6530E+00
     11.512  0.7808E-01  0.6607E+00
     11.611  0.6778E-01  0.6674E+00
     11.710  0.5890E-01  0.6733E+00
     11.809  0.5352E-01  0.6785E+00
     11.908  0.5183E-01  0.6837E+00
     12.007  0.5556E-01  0.6892E+00
     12.105  0.6022E-01  0.6951E+00
     12.204  0.5981E-01  0.7010E+00
     12.303  0.5680E-01  0.7066E+00
     12.402  0.5519E-01  0.7121E+00
     12.501  0.5461E-01  0.7175E+00
     12.600  0.5615E-01  0.7230E+00
     12.698  0.6234E-01  0.7292E+00
     12.797  0.7223E-01  0.7363E+00
     12.896  0.8183E-01  0.7444E+00
     12.995  0.8559E-01  0.7529E+00
     13.094  0.8012E-01  0.7608E+00
     13.193  0.6979E-01  0.7677E+00
     13.291  0.6284E-01  0.7739E+00
     13.390  0.6270E-01  0.7801E+00
     13.489  0.6656E-01  0.7867E+00
     13.588  0.6891E-01  0.7935E+00
     13.687  0.6774E-01  0.8002E+00
     13.786  0.6769E-01  0.8069E+00
     13.884  0.7321E-01  0.8141E+00
     13.983  0.8122E-01  0.8221E+00
     14.082  0.8470E-01  0.8305E+00
     14.181  0.8086E-01  0.8385E+00
     14.280  0.7423E-01  0.8458E+00
     14.379  0.7051E-01  0.8528E+00
     14.478  0.6992E-01  0.8597E+00
     14.576  0.6919E-01  0.8666E+00
     14.675  0.6608E-01  0.8731E+00
     14.774  0.6094E-01  0.8791E+00
     14.873  0.5557E-01  0.8846E+00
     14.972  0.5180E-01  0.8897E+00
     15.071  0.5193E-01  0.8949E+00
     15.169  0.5658E-01  0.9005E+00
     15.268  0.6209E-01  0.9066E+00
     15.367  0.6422E-01  0.9129E+00
     15.466  0.6201E-01  0.9191E+00
     15.565  0.5706E-01  0.9247E+00
     15.664  0.5339E-01  0.9300E+00
     15.762  0.5400E-01  0.9353E+00
     15.861  0.5668E-01  0.9409E+00
     15.960  0.5724E-01  0.9466E+00
     16.059  0.5406E-01  0.9519E+00
     16.158  0.5033E-01  0.9569E+00
     16.257  0.5092E-01  0.9619E+00
     16.355  0.5489E-01  0.9674E+00
     16.454  0.5632E-01  0.9729E+00
     16.553  0.5195E-01  0.9781E+00
     16.652  0.4326E-01  0.9823E+00
     16.751  0.3375E-01  0.9857E+00
     16.850  0.2787E-01  0.9884E+00
     16.948  0.2976E-01  0.9914E+00
     17.047  0.3810E-01  0.9951E+00
     17.146  0.4514E-01  0.9996E+00
     17.245  0.4476E-01  0.1004E+01
     17.344  0.3921E-01  0.1008E+01
     17.443  0.3418E-01  0.1011E+01
     17.541  0.3045E-01  0.1014E+01
     17.640  0.2611E-01  0.1017E+01
     17.739  0.2223E-01  0.1019E+01
     17.838  0.2121E-01  0.1021E+01
     17.937  0.2358E-01  0.1023E+01
     18.036  0.2831E-01  0.1026E+01
     18.134  0.3307E-01  0.1030E+01
     18.233  0.3471E-01  0.1033E+01
     18.332  0.3199E-01  0.1036E+01
     18.431  0.2698E-01  0.1039E+01
     18.530  0.2258E-01  0.1041E+01
     18.629  0.1986E-01  0.1043E+01
     18.727  0.1913E-01  0.1045E+01
     18.826  0.2125E-01  0.1047E+01
     18.925  0.2503E-01  0.1049E+01
     19.024  0.2620E-01  0.1052E+01
     19.123  0.2249E-01  0.1054E+01
     19.222  0.1606E-01  0.1056E+01
     19.320  0.9811E-02  0.1057E+01
     19.419  0.5810E-02  0.1057E+01
     19.518  0.5214E-02  0.1058E+01
     19.617  0.7434E-02  0.1059E+01
     19.716  0.1023E-01  0.1060E+01
     19.815  0.1123E-01  0.1061E+01
     19.913  0.1001E-01  0.1062E+01
     20.012  0.8179E-02  0.1063E+01
     20.111  0.7004E-02  0.1063E+01
     20.210  0.6545E-02  0.1064E+01
     20.309  0.6459E-02  0.1065E+01
     20.408  0.6128E-02  0.1065E+01
     20.506  0.4804E-02  0.1066E+01
     20.605  0.2786E-02  0.1066E+01
     20.704  0.1258E-02  0.1066E+01
     20.803  0.8211E-03  0.1066E+01
     20.902  0.1114E-02  0.1066E+01
     21.001  0.1454E-02  0.1066E+01
     21.100  0.1392E-02  0.1067E+01
     21.198  0.9458E-03  0.1067E+01
     21.297  0.4425E-03  0.1067E+01
     21.396  0.1379E-03  0.1067E+01
     21.495  0.2787E-04  0.1067E+01
     21.594  0.3588E-05  0.1067E+01
     21.693  0.2912E-06  0.1067E+01
     21.791  0.1480E-07  0.1067E+01
     21.890  0.4698E-09  0.1067E+01
     21.989  0.9280E-11  0.1067E+01
     22.088  0.1139E-12  0.1067E+01
     22.187  0.8669E-15  0.1067E+01
     22.286  0.3987E-17  0.1067E+01
     22.384  0.0000E+00  0.1067E+01
     22.483  0.0000E+00  0.1067E+01
     22.582  0.0000E+00  0.1067E+01
     22.681  0.0000E+00  0.1067E+01
     22.780  0.0000E+00  0.1067E+01
     22.879  0.0000E+00  0.1067E+01
     22.977  0.0000E+00  0.1067E+01
     23.076  0.0000E+00  0.1067E+01
