unknown system                          
   1.00000000000000     
    -2.450000    2.450000    1.274000
     2.450000   -2.450000    1.274000
     2.450000    2.450000   -1.274000
   Si
     2
Direct
  0.250000  0.750000  0.500000
  0.000000  0.000000  0.000000
 
   32   32   32
 -.53515952993E+01 -.41749912485E+01 -.10151571278E+01 0.31733167368E+01 0.72318935493E+01
 0.10211264685E+02 0.11641384227E+02 0.11585827663E+02 0.10509649476E+02 0.90381161682E+01
 0.75882531759E+01 0.63050461936E+01 0.52613030751E+01 0.44781576692E+01 0.39444657378E+01
 0.36373656268E+01 0.35374653262E+01 0.36373690023E+01 0.39444427549E+01 0.44781142473E+01
 0.52612789892E+01 0.63050464287E+01 0.75882459859E+01 0.90380971596E+01 0.10509644377E+02
 0.11585834688E+02 0.11641378494E+02 0.10211253935E+02 0.72319036584E+01 0.31733294415E+01
 -.10151806456E+01 -.41750317383E+01 -.41750317383E+01 -.47839734607E+01 -.31150661635E+01
 0.30419681623E+00 0.44502986742E+01 0.82045021084E+01 0.10736473012E+02 0.11719110365E+02
 0.11331404223E+02 0.10095306443E+02 0.86137033145E+01 0.72042752185E+01 0.59852119413E+01
 0.50141439182E+01 0.43018758441E+01 0.38327275378E+01 0.35836813822E+01 0.35376615603E+01
 0.36906834685E+01 0.40534505963E+01 0.46472567214E+01 0.54937857351E+01 0.65984896107E+01
 0.79298639497E+01 0.94019943598E+01 0.10837806573E+02 0.11748262348E+02 0.11525457822E+02
 0.97824901315E+01 0.65724700206E+01 0.24813487040E+01 -.14775447088E+01 -.10151806456E+01
 -.31150986549E+01 -.31614496315E+01 -.11462059581E+01 0.22883997706E+01 0.61173674610E+01
 0.93262676139E+01 0.11244646727E+02 0.11699370812E+02 0.10971147957E+02 0.96105015130E+01
 0.81460483173E+01 0.67943726192E+01 0.56525581619E+01 0.47625853385E+01 0.41258016330E+01
 0.37229976979E+01 0.35317779739E+01 0.35379954048E+01 0.37413085012E+01 0.41552799452E+01
 0.48020589656E+01 0.57011843501E+01 0.68521780742E+01 0.82140606356E+01 0.96903584484E+01
 0.11072814996E+02 0.11839353415E+02 0.11428403926E+02 0.95425175628E+01 0.63393559956E+01
 0.24813487040E+01 0.31733294415E+01 0.30418311880E+00 -.11462246275E+01 -.71196190294E+00
 0.14558361311E+01 0.46562327918E+01 0.79286057734E+01 0.10413895134E+02 0.11624495958E+02
 0.11536154446E+02 0.10506596085E+02 0.90793584116E+01 0.76535564330E+01 0.63751379085E+01
 0.53206591324E+01 0.45168137341E+01 0.39567654009E+01 0.36192091113E+01 0.34833939707E+01
 0.35383907600E+01 0.37871233990E+01 0.42453443832E+01 0.49353589464E+01 0.58739051939E+01
 0.70543917802E+01 0.84276688096E+01 0.98902918887E+01 0.11213169349E+02 0.11879062290E+02
 0.11391219380E+02 0.95425175628E+01 0.65724700206E+01 0.72319036584E+01 0.44503101368E+01
 0.22883958774E+01 0.14558304754E+01 0.22302304760E+01 0.43408853476E+01 0.70882735804E+01
 0.96319589185E+01 0.11300419163E+02 0.11791762043E+02 0.11210377051E+02 0.99589191691E+01
 0.85233493047E+01 0.71556755559E+01 0.59633410191E+01 0.50023439410E+01 0.42857892083E+01
 0.38007228085E+01 0.35250790752E+01 0.34402343512E+01 0.35385331995E+01 0.38259291049E+01
 0.43196801027E+01 0.50412084445E+01 0.60037394797E+01 0.71950874031E+01 0.85602274288E+01
 0.99926639083E+01 0.11259841317E+02 0.11879062290E+02 0.11428403926E+02 0.97824901315E+01
 0.10211253935E+02 0.82045038095E+01 0.61173720869E+01 0.46562365120E+01 0.43408907611E+01
 0.52842335101E+01 0.71462719672E+01 0.92842750052E+01 0.11016048762E+02 0.11867482763E+02
 0.11706902506E+02 0.10736633964E+02 0.93685212733E+01 0.79645177588E+01 0.66721492756E+01
 0.55745548623E+01 0.47090354537E+01 0.40775800179E+01 0.36629972809E+01 0.34435953418E+01
 0.34034966237E+01 0.35383205629E+01 0.38563053296E+01 0.43751305642E+01 0.51145615708E+01
 0.60842462647E+01 0.72673169308E+01 0.86052424114E+01 0.99926639083E+01 0.11213169349E+02
 0.11839353415E+02 0.11525457822E+02 0.11641378494E+02 0.10736461112E+02 0.93262612331E+01
 0.79286072433E+01 0.70882824462E+01 0.71462823665E+01 0.80898036532E+01 0.95608448420E+01
 0.11015122183E+02 0.11945497973E+02 0.12065099683E+02 0.11383231448E+02 0.10163216591E+02
 0.87739397973E+01 0.74258069043E+01 0.62218131107E+01 0.52230107584E+01 0.44507716687E+01
 0.38987766608E+01 0.35476931775E+01 0.33772950188E+01 0.33745870475E+01 0.35379221356E+01
 0.38770357440E+01 0.44092711665E+01 0.51521263963E+01 0.61115871957E+01 0.72673169308E+01
 0.85602274288E+01 0.98902918887E+01 0.11072814996E+02 0.11748262348E+02 0.11585834688E+02
 0.11719110771E+02 0.11244641026E+02 0.10413887029E+02 0.96319553211E+01 0.92842822804E+01
 0.95608561233E+01 0.10368129756E+02 0.11373688900E+02 0.12155752245E+02 0.12378894260E+02
 0.11917189689E+02 0.10883007774E+02 0.95606209026E+01 0.82029018439E+01 0.69299691492E+01
 0.58218870677E+01 0.49206436949E+01 0.42354250480E+01 0.37546046592E+01 0.34583194873E+01
 0.33283439623E+01 0.33545262822E+01 0.35374762907E+01 0.38875606137E+01 0.44208480769E+01
 0.51521263963E+01 0.60842462647E+01 0.71950874031E+01 0.84276688096E+01 0.96903584484E+01
 0.10837806573E+02 0.10509644377E+02 0.11331414124E+02 0.11699379556E+02 0.11624492920E+02
 0.11300407778E+02 0.11016042692E+02 0.11015129440E+02 0.11373699918E+02 0.11960448561E+02
 0.12498997158E+02 0.12695489837E+02 0.12366292442E+02 0.11510316074E+02 0.10302545848E+02
 0.89817464579E+01 0.76827404958E+01 0.64974870746E+01 0.54864955833E+01 0.46768305920E+01
 0.40691808828E+01 0.36490367886E+01 0.33973050063E+01 0.32982500045E+01 0.33442631650E+01
 0.35373338091E+01 0.38875606137E+01 0.44092711665E+01 0.51145615708E+01 0.60037394797E+01
 0.70543917802E+01 0.82140606356E+01 0.94019943598E+01 0.90380971596E+01 0.10095301260E+02
 0.10971152132E+02 0.11536159887E+02 0.11791762990E+02 0.11867478145E+02 0.11945494301E+02
 0.12155757227E+02 0.12499006206E+02 0.12840183038E+02 0.12973803538E+02 0.12723997864E+02
 0.12028692602E+02 0.10971545373E+02 0.97365531109E+01 0.84597962792E+01 0.72378397752E+01
 0.61451862153E+01 0.52266139614E+01 0.44984175459E+01 0.39561806617E+01 0.35846433223E+01
 0.33663895691E+01 0.32881362383E+01 0.33442631650E+01 0.35374762907E+01 0.38770357440E+01
 0.43751305642E+01 0.50412084445E+01 0.58739051939E+01 0.68521780742E+01 0.79298639497E+01
 0.75882459859E+01 0.86136884294E+01 0.96104872583E+01 0.10506592989E+02 0.11210386390E+02
 0.11706911995E+02 0.12065098252E+02 0.12378888649E+02 0.12695493856E+02 0.12973813666E+02
 0.13097275351E+02 0.12932580228E+02 0.12401202097E+02 0.11527261655E+02 0.10432102097E+02
 0.92327504658E+01 0.80238161372E+01 0.68880829237E+01 0.58855988149E+01 0.50496413687E+01
 0.43897339981E+01 0.38990814693E+01 0.35630456670E+01 0.33663895691E+01 0.32982500045E+01
 0.33545262822E+01 0.35379221356E+01 0.38563053296E+01 0.43196801027E+01 0.49353589464E+01
 0.57011843501E+01 0.65984896107E+01 0.63050464287E+01 0.72042726577E+01 0.81460396414E+01
 0.90793480484E+01 0.99589157051E+01 0.10736640833E+02 0.11383239843E+02 0.11917189876E+02
 0.12366290023E+02 0.12724004425E+02 0.12932591164E+02 0.12904438072E+02 0.12569019022E+02
 0.11918668108E+02 0.11021382562E+02 0.99615313158E+01 0.88250723577E+01 0.76967750173E+01
 0.66476133170E+01 0.57268401439E+01 0.49601333647E+01 0.43532839028E+01 0.38990814693E+01
 0.35846433223E+01 0.33973050063E+01 0.33283439623E+01 0.33745870475E+01 0.35383205629E+01
 0.38259291049E+01 0.42453443832E+01 0.48020589656E+01 0.54937857351E+01 0.52612789892E+01
 0.59852125020E+01 0.67943865837E+01 0.76535618796E+01 0.85233378458E+01 0.93685096854E+01
 0.10163221834E+02 0.10883021147E+02 0.11510319680E+02 0.12028689590E+02 0.12401207534E+02
 0.12569029791E+02 0.12474164589E+02 0.12093083743E+02 0.11449936604E+02 0.10594683080E+02
 0.95979088494E+01 0.85392415715E+01 0.74944826129E+01 0.65253212367E+01 0.56734812796E+01
 0.49601333647E+01 0.43897339981E+01 0.39561806617E+01 0.36490367886E+01 0.34583194873E+01
 0.33772950188E+01 0.34034966237E+01 0.35385331995E+01 0.37871233990E+01 0.41552799452E+01
 0.46472567214E+01 0.44781142473E+01 0.50141266626E+01 0.56525696231E+01 0.63751584746E+01
 0.71556809798E+01 0.79645070099E+01 0.87739343389E+01 0.95606314308E+01 0.10302557187E+02
 0.10971543558E+02 0.11527256698E+02 0.11918674025E+02 0.12093093565E+02 0.12012768671E+02
 0.11666763220E+02 0.11075612379E+02 0.10287494218E+02 0.93687470361E+01 0.83922177269E+01
 0.74261064099E+01 0.65253212367E+01 0.57268401439E+01 0.50496413687E+01 0.44984175459E+01
 0.40691808828E+01 0.37546046592E+01 0.35476931775E+01 0.34435953418E+01 0.34402343512E+01
 0.35383907600E+01 0.37413085012E+01 0.40534505963E+01 0.39444427549E+01 0.43018576189E+01
 0.47625766407E+01 0.53206693827E+01 0.59633635815E+01 0.66721634074E+01 0.74258052515E+01
 0.82028987436E+01 0.89817526665E+01 0.97365601487E+01 0.10432100398E+02 0.11021378715E+02
 0.11449939842E+02 0.11666768990E+02 0.11637386883E+02 0.11353384470E+02 0.10835014756E+02
 0.10127097293E+02 0.92905776080E+01 0.83922177269E+01 0.74944826129E+01 0.66476133170E+01
 0.58855988149E+01 0.52266139614E+01 0.46768305920E+01 0.42354250480E+01 0.38987766608E+01
 0.36629972809E+01 0.35250790752E+01 0.34833939707E+01 0.35379954048E+01 0.36906834685E+01
 0.36373690023E+01 0.38327385705E+01 0.41258037970E+01 0.45168175790E+01 0.50023639337E+01
 0.55745817879E+01 0.62218257329E+01 0.69299660783E+01 0.76827393531E+01 0.84598047904E+01
 0.92327573660E+01 0.99615281464E+01 0.10594677128E+02 0.11075612241E+02 0.11353387115E+02
 0.11393975575E+02 0.11187887016E+02 0.10752172846E+02 0.10127097293E+02 0.93687470361E+01
 0.85392415715E+01 0.76967750173E+01 0.68880829237E+01 0.61451862153E+01 0.54864955833E+01
 0.49206436949E+01 0.44507716687E+01 0.40775800179E+01 0.38007228085E+01 0.36192091113E+01
 0.35317779739E+01 0.35376615603E+01 0.35374653262E+01 0.35837133881E+01 0.37230397718E+01
 0.39567975747E+01 0.42858097412E+01 0.47090524436E+01 0.52230264643E+01 0.58218979546E+01
 0.64974926658E+01 0.72378436401E+01 0.80238195774E+01 0.88250733224E+01 0.95979065188E+01
 0.10287491102E+02 0.10835013350E+02 0.11187887092E+02 0.11309821292E+02 0.11187887016E+02
 0.10835014756E+02 0.10287494218E+02 0.95979088494E+01 0.88250723577E+01 0.80238161372E+01
 0.72378397752E+01 0.64974870746E+01 0.58218870677E+01 0.52230107584E+01 0.47090354537E+01
 0.42857892083E+01 0.39567654009E+01 0.37229976979E+01 0.35836813822E+01 0.36373656268E+01
 0.35376911897E+01 0.35318394367E+01 0.36192728858E+01 0.38007628455E+01 0.40775969335E+01
 0.44507830872E+01 0.49206603732E+01 0.54865116202E+01 0.61451918661E+01 0.68880795867E+01
 0.76967727051E+01 0.85392444895E+01 0.93687493029E+01 0.10127094610E+02 0.10752169502E+02
 0.11187887092E+02 0.11393975575E+02 0.11353384470E+02 0.11075612379E+02 0.10594683080E+02
 0.99615313158E+01 0.92327504658E+01 0.84597962792E+01 0.76827404958E+01 0.69299691492E+01
 0.62218131107E+01 0.55745548623E+01 0.50023439410E+01 0.45168137341E+01 0.41258016330E+01
 0.38327275378E+01 0.39444657378E+01 0.36907185041E+01 0.35380462108E+01 0.34834514913E+01
 0.35251296882E+01 0.36630324300E+01 0.38987957049E+01 0.42354351225E+01 0.46768410295E+01
 0.52266253785E+01 0.58856038546E+01 0.66476100578E+01 0.74944791603E+01 0.83922192137E+01
 0.92905788724E+01 0.10127094610E+02 0.10835013350E+02 0.11353387115E+02 0.11637386883E+02
 0.11666763220E+02 0.11449936604E+02 0.11021382562E+02 0.10432102097E+02 0.97365531109E+01
 0.89817464579E+01 0.82029018439E+01 0.74258069043E+01 0.66721492756E+01 0.59633410191E+01
 0.53206591324E+01 0.47625853385E+01 0.43018758441E+01 0.44781576692E+01 0.40535029549E+01
 0.37413540343E+01 0.35384264762E+01 0.34402684233E+01 0.34436307978E+01 0.35477184186E+01
 0.37546094270E+01 0.40691769571E+01 0.44984255951E+01 0.50496596465E+01 0.57268480160E+01
 0.65253126896E+01 0.74260978361E+01 0.83922192137E+01 0.93687493029E+01 0.10287491102E+02
 0.11075612241E+02 0.11666768990E+02 0.12012768671E+02 0.12093083743E+02 0.11918668108E+02
 0.11527261655E+02 0.10971545373E+02 0.10302545848E+02 0.95606209026E+01 0.87739397973E+01
 0.79645177588E+01 0.71556755559E+01 0.63751379085E+01 0.56525581619E+01 0.50141439182E+01
 0.52613030751E+01 0.46473004544E+01 0.41553285477E+01 0.37871602796E+01 0.35385508348E+01
 0.34035019865E+01 0.33772971362E+01 0.34583170321E+01 0.36490279275E+01 0.39561766837E+01
 0.43897454172E+01 0.49601492333E+01 0.56734837187E+01 0.65253126896E+01 0.74944791603E+01
 0.85392444895E+01 0.95979065188E+01 0.10594677128E+02 0.11449939842E+02 0.12093093565E+02
 0.12474164589E+02 0.12569019022E+02 0.12401202097E+02 0.12028692602E+02 0.11510316074E+02
 0.10883007774E+02 0.10163216591E+02 0.93685212733E+01 0.85233493047E+01 0.76535564330E+01
 0.67943726192E+01 0.59852119413E+01 0.63050461936E+01 0.54937957899E+01 0.48020907029E+01
 0.42453857397E+01 0.38259480785E+01 0.35383011497E+01 0.33745504403E+01 0.33283184846E+01
 0.33972912923E+01 0.35846279054E+01 0.38990691090E+01 0.43532887057E+01 0.49601492333E+01
 0.57268480160E+01 0.66476100578E+01 0.76967727051E+01 0.88250733224E+01 0.99615281464E+01
 0.11021378715E+02 0.11918674025E+02 0.12569029791E+02 0.12904438072E+02 0.12932580228E+02
 0.12723997864E+02 0.12366292442E+02 0.11917189689E+02 0.11383231448E+02 0.10736633964E+02
 0.99589191691E+01 0.90793584116E+01 0.81460483173E+01 0.72042752185E+01 0.75882531759E+01
 0.65984906820E+01 0.57011909830E+01 0.49353765600E+01 0.43196925550E+01 0.38562875033E+01
 0.35378721492E+01 0.33544709344E+01 0.32982099937E+01 0.33663595201E+01 0.35630183185E+01
 0.38990691090E+01 0.43897454172E+01 0.50496596465E+01 0.58856038546E+01 0.68880795867E+01
 0.80238195774E+01 0.92327573660E+01 0.10432100398E+02 0.11527256698E+02 0.12401207534E+02
 0.12932591164E+02 0.13097275351E+02 0.12973803538E+02 0.12695489837E+02 0.12378894260E+02
 0.12065099683E+02 0.11706902506E+02 0.11210377051E+02 0.10506596085E+02 0.96105015130E+01
 0.86137033145E+01 0.90381161682E+01 0.79298872448E+01 0.68521884093E+01 0.58738992331E+01
 0.50411976984E+01 0.43751165023E+01 0.38770000301E+01 0.35374098543E+01 0.33441877545E+01
 0.32880808697E+01 0.33663595201E+01 0.35846279054E+01 0.39561766837E+01 0.44984255951E+01
 0.52266253785E+01 0.61451918661E+01 0.72378436401E+01 0.84598047904E+01 0.97365601487E+01
 0.10971543558E+02 0.12028689590E+02 0.12724004425E+02 0.12973813666E+02 0.12840183038E+02
 0.12498997158E+02 0.12155752245E+02 0.11945497973E+02 0.11867482763E+02 0.11791762043E+02
 0.11536154446E+02 0.10971147957E+02 0.10095306443E+02 0.10509649476E+02 0.94020193911E+01
 0.82140888978E+01 0.70544008680E+01 0.60037270655E+01 0.51145412039E+01 0.44092419223E+01
 0.38875041651E+01 0.35372510356E+01 0.33441877545E+01 0.32982099937E+01 0.33972912923E+01
 0.36490279275E+01 0.40691769571E+01 0.46768410295E+01 0.54865116202E+01 0.64974926658E+01
 0.76827393531E+01 0.89817526665E+01 0.10302557187E+02 0.11510319680E+02 0.12366290023E+02
 0.12695493856E+02 0.12499006206E+02 0.11960448561E+02 0.11373688900E+02 0.11015122183E+02
 0.11016048762E+02 0.11300419163E+02 0.11624495958E+02 0.11699370812E+02 0.11331404223E+02
 0.11585827663E+02 0.10837803222E+02 0.96903746528E+01 0.84277012236E+01 0.71951081901E+01
 0.60842350265E+01 0.51520913252E+01 0.44208029726E+01 0.38875041651E+01 0.35374098543E+01
 0.33544709344E+01 0.33283184846E+01 0.34583170321E+01 0.37546094270E+01 0.42354351225E+01
 0.49206603732E+01 0.58218979546E+01 0.69299660783E+01 0.82028987436E+01 0.95606314308E+01
 0.10883021147E+02 0.11917189876E+02 0.12378888649E+02 0.12155757227E+02 0.11373699918E+02
 0.10368129756E+02 0.95608448420E+01 0.92842750052E+01 0.96319589185E+01 0.10413895134E+02
 0.11244646727E+02 0.11719110365E+02 0.11641384227E+02 0.11748251908E+02 0.11072804128E+02
 0.98903085722E+01 0.85602660658E+01 0.72673363686E+01 0.61115672738E+01 0.51520913252E+01
 0.44092419223E+01 0.38770000301E+01 0.35378721492E+01 0.33745504403E+01 0.33772971362E+01
 0.35477184186E+01 0.38987957049E+01 0.44507830872E+01 0.52230264643E+01 0.62218257329E+01
 0.74258052515E+01 0.87739343389E+01 0.10163221834E+02 0.11383239843E+02 0.12065098252E+02
 0.11945494301E+02 0.11015129440E+02 0.95608561233E+01 0.80898036532E+01 0.71462719672E+01
 0.70882735804E+01 0.79286057734E+01 0.93262676139E+01 0.10736473012E+02 0.10211264685E+02
 0.11525471479E+02 0.11839349780E+02 0.11213156857E+02 0.99926735311E+01 0.86052751131E+01
 0.72673363686E+01 0.60842350265E+01 0.51145412039E+01 0.43751165023E+01 0.38562875033E+01
 0.35383011497E+01 0.34035019865E+01 0.34436307978E+01 0.36630324300E+01 0.40775969335E+01
 0.47090524436E+01 0.55745817879E+01 0.66721634074E+01 0.79645070099E+01 0.93685096854E+01
 0.10736640833E+02 0.11706911995E+02 0.11867478145E+02 0.11016042692E+02 0.92842822804E+01
 0.71462823665E+01 0.52842335101E+01 0.43408853476E+01 0.46562327918E+01 0.61173674610E+01
 0.82045021084E+01 0.72318935493E+01 0.97825058852E+01 0.11428427715E+02 0.11879058339E+02
 0.11259821822E+02 0.99926735311E+01 0.85602660658E+01 0.71951081901E+01 0.60037270655E+01
 0.50411976984E+01 0.43196925550E+01 0.38259480785E+01 0.35385508348E+01 0.34402684233E+01
 0.35251296882E+01 0.38007628455E+01 0.42858097412E+01 0.50023639337E+01 0.59633635815E+01
 0.71556809798E+01 0.85233378458E+01 0.99589157051E+01 0.11210386390E+02 0.11791762990E+02
 0.11300407778E+02 0.96319553211E+01 0.70882824462E+01 0.43408907611E+01 0.22302304760E+01
 0.14558361311E+01 0.22883997706E+01 0.44502986742E+01 0.31733167368E+01 0.65724564691E+01
 0.95425332695E+01 0.11391242378E+02 0.11879058339E+02 0.11213156857E+02 0.98903085722E+01
 0.84277012236E+01 0.70544008680E+01 0.58738992331E+01 0.49353765600E+01 0.42453857397E+01
 0.37871602796E+01 0.35384264762E+01 0.34834514913E+01 0.36192728858E+01 0.39567975747E+01
 0.45168175790E+01 0.53206693827E+01 0.63751584746E+01 0.76535618796E+01 0.90793480484E+01
 0.10506592989E+02 0.11536159887E+02 0.11624492920E+02 0.10413887029E+02 0.79286072433E+01
 0.46562365120E+01 0.14558304754E+01 -.71196190294E+00 -.11462059581E+01 0.30419681623E+00
 -.10151571278E+01 0.24813340315E+01 0.63393382400E+01 0.95425332695E+01 0.11428427715E+02
 0.11839349780E+02 0.11072804128E+02 0.96903746528E+01 0.82140888978E+01 0.68521884093E+01
 0.57011909830E+01 0.48020907029E+01 0.41553285477E+01 0.37413540343E+01 0.35380462108E+01
 0.35318394367E+01 0.37230397718E+01 0.41258037970E+01 0.47625766407E+01 0.56525696231E+01
 0.67943865837E+01 0.81460396414E+01 0.96104872583E+01 0.10971152132E+02 0.11699379556E+02
 0.11244641026E+02 0.93262612331E+01 0.61173720869E+01 0.22883958774E+01 -.11462246275E+01
 -.31614496315E+01 -.31150661635E+01 -.41749912485E+01 -.14775188142E+01 0.24813340315E+01
 0.65724564691E+01 0.97825058852E+01 0.11525471479E+02 0.11748251908E+02 0.10837803222E+02
 0.94020193911E+01 0.79298872448E+01 0.65984906820E+01 0.54937957899E+01 0.46473004544E+01
 0.40535029549E+01 0.36907185041E+01 0.35376911897E+01 0.35837133881E+01 0.38327385705E+01
 0.43018576189E+01 0.50141266626E+01 0.59852125020E+01 0.72042726577E+01 0.86136884294E+01
 0.10095301260E+02 0.11331414124E+02 0.11719110771E+02 0.10736461112E+02 0.82045038095E+01
 0.44503101368E+01 0.30418311880E+00 -.31150986549E+01 -.47839734607E+01 -.41749007179E+01
 -.33112093149E+01 -.52818960566E+00 0.33249387393E+01 0.71593953576E+01 0.10041467145E+02
 0.11470712761E+02 0.11458764574E+02 0.10423113129E+02 0.89644152115E+01 0.75115328155E+01
 0.62163487914E+01 0.51556819113E+01 0.43534926206E+01 0.37994870017E+01 0.34700927821E+01
 0.33443435229E+01 0.34129177360E+01 0.36813930468E+01 0.41683183186E+01 0.48976997929E+01
 0.58847659825E+01 0.71157543568E+01 0.85277180215E+01 0.99949491784E+01 0.11173527458E+02
 0.11466638085E+02 0.10392884215E+02 0.78320923152E+01 0.41653875312E+01 0.24336665352E+00
 -.28494015811E+01 -.33112416175E+01 -.41750087754E+01 -.28494626060E+01 0.24339178410E+00
 0.41654133949E+01 0.78320557935E+01 0.10392844291E+02 0.11466675970E+02 0.11173612542E+02
 0.99949819255E+01 0.85276792726E+01 0.71157305854E+01 0.58848116704E+01 0.48977558365E+01
 0.41683111589E+01 0.36813531585E+01 0.34129242067E+01 0.33443881507E+01 0.34700899513E+01
 0.37994171570E+01 0.43534429100E+01 0.51557102931E+01 0.62163907848E+01 0.75115059939E+01
 0.89643503314E+01 0.10423096793E+02 0.11458790910E+02 0.11470694586E+02 0.10041392046E+02
 0.71593613526E+01 0.33250014648E+01 -.52811852061E+00 -.43429123773E+00 -.27475778734E+01
 -.31150061071E+01 -.14300010778E+01 0.17631671856E+01 0.54955860614E+01 0.87495857181E+01
 0.10804015963E+02 0.11416810881E+02 0.10810916675E+02 0.95083332698E+01 0.80564298392E+01
 0.67013162777E+01 0.55475685050E+01 0.46428732168E+01 0.39912175555E+01 0.35735853590E+01
 0.33665568105E+01 0.33545793844E+01 0.35359535007E+01 0.39234305028E+01 0.45396194764E+01
 0.54065763958E+01 0.65288468005E+01 0.78726558450E+01 0.93497027626E+01 0.10779600808E+02
 0.11680372780E+02 0.11481230530E+02 0.98434915112E+01 0.68576924846E+01 0.31110915013E+01
 0.35623374033E+01 0.51376363304E+00 -.12385717798E+01 -.11462735591E+01 0.74271485929E+00
 0.38062755457E+01 0.71060440539E+01 0.97461791321E+01 0.11167099969E+02 0.11270695638E+02
 0.10365403983E+02 0.89836332689E+01 0.75675513446E+01 0.62838691553E+01 0.52175051378E+01
 0.44006314138E+01 0.38285064290E+01 0.34797110151E+01 0.33324618770E+01 0.33746091845E+01
 0.36081040014E+01 0.40484814491E+01 0.47191507347E+01 0.56397888205E+01 0.68087836390E+01
 0.81835074148E+01 0.96672974206E+01 0.11056215334E+02 0.11852558646E+02 0.11538124056E+02
 0.98581933857E+01 0.69884425718E+01 0.75372706238E+01 0.46127701420E+01 0.21785186597E+01
 0.10017479194E+01 0.14558166174E+01 0.33647173253E+01 0.60809782176E+01 0.87537976215E+01
 0.10649853512E+02 0.11385254195E+02 0.10995161605E+02 0.98468934631E+01 0.84408994920E+01
 0.70783272540E+01 0.58787274134E+01 0.49064070314E+01 0.41791742825E+01 0.36854780702E+01
 0.34028613861E+01 0.33117335956E+01 0.34034941780E+01 0.36835831442E+01 0.41696140814E+01
 0.48846194528E+01 0.58449564079E+01 0.70430594948E+01 0.84293352737E+01 0.99023070729E+01
 0.11246768613E+02 0.11982516124E+02 0.11657602591E+02 0.10097385138E+02 0.10523175160E+02
 0.84163253262E+01 0.61040646141E+01 0.43218678368E+01 0.36645302864E+01 0.43408252520E+01
 0.60867738261E+01 0.82826219862E+01 0.10209460481E+02 0.11317582373E+02 0.11394426804E+02
 0.10585235687E+02 0.92840307617E+01 0.78984414163E+01 0.66061099225E+01 0.54999630389E+01
 0.46246515089E+01 0.39856983207E+01 0.35666242735E+01 0.33451957917E+01 0.33047090053E+01
 0.34401430883E+01 0.37596947737E+01 0.42819358277E+01 0.50285954464E+01 0.60123613167E+01
 0.72202545050E+01 0.85977025061E+01 0.10042162051E+02 0.11344435740E+02 0.12066728198E+02
 0.11828482362E+02 0.12013475574E+02 0.11055369005E+02 0.94819484204E+01 0.78154803106E+01
 0.66477804865E+01 0.64007087309E+01 0.71461817004E+01 0.85781079295E+01 0.10149220937E+02
 0.11298962695E+02 0.11662485321E+02 0.11178268390E+02 0.10069267707E+02 0.87145613213E+01
 0.73757383409E+01 0.61677736454E+01 0.51605757980E+01 0.43812863862E+01 0.38258765835E+01
 0.34751699790E+01 0.33083293877E+01 0.33117005598E+01 0.34833529378E+01 0.38334696403E+01
 0.43807074180E+01 0.51446396858E+01 0.61339092093E+01 0.73310257734E+01 0.86790789567E+01
 0.10078376643E+02 0.11341882108E+02 0.12090579397E+02 0.12031512821E+02 0.12158179736E+02
 0.11588417237E+02 0.10561726976E+02 0.95036559834E+01 0.88556001061E+01 0.88836929458E+01
 0.95608006382E+01 0.10582316052E+02 0.11504513795E+02 0.11932227366E+02 0.11668642457E+02
 0.10771232693E+02 0.95042839544E+01 0.81642568921E+01 0.68931699280E+01 0.57792477927E+01
 0.48716057608E+01 0.41833929847E+01 0.37041421510E+01 0.34137423194E+01 0.32933695384E+01
 0.33324382703E+01 0.35316548445E+01 0.39022511140E+01 0.44618579478E+01 0.52272213162E+01
 0.62031993380E+01 0.73692032867E+01 0.86684848860E+01 0.10007402093E+02 0.11231667382E+02
 0.11009499026E+02 0.11865884552E+02 0.12203299700E+02 0.12012376342E+02 0.11487480219E+02
 0.10947707548E+02 0.10693014031E+02 0.10863471534E+02 0.11373610250E+02 0.11954934749E+02
 0.12281231368E+02 0.12111886559E+02 0.11388485268E+02 0.10249662842E+02 0.89502223727E+01
 0.76578978542E+01 0.64701217185E+01 0.54541251963E+01 0.46419690283E+01 0.40365861056E+01
 0.36237519845E+01 0.33838914647E+01 0.33007379701E+01 0.33664944743E+01 0.35836057691E+01
 0.39633456164E+01 0.45216556204E+01 0.52722463056E+01 0.62165791637E+01 0.73323476639E+01
 0.85654457350E+01 0.98310933284E+01 0.95569648725E+01 0.10677223205E+02 0.11576066095E+02
 0.12099210739E+02 0.12236671478E+02 0.12127422507E+02 0.11987150707E+02 0.11995690698E+02
 0.12202281352E+02 0.12498990545E+02 0.12674763053E+02 0.12519028964E+02 0.11922012226E+02
 0.10926831227E+02 0.97106202017E+01 0.84413491425E+01 0.72193134777E+01 0.61235068465E+01
 0.52034460366E+01 0.44783302847E+01 0.39445963184E+01 0.35866712921E+01 0.33865267878E+01
 0.33304501537E+01 0.34128804159E+01 0.36372686176E+01 0.40142036163E+01 0.45573686560E+01
 0.52773348845E+01 0.61729396847E+01 0.72218460102E+01 0.83746340182E+01 0.81050703841E+01
 0.91969223453E+01 0.10246229979E+02 0.11158767507E+02 0.11819495356E+02 0.12208747274E+02
 0.12409262053E+02 0.12546500559E+02 0.12707567781E+02 0.12884562845E+02 0.12973786789E+02
 0.12829649755E+02 0.12342816546E+02 0.11502644123E+02 0.10414008144E+02 0.92167001343E+01
 0.80070898206E+01 0.68693371555E+01 0.58666525289E+01 0.50349908183E+01 0.43850165159E+01
 0.39097866420E+01 0.35939677760E+01 0.34216454584E+01 0.33816262989E+01 0.34700756720E+01
 0.36906373892E+01 0.40525329965E+01 0.45670067703E+01 0.52419041857E+01 0.60743388002E+01
 0.70431965460E+01 0.68050484811E+01 0.77695325475E+01 0.87670957077E+01 0.97391579552E+01
 0.10629781396E+02 0.11369164106E+02 0.11925397810E+02 0.12331315249E+02 0.12640978831E+02
 0.12876961093E+02 0.13002080789E+02 0.12932607157E+02 0.12584721261E+02 0.11927811599E+02
 0.11015528779E+02 0.99460625393E+01 0.88038758540E+01 0.76724828246E+01 0.66238360100E+01
 0.57087518293E+01 0.49537840306E+01 0.43645732405E+01 0.39330951307E+01 0.36455039301E+01
 0.34883991531E+01 0.34528217823E+01 0.35360293741E+01 0.37413317827E+01 0.40763573813E+01
 0.45499516924E+01 0.51675988010E+01 0.59255425611E+01 0.57338808049E+01 0.65191308336E+01
 0.73837642920E+01 0.82863566294E+01 0.91808231217E+01 0.10025629094E+02 0.10787150746E+02
 0.11433096339E+02 0.11957497189E+02 0.12363668921E+02 0.12634262232E+02 0.12722119376E+02
 0.12569030767E+02 0.12141281609E+02 0.11459352228E+02 0.10578968677E+02 0.95672163804E+01
 0.85012881318E+01 0.74561547112E+01 0.64935875936E+01 0.56553987614E+01 0.49622997067E+01
 0.44177153236E+01 0.40142531629E+01 0.37402914096E+01 0.35850639261E+01 0.35416697208E+01
 0.36081581542E+01 0.37871574446E+01 0.40844869516E+01 0.45067767522E+01 0.50578280588E+01
 0.49180875034E+01 0.55087326338E+01 0.61988240972E+01 0.69651341555E+01 0.77758076963E+01
 0.85955879590E+01 0.93921398979E+01 0.10139794568E+02 0.10817411317E+02 0.11400338302E+02
 0.11859839618E+02 0.12157319192E+02 0.12246738900E+02 0.12093109316E+02 0.11689826644E+02
 0.11057577821E+02 0.10242813950E+02 0.93098618180E+01 0.83299476447E+01 0.73701448302E+01
 0.64844610739E+01 0.57088480279E+01 0.50609348120E+01 0.45437885136E+01 0.41517484272E+01
 0.38760728136E+01 0.37089070465E+01 0.36452875158E+01 0.36837332774E+01 0.38260263121E+01
 0.40763464164E+01 0.44395095354E+01 0.43514716417E+01 0.47549705943E+01 0.52605364067E+01
 0.58587229435E+01 0.65322335648E+01 0.72576487928E+01 0.80091503033E+01 0.87621211114E+01
 0.94940338178E+01 0.10181386812E+02 0.10794343550E+02 0.11293371565E+02 0.11632007185E+02
 0.11766267680E+02 0.11666778912E+02 0.11328023240E+02 0.10771192716E+02 0.10040629475E+02
 0.91959478810E+01 0.83021969301E+01 0.74200780661E+01 0.65981483719E+01 0.58687069118E+01
 0.52480631920E+01 0.47403105340E+01 0.43425517831E+01 0.40494968535E+01 0.38563549236E+01
 0.37600977574E+01 0.37597647282E+01 0.38563720201E+01 0.40525359788E+01 0.40142074980E+01
 0.42467702543E+01 0.45761229228E+01 0.50005813625E+01 0.55135861684E+01 0.61032784789E+01
 0.67538039348E+01 0.74474280701E+01 0.81657882339E+01 0.88887516980E+01 0.95907882049E+01
 0.10237026487E+02 0.10782605446E+02 0.11177768601E+02 0.11377738635E+02 0.11353392708E+02
 0.11098528162E+02 0.10631686997E+02 0.99928598190E+01 0.92364633422E+01 0.84222364198E+01
 0.76059871378E+01 0.68323826201E+01 0.61315140683E+01 0.55196378989E+01 0.50029085192E+01
 0.45819965549E+01 0.42556923395E+01 0.40227162090E+01 0.38821639258E+01 0.38335609966E+01
 0.38771457349E+01 0.38876177962E+01 0.39633670865E+01 0.41303746741E+01 0.43894336328E+01
 0.47397211228E+01 0.51774519471E+01 0.56956394643E+01 0.62849294857E+01 0.69343870364E+01
 0.76308149450E+01 0.83559801224E+01 0.90827258245E+01 0.97724164503E+01 0.10376349048E+02
 0.10842082894E+02 0.11123020663E+02 0.11187901728E+02 0.11027211649E+02 0.10655093797E+02
 0.10106742745E+02 0.94319838427E+01 0.86863735202E+01 0.79219865275E+01 0.71805022199E+01
 0.64904654394E+01 0.58687756241E+01 0.53245988530E+01 0.48632419196E+01 0.44883783590E+01
 0.42025820973E+01 0.40071576158E+01 0.39022633156E+01 0.39633286832E+01 0.38876564735E+01
 0.39023192999E+01 0.40071521823E+01 0.42025358234E+01 0.44883695213E+01 0.48632789135E+01
 0.53246175504E+01 0.58687524761E+01 0.64904491882E+01 0.71805226842E+01 0.79220069695E+01
 0.86863601224E+01 0.94319623950E+01 0.10106749736E+02 0.10655115702E+02 0.11027211532E+02
 0.11187878297E+02 0.11123004829E+02 0.10842089493E+02 0.10376360829E+02 0.97724143449E+01
 0.90827157795E+01 0.83559822276E+01 0.76308310292E+01 0.69343925694E+01 0.62849102313E+01
 0.56956230089E+01 0.51774714190E+01 0.47397526051E+01 0.43894160101E+01 0.41303068695E+01
 0.42467918026E+01 0.40141832744E+01 0.38770966732E+01 0.38335367049E+01 0.38821743679E+01
 0.40227292231E+01 0.42556833111E+01 0.45819772876E+01 0.50029058784E+01 0.55196561997E+01
 0.61315275677E+01 0.68323723911E+01 0.76059719574E+01 0.84222449996E+01 0.92364851477E+01
 0.99928583774E+01 0.10631661031E+02 0.11098514873E+02 0.11353401435E+02 0.11377732838E+02
 0.11177735412E+02 0.10782588423E+02 0.10237053421E+02 0.95908178584E+01 0.88887407403E+01
 0.81657664975E+01 0.74474463743E+01 0.67538420509E+01 0.61032741351E+01 0.55135385930E+01