    2    2   15    1
  0.1529437E+02  0.3691622E-09  0.3691622E-09  0.3691622E-09  0.5000000E-15
  1.000000000000000E-004
  CAR 
 unknown system                          
      8     75      8
 
  0.0000000E+00  0.0000000E+00  0.0000000E+00  0.1371742E-02
    1       -4.615433   1.000000
    2        6.183412   1.000000
    3        6.299023   1.000000
    4        6.299029   1.000000
    5       10.525474   0.000000
    6       16.773009   0.000000
    7       17.367424   0.000000
    8       17.367431   0.000000
 
  0.1111111E+00 -0.9377698E-17  0.9377698E-17  0.1097394E-01
    1       -4.266863   1.000000
    2        5.306836   1.000000
    3        6.242015   1.000000
    4        7.783216   1.000000
    5       11.234402   0.000000
    6       15.162366   0.000000
    7       15.962366   0.000000
    8       17.323211   0.000000
 
  0.2222222E+00  0.6918512E-17 -0.6918512E-17  0.1097394E-01
    1       -3.225396   1.000000
    2        5.018592   1.000000
    3        6.318270   1.000000
    4        9.610414   0.000151
    5       12.131523   0.000000
    6       12.912052   0.000000
    7       13.019171   0.000000
    8       15.161216   0.000000
 
  0.3333333E+00 -0.3591853E-16  0.3591853E-16  0.1097394E-01
    1       -1.504935   1.000000
    2        5.357737   1.000000
    3        6.788880   1.000000
    4        7.464254   1.000000
    5       10.264001   0.000000
    6       12.651542   0.000000
    7       13.028038   0.000000
    8       14.008885   0.000000
 
  0.4444444E+00  0.1383702E-16 -0.1383702E-16  0.1097394E-01
    1        0.859767   1.000000
    2        3.897692   1.000000
    3        6.376520   1.000000
    4        7.566153   1.000000
    5        8.189807   1.000000
    6       10.727827   0.000000
    7       13.542321   0.000000
    8       14.503183   0.000000
 
  0.1111111E+00  0.1111111E+00  0.1875540E-16  0.1097394E-01
    1       -3.371367   1.000000
    2        5.335285   1.000000
    3        7.348914   1.000000
    4        8.538425   0.999964
    5       12.293262   0.000000
    6       12.580847   0.000000
    7       13.000590   0.000000
    8       15.642029   0.000000
 
  0.2222222E+00  0.1111111E+00 -0.2719765E-16  0.2194787E-01
    1       -1.793563   1.000000
    2        5.612603   1.000000
    3        7.891816   1.000000
    4        8.295024   1.000000
    5        9.742540   0.000003
    6       11.392808   0.000000
    7       13.013096   0.000000
    8       14.020826   0.000000
 
  0.3333333E+00  0.1111111E+00  0.2951719E-16  0.2194787E-01
    1        0.439573   1.000000
    2        4.704613   1.000000
    3        6.484525   1.000000
    4        6.927357   1.000000
    5        9.041726   0.658470
    6       11.100650   0.000000
    7       12.634926   0.000000
    8       14.523738   0.000000
 
  0.4444444E+00  0.1111111E+00  0.7517205E-17  0.2194787E-01
    1        1.548655   1.000000
    2        3.352470   1.000000
    3        5.228868   1.000000
    4        7.462242   1.000000
    5        8.678313   0.998549
    6       11.470479   0.000000
    7       12.406699   0.000000
    8       15.811245   0.000000
 
 -0.4444444E+00  0.1111111E+00  0.4279628E-16  0.2194787E-01
    1       -0.929829   1.000000
    2        3.995417   1.000000
    3        6.693195   1.000000
    4        6.998211   1.000000
    5       10.097009   0.000000
    6       12.385268   0.000000
    7       13.559321   0.000000
    8       14.488324   0.000000
 
 -0.3333333E+00  0.1111111E+00 -0.1456430E-16  0.2194787E-01
    1       -2.788380   1.000000
    2        3.474621   1.000000
    3        6.334634   1.000000
    4       10.136264   0.000000
    5       11.916188   0.000000
    6       12.031253   0.000000
    7       13.937508   0.000000
    8       15.136599   0.000000
 
 -0.2222222E+00  0.1111111E+00  0.1629621E-16  0.2194787E-01
    1       -3.973451   1.000000
    2        3.590003   1.000000
    3        6.298309   1.000000
    4        8.907204   0.913007
    5       12.758172   0.000000
    6       13.421034   0.000000
    7       15.302782   0.000000
    8       16.663598   0.000000
 
 -0.1111111E+00  0.1111111E+00  0.7914115E-18  0.5486968E-02
    1       -4.468370   1.000000
    2        4.319249   1.000000
    3        6.435193   1.000000
    4        7.644909   1.000000
    5       11.429116   0.000000
    6       14.871942   0.000000
    7       16.323672   0.000000
    8       19.215205   0.000000
 
  0.2222222E+00  0.2222222E+00 -0.4159260E-16  0.1097394E-01
    1        0.298643   1.000000
    2        5.713253   1.000000
    3        5.772670   1.000000
    4        6.432823   1.000000
    5        9.963014   0.000000
    6       11.599629   0.000000
    7       12.540420   0.000000
    8       12.820863   0.000000
 
  0.3333333E+00  0.2222222E+00  0.4287781E-16  0.2194787E-01
    1        2.439385   1.000000
    2        3.102145   1.000000
    3        3.883419   1.000000
    4        7.513102   1.000000
    5        9.251762   0.140765
    6       10.780300   0.000000
    7       13.568784   0.000000
    8       15.639938   0.000000
 
  0.4444444E+00  0.2222222E+00  0.2087783E-16  0.2194787E-01
    1       -0.073535   1.000000
    2        2.431643   1.000000
    3        6.397910   1.000000
    4        7.569391   1.000000
    5        9.473267   0.004107
    6       11.306278   0.000000
    7       14.754249   0.000000
    8       15.792986   0.000000
 
 -0.4444444E+00  0.2222222E+00  0.6918512E-17  0.2194787E-01
    1       -2.063396   1.000000
    2        1.752653   1.000000
    3        6.950822   1.000000
    4        9.930881   0.000000
    5       10.617076   0.000000
    6       12.495781   0.000000
    7       13.389790   0.000000
    8       15.817727   0.000000
 
 -0.3333333E+00  0.2222222E+00 -0.1251408E-16  0.2194787E-01
    1       -3.388500   1.000000
    2        1.730212   1.000000
    3        6.824022   1.000000
    4        9.736198   0.000003
    5       11.633831   0.000000
    6       14.181534   0.000000
    7       15.116161   0.000000
    8       15.845708   0.000000
 
 -0.2222222E+00  0.2222222E+00  0.1582823E-17  0.5486968E-02
    1       -4.027989   1.000000
    2        2.360418   1.000000
    3        6.843492   1.000000
    4        8.512789   0.999983
    5       12.904850   0.000000
    6       13.664635   0.000000
    7       14.679135   0.000000
    8       19.211376   0.000000
 
  0.3333333E+00  0.3333333E+00  0.7183707E-16  0.1097394E-01
    1        1.044672   1.000000
    2        1.063329   1.000000
    3        6.272565   1.000000
    4        8.233577   1.000000
    5        8.800785   0.982657
    6       10.939783   0.000000
    7       15.467288   0.000000
    8       16.506480   0.000000
 
  0.4444444E+00  0.3333333E+00  0.4983708E-16  0.2194787E-01
    1       -1.056211   1.000000
    2        0.222708   1.000000
    3        7.860612   1.000000
    4        8.991252   0.777923
    5       10.047465   0.000000
    6       13.019152   0.000000
    7       13.385170   0.000000
    8       14.687792   0.000000
 
 -0.4444444E+00  0.3333333E+00  0.6553460E-16  0.2194787E-01
    1       -2.515918   1.000000
    2        0.060412   1.000000
    3        7.636509   1.000000
    4       10.050589   0.000000
    5       10.644479   0.000000
    6       12.958811   0.000000
    7       15.144182   0.000000
    8       15.958652   0.000000
 
 -0.3333333E+00  0.3333333E+00  0.1438931E-16  0.5486968E-02
    1       -3.297161   1.000000
    2        0.569094   1.000000
    3        7.523298   1.000000
    4        9.356005   0.034839
    5       11.171082   0.000000
    6       13.068720   0.000000
    7       16.428023   0.000000
    8       18.931603   0.000000
 
  0.4444444E+00  0.4444444E+00 -0.8318520E-16  0.1097394E-01
    1       -1.362807   1.000000
    2       -1.361793   1.000000
    3        8.702008   0.997526
    4        8.733624   0.995158
    5       11.610793   0.000000
    6       11.833547   0.000000
    7       14.993130   0.000000
    8       15.892138   0.000000
 
 -0.4444444E+00  0.4444444E+00  0.3165646E-17  0.5486968E-02
    1       -2.280909   1.000000
    2       -0.987191   1.000000
    3        8.473106   0.999995
    4        9.690074   0.000015
    5       10.378459   0.000000
    6       11.619476   0.000000
    7       18.796213   0.000000
    8       18.836555   0.000000
 
  0.1111111E+00  0.1111111E+00  0.1111111E+00  0.1097394E-01
    1       -2.933522   1.000000
    2        3.405953   1.000000
    3        7.730466   1.000000
    4        9.336568   0.046815
    5       11.905584   0.000000
    6       12.063220   0.000000
    7       14.441342   0.000000
    8       15.106659   0.000000
 
  0.2222222E+00  0.1111111E+00  0.1111111E+00  0.2194787E-01
    1       -1.215746   1.000000
    2        3.815994   1.000000
    3        7.611761   1.000000
    4        8.212291   1.000000
    5        9.679600   0.000020
    6       12.036056   0.000000
    7       13.801838   0.000000
    8       14.676877   0.000000
 
  0.3333333E+00  0.1111111E+00  0.1111111E+00  0.2194787E-01
    1        1.143914   1.000000
    2        4.127425   1.000000
    3        4.937116   1.000000
    4        6.516931   1.000000
    5        9.993601   0.000000
    6       12.297046   0.000000
    7       13.861075   0.000000
    8       14.325845   0.000000
 
 -0.1111111E+00  0.1111111E+00  0.1111111E+00  0.5486968E-02
    1       -4.321604   1.000000
    2        3.992978   1.000000
    3        5.343553   1.000000
    4        8.968748   0.822341
    5       12.042797   0.000000
    6       13.332168   0.000000
    7       17.608872   0.000000
    8       18.057320   0.000000
 
  0.2222222E+00  0.2222222E+00  0.1111111E+00  0.1097394E-01
    1        1.006717   1.000000
    2        4.646387   1.000000
    3        5.271927   1.000000
    4        5.363146   1.000000
    5       11.099756   0.000000
    6       13.265162   0.000000
    7       13.510928   0.000000
    8       13.675707   0.000000
 
  0.3333333E+00  0.2222222E+00  0.1111111E+00  0.2194787E-01
    1        2.114036   1.000000
    2        3.302391   1.000000
    3        4.033099   1.000000
    4        6.296114   1.000000
    5       10.938568   0.000000
    6       12.414626   0.000000
    7       14.239869   0.000000
    8       15.186365   0.000000
 
  0.4444444E+00  0.2222222E+00  0.1111111E+00  0.2194787E-01
    1       -0.354422   1.000000
    2        2.182078   1.000000
    3        7.285868   1.000000
    4        8.186716   1.000000
    5       10.123013   0.000000
    6       12.411504   0.000000
    7       12.930232   0.000000
    8       14.898795   0.000000
 
 -0.4444444E+00  0.2222222E+00  0.1111111E+00  0.1097394E-01
    1       -2.206805   1.000000
    2        1.632693   1.000000
    3        8.348970   1.000000
    4        9.967455   0.000000
    5       11.276033   0.000000
    6       11.642217   0.000000
    7       13.234927   0.000000
    8       14.219998   0.000000
 
 -0.2222222E+00  0.2222222E+00  0.1111111E+00  0.1097394E-01
    1       -3.882102   1.000000
    2        2.428535   1.000000
    3        5.355561   1.000000
    4       10.143471   0.000000
    5       11.405686   0.000000
    6       13.972290   0.000000
    7       16.238634   0.000000
    8       18.710847   0.000000
 
 -0.1111111E+00  0.2222222E+00  0.1111111E+00  0.1097394E-01
    1       -3.681242   1.000000
    2        3.327830   1.000000
    3        4.864794   1.000000
    4       10.630549   0.000000
    5       11.571575   0.000000
    6       13.719082   0.000000
    7       14.839855   0.000000
    8       17.562324   0.000000
 
  0.3333333E+00  0.3333333E+00  0.1111111E+00  0.1097394E-01
    1        0.779792   1.000000
    2        0.785784   1.000000
    3        7.169161   1.000000
    4        8.145414   1.000000
    5       10.769141   0.000000
    6       11.496521   0.000000
    7       13.578181   0.000000
    8       14.259208   0.000000
 
  0.4444444E+00  0.3333333E+00  0.1111111E+00  0.1097394E-01
    1       -1.196579   1.000000
    2        0.088383   1.000000
    3        9.155344   0.346381
    4        9.957191   0.000000
    5       11.135613   0.000000
    6       11.383461   0.000000
    7       12.620017   0.000000
    8       13.103332   0.000000
 
 -0.3333333E+00  0.3333333E+00  0.1111111E+00  0.1097394E-01
    1       -3.153003   1.000000
    2        0.689565   1.000000
    3        5.990354   1.000000
    4        9.667375   0.000030
    5       11.066094   0.000000
    6       14.697826   0.000000
    7       16.616441   0.000000
    8       18.534467   0.000000
 
 -0.2222222E+00  0.3333333E+00  0.1111111E+00  0.2194787E-01
    1       -3.098909   1.000000
    2        1.915731   1.000000
    3        4.930937   1.000000
    4        9.735499   0.000003
    5       11.774061   0.000000
    6       14.286350   0.000000
    7       15.863036   0.000000
    8       17.208754   0.000000
 
 -0.1111111E+00  0.3333333E+00  0.1111111E+00  0.1097394E-01
    1       -2.354184   1.000000
    2        3.326515   1.000000
    3        4.945550   1.000000
    4        9.791303   0.000000
    5       10.457544   0.000000
    6       13.443096   0.000000
    7       14.810939   0.000000
    8       15.464159   0.000000
 
 -0.4444444E+00  0.4444444E+00  0.1111111E+00  0.1097394E-01
    1       -2.139707   1.000000
    2       -0.852194   1.000000
    3        6.941915   1.000000
    4        8.173241   1.000000
    5       12.089923   0.000000
    6       13.300604   0.000000
    7       18.200341   0.000000
    8       18.320099   0.000000
 
 -0.3333333E+00  0.4444444E+00  0.1111111E+00  0.2194787E-01
    1       -2.230949   1.000000
    2        0.315167   1.000000
    3        5.682925   1.000000
    4        8.124802   1.000000
    5       12.492525   0.000000
    6       14.091324   0.000000
    7       16.037287   0.000000
    8       17.158632   0.000000
 
 -0.2222222E+00  0.4444444E+00  0.1111111E+00  0.2194787E-01
    1       -1.634989   1.000000
    2        2.069151   1.000000
    3        5.108472   1.000000
    4        8.593330   0.999827
    5        9.570049   0.000438
    6       14.415196   0.000000
    7       14.946255   0.000000
    8       17.031985   0.000000
 
 -0.1111111E+00  0.4444444E+00  0.1111111E+00  0.1097394E-01
    1       -0.361150   1.000000
    2        3.965271   1.000000
    3        5.619360   1.000000
    4        6.194132   1.000000
    5        9.537775   0.000970
    6       12.273219   0.000000
    7       13.620147   0.000000
    8       16.169884   0.000000
 
 -0.4444444E+00 -0.4444444E+00  0.1111111E+00  0.1097394E-01
    1       -1.088211   1.000000
    2       -1.085278   1.000000
    3        6.759916   1.000000
    4        6.769257   1.000000
    5       12.772023   0.000000
    6       14.210133   0.000000
    7       15.365171   0.000000
    8       17.151768   0.000000
 
 -0.3333333E+00 -0.4444444E+00  0.1111111E+00  0.2194787E-01
    1       -0.638778   1.000000
    2        0.616026   1.000000
    3        5.977096   1.000000
    4        7.169023   1.000000
    5        9.299055   0.079079
    6       14.417918   0.000000
    7       15.765860   0.000000
    8       17.094869   0.000000
 
 -0.2222222E+00 -0.4444444E+00  0.1111111E+00  0.2194787E-01
    1        0.482696   1.000000
    2        2.876047   1.000000
    3        5.673605   1.000000
    4        6.004278   1.000000
    5        8.172924   1.000000
    6       12.226711   0.000000
    7       14.894372   0.000000
    8       17.252228   0.000000
 
 -0.1111111E+00 -0.4444444E+00  0.1111111E+00  0.1097394E-01
    1        2.157522   1.000000
    2        2.884021   1.000000
    3        5.361821   1.000000
    4        6.825017   1.000000
    5        8.828075   0.972510
    6       11.102127   0.000000
    7       11.683907   0.000000
    8       16.581011   0.000000
 
 -0.3333333E+00 -0.3333333E+00  0.1111111E+00  0.1097394E-01
    1        1.565584   1.000000
    2        1.600027   1.000000
    3        5.595107   1.000000
    4        6.836109   1.000000
    5        6.991344   1.000000
    6       12.140760   0.000000
    7       16.456621   0.000000
    8       16.735734   0.000000
 
 -0.2222222E+00 -0.3333333E+00  0.1111111E+00  0.2194787E-01
    1        2.373702   1.000000
    2        3.325344   1.000000
    3        4.427173   1.000000
    4        7.197908   1.000000
    5        8.168408   1.000000
    6       10.653324   0.000000
    7       13.032742   0.000000
    8       15.175669   0.000000
 
 -0.1111111E+00 -0.3333333E+00  0.1111111E+00  0.1097394E-01
    1        0.013629   1.000000
    2        5.495380   1.000000
    3        7.119009   1.000000
    4        8.057929   1.000000
    5        8.094908   1.000000
    6       10.874746   0.000000
    7       11.259062   0.000000
    8       13.551061   0.000000
 
 -0.2222222E+00 -0.2222222E+00  0.1111111E+00  0.1097394E-01
    1       -0.128821   1.000000
    2        6.440454   1.000000
    3        6.483129   1.000000
    4        7.808342   1.000000
    5        8.841406   0.965982
    6       10.490056   0.000000
    7       11.812581   0.000000
    8       12.188177   0.000000
 
 -0.1111111E+00 -0.2222222E+00  0.1111111E+00  0.1097394E-01
    1       -2.083481   1.000000
    2        7.204915   1.000000
    3        7.961400   1.000000
    4        8.646614   0.999318
    5        9.781303   0.000001
    6       10.715724   0.000000
    7       12.392236   0.000000
    8       13.056765   0.000000
 
 -0.1111111E+00 -0.1111111E+00  0.1111111E+00  0.2743484E-02
    1       -3.517677   1.000000
    2        7.179932   1.000000
    3        7.220355   1.000000
    4        7.220361   1.000000
    5       11.627419   0.000000
    6       12.869138   0.000000
    7       13.229678   0.000000
    8       15.425951   0.000000
 
  0.2222222E+00  0.2222222E+00  0.2222222E+00  0.1097394E-01
    1        1.986949   1.000000
    2        3.221087   1.000000
    3        5.023694   1.000000
    4        5.043313   1.000000
    5       12.272082   0.000000
    6       13.428989   0.000000
    7       14.579149   0.000000
    8       14.612909   0.000000
 
 -0.2222222E+00  0.2222222E+00  0.2222222E+00  0.5486968E-02
    1       -3.445556   1.000000
    2        2.273925   1.000000
    3        3.933822   1.000000
    4        9.461063   0.005281
    5       12.081222   0.000000
    6       15.138389   0.000000
    7       17.444813   0.000000
    8       18.330501   0.000000
 
 -0.3333333E+00  0.3333333E+00  0.2222222E+00  0.1097394E-01
    1       -2.722172   1.000000
    2        1.006448   1.000000
    3        4.095171   1.000000
    4        7.706259   1.000000
    5       13.394676   0.000000
    6       16.599069   0.000000
    7       17.272013   0.000000
    8       18.282005   0.000000
 
 -0.2222222E+00  0.3333333E+00  0.2222222E+00  0.1097394E-01
    1       -2.522429   1.000000
    2        1.888639   1.000000
    3        3.609444   1.000000
    4        7.885007   1.000000
    5       12.742540   0.000000
    6       14.915208   0.000000
    7       17.122556   0.000000
    8       18.425577   0.000000
 
 -0.4444444E+00  0.4444444E+00  0.2222222E+00  0.1097394E-01
    1       -1.719861   1.000000
    2       -0.457022   1.000000
    3        4.978117   1.000000
    4        6.201565   1.000000
    5       14.460340   0.000000
    6       15.535086   0.000000
    7       17.822334   0.000000
    8       17.971020   0.000000
 
 -0.3333333E+00  0.4444444E+00  0.2222222E+00  0.2194787E-01
    1       -1.666501   1.000000
    2        0.770025   1.000000
    3        3.887388   1.000000
    4        6.256807   1.000000
    5       12.681088   0.000000
    6       16.005706   0.000000
    7       18.325409   0.000000
    8       18.545813   0.000000
 
 -0.2222222E+00  0.4444444E+00  0.2222222E+00  0.1097394E-01
    1       -0.927851   1.000000
    2        2.178334   1.000000
    3        3.917621   1.000000
    4        6.920318   1.000000
    5        9.047235   0.644061
    6       15.632963   0.000000
    7       17.054565   0.000000
    8       17.214394   0.000000
 
 -0.4444444E+00 -0.4444444E+00  0.2222222E+00  0.1097394E-01
    1       -0.551352   1.000000
    2       -0.546312   1.000000
    3        4.901537   1.000000
    4        4.901713   1.000000
    5       12.610245   0.000000
    6       16.786994   0.000000
    7       17.576537   0.000000
    8       18.563036   0.000000
 
 -0.3333333E+00 -0.4444444E+00  0.2222222E+00  0.2194787E-01
    1        0.040882   1.000000
    2        1.210616   1.000000
    3        4.320155   1.000000
    4        5.457588   1.000000
    5        8.786954   0.986441
    6       15.990676   0.000000
    7       17.969151   0.000000
    8       18.627156   0.000000
 
 -0.2222222E+00 -0.4444444E+00  0.2222222E+00  0.1097394E-01
    1        1.297247   1.000000
    2        3.112459   1.000000
    3        4.855866   1.000000
    4        5.382726   1.000000
    5        6.671384   1.000000
    6       13.510854   0.000000
    7       14.992557   0.000000
    8       17.676340   0.000000
 
 -0.3333333E+00 -0.3333333E+00  0.2222222E+00  0.1097394E-01
    1        2.277937   1.000000
    2        2.338134   1.000000
    3        5.103827   1.000000
    4        5.382705   1.000000
    5        5.567110   1.000000
    6       13.824095   0.000000
    7       16.064803   0.000000
    8       16.648806   0.000000
 
 -0.2222222E+00 -0.3333333E+00  0.2222222E+00  0.1097394E-01
    1        2.143706   1.000000
    2        4.148614   1.000000
    3        4.825970   1.000000
    4        6.373001   1.000000
    5        7.012133   1.000000
    6       11.898865   0.000000
    7       12.997978   0.000000
    8       14.223322   0.000000
 
 -0.2222222E+00 -0.2222222E+00  0.2222222E+00  0.2743484E-02
    1       -0.271624   1.000000
    2        6.912763   1.000000
    3        7.063742   1.000000
    4        8.110690   1.000000
    5        8.110693   1.000000
    6       10.640367   0.000000
    7       11.575636   0.000000
    8       11.575640   0.000000
 
 -0.3333333E+00  0.3333333E+00  0.3333333E+00  0.5486968E-02
    1       -2.010810   1.000000
    2        1.111656   1.000000
    3        2.890074   1.000000
    4        5.941247   1.000000
    5       15.156661   0.000000
    6       16.733461   0.000000
    7       18.074362   0.000000
    8       18.926244   0.000000
 
 -0.4444444E+00  0.4444444E+00  0.3333333E+00  0.1097394E-01
    1       -1.036537   1.000000
    2        0.139459   1.000000
    3        3.293432   1.000000
    4        4.445608   1.000000
    5       15.991295   0.000000
    6       16.398400   0.000000
    7       18.476670   0.000000
    8       19.200705   0.000000
 
 -0.3333333E+00  0.4444444E+00  0.3333333E+00  0.1097394E-01
    1       -0.838796   1.000000
    2        1.015102   1.000000
    3        2.813935   1.000000
    4        4.634145   1.000000
    5       12.422905   0.000000
    6       18.050436   0.000000
    7       19.575104   0.000000
    8       19.951391   0.000000
 
 -0.4444444E+00 -0.4444444E+00  0.3333333E+00  0.1097394E-01
    1        0.187097   1.000000
    2        0.194748   1.000000
    3        3.347758   1.000000
    4        3.349601   1.000000
    5       12.319316   0.000000
    6       19.143787   0.000000
    7       19.809394   0.000000
    8       19.933256   0.000000
 
 -0.3333333E+00 -0.4444444E+00  0.3333333E+00  0.1097394E-01
    1        0.922107   1.000000
    2        1.598935   1.000000
    3        3.386404   1.000000
    4        4.052190   1.000000
    5        8.525538   0.999975
    6       17.301457   0.000000
    7       18.667708   0.000000
    8       19.245098   0.000000
 
 -0.3333333E+00 -0.3333333E+00  0.3333333E+00  0.2743484E-02
    1        2.777665   1.000000
    2        2.874275   1.000000
    3        4.595035   1.000000
    4        4.595035   1.000000
    5        5.172353   1.000000
    6       15.149462   0.000000
    7       15.928219   0.000000
    8       15.928225   0.000000
 
 -0.4444444E+00  0.4444444E+00  0.4444444E+00  0.5486968E-02
    1       -0.151434   1.000000
    2        0.525677   1.000000
    3        2.352842   1.000000
    4        3.021794   1.000000
    5       16.243193   0.000000
    6       16.322723   0.000000
    7       20.100369   0.000000
    8       20.790544   0.000000
 
 -0.4444444E+00 -0.4444444E+00  0.4444444E+00  0.2743484E-02
    1        0.716953   1.000000
    2        0.727559   1.000000
    3        2.544516   1.000000
    4        2.544516   1.000000
    5       12.210373   0.000000
    6       20.217726   0.000000
    7       20.607550   0.000000
    8       20.964195   0.000000
