unknown system                          
   1.00000000000000     
    -2.440743    2.440743    1.276266
     2.440743   -2.440743    1.276266
     2.440743    2.440743   -1.276266
   Si
     2
Direct
  0.250000  0.750000  0.500000
  0.000000  0.000000  0.000000
 
   28   28   28
 -5.4765     -3.9455     0.35957E-01  4.9482      9.1095      11.412      11.670      10.491      8.8072      7.2004    
  5.8456      4.8094      4.0952      3.6804      3.5446      3.6804      4.0952      4.8096      5.8457      7.2003    
  8.8072      10.491      11.670      11.412      9.1096      4.9483     0.35832E-01 -3.9457     -3.9457     -4.7297    
 -2.5792      1.6422      6.3410      9.9624      11.640      11.417      10.017      8.3316      6.7870      5.5191    
  4.5742      3.9453      3.6081      3.5447      3.7513      4.2388      5.0292      6.1413      7.5608      9.2031    
  10.848      11.802      11.168      8.4918      4.1684     -.53741     0.35832E-01 -2.5794     -2.6295     -.10412    
  3.9700      8.0565      10.838      11.738      11.013      9.4496      7.8014      6.3435      5.1795      4.3356    
  3.7964      3.5376      3.5447      3.8172      4.3687      5.2215      6.3899      7.8490      9.4994      11.082    
  11.856      11.014      8.2665      4.1684      4.9483      1.6422     -.10418     0.43846      3.0285      6.5878    
  9.7559      11.526      11.621      10.463      8.8271      7.2460      5.8943      4.8448      4.1056      3.6557    
  3.4725      3.5448      3.8748      4.4780      5.3760      6.5779      8.0497      9.6825      11.196      11.870    
  11.014      8.4918      9.1096      6.3411      3.9701      3.0286      3.9371      6.2830      9.0486      11.137    
  11.878      11.261      9.8087      8.1850      6.6962      5.4637      4.5320      3.8953      3.5301      3.4161    
  3.5449      3.9211      4.5608      5.4841      6.6950      8.1526      9.7444      11.196      11.856      11.168    
  11.412      9.9624      8.0564      6.5879      6.2831      7.3044      9.1631      10.992      12.001      11.839    
  10.697      9.1221      7.5595      6.1818      5.0735      4.2561      3.7147      3.4255      3.3711      3.5451    
  3.9535      4.6124      5.5397      6.7347      8.1526      9.6825      11.082      11.802      11.670      11.640    
  10.838      9.7559      9.0487      9.1632      10.078      11.316      12.217      12.292      11.456      10.025    
  8.4573      6.9854      5.7288      4.7418      4.0293      3.5720      3.3472      3.3398      3.5453      3.9702    
  4.6300      5.5397      6.6950      8.0497      9.4994      10.848      10.491      11.417      11.738      11.526    
  11.137      10.992      11.316      11.983      12.591      12.702      12.091      10.860      9.3585      7.8548    
  6.4927      5.3579      4.4824      3.8611      3.4733      3.2986      3.3238      3.5454      3.9702      4.6124    
  5.4841      6.5779      7.8490      9.2031      8.8072      10.017      11.013      11.621      11.878      12.001    
  12.217      12.591      12.962      13.039      12.587      11.578      10.220      8.7587      7.3499      6.1047    
  5.0838      4.3047      3.7577      3.4230      3.2822      3.3238      3.5453      3.9535      4.5608      5.3760    
  6.3899      7.5608      7.2003      8.3315      9.4497      10.463      11.261      11.839      12.292      12.702    
  13.039      13.154      12.870      12.113      10.978      9.6469      8.2689      6.9702      5.8379      4.9160    
  4.2145      3.7228      3.4230      3.2986      3.3398      3.5451      3.9211      4.4780      5.2215      6.1413    
  5.8457      6.7869      7.8013      8.8271      9.8088      10.697      11.456      12.091      12.587      12.870    
  12.827      12.378      11.551      10.448      9.1962      7.9231      6.7350      5.7022      4.8596      4.2145    
  3.7577      3.4733      3.3472      3.3711      3.5449      3.8748      4.3687      5.0292      4.8096      5.5192    
  6.3434      7.2459      8.1849      9.1221      10.025      10.860      11.578      12.113      12.378      12.300    
  11.854      11.077      10.057      8.9087      7.7444      6.6553      5.7022      4.9160      4.3047      3.8611    
  3.5720      3.4255      3.4161      3.5448      3.8172      4.2388      4.0952      4.5743      5.1796      5.8943    
  6.6961      7.5594      8.4573      9.3586      10.220      10.978      11.551      11.854      11.826      11.450    
  10.764      9.8500      8.8100      7.7444      6.7350      5.8379      5.0838      4.4824      4.0293      3.7147    
  3.5301      3.4725      3.5447      3.7513      3.6804      3.9452      4.3356      4.8448      5.4637      6.1817    
  6.9853      7.8548      8.7587      9.6469      10.448      11.077      11.450      11.506      11.230      10.655    
  9.8500      8.9087      7.9231      6.9702      6.1047      5.3579      4.7418      4.2561      3.8953      3.6557    
  3.5376      3.5447      3.5446      3.6079      3.7962      4.1055      4.5320      5.0735      5.7288      6.4926    
  7.3499      8.2689      9.1963      10.057      10.764      11.230      11.394      11.230      10.764      10.057    
  9.1962      8.2689      7.3499      6.4927      5.7288      5.0735      4.5320      4.1056      3.7964      3.6081    
  3.6804      3.5446      3.5375      3.6555      3.8952      4.2560      4.7418      5.3579      6.1047      6.9702    
  7.9231      8.9087      9.8500      10.655      11.230      11.506      11.450      11.077      10.448      9.6469    
  8.7587      7.8548      6.9854      6.1818      5.4637      4.8448      4.3356      3.9453      4.0952      3.7513    
  3.5447      3.4724      3.5299      3.7146      4.0293      4.4824      5.0838      5.8379      6.7349      7.7444    
  8.8100      9.8500      10.764      11.450      11.826      11.854      11.551      10.978      10.220      9.3585    
  8.4573      7.5595      6.6962      5.8943      5.1795      4.5742      4.8094      4.2387      3.8172      3.5447    
  3.4160      3.4254      3.5719      3.8610      4.3047      4.9160      5.7022      6.6553      7.7444      8.9087    
  10.057      11.077      11.854      12.300      12.378      12.113      11.578      10.860      10.025      9.1221    
  8.1850      7.2460      6.3435      5.5191      5.8456      5.0291      4.3685      3.8747      3.5449      3.3711    
  3.3471      3.4733      3.7576      4.2145      4.8596      5.7022      6.7349      7.9231      9.1963      10.448    
  11.551      12.378      12.827      12.870      12.587      12.091      11.456      10.697      9.8087      8.8271    
  7.8014      6.7870      7.2004      6.1413      5.2214      4.4778      3.9210      3.5451      3.3398      3.2986    
  3.4229      3.7227      4.2145      4.9160      5.8379      6.9702      8.2689      9.6469      10.978      12.113    
  12.870      13.154      13.039      12.702      12.292      11.839      11.261      10.463      9.4496      8.3316    
  8.8072      7.5609      6.3899      5.3759      4.5607      3.9534      3.5453      3.3238      3.2822      3.4229    
  3.7576      4.3047      5.0838      6.1047      7.3499      8.7587      10.220      11.578      12.587      13.039    
  12.962      12.591      12.217      12.001      11.878      11.621      11.013      10.017      10.491      9.2030    
  7.8490      6.5779      5.4841      4.6124      3.9701      3.5453      3.3238      3.2986      3.4733      3.8610    
  4.4824      5.3579      6.4926      7.8548      9.3586      10.860      12.091      12.702      12.591      11.983    
  11.316      10.992      11.137      11.526      11.738      11.417      11.670      10.848      9.4993      8.0496    
  6.6950      5.5397      4.6299      3.9701      3.5453      3.3398      3.3471      3.5719      4.0293      4.7418    
  5.7288      6.9853      8.4573      10.025      11.456      12.292      12.217      11.316      10.078      9.1631    
  9.0486      9.7559      10.838      11.640      11.412      11.802      11.082      9.6824      8.1524      6.7347    
  5.5397      4.6124      3.9534      3.5451      3.3711      3.4254      3.7146      4.2560      5.0735      6.1817    
  7.5594      9.1221      10.697      11.839      12.001      10.992      9.1632      7.3044      6.2830      6.5878    
  8.0565      9.9624      9.1095      11.168      11.857      11.196      9.7443      8.1524      6.6950      5.4841    
  4.5607      3.9210      3.5449      3.4160      3.5299      3.8952      4.5320      5.4637      6.6961      8.1849    
  9.8088      11.261      11.878      11.137      9.0487      6.2831      3.9371      3.0285      3.9700      6.3410    
  4.9482      8.4917      11.014      11.870      11.196      9.6824      8.0496      6.5779      5.3759      4.4778    
  3.8747      3.5447      3.4724      3.6555      4.1055      4.8448      5.8943      7.2459      8.8271      10.463    
  11.621      11.526      9.7559      6.5879      3.0286     0.43846     -.10412      1.6422     0.35957E-01  4.1683    
  8.2664      11.014      11.857      11.082      9.4993      7.8490      6.3899      5.2214      4.3685      3.8172    
  3.5447      3.5375      3.7962      4.3356      5.1796      6.3434      7.8013      9.4497      11.013      11.738    
  10.838      8.0564      3.9701     -.10418     -2.6295     -2.5792     -3.9455     -.53726      4.1683      8.4917    
  11.168      11.802      10.848      9.2030      7.5609      6.1413      5.0291      4.2387      3.7513      3.5446    
  3.6079      3.9452      4.5743      5.5192      6.7869      8.3315      10.017      11.417      11.640      9.9624    
  6.3411      1.6422     -2.5794     -4.7297     -3.9451     -2.8390     0.62589      5.1055      9.0159      11.243    
  11.527      10.391      8.7180      7.1040      5.7319      4.6738      3.9354      3.4933      3.3235      3.4154    
  3.7754      4.4246      5.3886      6.6727      8.2238      9.8953      11.224      11.333      9.5740      6.0034    
  1.5523     -2.2519     -2.8392     -3.9451     -2.2518      1.5524      6.0035      9.5742      11.333      11.224    
  9.8953      8.2239      6.6728      5.3886      4.4244      3.7754      3.4155      3.3235      3.4933      3.9355    
  4.6739      5.7319      7.1038      8.7179      10.390      11.527      11.243      9.0158      5.1055     0.62577    
 0.74982     -2.1157     -2.5789     -.46977      3.3377      7.3745      10.283      11.381      10.818      9.3252    
  7.6890      6.2238      5.0448      4.1850      3.6304      3.3544      3.3396      3.5845      4.1034      4.9212    
  6.0572      7.4951      9.1469      10.791      11.755      11.208      8.7761      4.8880      5.4108      1.9060    
 -.21784     -.10391      2.1678      5.6283      8.9198      10.942      11.291      10.296      8.7124      7.1396    
  5.7796      4.7171      3.9663      3.5064      3.3124      3.3711      3.6850      4.2710      5.1537      6.3474    
  7.8257      9.4891      11.089      11.936      11.296      8.9405      9.4868      6.5711      3.8706      2.5004    
  3.0287      5.1821      7.9983      10.327      11.376      11.008      9.6816      8.0883      6.6027      5.3618    
  4.4205      3.7775      3.4084      3.2910      3.4163      3.7897      4.4295      5.3588      6.5862      8.0774    
  9.7262      11.277      12.080      11.518      11.826      10.291      8.1299      6.2714      5.5541      6.2831    
  8.0701      10.052      11.348      11.479      10.533      9.0283      7.4834      6.1047      4.9896      4.1676    
  3.6262      3.3402      3.2910      3.4729      3.8932      4.5703      5.5246      6.7597      8.2351      9.8433    
  11.346      12.172      12.173      12.124      11.162      9.7746      8.6797      8.4433      9.1630      10.419    
  11.514      11.856      11.246      9.9295      8.3921      6.9280      5.6689      4.6792      3.9687      3.5185    
  3.3048      3.3125      3.5381      3.9898      4.6851      5.6413      6.8570      8.2883      9.8306      11.280    
  11.067      12.036      12.298      11.893      11.198      10.711      10.764      11.316      11.985      12.274    
  11.860      10.760      9.3000      7.8100      6.4497      5.3146      4.4428      3.8312      3.4586      3.3039    
  3.3545      3.6085      4.0742      4.7673      5.7016      6.8713      8.2315      9.6843      9.4088      10.702    
  11.723      12.254      12.319      12.170      12.108      12.285      12.591      12.726      12.394      11.489    
  10.170      8.7203      7.3152      6.0717      5.0563      4.2891      3.7605      3.4496      3.3381      3.4156    
  3.6808      4.1418      4.8120      5.7013      6.8007      8.0659      7.7991      9.0170      10.202      11.229    
  11.949      12.356      12.585      12.781      12.974      13.039      12.778      12.064      10.943      9.6122    
  8.2337      6.9365      5.8110      4.9035      4.2237      3.7596      3.4927      3.4068      3.4932      3.7515    
  4.1889      4.8165      5.6401      6.6481      6.4220      7.4459      8.5309      9.6010      10.584      11.401    
  12.019      12.477      12.808      12.974      12.870      12.394      11.539      10.416      9.1529      7.8767    
  6.6952      5.6790      4.8619      4.2491      3.8296      3.5871      3.5077      3.5842      3.8172      4.2131    
  4.7804      5.5212      5.3511      6.1353      7.0271      7.9799      8.9396      9.8565      10.693      11.413    
  11.989      12.387      12.542      12.378      11.866      11.045      9.9980      8.8375      7.6766      6.6054    
  5.6819      4.9337      4.3657      3.9691      3.7301      3.6370      3.6845      3.8745      4.2131      4.7057    
  4.5964      5.1396      5.8048      6.5682      7.3980      8.2591      9.1177      9.9419      10.696      11.330    
  11.779      11.972      11.854      11.411      10.680      9.7417      8.6991      7.6504      6.6740      5.8211    
  5.1179      4.5709      4.1740      3.9163      3.7889      3.7892      3.9206      4.1888      4.1415      4.4587    
  4.8988      5.4499      6.0964      6.8202      7.6008      8.4153      9.2340      10.015      10.698      11.210    
  11.478      11.450      11.111      10.498      9.6823      8.7548      7.8039      6.9007      6.0939      5.4104    
  4.8590      4.4371      4.1377      3.9559      3.8927      3.9529      3.9696      4.0738      4.3002      4.6421    
  5.0909      5.6390      6.2791      7.0019      7.7910      8.6177      9.4361      10.181      10.776      11.144    
  11.230      11.017      10.530      9.8322      9.0057      8.1319      7.2782      6.4923      5.8022      5.2199    
  4.7475      4.3838      4.1295      3.9894      4.0739      3.9696      3.9893      4.1294      4.3837      4.7475    
  5.2199      5.8022      6.4923      7.2781      8.1318      9.0057      9.8322      10.530      11.017      11.230    
  11.144      10.776      10.181      9.4361      8.6178      7.7911      7.0020      6.2792      5.6390      5.0909    
  4.6421      4.3003      4.4588      4.1416      3.9530      3.8927      3.9559      4.1376      4.4370      4.8589    
  5.4103      6.0939      6.9007      7.8039      8.7548      9.6823      10.498      11.111      11.450      11.478    
  11.210      10.698      10.015      9.2341      8.4154      7.6009      6.8203      6.0965      5.4499      4.8987    
  5.1396      4.5965      4.1889      3.9207      3.7892      3.7889      3.9162      4.1740      4.5709      5.1179    
  5.8211      6.6740      7.6504      8.6991      9.7418      10.680      11.411      11.854      11.972      11.779    
  11.330      10.696      9.9420      9.1177      8.2592      7.3981      6.5682      5.8047      6.1352      5.3510    
  4.7056      4.2131      3.8746      3.6847      3.6371      3.7301      3.9690      4.3657      4.9337      5.6819    
  6.6054      7.6766      8.8376      9.9980      11.045      11.866      12.378      12.542      12.387      11.989    
  11.413      10.693      9.8565      8.9396      7.9801      7.0272      7.4459      6.4219      5.5211      4.7803    
  4.2131      3.8172      3.5844      3.5078      3.5871      3.8295      4.2491      4.8620      5.6791      6.6951    
  7.8768      9.1529      10.416      11.539      12.394      12.870      12.974      12.808      12.477      12.019    
  11.401      10.583      9.6010      8.5310      9.0170      7.7990      6.6481      5.6401      4.8164      4.1889    
  3.7515      3.4933      3.4069      3.4926      3.7595      4.2237      4.9036      5.8110      6.9365      8.2338    
  9.6123      10.943      12.064      12.778      13.039      12.974      12.781      12.585      12.356      11.949    
  11.229      10.202      10.702      9.4087      8.0658      6.8006      5.7013      4.8120      4.1417      3.6807    
  3.4156      3.3381      3.4495      3.7604      4.2892      5.0564      6.0717      7.3153      8.7204      10.170    
  11.489      12.394      12.726      12.591      12.285      12.108      12.169      12.319      12.254      11.723    
  12.035      11.066      9.6842      8.2314      6.8713      5.7016      4.7673      4.0740      3.6084      3.3545    
  3.3038      3.4585      3.8312      4.4429      5.3147      6.4497      7.8100      9.3001      10.760      11.860    
  12.274      11.985      11.316      10.764      10.711      11.198      11.893      12.297      12.124      12.173    
  11.280      9.8304      8.2881      6.8570      5.6414      4.6850      3.9896      3.5379      3.3124      3.3047    
  3.5183      3.9687      4.6793      5.6689      6.9280      8.3922      9.9296      11.246      11.856      11.514    
  10.418      9.1629      8.4430      8.6795      9.7744      11.162      10.291      11.826      12.172      11.346    
  9.8431      8.2350      6.7597      5.5246      4.5701      3.8931      3.4728      3.2909      3.3401      3.6261    
  4.1677      4.9897      6.1046      7.4834      9.0284      10.533      11.479      11.348      10.052      8.0701    
  6.2829      5.5539      6.2712      8.1297      6.5709      9.4866      11.518      12.080      11.277      9.7261    
  8.0773      6.5863      5.3587      4.4294      3.7896      3.4162      3.2909      3.4083      3.7775      4.4206    
  5.3618      6.6026      8.0884      9.6817      11.008      11.375      10.327      7.9982      5.1821      3.0286    
  2.5003      3.8706      1.9061      5.4107      8.9403      11.296      11.936      11.089      9.4891      7.8257    
  6.3475      5.1536      4.2709      3.6850      3.3711      3.3123      3.5063      3.9664      4.7172      5.7796    
  7.1395      8.7124      10.296      11.291      10.942      8.9196      5.6283      2.1678     -.10388     -.21772    
 -2.1156     0.74994      4.8879      8.7761      11.208      11.755      10.792      9.1469      7.4952      6.0573    
  4.9211      4.1033      3.5845      3.3396      3.3543      3.6303      4.1851      5.0449      6.2238      7.6889    
  9.3252      10.817      11.381      10.283      7.3744      3.3376     -.46983     -2.5789     0.36930E-01 0.75057    
  3.4150      6.9524      10.030      11.682      11.669      10.439      8.7716      7.1709      5.8026      4.7365    
  3.9792      3.5081      3.2986      3.3382      3.6302      4.1929      5.0528      6.2224      7.6662      9.2697    
  10.740      11.361      10.486      8.0225      4.6346      1.5529     0.62646     -.53618     0.62657      3.6255    
  7.2477      10.162      11.520      11.239      9.8819      8.2328      6.6993      5.4214      4.4527      3.7898    
  3.4071      3.2822      3.4070      3.7898      4.4528      5.4214      6.6992      8.2328      9.8819      11.239    
  11.520      10.162      7.2477      3.6254      3.4150     0.75051     0.36993E-01  1.5530      4.6346      8.0225    
  10.486      11.362      10.740      9.2697      7.6663      6.2224      5.0528      4.1929      3.6302      3.3383    
  3.2986      3.5080      3.9793      4.7366      5.8026      7.1708      8.7716      10.439      11.669      11.682    
  10.030      6.9524      7.2345      4.0629      1.9066      1.6431      3.3381      6.2163      9.0699      10.855    
  11.136      10.167      8.6328      7.0986      5.7630      4.7133      3.9675      3.5061      3.3039      3.3471    
  3.6373      4.1904      5.0311      6.1776      7.6133      9.2555      10.916      12.039      11.903      10.183    
  10.625      8.0548      5.4469      3.8709      3.9705      5.6285      8.0374      10.132      11.115      10.788    
  9.5334      7.9990      6.5549      5.3409      4.4168      3.7847      3.4214      3.3047      3.4256      3.7892    
  4.4133      5.3214      6.5262      8.0021      9.6573      11.291      12.350      12.199      12.534      11.276    
  9.2471      7.2950      6.2714      6.5879      7.9982      9.7441      10.970      11.150      10.301      8.8789    
  7.3943      6.0585      4.9735      4.1740      3.6504      3.3785      3.3401      3.5301      3.9561      4.6362    
  5.5912      6.8280      8.3136      9.9513      11.544      12.582      12.699      12.830      11.985      10.563    
  9.2546      8.6795      9.0483      10.052      11.048      11.426      10.921      9.7104      8.2497      6.8445    
  5.6297      4.6744      3.9930      3.5686      3.3784      3.4082      3.6557      4.1296      4.8467      5.8245    
  7.0640      8.5268      10.116      11.649      11.587      12.654      12.993      12.578      11.736      10.979    
  10.711      10.992      11.513      11.792      11.460      10.469      9.0957      7.6762      6.3735      5.2855    
  4.4542      3.8797      3.5420      3.4211      3.5061      3.7964      4.3002      5.0325      6.0067      7.2185    
  8.6259      10.134      10.001      11.347      12.411      12.937      12.905      12.548      12.208      12.108    
  12.216      12.274      11.968      11.144      9.9051      8.5267      7.1872      6.0018      5.0388      4.3202    
  3.8379      3.5720      3.5057      3.6301      3.9453      4.4587      5.1826      6.1262      7.2803      8.6014    
  8.4523      9.7192      10.935      11.961      12.618      12.877      12.880      12.816      12.781      12.702    
  12.394      11.703      10.633      9.3576      8.0424      6.8089      5.7458      4.8987      4.2772      3.8699    
  3.6589      3.6297      3.7751      4.0952      4.5964      5.2881      6.1750      7.2442      7.1114      8.1863    
  9.3058      10.383      11.328      12.046      12.494      12.729      12.830      12.807      12.586      12.064    
  11.207      10.109      8.8932      7.6771      6.5627      5.6170      4.8708      4.3277      3.9763      3.8010    
  3.7893      3.9350      4.2386      4.7056      5.3426      6.1498      6.0517      6.8896      7.8199      8.7874    
  9.7268      10.577      11.292      11.835      12.203      12.397      12.387      12.112      11.539      10.701    
  9.6722      8.5566      7.4591      6.4636      5.6222      4.9577      4.4720      4.1554      3.9946      3.9787    
  4.1029      4.3684      4.7804      5.3427      5.2885      5.8866      6.5928      7.3769      8.1985      9.0130    
  9.7790      10.464      11.040      11.479      11.742      11.779      11.551      11.045      10.296      9.3764    
  8.3832      7.4078      6.5204      5.7643      5.1591      4.7078      4.4028      4.2331      4.1899      4.2704    
  4.4777      4.8166      4.8122      5.1832      5.6645      6.2396      6.8860      7.5779      8.2880      8.9895    
  9.6559      10.256      10.751      11.088      11.210      11.077      10.680      10.051      9.2615      8.3955    
  7.5332      6.7357      6.0419      5.4714      5.0291      4.7104      4.5069      4.4130      4.4291      4.5606    
  4.6123      4.7675      5.0331      5.3991      5.8520      6.3780      6.9640      7.5959      8.2565      8.9224    
  9.5598      10.121      10.547      10.776      10.764      10.498      10.006      9.3494      8.6021      7.8356    
  7.1054      6.4489      5.8865      5.4259      5.0660      4.8030      4.6362      4.5701      4.6852      4.6299    
  4.6852      4.8471      5.1062      5.4533      5.8826      6.3909      6.9734      7.6188      8.3053      8.9969    
  9.6418      10.175      10.530      10.654      10.530      10.175      9.6418      8.9969      8.3053      7.6188    
  6.9734      6.3909      5.8825      5.4532      5.1061      4.8470      5.0331      4.7676      4.6124      4.5702    
  4.6363      4.8032      5.0661      5.4259      5.8866      6.4489      7.1055      7.8355      8.6021      9.3494    
  10.006      10.498      10.764      10.776      10.547      10.121      9.5598      8.9224      8.2565      7.5958    
  6.9639      6.3780      5.8519      5.3990      5.6645      5.1833      4.8124      4.5607      4.4293      4.4132    
  4.5070      4.7104      5.0291      5.4714      6.0419      6.7357      7.5332      8.3955      9.2616      10.051    
  10.680      11.077      11.210      11.088      10.751      10.257      9.6559      8.9896      8.2880      7.5779    
  6.8860      6.2395      6.5928      5.8867      5.2887      4.8168      4.4779      4.2706      4.1901      4.2332    
  4.4028      4.7077      5.1592      5.7644      6.5204      7.4078      8.3832      9.3764      10.296      11.045    
  11.551      11.779      11.742      11.479      11.040      10.464      9.7790      9.0130      8.1986      7.3769    
  7.8199      6.8897      6.0518      5.3429      4.7806      4.3685      4.1030      3.9788      3.9946      4.1554    
  4.4720      4.9578      5.6222      6.4636      7.4591      8.5566      9.6722      10.701      11.539      12.112    
  12.387      12.397      12.202      11.835      11.292      10.577      9.7268      8.7874      9.3059      8.1863    
  7.1115      6.1500      5.3428      4.7057      4.2386      3.9351      3.7894      3.8010      3.9762      4.3277    
  4.8709      5.6170      6.5626      7.6772      8.8932      10.109      11.207      12.064      12.587      12.807    
  12.830      12.729      12.494      12.046      11.328      10.383      10.935      9.7193      8.4523      7.2443    
  6.1752      5.2883      4.5963      4.0951      3.7751      3.6297      3.6588      3.8699      4.2773      4.8987    
  5.7458      6.8089      8.0424      9.3577      10.633      11.703      12.394      12.702      12.781      12.816    
  12.880      12.877      12.618      11.961      12.411      11.347      10.001      8.6014      7.2804      6.1263    
  5.1827      4.4586      3.9452      3.6301      3.5057      3.5720      3.8379      4.3203      5.0388      6.0018    
  7.1872      8.5268      9.9052      11.143      11.968      12.274      12.216      12.108      12.208      12.548    
  12.904      12.937      12.993      12.654      11.587      10.134      8.6259      7.2186      6.0068      5.0325    
  4.3001      3.7963      3.5062      3.4211      3.5419      3.8797      4.4543      5.2854      6.3734      7.6762    
  9.0958      10.469      11.460      11.792      11.513      10.992      10.711      10.979      11.736      12.578    
  11.985      12.830      12.699      11.649      10.115      8.5268      7.0641      5.8245      4.8466      4.1295    
  3.6557      3.4082      3.3783      3.5685      3.9931      4.6745      5.6296      6.8445      8.2498      9.7104    
  10.921      11.426      11.048      10.052      9.0481      8.6793      9.2545      10.563      9.2470      11.276    
  12.534      12.582      11.544      9.9512      8.3135      6.8280      5.5911      4.6361      3.9561      3.5302    
  3.3401      3.3784      3.6503      4.1740      4.9735      6.0584      7.3943      8.8790      10.301      11.150    
  10.969      9.7441      7.9981      6.5877      6.2713      7.2950      5.4469      8.0547      10.625      12.199    
  12.350      11.291      9.6572      8.0021      6.5263      5.3213      4.4132      3.7892      3.4257      3.3047    
  3.4213      3.7847      4.4169      5.3409      6.5548      7.9990      9.5334      10.788      11.115      10.132    
  8.0374      5.6284      3.9704      3.8708      1.9066      4.0629      7.2345      10.182      11.904      12.039    
  10.915      9.2554      7.6134      6.1777      5.0310      4.1903      3.6374      3.3472      3.3039      3.5060    
  3.9675      4.7134      5.7629      7.0985      8.6328      10.167      11.136      10.855      9.0698      6.2163    
  3.3380      1.6429      4.9490      5.4112      7.2343      9.6334      11.608      12.435      11.966      10.598    
  8.9600      7.4027      6.0633      5.0044      4.2332      3.7302      3.4732      3.4495      3.6591      4.1153    
  4.8414      5.8544      7.1367      8.6073      10.098      11.163      11.218      10.048      8.0226      6.0039    
  5.1061      4.1693      4.8885      6.9523      9.4539      11.364      12.026      11.399      9.9672      8.3613    
  6.8730      5.6251      4.6664      3.9948      3.5872      3.4228      3.4926      3.8013      4.3663      5.2119    
  6.3486      7.7436      9.2928      10.772      11.612      11.259      9.6259      7.2477      6.9524      4.8885    
  4.1694      5.1062      7.2476      9.6258      11.259      11.612      10.771      9.2926      7.7435      6.3487    
  5.2118      4.3662      3.8013      3.4928      3.4228      3.5872      3.9949      4.6666      5.6251      6.8729    
  8.3613      9.9674      11.399      12.026      11.364      9.4539      9.6334      7.2343      5.4113      4.9492    
  6.0040      8.0225      10.048      11.219      11.163      10.098      8.6071      7.1367      5.8544      4.8413    