 running on    8 total cores
 distrk:  each k-point on    8 cores,    1 groups
 distr:  one band on    1 cores,    8 groups
 using from now: INCAR     
 vasp.5.4.4.18Apr17-6-g9f103f2a35 (build Dec 09 2018 21:25:21) complex          
  
 POSCAR found type information on POSCAR  Si
 POSCAR found :  1 types and       2 ions
 scaLAPACK will be used

 ----------------------------------------------------------------------------- 
|                                                                             |
|           W    W    AA    RRRRR   N    N  II  N    N   GGGG   !!!           |
|           W    W   A  A   R    R  NN   N  II  NN   N  G    G  !!!           |
|           W    W  A    A  R    R  N N  N  II  N N  N  G       !!!           |
|           W WW W  AAAAAA  RRRRR   N  N N  II  N  N N  G  GGG   !            |
|           WW  WW  A    A  R   R   N   NN  II  N   NN  G    G                |
|           W    W  A    A  R    R  N    N  II  N    N   GGGG   !!!           |
|                                                                             |
|      For optimal performance we recommend to set                            |
|        NCORE= 4 - approx SQRT( number of cores)                             |
|      NCORE specifies how many cores store one orbital (NPAR=cpu/NCORE).     |
|      This setting can  greatly improve the performance of VASP for DFT.     |
|      The default,   NCORE=1            might be grossly inefficient         |
|      on modern multi-core architectures or massively parallel machines.     |
|      Do your own testing !!!!                                               |
|      Unfortunately you need to use the default for GW and RPA calculations. |
|      (for HF NCORE is supported but not extensively tested yet)             |
|                                                                             |
 ----------------------------------------------------------------------------- 

 LDA part: xc-table for Pade appr. of Perdew
 POSCAR, INCAR and KPOINTS ok, starting setup
 FFT: planning ...
 WAVECAR not read
 entering main loop
       N       E                     dE             d eps       ncg     rms          rms(c)
DAV:   1    -0.102374918380E+00   -0.10237E+00   -0.24090E+03   456   0.454E+02
DAV:   2    -0.101839490196E+02   -0.10082E+02   -0.97575E+01   664   0.573E+01
DAV:   3    -0.102837679574E+02   -0.99819E-01   -0.99812E-01   592   0.725E+00
DAV:   4    -0.102840148899E+02   -0.24693E-03   -0.24693E-03   640   0.342E-01
DAV:   5    -0.102840150769E+02   -0.18707E-06   -0.18712E-06   576   0.701E-03    0.151E+00
DAV:   6    -0.102788784485E+02    0.51366E-02   -0.18312E-03   528   0.324E-01    0.948E-01
DAV:   7    -0.102746492201E+02    0.42292E-02   -0.54084E-03   488   0.568E-01    0.336E-02
DAV:   8    -0.102746347319E+02    0.14488E-04   -0.75737E-05   296   0.704E-02
   1 F= -.10274635E+02 E0= -.10268950E+02  d E =-.102746E+02
 curvature:   0.00 expect dE= 0.000E+00 dE for cont linesearch  0.000E+00
 trial: gam= 0.00000 g(F)=  0.260E-44 g(S)=  0.131E-02 ort = 0.000E+00 (trialstep = 0.100E+01)
 search vector abs. value=  0.131E-02
 bond charge predicted
       N       E                     dE             d eps       ncg     rms          rms(c)
DAV:   1    -0.102753109581E+02   -0.66174E-03   -0.29065E-02   592   0.988E-01    0.105E-01
DAV:   2    -0.102750065946E+02    0.30436E-03   -0.60632E-04   472   0.186E-01
   2 F= -.10275007E+02 E0= -.10269203E+02  d E =-.371863E-03
 trial-energy change:   -0.000372  1 .order   -0.000526   -0.001315    0.000262
 step:   0.8337(harm=  0.8337)  dis= 0.00000  next Energy=   -10.275183 (dE=-0.548E-03)
 bond charge predicted
       N       E                     dE             d eps       ncg     rms          rms(c)
DAV:   1    -0.102749788247E+02    0.33213E-03   -0.21647E-03   512   0.264E-01    0.202E-02
DAV:   2    -0.102749712430E+02    0.75817E-05   -0.58317E-05   248   0.612E-02
   3 F= -.10274971E+02 E0= -.10269194E+02  d E =-.336511E-03
 curvature:  -0.42 expect dE=-0.148E-03 dE for cont linesearch -0.140E-03
 ZBRENT: interpolating
 opt :   0.5540  next Energy=   -10.275064 (dE=-0.429E-03)
 bond charge predicted
       N       E                     dE             d eps       ncg     rms          rms(c)
DAV:   1    -0.102750650663E+02   -0.86242E-04   -0.19642E-03   608   0.256E-01    0.286E-02
DAV:   2    -0.102750409383E+02    0.24128E-04   -0.39909E-05   272   0.483E-02
   4 F= -.10275041E+02 E0= -.10269299E+02  d E =-.406206E-03
 curvature:  -0.28 expect dE=-0.380E-05 dE for cont linesearch -0.174E-05
 ZBRENT: interpolating
 opt :   0.5125  next Energy=   -10.275043 (dE=-0.408E-03)
 bond charge predicted
       N       E                     dE             d eps       ncg     rms          rms(c)
DAV:   1    -0.102750229054E+02    0.42161E-04   -0.14709E-05   248   0.258E-02    0.416E-03
DAV:   2    -0.102750223094E+02    0.59597E-06   -0.12275E-06   248   0.886E-03
   5 F= -.10275022E+02 E0= -.10269284E+02  d E =-.387578E-03
 curvature:  -0.32 expect dE=-0.781E-05 dE for cont linesearch -0.614E-05
 ZBRENT: interpolating
 opt :   0.5389  next Energy=   -10.275042 (dE=-0.407E-03)
 bond charge predicted
       N       E                     dE             d eps       ncg     rms          rms(c)
DAV:   1    -0.102750259801E+02   -0.30747E-05   -0.24057E-05   248   0.284E-02    0.257E-03
DAV:   2    -0.102750258658E+02    0.11436E-06   -0.98903E-07   248   0.822E-03
   6 F= -.10275026E+02 E0= -.10269284E+02  d E =-.391134E-03
 curvature:  -0.04 expect dE=-0.702E-06 dE for cont linesearch -0.483E-06
 trial: gam=-0.08640 g(F)=  0.325E-44 g(S)=  0.196E-04 ort = 0.133E-03 (trialstep = 0.908E+00)
 search vector abs. value=  0.642E-05
 reached required accuracy - stopping structural energy minimisation
 writing wavefunctions
