unknown system                          
           1
    -2.450000    2.450000    1.274000
     2.450000   -2.450000    1.274000
     2.450000    2.450000   -1.274000
   Si
   2
Direct configuration=     1
   0.25000000  0.75000000  0.50000000
   0.00000000  0.00000000  0.00000000
unknown system                          
           1
    -2.440743    2.440743    1.276266
     2.440743   -2.440743    1.276266
     2.440743    2.440743   -1.276266
   Si
   2
Direct configuration=     2
   0.25000000  0.75000000  0.50000000
  -0.00000000 -0.00000000 -0.00000000
unknown system                          
           1
    -2.442282    2.442282    1.275889
     2.442282   -2.442282    1.275889
     2.442282    2.442282   -1.275889
   Si
   2
Direct configuration=     3
   0.25000000  0.75000000  0.50000000
  -0.00000000 -0.00000000 -0.00000000
unknown system                          
           1
    -2.444871    2.444871    1.275255
     2.444871   -2.444871    1.275255
     2.444871    2.444871   -1.275255
   Si
   2
Direct configuration=     4
   0.25000000  0.75000000  0.50000000
  -0.00000000 -0.00000000 -0.00000000
unknown system                          
           1
    -2.445256    2.445256    1.275161
     2.445256   -2.445256    1.275161
     2.445256    2.445256   -1.275161
   Si
   2
Direct configuration=     5
   0.25000000  0.75000000  0.50000000
  -0.00000000 -0.00000000 -0.00000000
unknown system                          
           1
    -2.445011    2.445011    1.275221
     2.445011   -2.445011    1.275221
     2.445011    2.445011   -1.275221
   Si
   2
Direct configuration=     6
   0.25000000  0.75000000  0.50000000
  -0.00000000 -0.00000000 -0.00000000
