unknown system                          
   1.00000000000000     
    -2.450000    2.450000    1.274000
     2.450000   -2.450000    1.274000
     2.450000    2.450000   -1.274000
   Si
     2
Direct
  0.250000  0.750000  0.500000
  0.000000  0.000000  0.000000
 
   28   28   28
 -5.4061     -3.8750     0.10407      5.0059      9.1469      11.427      11.679      10.519      8.8790      7.3312    
  6.0384      5.0552      4.3788      3.9859      3.8572      3.9858      4.3787      5.0553      6.0384      7.3312    
  8.8790      10.519      11.679      11.427      9.1469      5.0059     0.10397     -3.8751     -3.8751     -4.6928    
 -2.5684      1.6430      6.3424      9.9644      11.640      11.423      10.049      8.4094      6.9237      5.7160    
  4.8221      4.2295      3.9136      3.8572      4.0567      4.5220      5.2734      6.3303      7.6860      9.2686    
  10.871      11.813      11.197      8.5569      4.2604     -.44363     0.10397     -2.5685     -2.6803     -.19022    
  3.8863      7.9989      10.807      11.725      11.017      9.4843      7.8844      6.4856      5.3805      4.5856    
  4.0813      3.8431      3.8571      4.1230      4.6523      5.4648      6.5759      7.9691      9.5594      11.101    
  11.868      11.052      8.3423      4.2604      5.0059      1.6430     -.19026     0.27800      2.8427      6.4304    
  9.6536      11.473      11.598      10.463      8.8628      7.3332      6.0413      5.0493      4.3572      3.9408    
  3.7776      3.8571      4.1814      4.7626      5.6191      6.7616      8.1659      9.7385      11.213      11.882    
  11.052      8.5569      9.1469      6.3424      3.8863      2.8427      3.6826      6.0263      8.8478      11.011    
  11.811      11.227      9.8031      8.2205      6.7866      5.6148      4.7393      4.1479      3.8147      3.7202    
  3.8572      4.2287      4.8467      5.7274      6.8772      8.2668      9.7990      11.213      11.868      11.197    
  11.427      9.9643      7.9989      6.4304      6.0264      6.9984      8.8796      10.782      11.869      11.762    
  10.652      9.1098      7.5943      6.2749      5.2277      4.4652      3.9673      3.7090      3.6741      3.8573    
  4.2621      4.8995      5.7833      6.9165      8.2668      9.7385      11.101      11.813      11.679      11.640    
  10.807      9.6535      8.8479      8.8797      9.7684      11.045      12.018      12.160      11.367      9.9673    
  8.4389      7.0196      5.8241      4.8984      4.2395      3.8239      3.6291      3.6417      3.8574      4.2794    
  4.9174      5.7833      6.8772      8.1659      9.5594      10.871      10.519      11.423      11.725      11.473    
  11.011      10.782      11.045      11.702      12.349      12.518      11.954      10.757      9.2896      7.8318    
  6.5267      5.4551      4.6406      4.0716      3.7245      3.5794      3.6250      3.8575      4.2794      4.8995    
  5.7274      6.7616      7.9691      9.2686      8.8790      10.049      11.017      11.598      11.811      11.869    
  12.018      12.350      12.718      12.824      12.408      11.430      10.103      8.6815      7.3237      6.1391    
  5.1826      4.4640      3.9682      3.6735      3.5625      3.6250      3.8574      4.2621      4.8467      5.6191    
  6.5759      7.6860      7.3312      8.4094      9.4844      10.463      11.228      11.762      12.160      12.518    
  12.824      12.934      12.664      11.928      10.818      9.5205      8.1860      6.9421      5.8727      5.0158    
  4.3744      3.9333      3.6735      3.5794      3.6417      3.8573      4.2287      4.7626      5.4648      6.3303    
  6.0384      6.9236      7.8844      8.8629      9.8032      10.652      11.367      11.954      12.408      12.664    
  12.612      12.168      11.357      10.280      9.0634      7.8368      6.7059      5.7374      4.9597      4.3744    
  3.9682      3.7245      3.6291      3.6741      3.8572      4.1814      4.6523      5.2734      5.0553      5.7161    
  6.4856      7.3331      8.2204      9.1098      9.9673      10.757      11.430      11.928      12.168      12.079    
  11.638      10.878      9.8839      8.7723      7.6564      6.6260      5.7374      5.0158      4.4640      4.0716    
  3.8239      3.7090      3.7202      3.8571      4.1230      4.5220      4.3787      4.8221      5.3805      6.0413    
  6.7866      7.5942      8.4389      9.2896      10.103      10.818      11.357      11.638      11.602      11.231    
  10.561      9.6740      8.6723      7.6564      6.7059      5.8727      5.1826      4.6406      4.2395      3.9673    
  3.8147      3.7776      3.8571      4.0567      3.9858      4.2295      4.5856      5.0494      5.6148      6.2748    
  7.0195      7.8317      8.6815      9.5205      10.280      10.878      11.231      11.281      11.010      10.451    
  9.6740      8.7723      7.8368      6.9421      6.1391      5.4551      4.8984      4.4652      4.1479      3.9408    
  3.8431      3.8572      3.8572      3.9135      4.0812      4.3572      4.7393      5.2277      5.8241      6.5267    
  7.3236      8.1860      9.0635      9.8839      10.561      11.010      11.168      11.010      10.561      9.8839    
  9.0634      8.1860      7.3237      6.5267      5.8241      5.2277      4.7393      4.3572      4.0813      3.9136    
  3.9859      3.8572      3.8431      3.9408      4.1479      4.4652      4.8984      5.4551      6.1391      6.9421    
  7.8368      8.7723      9.6740      10.451      11.010      11.281      11.231      10.878      10.280      9.5205    
  8.6815      7.8318      7.0196      6.2749      5.6148      5.0493      4.5856      4.2295      4.3788      4.0568    
  3.8572      3.7776      3.8146      3.9673      4.2394      4.6406      5.1826      5.8727      6.7059      7.6564    
  8.6724      9.6740      10.561      11.231      11.602      11.638      11.357      10.818      10.103      9.2896    
  8.4389      7.5943      6.7866      6.0413      5.3805      4.8221      5.0552      4.5220      4.1231      3.8572    
  3.7202      3.7089      3.8239      4.0715      4.4640      5.0158      5.7374      6.6260      7.6564      8.7723    
  9.8839      10.878      11.638      12.079      12.168      11.928      11.430      10.757      9.9673      9.1098    
  8.2205      7.3332      6.4856      5.7160      6.0384      5.2733      4.6523      4.1814      3.8572      3.6741    
  3.6291      3.7244      3.9681      4.3743      4.9597      5.7374      6.7059      7.8368      9.0635      10.280    
  11.357      12.168      12.612      12.664      12.408      11.954      11.367      10.652      9.8031      8.8628    
  7.8844      6.9237      7.3312      6.3303      5.4648      4.7626      4.2287      3.8573      3.6417      3.5794    
  3.6735      3.9332      4.3743      5.0158      5.8727      6.9421      8.1860      9.5205      10.818      11.928    
  12.664      12.934      12.824      12.518      12.160      11.762      11.227      10.463      9.4843      8.4094    
  8.8790      7.6860      6.5759      5.6191      4.8467      4.2620      3.8573      3.6250      3.5625      3.6735    
  3.9681      4.4640      5.1826      6.1391      7.3236      8.6815      10.103      11.430      12.408      12.824    
  12.718      12.349      12.018      11.869      11.811      11.598      11.017      10.049      10.519      9.2686    
  7.9690      6.7615      5.7274      4.8994      4.2793      3.8574      3.6250      3.5794      3.7244      4.0715    
  4.6406      5.4551      6.5267      7.8317      9.2896      10.757      11.954      12.518      12.350      11.702    
  11.045      10.782      11.011      11.473      11.725      11.423      11.679      10.871      9.5593      8.1658    
  6.8772      5.7833      4.9174      4.2793      3.8573      3.6417      3.6291      3.8239      4.2394      4.8984    
  5.8241      7.0195      8.4389      9.9673      11.367      12.160      12.018      11.045      9.7684      8.8796    
  8.8478      9.6536      10.807      11.640      11.427      11.813      11.101      9.7384      8.2666      6.9165    
  5.7833      4.8994      4.2620      3.8573      3.6741      3.7089      3.9673      4.4652      5.2277      6.2748    
  7.5942      9.1098      10.652      11.762      11.869      10.782      8.8797      6.9984      6.0263      6.4304    
  7.9989      9.9644      9.1469      11.197      11.868      11.213      9.7989      8.2666      6.8772      5.7274    
  4.8467      4.2287      3.8572      3.7202      3.8146      4.1479      4.7393      5.6148      6.7866      8.2204    
  9.8032      11.228      11.811      11.011      8.8479      6.0264      3.6826      2.8427      3.8863      6.3424    
  5.0059      8.5569      11.052      11.882      11.213      9.7384      8.1658      6.7615      5.6191      4.7626    
  4.1814      3.8572      3.7776      3.9408      4.3572      5.0494      6.0413      7.3331      8.8629      10.463    
  11.598      11.473      9.6535      6.4304      2.8427     0.27800     -.19022      1.6430     0.10407      4.2604    
  8.3422      11.052      11.868      11.101      9.5593      7.9690      6.5759      5.4648      4.6523      4.1231    
  3.8572      3.8431      4.0812      4.5856      5.3805      6.4856      7.8844      9.4844      11.017      11.725    
  10.807      7.9989      3.8863     -.19026     -2.6803     -2.5684     -3.8750     -.44351      4.2604      8.5569    
  11.197      11.813      10.871      9.2686      7.6860      6.3303      5.2733      4.5220      4.0568      3.8572    
  3.9135      4.2295      4.8221      5.7161      6.9236      8.4094      10.049      11.423      11.640      9.9643    
  6.3424      1.6430     -2.5685     -4.6928     -3.8750     -2.7566     0.71728      5.1910      9.0782      11.277    
  11.548      10.427      8.7957      7.2377      5.9243      4.9157      4.2117      3.7887      3.6249      3.7107    
  4.0519      4.6683      5.5860      6.8146      8.3118      9.9425      11.253      11.366      9.6218      6.0629    
  1.6150     -2.1884     -2.7567     -3.8751     -2.1883      1.6151      6.0630      9.6219      11.366      11.253    
  9.9426      8.3118      6.8146      5.5860      4.6683      4.0519      3.7107      3.6249      3.7887      4.2117    
  4.9157      5.9243      7.2377      8.7957      10.427      11.548      11.277      9.0782      5.1910     0.71719    
 0.82313     -2.0728     -2.5685     -.47446      3.3392      7.3912      10.309      11.408      10.850      9.3798    
  7.7848      6.3724      5.2466      4.4309      3.9075      3.6500      3.6416      3.8809      4.3800      5.1613    
  6.2445      7.6200      9.2130      10.815      11.766      11.237      8.8374      4.9691      5.4544      1.9173    
 -.26028     -.19029      2.0727      5.5607      8.8934      10.947      11.311      10.328      8.7704      7.2406    
  5.9334      4.9225      4.2141      3.7844      3.6085      3.6741      3.9828      4.5484      5.3923      6.5293    
  7.9415      9.5434      11.100      11.934      11.311      8.9810      9.4899      6.5531      3.7953      2.3560    
  2.8427      5.0066      7.8766      10.269      11.363      11.018      9.7085      8.1463      6.7068      5.5192    
  4.6285      4.0266      3.6868      3.5876      3.7203      4.0891      4.7079      5.5957      6.7628      8.1847    
  9.7699      11.276      12.064      11.512      11.795      10.250      8.0445      6.1122      5.3242      6.0263    
  7.8471      9.9034      11.274      11.452      10.529      9.0468      7.5390      6.2099      5.1491      4.3771    
  3.8757      3.6185      3.5876      3.7777      4.1939      4.8490      5.7596      6.9315      8.3355      9.8790    
  11.335      12.142      12.131      12.069      11.080      9.6346      8.4628      8.1668      8.8796      10.186    
  11.361      11.772      11.202      9.9090      8.4010      6.9800      5.7741      4.8396      4.1785      3.7675    
  3.5822      3.6086      3.8433      4.2911      4.9635      5.8740      7.0248      8.3840      9.8615      11.263    
  11.048      11.986      12.225      11.783      11.027      10.472      10.483      11.045      11.769      12.127    
  11.766      10.697      9.2627      7.8094      6.4979      5.4190      4.6031      4.0405      3.7065      3.5801    
  3.6501      3.9137      4.3753      5.0445      5.9319      7.0364      8.3252      9.7138      9.4399      10.684    
  11.670      12.171      12.196      11.991      11.876      12.028      12.349      12.531      12.249      11.379    
  10.086      8.6684      7.3062      6.1159      5.1592      4.4485      3.9685      3.6961      3.6134      3.7108    
  3.9860      4.4423      5.0875      5.9296      6.9648      8.1602      7.8966      9.0521      10.186      11.174    
  11.860      12.228      12.412      12.569      12.746      12.824      12.593      11.909      10.814      9.5112    
  8.1697      6.9201      5.8514      5.0042      4.3813      3.9660      3.7379      3.6816      3.7887      4.0568    
  4.4886      5.0905      5.8674      6.8132      6.5899      7.5485      8.5717      9.5889      10.529      11.309    
  11.890      12.309      12.610      12.763      12.664      12.204      11.369      10.271      9.0383      7.8027    
  6.6724      5.7155      4.9597      4.4043      4.0341      3.8316      3.7830      3.8807      4.1230      4.5123    
  5.0535      5.7488      5.5804      6.3075      7.1362      8.0273      8.9319      9.8017      10.597      11.279    
  11.820      12.192      12.333      12.168      11.666      10.863      9.8401      8.7123      7.5946      6.5769    
  5.7139      5.0276      4.5176      4.1715      3.9741      3.9133      3.9826      4.1813      4.5123      4.9788    
  4.8706      5.3718      5.9823      6.6844      7.4525      8.2564      9.0640      9.8430      10.556      11.156    
  11.579      11.758      11.638      11.203      10.489      9.5748      8.5658      7.5619      6.6401      5.8480    
  5.2069      4.7187      4.3740      4.1599      4.0664      4.0889      4.2286      4.4886      4.4422      4.7345    
  5.1343      5.6331      6.2200      6.8821      7.6037      8.3639      9.1339      9.8719      10.520      11.008    
  11.262      11.231      10.899      10.301      9.5089      8.6159      7.7103      6.8616      6.1151      5.4935    
  5.0018      4.6341      4.3805      4.2342      4.1937      4.2619      4.2792      4.3752      4.5774      4.8808    
  5.2795      5.7696      6.3485      7.0108      7.7430      8.5183      9.2924      10.003      10.573      10.928    
  11.010      10.802      10.329      9.6550      8.8633      8.0346      7.2343      6.5074      5.8788      5.3570    
  4.9407      4.6250      4.4077      4.2910      4.3753      4.2792      4.2909      4.4076      4.6250      4.9407    
  5.3570      5.8787      6.5074      7.2343      8.0345      8.8633      9.6550      10.329      10.802      11.010    
  10.928      10.573      10.003      9.2924      8.5183      7.7430      7.0108      6.3486      5.7697      5.2794    
  4.8808      4.5775      4.7345      4.4423      4.2620      4.1937      4.2341      4.3805      4.6341      5.0018    
  5.4935      6.1151      6.8616      7.7103      8.6159      9.5090      10.301      10.899      11.231      11.262    
  11.008      10.520      9.8719      9.1339      8.3640      7.6038      6.8823      6.2201      5.6330      5.1342    
  5.3717      4.8706      4.4887      4.2287      4.0890      4.0664      4.1599      4.3740      4.7186      5.2069    
  5.8480      6.6401      7.5619      8.5659      9.5748      10.489      11.203      11.638      11.758      11.579    
  11.156      10.556      9.8430      9.0640      8.2564      7.4526      6.6845      5.9823      6.3074      5.5803    
  4.9788      4.5124      4.1815      3.9827      3.9133      3.9741      4.1714      4.5175      5.0276      5.7139    
  6.5769      7.5946      8.7124      9.8401      10.863      11.666      12.168      12.332      12.192      11.820    
  11.279      10.597      9.8016      8.9318      8.0274      7.1362      7.5485      6.5899      5.7487      5.0535    
  4.5124      4.1231      3.8809      3.7831      3.8316      4.0340      4.4042      4.9597      5.7155      6.6724    
  7.8027      9.0383      10.271      11.369      12.204      12.664      12.763      12.610      12.309      11.890    
  11.309      10.528      9.5888      8.5717      9.0521      7.8966      6.8132      5.8674      5.0905      4.4887    
  4.0569      3.7888      3.6817      3.7379      3.9659      4.3813      5.0043      5.8515      6.9201      8.1697    
  9.5112      10.814      11.909      12.593      12.824      12.746      12.569      12.412      12.228      11.860    
  11.174      10.186      10.684      9.4399      8.1603      6.9648      5.9297      5.0875      4.4422      3.9860    
  3.7108      3.6133      3.6960      3.9685      4.4485      5.1592      6.1160      7.3061      8.6684      10.086    
  11.379      12.249      12.531      12.349      12.028      11.876      11.991      12.196      12.171      11.670    
  11.986      11.048      9.7137      8.3252      7.0364      5.9319      5.0445      4.3752      3.9136      3.6500    
  3.5801      3.7064      4.0405      4.6032      5.4190      6.4979      7.8093      9.2627      10.697      11.766    
  12.127      11.769      11.045      10.483      10.472      11.027      11.783      12.225      12.069      12.131    
  11.263      9.8614      8.3839      7.0248      5.8740      4.9634      4.2909      3.8431      3.6085      3.5821    
  3.7674      4.1785      4.8397      5.7742      6.9800      8.4010      9.9090      11.202      11.772      11.361    
  10.186      8.8797      8.1667      8.4626      9.6345      11.080      10.249      11.795      12.142      11.335    
  9.8789      8.3354      6.9314      5.7596      4.8490      4.1937      3.7776      3.5875      3.6184      3.8757    
  4.3771      5.1492      6.2100      7.5389      9.0468      10.529      11.452      11.274      9.9034      7.8472    
  6.0264      5.3242      6.1121      8.0444      6.5530      9.4899      11.513      12.064      11.276      9.7698    
  8.1846      6.7628      5.5957      4.7078      4.0890      3.7202      3.5875      3.6868      4.0266      4.6285    
  5.5192      6.7068      8.1462      9.7085      11.018      11.363      10.269      7.8766      5.0067      2.8429    
  2.3560      3.7952      1.9173      5.4543      8.9809      11.311      11.934      11.100      9.5434      7.9414    
  6.5292      5.3923      4.5484      3.9827      3.6740      3.6085      3.7844      4.2141      4.9225      5.9334    
  7.2406      8.7703      10.328      11.311      10.947      8.8933      5.5606      2.0728     -.19011     -.26014    
 -2.0726     0.82320      4.9691      8.8374      11.237      11.766      10.815      9.2130      7.6199      6.2445    
  5.1613      4.3799      3.8808      3.6416      3.6500      3.9076      4.4310      5.2466      6.3724      7.7847    
  9.3797      10.850      11.408      10.309      7.3911      3.3391     -.47441     -2.5683     0.10415     0.82323    
  3.4858      7.0060      10.054      11.676      11.654      10.446      8.8241      7.2823      5.9743      4.9584    
  4.2354      3.7831      3.5794      3.6134      3.8882      4.4214      5.2393      6.3579      7.7504      9.3134    
  10.763      11.385      10.523      8.0734      4.6930      1.6151     0.71729     -.44345     0.71735      3.7080    
  7.3115      10.199      11.532      11.246      9.9094      8.3027      6.8237      5.6011      4.6781      4.0467    
  3.6817      3.5625      3.6817      4.0467      4.6781      5.6011      6.8238      8.3027      9.9093      11.245    
  11.532      10.199      7.3114      3.7079      3.4858     0.82321     0.10414      1.6152      4.6932      8.0735    
  10.523      11.384      10.763      9.3135      7.7504      6.3578      5.2393      4.4215      3.8882      3.6133    
  3.5794      3.7831      4.2354      4.9584      5.9743      7.2824      8.8241      10.446      11.654      11.676    
  10.054      7.0060      7.2507      4.0838      1.9173      1.6431      3.3393      6.2300      9.0962      10.885    
  11.164      10.199      8.6876      7.1932      5.9067      4.9053      4.1990      3.7656      3.5801      3.6291    
  3.9135      4.4462      5.2491      6.3403      7.7103      9.2888      10.899      11.999      11.872      10.176    
  10.576      8.0118      5.3919      3.7953      3.8864      5.5607      8.0047      10.133      11.135      10.814    
  9.5686      8.0594      6.6561      5.4905      4.6127      4.0185      3.6823      3.5821      3.7090      4.0665    
  4.6685      5.5349      6.6791      8.0840      9.6713      11.252      12.284      12.135      12.435      11.178    
  9.1375      7.1595      6.1122      6.4304      7.8766      9.6778      10.952      11.158      10.319      8.9110    
  7.4559      6.1630      5.1265      4.3724      3.8856      3.6403      3.6184      3.8147      4.2343      4.8902    
  5.7997      6.9711      8.3813      9.9479      11.484      12.491      12.586      12.701      11.842      10.396    
  9.0561      8.4627      8.8478      9.9033      10.965      11.394      10.913      9.7153      8.2746      6.9041    
  5.7350      4.8289      4.1923      3.8041      3.6402      3.6868      3.9409      4.4077      5.0987      6.0274    
  7.1979      8.5826      10.098      11.573      11.500      12.527      12.842      12.404      11.534      10.748    
  10.472      10.782      11.361      11.702      11.412      10.442      9.0842      7.6917      6.4289      5.3895    
  4.6083      4.0785      3.7768      3.6822      3.7843      4.0813      4.5774      5.2817      6.2043      7.3448    
  8.6728      10.107      9.9689      11.255      12.277      12.775      12.717      12.334      11.974      11.876    
  12.018      12.127      11.870      11.075      9.8548      8.4988      7.1926      6.0517      5.1399      4.4724    
  4.0350      3.8052      3.7655      3.9075      4.2295      4.7344      5.4288      6.3192      7.4014      8.6434    
  8.4935      9.6878      10.845      11.827      12.454      12.690      12.672      12.596      12.569      12.518    
  12.249      11.590      10.541      9.2861      7.9988      6.8040      5.7893      4.9957      4.4262      4.0642    
  3.8897      3.8881      4.0518      4.3787      4.8706      5.5316      6.3649      7.3631      7.2313      8.2309    
  9.2795      10.297      11.200      11.888      12.313      12.532      12.625      12.610      12.408      11.909    
  11.073      9.9950      8.8031      7.6193      6.5475      5.6532      4.9622      4.4720      4.1668      4.0293    
  4.0466      4.2115      4.5220      4.9788      5.5844      6.3388      6.2421      7.0137      7.8716      8.7701    
  9.6513      10.457      11.140      11.661      12.013      12.200      12.192      11.928      11.369      10.548    
  9.5400      8.4505      7.3882      6.4382      5.6502      5.0420      4.6102      4.3413      4.2203      4.2353    
  4.3798      4.6522      5.0535      5.5845      5.5317      6.0805      6.7236      7.4384      8.1932      8.9499    
  9.6702      10.320      10.871      11.292      11.544      11.579      11.357      10.863      10.129      9.2293    
  8.2632      7.3248      6.4845      5.7826      5.2345      4.8383      4.5832      4.4560      4.4461      4.5483    
  4.7625      5.0905      5.0876      5.4290      5.8635      6.3788      6.9593      7.5866      8.2392      8.8932    
  9.5218      10.093      10.566      10.889      11.008      10.878      10.489      9.8733      9.1024      8.2637    
  7.4389      6.6887      6.0491      5.5360      5.1504      4.8843      4.7265      4.6685      4.7078      4.8466    
  4.8994      5.0445      5.2819      5.6037      6.0005      6.4640      6.9874      7.5619      8.1729      8.7978    
  9.4025      9.9398      10.351      10.573      10.561      10.301      9.8199      9.1807      8.4603      7.7308    
  7.0468      6.4435      5.9386      5.5365      5.2323      5.0185      4.8903      4.8490      4.9636      4.9174    
  4.9634      5.0988      5.3165      5.6110      5.9812      6.4291      6.9541      7.5479      8.1904      8.8468    
  9.4658      9.9825      10.329      10.451      10.329      9.9825      9.4658      8.8468      8.1904      7.5479    
  6.9541      6.4291      5.9812      5.6109      5.3165      5.0989      5.2820      5.0447      4.8994      4.8489    
  4.8902      5.0185      5.2324      5.5365      5.9386      6.4435      7.0468      7.7307      8.4603      9.1807    
  9.8199      10.301      10.561      10.573      10.351      9.9397      9.4025      8.7978      8.1729      7.5618    
  6.9874      6.4640      6.0004      5.6037      5.8634      5.4290      5.0877      4.8467      4.7077      4.6684    
  4.7265      4.8843      5.1504      5.5360      6.0491      6.6887      7.4389      8.2637      9.1024      9.8733    
  10.489      10.878      11.008      10.889      10.566      10.093      9.5217      8.8931      8.2391      7.5866    
  6.9594      6.3787      6.7235      6.0804      5.5317      5.0906      4.7626      4.5483      4.4461      4.4560    
  4.5832      4.8383      5.2345      5.7827      6.4844      7.3248      8.2632      9.2293      10.129      10.863    
  11.357      11.579      11.544      11.292      10.871      10.320      9.6701      8.9499      8.1933      7.4385    
  7.8717      7.0138      6.2420      5.5845      5.0536      4.6523      4.3799      4.2353      4.2203      4.3413    
  4.6102      5.0420      5.6502      6.4381      7.3882      8.4505      9.5399      10.548      11.369      11.928    
  12.192      12.200      12.013      11.661      11.140      10.457      9.6512      8.7702      9.2796      8.2311    
  7.2314      6.3388      5.5844      4.9788      4.5220      4.2116      4.0466      4.0293      4.1668      4.4720    
  4.9623      5.6533      6.5475      7.6193      8.8031      9.9949      11.073      11.909      12.408      12.610    
  12.625      12.532      12.313      11.888      11.200      10.297      10.844      9.6879      8.4937      7.3632    
  6.3650      5.5316      4.8706      4.3788      4.0518      3.8881      3.8897      4.0642      4.4262      4.9957    
  5.7893      6.8040      7.9988      9.2861      10.541      11.589      12.249      12.518      12.569      12.596    
  12.672      12.690      12.454      11.827      12.277      11.255      9.9689      8.6435      7.4015      6.3192    
  5.4288      4.7344      4.2295      3.9075      3.7655      3.8051      4.0350      4.4725      5.1400      6.0517    
  7.1925      8.4987      9.8548      11.075      11.870      12.127      12.018      11.876      11.974      12.334    
  12.717      12.775      12.842      12.526      11.500      10.107      8.6729      7.3449      6.2043      5.2817    
  4.5774      4.0813      3.7843      3.6823      3.7768      4.0785      4.6083      5.3895      6.4289      7.6916    
  9.0842      10.442      11.412      11.702      11.361      10.782      10.472      10.748      11.533      12.404    
  11.842      12.701      12.586      11.573      10.098      8.5826      7.1980      6.0275      5.0987      4.4077    
  3.9408      3.6868      3.6403      3.8041      4.1923      4.8289      5.7350      6.9041      8.2745      9.7153    
  10.913      11.394      10.965      9.9034      8.8478      8.4626      9.0559      10.396      9.1373      11.178    
  12.435      12.491      11.484      9.9479      8.3813      6.9710      5.7997      4.8902      4.2342      3.8147    
  3.6184      3.6403      3.8856      4.3723      5.1266      6.1631      7.4559      8.9109      10.319      11.158    
  10.952      9.6777      7.8766      6.4305      6.1121      7.1592      5.3917      8.0116      10.576      12.135    
  12.284      11.252      9.6713      8.0840      6.6791      5.5349      4.6685      4.0664      3.7090      3.5822    
  3.6824      4.0185      4.6127      5.4906      6.6562      8.0593      9.5685      10.814      11.135      10.133    
  8.0046      5.5607      3.8864      3.7952      1.9173      4.0837      7.2506      10.176      11.872      11.999    
  10.899      9.2888      7.7102      6.3402      5.2491      4.4462      3.9134      3.6291      3.5801      3.7656    
  4.1990      4.9053      5.9068      7.1932      8.6875      10.199      11.164      10.885      9.0961      6.2298    
  3.3393      1.6431      5.0061      5.4543      7.2505      9.6117      11.547      12.349      11.882      10.545    
  8.9609      7.4682      6.1939      5.1895      4.4561      3.9742      3.7244      3.6961      3.8898      4.3187    
  5.0063      5.9721      7.2056      8.6351      10.102      11.163      11.232      10.082      8.0734      6.0631    
  5.1912      4.2607      4.9693      7.0060      9.4687      11.339      11.976      11.349      9.9462      8.3884    
  6.9588      5.7693      4.8588      4.2204      3.8316      3.6735      3.7380      4.0294      4.5646      5.3675    
  6.4522      7.7938      9.2989      10.752      11.590      11.258      9.6578      7.3114      7.0060      4.9693    
  4.2608      5.1913      7.3115      9.6579      11.258      11.590      10.752      9.2990      7.7937      6.4522    
  5.3675      4.5646      4.0294      3.7379      3.6735      3.8316      4.2204      4.8587      5.7693      6.9589    
  8.3884      9.9462      11.349      11.976      11.339      9.4687      9.6118      7.2506      5.4545      5.0062    
  6.0632      8.0736      10.082      11.232      11.163      10.102      8.6352      7.2055      5.9721      5.0063    