unknown system                          
   1.00000000000000     
    -2.450000    2.450000    1.274000
     2.450000   -2.450000    1.274000
     2.450000    2.450000   -1.274000
   Si
     2
Direct
  0.250000  0.750000  0.500000
  0.000000  0.000000  0.000000
 
   28   28   28
 -.54061074303E+01 -.38750001568E+01 0.10406939284E+00 0.50059144051E+01 0.91469005727E+01
 0.11427130687E+02 0.11678525720E+02 0.10518937496E+02 0.88790195761E+01 0.73312267882E+01
 0.60384100160E+01 0.50552353024E+01 0.43787565180E+01 0.39859009782E+01 0.38572098977E+01
 0.39858190949E+01 0.43787405580E+01 0.50553039413E+01 0.60384333347E+01 0.73311852771E+01
 0.88790268952E+01 0.10519001837E+02 0.11678539012E+02 0.11427093184E+02 0.91469066990E+01
 0.50059273548E+01 0.10397093963E+00 -.38751454358E+01 -.38751454358E+01 -.46928107905E+01
 -.25683539934E+01 0.16430274612E+01 0.63424275343E+01 0.99643524774E+01 0.11640089927E+02
 0.11423113228E+02 0.10048909423E+02 0.84094287296E+01 0.69236592424E+01 0.57160173208E+01
 0.48220830553E+01 0.42295339709E+01 0.39135998716E+01 0.38571715290E+01 0.40567136837E+01
 0.45220247398E+01 0.52733611566E+01 0.63303332813E+01 0.76859959099E+01 0.92686172509E+01
 0.10871290503E+02 0.11812583598E+02 0.11197257830E+02 0.85569449877E+01 0.42604448686E+01
 -.44362727738E+00 0.10397093963E+00 -.25684570454E+01 -.26803312138E+01 -.19021992489E+00
 0.38862972717E+01 0.79988826916E+01 0.10807170143E+02 0.11725165874E+02 0.11017235494E+02
 0.94843485516E+01 0.78844436023E+01 0.64856438126E+01 0.53804561998E+01 0.45855889858E+01
 0.40812939057E+01 0.38430879666E+01 0.38571356181E+01 0.41230076836E+01 0.46522981863E+01
 0.54648239757E+01 0.65758653151E+01 0.79690971223E+01 0.95593586617E+01 0.11101035428E+02
 0.11868301332E+02 0.11052227686E+02 0.83422607964E+01 0.42604448686E+01 0.50059273548E+01
 0.16429738831E+01 -.19025543229E+00 0.27800415883E+00 0.28427138331E+01 0.64303687531E+01
 0.96535689798E+01 0.11472709469E+02 0.11597630371E+02 0.10463168145E+02 0.88628410444E+01
 0.73331612104E+01 0.60413468304E+01 0.50493083612E+01 0.43572484340E+01 0.39408181378E+01
 0.37775679816E+01 0.38571406234E+01 0.41814194144E+01 0.47626449042E+01 0.56191323066E+01
 0.67615718612E+01 0.81659393200E+01 0.97385462955E+01 0.11213197583E+02 0.11882161884E+02
 0.11052227686E+02 0.85569449877E+01 0.91469066990E+01 0.63424262959E+01 0.38862974414E+01
 0.28427456719E+01 0.36826251429E+01 0.60262745538E+01 0.88478130746E+01 0.11010971882E+02
 0.11810841213E+02 0.11227482514E+02 0.98031051396E+01 0.82204527167E+01 0.67866345876E+01
 0.56147546020E+01 0.47392764644E+01 0.41478895350E+01 0.38146586405E+01 0.37202248509E+01
 0.38572044605E+01 0.42287409652E+01 0.48467405282E+01 0.57274168730E+01 0.68772468678E+01
 0.82667858751E+01 0.97990357071E+01 0.11213197583E+02 0.11868301332E+02 0.11197257830E+02
 0.11427093184E+02 0.99643262316E+01 0.79988659484E+01 0.64304111354E+01 0.60263514729E+01
 0.69984060008E+01 0.88796064279E+01 0.10781735507E+02 0.11869129355E+02 0.11761607065E+02
 0.10651827166E+02 0.91097612234E+01 0.75942587019E+01 0.62748690075E+01 0.52276965319E+01
 0.44652121602E+01 0.39673112724E+01 0.37089588227E+01 0.36740739302E+01 0.38573097064E+01
 0.42621180460E+01 0.48994501130E+01 0.57832504124E+01 0.69165259862E+01 0.82667858751E+01
 0.97385462955E+01 0.11101035428E+02 0.11812583598E+02 0.11678539012E+02 0.11640080374E+02
 0.10807120987E+02 0.96535395331E+01 0.88478738169E+01 0.88796966006E+01 0.97683977223E+01
 0.11044587528E+02 0.12018040706E+02 0.12160112843E+02 0.11367346487E+02 0.99673177732E+01
 0.84389399923E+01 0.70195905680E+01 0.58241075583E+01 0.48983639351E+01 0.42394633471E+01
 0.38239344620E+01 0.36291248486E+01 0.36417085679E+01 0.38574091049E+01 0.42793903759E+01
 0.49174106124E+01 0.57832504124E+01 0.68772468678E+01 0.81659393200E+01 0.95593586617E+01
 0.10871290503E+02 0.10519001837E+02 0.11423185183E+02 0.11725183613E+02 0.11472653991E+02
 0.11010936189E+02 0.10781791011E+02 0.11044663507E+02 0.11702109974E+02 0.12349489473E+02
 0.12518337110E+02 0.11954403623E+02 0.10756836100E+02 0.92895799625E+01 0.78317752933E+01
 0.65267400825E+01 0.54550918028E+01 0.46406108702E+01 0.40715694312E+01 0.37244541477E+01
 0.35794088228E+01 0.36250268805E+01 0.38574500358E+01 0.42793903759E+01 0.48994501130E+01
 0.57274168730E+01 0.67615718612E+01 0.79690971223E+01 0.92686172509E+01 0.88790268952E+01
 0.10048976964E+02 0.11017335907E+02 0.11597667437E+02 0.11810795982E+02 0.11869096189E+02
 0.12018077048E+02 0.12349536674E+02 0.12717986717E+02 0.12823659229E+02 0.12408167757E+02
 0.11430452136E+02 0.10103021297E+02 0.86814966310E+01 0.73236676335E+01 0.61390833380E+01
 0.51825641927E+01 0.44640055311E+01 0.39682174680E+01 0.36735231021E+01 0.35625261251E+01
 0.36250268805E+01 0.38574091049E+01 0.42621180460E+01 0.48467405282E+01 0.56191323066E+01
 0.65758653151E+01 0.76859959099E+01 0.73311852771E+01 0.84093943549E+01 0.94843945299E+01
 0.10463262361E+02 0.11227527163E+02 0.11761583005E+02 0.12160090487E+02 0.12518352301E+02
 0.12823676799E+02 0.12933658267E+02 0.12664252471E+02 0.11927570956E+02 0.10818060687E+02
 0.95204959601E+01 0.81860307375E+01 0.69420784768E+01 0.58727418396E+01 0.50158093257E+01
 0.43743569925E+01 0.39333362953E+01 0.36735231021E+01 0.35794088228E+01 0.36417085679E+01
 0.38573097064E+01 0.42287409652E+01 0.47626449042E+01 0.54648239757E+01 0.63303332813E+01
 0.60384333347E+01 0.69236061270E+01 0.78843820399E+01 0.88628509164E+01 0.98031678747E+01
 0.10651868216E+02 0.11367346262E+02 0.11954396919E+02 0.12408168216E+02 0.12664248730E+02
 0.12611830253E+02 0.12168135975E+02 0.11356762589E+02 0.10280207851E+02 0.90634339291E+01
 0.78367710978E+01 0.67059251413E+01 0.57373720074E+01 0.49597244664E+01 0.43743569925E+01
 0.39682174680E+01 0.37244541477E+01 0.36291248486E+01 0.36740739302E+01 0.38572044605E+01
 0.41814194144E+01 0.46522981863E+01 0.52733611566E+01 0.50553039413E+01 0.57160561631E+01
 0.64856029962E+01 0.73330914444E+01 0.82204267308E+01 0.91097833451E+01 0.99673479437E+01
 0.10756855170E+02 0.11430461232E+02 0.11927565841E+02 0.12168122055E+02 0.12079496635E+02
 0.11638160421E+02 0.10877599944E+02 0.98839213224E+01 0.87722741885E+01 0.76564452634E+01
 0.66260416733E+01 0.57373720074E+01 0.50158093257E+01 0.44640055311E+01 0.40715694312E+01
 0.38239344620E+01 0.37089588227E+01 0.37202248509E+01 0.38571406234E+01 0.41230076836E+01
 0.45220247398E+01 0.43787405580E+01 0.48221391222E+01 0.53805052651E+01 0.60413288295E+01
 0.67865720950E+01 0.75942088539E+01 0.84389278473E+01 0.92895973114E+01 0.10103051235E+02
 0.10818081683E+02 0.11356758982E+02 0.11638145095E+02 0.11601833422E+02 0.11230778698E+02
 0.10561208273E+02 0.96740216338E+01 0.86723475202E+01 0.76564452634E+01 0.67059251413E+01
 0.58727418396E+01 0.51825641927E+01 0.46406108702E+01 0.42394633471E+01 0.39673112724E+01
 0.38146586405E+01 0.37775679816E+01 0.38571356181E+01 0.40567136837E+01 0.39858190949E+01
 0.42294965983E+01 0.45856190016E+01 0.50493521590E+01 0.56147537552E+01 0.62748214417E+01
 0.70195344006E+01 0.78317445852E+01 0.86815032000E+01 0.95205277712E+01 0.10280234742E+02
 0.10877600675E+02 0.11230766033E+02 0.11280721569E+02 0.11010223862E+02 0.10450760501E+02
 0.96740216338E+01 0.87722741885E+01 0.78367710978E+01 0.69420784768E+01 0.61390833380E+01
 0.54550918028E+01 0.48983639351E+01 0.44652121602E+01 0.41478895350E+01 0.39408181378E+01
 0.38430879666E+01 0.38571715290E+01 0.38572098977E+01 0.39135461405E+01 0.40812447887E+01
 0.43572443402E+01 0.47392967283E+01 0.52276979432E+01 0.58240759016E+01 0.65266938400E+01
 0.73236344656E+01 0.81860294331E+01 0.90634608392E+01 0.98839488772E+01 0.10561212620E+02
 0.11010213672E+02 0.11167712083E+02 0.11010223862E+02 0.10561208273E+02 0.98839213224E+01
 0.90634339291E+01 0.81860307375E+01 0.73236676335E+01 0.65267400825E+01 0.58241075583E+01
 0.52276965319E+01 0.47392764644E+01 0.43572484340E+01 0.40812939057E+01 0.39135998716E+01
 0.39859009782E+01 0.38572221702E+01 0.38430705034E+01 0.39407671225E+01 0.41478525871E+01
 0.44651975245E+01 0.48983535573E+01 0.54550731526E+01 0.61390559525E+01 0.69420520620E+01
 0.78367640316E+01 0.87722942562E+01 0.96740479299E+01 0.10450766154E+02 0.11010213672E+02
 0.11280721569E+02 0.11230778698E+02 0.10877599944E+02 0.10280207851E+02 0.95204959601E+01
 0.86814966310E+01 0.78317752933E+01 0.70195905680E+01 0.62748690075E+01 0.56147546020E+01
 0.50493083612E+01 0.45855889858E+01 0.42295339709E+01 0.43787565180E+01 0.40567989588E+01
 0.38572119056E+01 0.37775783552E+01 0.38146147056E+01 0.39672518894E+01 0.42394132963E+01
 0.46405812833E+01 0.51825537074E+01 0.58727326611E+01 0.67059062380E+01 0.76564347509E+01
 0.86723644407E+01 0.96740479299E+01 0.10561212620E+02 0.11230766033E+02 0.11601833422E+02
 0.11638160421E+02 0.11356762589E+02 0.10818060687E+02 0.10103021297E+02 0.92895799625E+01
 0.84389399923E+01 0.75942587019E+01 0.67866345876E+01 0.60413468304E+01 0.53804561998E+01
 0.48220830553E+01 0.50552353024E+01 0.45220134195E+01 0.41230660857E+01 0.38572068563E+01
 0.37202466849E+01 0.37089284586E+01 0.38238658870E+01 0.40714911381E+01 0.44639569696E+01
 0.50158023105E+01 0.57373733654E+01 0.66260257767E+01 0.76564347509E+01 0.87722942562E+01
 0.98839488772E+01 0.10877600675E+02 0.11638145095E+02 0.12079496635E+02 0.12168135975E+02
 0.11927570956E+02 0.11430452136E+02 0.10756836100E+02 0.99673177732E+01 0.91097612234E+01
 0.82204527167E+01 0.73331612104E+01 0.64856438126E+01 0.57160173208E+01 0.60384100160E+01
 0.52732950951E+01 0.46522617119E+01 0.41814292181E+01 0.38572315150E+01 0.36740920099E+01
 0.36291093584E+01 0.37243851419E+01 0.39681213376E+01 0.43742966331E+01 0.49597181926E+01
 0.57373733654E+01 0.67059062380E+01 0.78367640316E+01 0.90634608392E+01 0.10280234742E+02
 0.11356758982E+02 0.12168122055E+02 0.12611830253E+02 0.12664252471E+02 0.12408167757E+02
 0.11954403623E+02 0.11367346487E+02 0.10651827166E+02 0.98031051396E+01 0.88628410444E+01
 0.78844436023E+01 0.69236592424E+01 0.73312267882E+01 0.63303201860E+01 0.54647735725E+01
 0.47625923709E+01 0.42286960147E+01 0.38572858833E+01 0.36417149276E+01 0.35794040470E+01
 0.36734558330E+01 0.39332340488E+01 0.43742966331E+01 0.50158023105E+01 0.58727326611E+01
 0.69420520620E+01 0.81860294331E+01 0.95205277712E+01 0.10818081683E+02 0.11927565841E+02
 0.12664248730E+02 0.12933658267E+02 0.12823659229E+02 0.12518337110E+02 0.12160112843E+02
 0.11761607065E+02 0.11227482514E+02 0.10463168145E+02 0.94843485516E+01 0.84094287296E+01
 0.88790195761E+01 0.76859991269E+01 0.65758512201E+01 0.56191040427E+01 0.48466817102E+01
 0.42620270214E+01 0.38573432596E+01 0.36250235681E+01 0.35625251045E+01 0.36734558330E+01
 0.39681213376E+01 0.44639569696E+01 0.51825537074E+01 0.61390559525E+01 0.73236344656E+01
 0.86815032000E+01 0.10103051235E+02 0.11430461232E+02 0.12408168216E+02 0.12823676799E+02
 0.12717986717E+02 0.12349489473E+02 0.12018040706E+02 0.11869129355E+02 0.11810841213E+02
 0.11597630371E+02 0.11017235494E+02 0.10048909423E+02 0.10518937496E+02 0.92685635033E+01
 0.79690443881E+01 0.67615464114E+01 0.57274084159E+01 0.48993904389E+01 0.42792731271E+01
 0.38573679500E+01 0.36250235681E+01 0.35794040470E+01 0.37243851419E+01 0.40714911381E+01
 0.46405812833E+01 0.54550731526E+01 0.65266938400E+01 0.78317445852E+01 0.92895973114E+01
 0.10756855170E+02 0.11954396919E+02 0.12518352301E+02 0.12349536674E+02 0.11702109974E+02
 0.11044587528E+02 0.10781735507E+02 0.11010971882E+02 0.11472709469E+02 0.11725165874E+02
 0.11423113228E+02 0.11678525720E+02 0.10871251922E+02 0.95592635786E+01 0.81658307459E+01
 0.68772074295E+01 0.57832530450E+01 0.49173511721E+01 0.42792731271E+01 0.38573432596E+01
 0.36417149276E+01 0.36291093584E+01 0.38238658870E+01 0.42394132963E+01 0.48983535573E+01
 0.58240759016E+01 0.70195344006E+01 0.84389278473E+01 0.99673479437E+01 0.11367346262E+02
 0.12160090487E+02 0.12018077048E+02 0.11044663507E+02 0.97683977223E+01 0.88796064279E+01
 0.88478130746E+01 0.96535689798E+01 0.10807170143E+02 0.11640089927E+02 0.11427130687E+02
 0.11812640173E+02 0.11101030434E+02 0.97384226712E+01 0.82666422013E+01 0.69164802526E+01
 0.57832530450E+01 0.48993904389E+01 0.42620270214E+01 0.38572858833E+01 0.36740920099E+01
 0.37089284586E+01 0.39672518894E+01 0.44651975245E+01 0.52276979432E+01 0.62748214417E+01
 0.75942088539E+01 0.91097833451E+01 0.10651868216E+02 0.11761583005E+02 0.11869096189E+02
 0.10781791011E+02 0.88796966006E+01 0.69984060008E+01 0.60262745538E+01 0.64303687531E+01
 0.79988826916E+01 0.99643524774E+01 0.91469005727E+01 0.11197316672E+02 0.11868413556E+02
 0.11213215440E+02 0.97989018436E+01 0.82666422013E+01 0.68772074295E+01 0.57274084159E+01
 0.48466817102E+01 0.42286960147E+01 0.38572315150E+01 0.37202466849E+01 0.38146147056E+01
 0.41478525871E+01 0.47392967283E+01 0.56147537552E+01 0.67865720950E+01 0.82204267308E+01
 0.98031678747E+01 0.11227527163E+02 0.11810795982E+02 0.11010936189E+02 0.88478738169E+01
 0.60263514729E+01 0.36826251429E+01 0.28427138331E+01 0.38862972717E+01 0.63424275343E+01
 0.50059144051E+01 0.85569101526E+01 0.11052297497E+02 0.11882295178E+02 0.11213215440E+02
 0.97384226712E+01 0.81658307459E+01 0.67615464114E+01 0.56191040427E+01 0.47625923709E+01
 0.41814292181E+01 0.38572068563E+01 0.37775783552E+01 0.39407671225E+01 0.43572443402E+01
 0.50493521590E+01 0.60413288295E+01 0.73330914444E+01 0.88628509164E+01 0.10463262361E+02
 0.11597667437E+02 0.11472653991E+02 0.96535395331E+01 0.64304111354E+01 0.28427456719E+01
 0.27800415883E+00 -.19021992489E+00 0.16430274612E+01 0.10406939284E+00 0.42604233053E+01
 0.83422144440E+01 0.11052297497E+02 0.11868413556E+02 0.11101030434E+02 0.95592635786E+01
 0.79690443881E+01 0.65758512201E+01 0.54647735725E+01 0.46522617119E+01 0.41230660857E+01
 0.38572119056E+01 0.38430705034E+01 0.40812447887E+01 0.45856190016E+01 0.53805052651E+01
 0.64856029962E+01 0.78843820399E+01 0.94843945299E+01 0.11017335907E+02 0.11725183613E+02
 0.10807120987E+02 0.79988659484E+01 0.38862974414E+01 -.19025543229E+00 -.26803312138E+01
 -.25683539934E+01 -.38750001568E+01 -.44351139346E+00 0.42604233053E+01 0.85569101526E+01
 0.11197316672E+02 0.11812640173E+02 0.10871251922E+02 0.92685635033E+01 0.76859991269E+01
 0.63303201860E+01 0.52732950951E+01 0.45220134195E+01 0.40567989588E+01 0.38572221702E+01
 0.39135461405E+01 0.42294965983E+01 0.48221391222E+01 0.57160561631E+01 0.69236061270E+01
 0.84093943549E+01 0.10048976964E+02 0.11423185183E+02 0.11640080374E+02 0.99643262316E+01
 0.63424262959E+01 0.16429738831E+01 -.25684570454E+01 -.46928107905E+01 -.38750305061E+01
 -.27565589175E+01 0.71728303586E+00 0.51910491285E+01 0.90782048374E+01 0.11276892275E+02
 0.11548306000E+02 0.10427039869E+02 0.87957294117E+01 0.72376874660E+01 0.59243278734E+01
 0.49157108804E+01 0.42116644459E+01 0.37886996783E+01 0.36248917418E+01 0.37107277436E+01
 0.40518789139E+01 0.46682937381E+01 0.55859596685E+01 0.68146092936E+01 0.83117763160E+01
 0.99425301833E+01 0.11252747014E+02 0.11365673500E+02 0.96218061118E+01 0.60629434623E+01
 0.16150249914E+01 -.21883863329E+01 -.27566780877E+01 -.38750872762E+01 -.21883463958E+01
 0.16151139992E+01 0.60630154709E+01 0.96218517141E+01 0.11365736512E+02 0.11252849296E+02
 0.99426306716E+01 0.83118252348E+01 0.68146142124E+01 0.55859609424E+01 0.46682967102E+01
 0.40518599641E+01 0.37106959645E+01 0.36248868363E+01 0.37887256013E+01 0.42116817355E+01
 0.49157058119E+01 0.59243307446E+01 0.72377003709E+01 0.87956957878E+01 0.10426927600E+02
 0.11548175394E+02 0.11276828262E+02 0.90782047924E+01 0.51910289670E+01 0.71719039224E+00
 0.82312952686E+00 -.20727850931E+01 -.25684540565E+01 -.47445515512E+00 0.33392186634E+01
 0.73911969189E+01 0.10309011686E+02 0.11407942707E+02 0.10849875347E+02 0.93797910329E+01
 0.77847772772E+01 0.63724224203E+01 0.52465540713E+01 0.44309436798E+01 0.39075466952E+01
 0.36499504831E+01 0.36416223010E+01 0.38808516814E+01 0.43799774763E+01 0.51613180681E+01
 0.62444708029E+01 0.76199885462E+01 0.92130203348E+01 0.10815092801E+02 0.11765522320E+02
 0.11236863875E+02 0.88374306965E+01 0.49691426074E+01 0.54543568209E+01 0.19172802714E+01
 -.26028424882E+00 -.19029476229E+00 0.20727476976E+01 0.55606937704E+01 0.88933957703E+01
 0.10946941184E+02 0.11310869164E+02 0.10328130207E+02 0.87703864356E+01 0.72406454035E+01
 0.59334144383E+01 0.49224754337E+01 0.42140880226E+01 0.37843717900E+01 0.36085153563E+01
 0.36740822903E+01 0.39827708092E+01 0.45484412367E+01 0.53923054878E+01 0.65292831731E+01
 0.79414591229E+01 0.95434372714E+01 0.11099772143E+02 0.11933517975E+02 0.11311188606E+02
 0.89809974663E+01 0.94899204395E+01 0.65530826569E+01 0.37952549325E+01 0.23559617158E+01
 0.28426780328E+01 0.50065622557E+01 0.78766311067E+01 0.10269321407E+02 0.11363013957E+02
 0.11017647175E+02 0.97085320678E+01 0.81462636456E+01 0.67067889100E+01 0.55191642924E+01
 0.46284684329E+01 0.40265744054E+01 0.36868172892E+01 0.35875599168E+01 0.37203302910E+01
 0.40891004371E+01 0.47078806094E+01 0.55957308967E+01 0.67628437860E+01 0.81846638621E+01
 0.97699274208E+01 0.11275982985E+02 0.12063618686E+02 0.11512484708E+02 0.11795235020E+02
 0.10249513226E+02 0.80444821472E+01 0.61122032007E+01 0.53241519381E+01 0.60262679269E+01
 0.78471181134E+01 0.99033954912E+01 0.11273746175E+02 0.11451843934E+02 0.10529327090E+02
 0.90467934498E+01 0.75389700895E+01 0.62099387312E+01 0.51491444214E+01 0.43771033027E+01
 0.38757233880E+01 0.36184718230E+01 0.35875937894E+01 0.37777376430E+01 0.41938577413E+01
 0.48490321561E+01 0.57596122763E+01 0.69314794312E+01 0.83354916369E+01 0.98790032401E+01
 0.11334970358E+02 0.12141758494E+02 0.12131310221E+02 0.12068767279E+02 0.11079831475E+02
 0.96345792601E+01 0.84627689072E+01 0.81667662270E+01 0.88796108672E+01 0.10186150627E+02
 0.11361086847E+02 0.11772439934E+02 0.11202283701E+02 0.99089631786E+01 0.84009950864E+01
 0.69799920501E+01 0.57741127867E+01 0.48396291586E+01 0.41785295063E+01 0.37674829327E+01
 0.35822018959E+01 0.36086036131E+01 0.38432710140E+01 0.42910673737E+01 0.49634870598E+01
 0.58740012343E+01 0.70247760358E+01 0.83839826063E+01 0.98614789100E+01 0.11263300639E+02
 0.11047722385E+02 0.11986246089E+02 0.12224702341E+02 0.11783148373E+02 0.11026825574E+02
 0.10472309285E+02 0.10483103816E+02 0.11044592785E+02 0.11768532059E+02 0.12127364977E+02
 0.11766270143E+02 0.10697001971E+02 0.92627158449E+01 0.78093532985E+01 0.64978602683E+01
 0.54189889955E+01 0.46031480071E+01 0.40405019221E+01 0.37065166475E+01 0.35801210941E+01
 0.36500551601E+01 0.39137460491E+01 0.43753398130E+01 0.50445044062E+01 0.59318668781E+01
 0.70364204098E+01 0.83252240935E+01 0.97138474787E+01 0.94399246756E+01 0.10683996742E+02
 0.11670065250E+02 0.12170602937E+02 0.12195504531E+02 0.11990859065E+02 0.11876351742E+02
 0.12027596241E+02 0.12349497721E+02 0.12531171702E+02 0.12248558554E+02 0.11378832058E+02
 0.10085759634E+02 0.86684229262E+01 0.73061627218E+01 0.61159493003E+01 0.51591531041E+01
 0.44485276994E+01 0.39685359370E+01 0.36961196284E+01 0.36133506471E+01 0.37107668417E+01
 0.39859749825E+01 0.44422723332E+01 0.50875434826E+01 0.59296450125E+01 0.69647846940E+01
 0.81602254521E+01 0.78965544908E+01 0.90521214169E+01 0.10186115532E+02 0.11174065213E+02
 0.11859874861E+02 0.12228436264E+02 0.12411957376E+02 0.12568946744E+02 0.12745883491E+02
 0.12823676024E+02 0.12593037532E+02 0.11908787638E+02 0.10813606529E+02 0.95111707955E+01
 0.81696529779E+01 0.69200632151E+01 0.58514498239E+01 0.50042478211E+01 0.43813141315E+01
 0.39660104453E+01 0.37379414202E+01 0.36816446230E+01 0.37886997390E+01 0.40567880652E+01
 0.44886204122E+01 0.50904642262E+01 0.58674158196E+01 0.68131983342E+01 0.65898785567E+01
 0.75484507753E+01 0.85716562771E+01 0.95889126421E+01 0.10528533022E+02 0.11309023260E+02
 0.11889824941E+02 0.12309320628E+02 0.12609800488E+02 0.12763204013E+02 0.12664275337E+02
 0.12203660791E+02 0.11368908563E+02 0.10270566827E+02 0.90382525965E+01 0.78026908696E+01
 0.66724053795E+01 0.57154773947E+01 0.49597068213E+01 0.44042556271E+01 0.40340986153E+01
 0.38315771619E+01 0.37829863070E+01 0.38807383125E+01 0.41229801078E+01 0.45122914739E+01
 0.50534554564E+01 0.57487657071E+01 0.55804255982E+01 0.63074902826E+01 0.71361581949E+01
 0.80272745500E+01 0.89318785480E+01 0.98016922800E+01 0.10596990747E+02 0.11278755917E+02
 0.11820197178E+02 0.12191662354E+02 0.12332531268E+02 0.12168154100E+02 0.11666223930E+02
 0.10862767069E+02 0.98400700654E+01 0.87123337563E+01 0.75945849657E+01 0.65769145803E+01
 0.57138754615E+01 0.50275771964E+01 0.45175519237E+01 0.41714935134E+01 0.39741364131E+01
 0.39132875515E+01 0.39825829483E+01 0.41812958935E+01 0.45122689614E+01 0.49788018103E+01
 0.48705952823E+01 0.53717724782E+01 0.59823180294E+01 0.66843802019E+01 0.74525241247E+01
 0.82563717309E+01 0.90640223794E+01 0.98430244851E+01 0.10556456592E+02 0.11156077536E+02
 0.11579435305E+02 0.11758152977E+02 0.11638164290E+02 0.11203278279E+02 0.10488588997E+02
 0.95747928904E+01 0.85658409022E+01 0.75618962220E+01 0.66400952534E+01 0.58480429334E+01
 0.52069246010E+01 0.47186826269E+01 0.43739889311E+01 0.41599442631E+01 0.40663505520E+01
 0.40888878116E+01 0.42285532553E+01 0.44885540593E+01 0.44421636938E+01 0.47344754525E+01
 0.51342589893E+01 0.56330796176E+01 0.62200174887E+01 0.68821484547E+01 0.76036902436E+01
 0.83639430435E+01 0.91339176568E+01 0.98718826716E+01 0.10520140306E+02 0.11007643562E+02
 0.11262217532E+02 0.11230766757E+02 0.10899115066E+02 0.10300758010E+02 0.95089275511E+01
 0.86159170991E+01 0.77103125868E+01 0.68616443209E+01 0.61151450706E+01 0.54935077395E+01
 0.50018197270E+01 0.46340699617E+01 0.43805371980E+01 0.42341994476E+01 0.41936833565E+01
 0.42619103287E+01 0.42792020480E+01 0.43751908827E+01 0.45774362187E+01 0.48807896446E+01
 0.52794823651E+01 0.57696031802E+01 0.63484794531E+01 0.70107641235E+01 0.77429805321E+01
 0.85182738560E+01 0.92924169963E+01 0.10002762616E+02 0.10573259890E+02 0.10927870498E+02
 0.11010199897E+02 0.10801616091E+02 0.10328594004E+02 0.96549883999E+01 0.88633242363E+01
 0.80345627149E+01 0.72342984963E+01 0.65074219285E+01 0.58787733757E+01 0.53570369512E+01
 0.49407003019E+01 0.46250264584E+01 0.44077358594E+01 0.42909763288E+01 0.43753418707E+01
 0.42792476536E+01 0.42908890431E+01 0.44076449295E+01 0.46250135589E+01 0.49407061727E+01
 0.53569915849E+01 0.58786973123E+01 0.65073617699E+01 0.72342601632E+01 0.80345450960E+01
 0.88633398451E+01 0.96550222810E+01 0.10328607326E+02 0.10801604966E+02 0.11010191697E+02
 0.10927863296E+02 0.10573228994E+02 0.10002719668E+02 0.92923991907E+01 0.85182886662E+01
 0.77430201753E+01 0.70108417864E+01 0.63485815435E+01 0.57696536386E+01 0.52794466127E+01
 0.48807661670E+01 0.45775317772E+01 0.47345465371E+01 0.44423476182E+01 0.42620369753E+01
 0.41936786242E+01 0.42341468199E+01 0.43805128394E+01 0.46340523228E+01 0.50017777176E+01
 0.54934617139E+01 0.61151131285E+01 0.68616165423E+01 0.77102955817E+01 0.86159301796E+01
 0.95089506092E+01 0.10300751070E+02 0.10899082984E+02 0.11230740846E+02 0.11262192430E+02
 0.11007598486E+02 0.10520095852E+02 0.98718697498E+01 0.91339258240E+01 0.83639650400E+01
 0.76037623061E+01 0.68822656774E+01 0.62200774533E+01 0.56330192528E+01 0.51341882444E+01
 0.53716673562E+01 0.48706310644E+01 0.44887390219E+01 0.42287322807E+01 0.40889623390E+01
 0.40663553760E+01 0.41599291110E+01 0.43739563716E+01 0.47186434436E+01 0.52069063410E+01
 0.58480377597E+01 0.66400783506E+01 0.75618831794E+01 0.85658556049E+01 0.95748057243E+01
 0.10488558804E+02 0.11203222443E+02 0.11638119654E+02 0.11758110894E+02 0.11579382218E+02
 0.11156044658E+02 0.10556459600E+02 0.98430205332E+01 0.90640014080E+01 0.82564070356E+01
 0.74526387169E+01 0.66844541372E+01 0.59822518472E+01 0.63074427098E+01 0.55803175619E+01
 0.49788105304E+01 0.45124282445E+01 0.41814855190E+01 0.39827075050E+01 0.39133407948E+01
 0.39741317062E+01 0.41714480888E+01 0.45175146391E+01 0.50275807750E+01 0.57138882322E+01
 0.65769041370E+01 0.75945789870E+01 0.87123543935E+01 0.98400726990E+01 0.10862713052E+02
 0.11666148037E+02 0.12168096301E+02 0.12332476597E+02 0.12191607772E+02 0.11820186293E+02
 0.11278781176E+02 0.10596966686E+02 0.98016053074E+01 0.89318479983E+01 0.80273647357E+01
 0.71362454577E+01 0.75485410506E+01 0.65898660254E+01 0.57486879781E+01 0.50534535848E+01
 0.45124041586E+01 0.41231332443E+01 0.38808639240E+01 0.37830521737E+01 0.38315647016E+01
 0.40340373379E+01 0.44042220570E+01 0.49597275833E+01 0.57154980869E+01 0.66723960992E+01
 0.78026934960E+01 0.90382803866E+01 0.10270559448E+02 0.11368838033E+02 0.12203580547E+02
 0.12664218279E+02 0.12763141521E+02 0.12609742840E+02 0.12309327889E+02 0.11889866761E+02
 0.11308972792E+02 0.10528373317E+02 0.95888035158E+01 0.85717024836E+01 0.90521124405E+01
 0.78966278216E+01 0.68132194337E+01 0.58673859096E+01 0.50904618308E+01 0.44886691688E+01
 0.40568629902E+01 0.37887755892E+01 0.36816803506E+01 0.37379008350E+01 0.39659359773E+01
 0.43812928013E+01 0.50042840410E+01 0.58514696275E+01 0.69200506600E+01 0.81696642417E+01
 0.95112046793E+01 0.10813592015E+02 0.11908716262E+02 0.12592976122E+02 0.12823634868E+02
 0.12745812456E+02 0.12568872403E+02 0.12411962880E+02 0.12228479842E+02 0.11859801993E+02
 0.11173853354E+02 0.10185940982E+02 0.10683793158E+02 0.94398617992E+01 0.81602593906E+01
 0.69648208006E+01 0.59296566017E+01 0.50875360864E+01 0.44422452606E+01 0.39859502309E+01
 0.37107649260E+01 0.36133335827E+01 0.36960481163E+01 0.39684628597E+01 0.44485303126E+01
 0.51592020434E+01 0.61159609911E+01 0.73061458757E+01 0.86684434839E+01 0.10085797050E+02
 0.11378812788E+02 0.12248500626E+02 0.12531147191E+02 0.12349482066E+02 0.12027514119E+02
 0.11876246199E+02 0.11990839676E+02 0.12195535522E+02 0.12170524764E+02 0.11669845774E+02
 0.11986070313E+02 0.11047536475E+02 0.97137452124E+01 0.83252043315E+01 0.70364460102E+01
 0.59318958908E+01 0.50444785121E+01 0.43752393872E+01 0.39136335865E+01 0.36499859537E+01
 0.35800617227E+01 0.37064325814E+01 0.40404500801E+01 0.46031805812E+01 0.54190438065E+01
 0.64978600761E+01 0.78093357861E+01 0.92627452498E+01 0.10697034555E+02 0.11766240193E+02
 0.12127322869E+02 0.11768550529E+02 0.11044610468E+02 0.10483020491E+02 0.10472175352E+02
 0.11026769767E+02 0.11783157973E+02 0.12224640636E+02 0.12068736769E+02 0.12131216161E+02
 0.11263172718E+02 0.98613609387E+01 0.83839108687E+01 0.70247731296E+01 0.58740226464E+01
 0.49634349695E+01 0.42909178383E+01 0.38431144961E+01 0.36085083873E+01 0.35821329508E+01
 0.37674126339E+01 0.41785120397E+01 0.48396866863E+01 0.57741631997E+01 0.69799793550E+01
 0.84009801579E+01 0.99089940230E+01 0.11202294785E+02 0.11772385220E+02 0.11361052497E+02
 0.10186210281E+02 0.88796747650E+01 0.81667108893E+01 0.84626323578E+01 0.96344914534E+01
 0.11079815522E+02 0.10249471906E+02 0.11795238020E+02 0.12141758288E+02 0.11334921170E+02
 0.98788951966E+01 0.83353869217E+01 0.69314476467E+01 0.57596152448E+01 0.48489614638E+01
 0.41936990207E+01 0.37775917244E+01 0.35875189527E+01 0.36184256051E+01 0.38756848270E+01
 0.43771190045E+01 0.51492111782E+01 0.62099724141E+01 0.75389433711E+01 0.90467776118E+01
 0.10529345033E+02 0.11451817539E+02 0.11273656868E+02 0.99033599751E+01 0.78472122603E+01
 0.60263898269E+01 0.53241595477E+01 0.61121002075E+01 0.80443781298E+01 0.65529831348E+01
 0.94898610112E+01 0.11512514283E+02 0.12063698229E+02 0.11276009813E+02 0.97698499229E+01
 0.81845555804E+01 0.67627987111E+01 0.55957207646E+01 0.47078097857E+01 0.40889703773E+01
 0.37202344690E+01 0.35875323822E+01 0.36868078597E+01 0.40265677726E+01 0.46285014159E+01
 0.55192190601E+01 0.67067946108E+01 0.81462191759E+01 0.97085061775E+01 0.11017640388E+02
 0.11362948997E+02 0.10269203098E+02 0.78765885128E+01 0.50066735788E+01 0.28428513803E+01
 0.23560486811E+01 0.37952126087E+01 0.19173036257E+01 0.54542824353E+01 0.89809363725E+01
 0.11311235724E+02 0.11933646675E+02 0.11099854420E+02 0.95434008954E+01 0.79413743119E+01
 0.65292444907E+01 0.53922946933E+01 0.45483875530E+01 0.39826883161E+01 0.36740449167E+01
 0.36085321316E+01 0.37843903260E+01 0.42140973863E+01 0.49225038013E+01 0.59334417043E+01
 0.72406201831E+01 0.87703220160E+01 0.10328085168E+02 0.11310835968E+02 0.10946855442E+02
 0.88932683816E+01 0.55606386067E+01 0.20728438561E+01 -.19010549504E+00 -.26013586835E+00
 -.20726233687E+01 0.82320144565E+00 0.49691104120E+01 0.88373905097E+01 0.11236922015E+02
 0.11765665898E+02 0.10815202451E+02 0.92130239190E+01 0.76199410118E+01 0.62444505652E+01
 0.51613156414E+01 0.43799465572E+01 0.38808098998E+01 0.36416219727E+01 0.36499867075E+01
 0.39075722228E+01 0.44309501993E+01 0.52465650224E+01 0.63724239963E+01 0.77847311558E+01
 0.93797075588E+01 0.10849804017E+02 0.11407889792E+02 0.10308933192E+02 0.73910859922E+01
 0.33391460096E+01 -.47441338840E+00 -.25683049989E+01 0.10414929131E+00 0.82323353277E+00
 0.34857859968E+01 0.70060360942E+01 0.10053511392E+02 0.11676241709E+02 0.11653947002E+02
 0.10445608981E+02 0.88241467141E+01 0.72822628020E+01 0.59743032673E+01 0.49583998322E+01
 0.42354391323E+01 0.37830675966E+01 0.35793804361E+01 0.36134096101E+01 0.38882379643E+01
 0.44214466297E+01 0.52393318318E+01 0.63578690167E+01 0.77504087714E+01 0.93133976017E+01
 0.10762751146E+02 0.11384516078E+02 0.10522762888E+02 0.80733704012E+01 0.46930188425E+01
 0.16151362232E+01 0.71729016681E+00 -.44345178892E+00 0.71734566547E+00 0.37080146541E+01
 0.73114674680E+01 0.10198525786E+02 0.11532113150E+02 0.11245555834E+02 0.99093828302E+01
 0.83026859620E+01 0.68236946313E+01 0.56011363919E+01 0.46781495526E+01 0.40467244829E+01
 0.36816741565E+01 0.35624862409E+01 0.36817448374E+01 0.40467334937E+01 0.46780938064E+01
 0.56011487827E+01 0.68237766937E+01 0.83026872314E+01 0.99092762191E+01 0.11245490200E+02
 0.11532148120E+02 0.10198539726E+02 0.73113803755E+01 0.37079026561E+01 0.34857734772E+01
 0.82321357954E+00 0.10413579799E+00 0.16152061367E+01 0.46931924297E+01 0.80735143520E+01