unknown system                          
   1.00000000000000     
    -2.450000    2.450000    1.274000
     2.450000   -2.450000    1.274000
     2.450000    2.450000   -1.274000
   Si
     2
Direct
  0.250000  0.750000  0.500000
  0.000000  0.000000  0.000000
 
   28   28   28
 -.54052204308E+01 -.38747419389E+01 0.10288209518E+00 0.50034020022E+01 0.91439940194E+01
 0.11424961612E+02 0.11677806962E+02 0.10519698243E+02 0.88807337640E+01 0.73331904879E+01
 0.60400864681E+01 0.50564021589E+01 0.43794704511E+01 0.39863481380E+01 0.38575784411E+01
 0.39862762781E+01 0.43794679783E+01 0.50564774801E+01 0.60401014003E+01 0.73331248639E+01
 0.88807092830E+01 0.10519735876E+02 0.11677810628E+02 0.11424938236E+02 0.91440362853E+01
 0.50034625640E+01 0.10282728839E+00 -.38748615009E+01 -.38748615009E+01 -.46915333443E+01
 -.25673614497E+01 0.16428168838E+01 0.63409895585E+01 0.99624510727E+01 0.11638703873E+02
 0.11422856946E+02 0.10049791902E+02 0.84109877095E+01 0.69253320515E+01 0.57174074760E+01
 0.48230526695E+01 0.42301506203E+01 0.39140137405E+01 0.38575382927E+01 0.40572060915E+01
 0.45228590937E+01 0.52747331451E+01 0.63322534623E+01 0.76881396308E+01 0.92703279207E+01
 0.10871785071E+02 0.11811342761E+02 0.11194392583E+02 0.85533096148E+01 0.42573350852E+01
 -.44514084855E+00 0.10282728839E+00 -.25674441547E+01 -.26780508057E+01 -.18806939326E+00
 0.38872757084E+01 0.79985431313E+01 0.10806160894E+02 0.11724373727E+02 0.11017233122E+02
 0.94851690054E+01 0.78857295009E+01 0.64869827493E+01 0.53815649070E+01 0.45863753770E+01
 0.40818108726E+01 0.38434490066E+01 0.38574806596E+01 0.41235296168E+01 0.46532443382E+01
 0.54663878101E+01 0.65779966086E+01 0.79713691070E+01 0.95610217936E+01 0.11101277650E+02
 0.11866659086E+02 0.11048936001E+02 0.83383372541E+01 0.42573350852E+01 0.50034625640E+01
 0.16427930084E+01 -.18809354117E+00 0.28146011928E+00 0.28459440431E+01 0.64322658144E+01
 0.96539539635E+01 0.11472199899E+02 0.11597082923E+02 0.10463148299E+02 0.88634201225E+01
 0.73340999564E+01 0.60423501187E+01 0.50501585560E+01 0.43578634494E+01 0.39412269078E+01
 0.37778605879E+01 0.38574589694E+01 0.41819800284E+01 0.47637099240E+01 0.56208695914E+01
 0.67638624268E+01 0.81682783337E+01 0.97401457106E+01 0.11213280277E+02 0.11880368049E+02
 0.11048936001E+02 0.85533096148E+01 0.91440362853E+01 0.63410142485E+01 0.38872875636E+01
 0.28459776346E+01 0.36868867812E+01 0.60300039063E+01 0.88499625573E+01 0.11011448075E+02
 0.11810309122E+02 0.11226799742E+02 0.98028248218E+01 0.82206762903E+01 0.67872145649E+01
 0.56154551095E+01 0.47398988208E+01 0.41483429381E+01 0.38149555421E+01 0.37204493412E+01
 0.38575087529E+01 0.42293551446E+01 0.48479198654E+01 0.57292894147E+01 0.68796364901E+01
 0.82691511198E+01 0.98006070384E+01 0.11213280277E+02 0.11866659086E+02 0.11194392583E+02
 0.11424938236E+02 0.99624366548E+01 0.79985293972E+01 0.64323037664E+01 0.60300753070E+01
 0.70026646112E+01 0.88829401624E+01 0.10783304660E+02 0.11869026115E+02 0.11760578932E+02
 0.10650716274E+02 0.91090691372E+01 0.75941044722E+01 0.62751340786E+01 0.52281465447E+01
 0.44656389769E+01 0.39676160429E+01 0.37091523769E+01 0.36742451742E+01 0.38576170080E+01
 0.42627878864E+01 0.49007142355E+01 0.57851976402E+01 0.69189491533E+01 0.82691511198E+01
 0.97401457106E+01 0.11101277650E+02 0.11811342761E+02 0.11677810628E+02 0.11638688581E+02
 0.10806102594E+02 0.96539107410E+01 0.88500090339E+01 0.88830213138E+01 0.97716720649E+01
 0.11046615225E+02 0.12018306633E+02 0.12158935824E+02 0.11365532494E+02 0.99656376853E+01
 0.84378148223E+01 0.70191201477E+01 0.58241351444E+01 0.48986202349E+01 0.42397262541E+01
 0.38241098559E+01 0.36292339388E+01 0.36418453459E+01 0.38577263397E+01 0.42800957281E+01
 0.49187061170E+01 0.57851976402E+01 0.68796364901E+01 0.81682783337E+01 0.95610217936E+01
 0.10871785071E+02 0.10519735876E+02 0.11422909374E+02 0.11724372972E+02 0.11472123898E+02
 0.11011391385E+02 0.10783343056E+02 0.11046681921E+02 0.11703566921E+02 0.12349573860E+02
 0.12516901500E+02 0.11951960519E+02 0.10754178669E+02 0.92873504694E+01 0.78303139434E+01
 0.65260628100E+01 0.54549636590E+01 0.46407228089E+01 0.40717000352E+01 0.37245282306E+01
 0.35794605075E+01 0.36251465229E+01 0.38577721093E+01 0.42800957281E+01 0.49007142355E+01
 0.57292894147E+01 0.67638624268E+01 0.79713691070E+01 0.92703279207E+01 0.88807092830E+01
 0.10049834479E+02 0.11017312268E+02 0.11597098991E+02 0.11810242193E+02 0.11868972684E+02
 0.12018327617E+02 0.12349613144E+02 0.12717190864E+02 0.12821606519E+02 0.12405034203E+02
 0.11426851879E+02 0.10099651463E+02 0.86788769066E+01 0.73220213858E+01 0.61383051536E+01
 0.51823425371E+01 0.44640143455E+01 0.39682559976E+01 0.36735390759E+01 0.35625569677E+01
 0.36251465229E+01 0.38577263397E+01 0.42627878864E+01 0.48479198654E+01 0.56208695914E+01
 0.65779966086E+01 0.76881396308E+01 0.73331248639E+01 0.84109324099E+01 0.94851979015E+01
 0.10463227353E+02 0.11226828735E+02 0.11760538162E+02 0.12158897543E+02 0.12516904432E+02
 0.12821617666E+02 0.12930660216E+02 0.12660305887E+02 0.11923062101E+02 0.10813594685E+02
 0.95166614852E+01 0.81832231352E+01 0.69403750919E+01 0.58719291365E+01 0.50155351442E+01
 0.43743084731E+01 0.39333407951E+01 0.36735390759E+01 0.35794605075E+01 0.36418453459E+01
 0.38576170080E+01 0.42293551446E+01 0.47637099240E+01 0.54663878101E+01 0.63322534623E+01
 0.60401014003E+01 0.69252689738E+01 0.78856599659E+01 0.88634246007E+01 0.98028824637E+01
 0.10650749782E+02 0.11365521556E+02 0.11951941840E+02 0.12405024612E+02 0.12660296625E+02
 0.12607065132E+02 0.12162800671E+02 0.11351321425E+02 0.10275220860E+02 0.90593891966E+01
 0.78339210544E+01 0.67042259366E+01 0.57365514708E+01 0.49594324098E+01 0.43743084731E+01
 0.39682559976E+01 0.37245282306E+01 0.36292339388E+01 0.36742451742E+01 0.38575087529E+01
 0.41819800284E+01 0.46532443382E+01 0.52747331451E+01 0.50564774801E+01 0.57174481165E+01
 0.64869439404E+01 0.73340353008E+01 0.82206572319E+01 0.91090958949E+01 0.99656666584E+01
 0.10754190410E+02 0.11426850554E+02 0.11923047724E+02 0.12162781695E+02 0.12073542361E+02
 0.11631958424E+02 0.10871640270E+02 0.98787062858E+01 0.87681766424E+01 0.76536051145E+01
 0.66243507201E+01 0.57365514708E+01 0.50155351442E+01 0.44640143455E+01 0.40717000352E+01
 0.38241098559E+01 0.37091523769E+01 0.37204493412E+01 0.38574589694E+01 0.41235296168E+01
 0.45228590937E+01 0.43794679783E+01 0.48231161129E+01 0.53816214235E+01 0.60423446195E+01
 0.67871695408E+01 0.75940719837E+01 0.84378134821E+01 0.92873686301E+01 0.10099673797E+02
 0.10813604777E+02 0.11351308828E+02 0.11631938658E+02 0.11595196152E+02 0.11224136404E+02
 0.10555033508E+02 0.96687417014E+01 0.86682470304E+01 0.76536051145E+01 0.67042259366E+01
 0.58719291365E+01 0.51823425371E+01 0.46407228089E+01 0.42397262541E+01 0.39676160429E+01
 0.38149555421E+01 0.37778605879E+01 0.38574806596E+01 0.40572060915E+01 0.39862762781E+01
 0.42301168256E+01 0.45864099180E+01 0.50502153584E+01 0.56154775821E+01 0.62751146880E+01
 0.70190876774E+01 0.78302950394E+01 0.86788820375E+01 0.95166832847E+01 0.10275236175E+02
 0.10871632898E+02 0.11224120307E+02 0.11273778629E+02 0.11003420383E+02 0.10444534153E+02
 0.96687417014E+01 0.87681766424E+01 0.78339210544E+01 0.69403750919E+01 0.61383051536E+01
 0.54549636590E+01 0.48986202349E+01 0.44656389769E+01 0.41483429381E+01 0.39412269078E+01
 0.38434490066E+01 0.38575382927E+01 0.38575784411E+01 0.39139531193E+01 0.40817559697E+01
 0.43578648941E+01 0.47399409591E+01 0.52281820560E+01 0.58241387311E+01 0.65260413761E+01
 0.73219968195E+01 0.81832164343E+01 0.90594041308E+01 0.98787227134E+01 0.10555031187E+02
 0.11003407627E+02 0.11160689402E+02 0.11003420383E+02 0.10555033508E+02 0.98787062858E+01
 0.90593891966E+01 0.81832231352E+01 0.73220213858E+01 0.65260628100E+01 0.58241351444E+01
 0.52281465447E+01 0.47398988208E+01 0.43578634494E+01 0.40818108726E+01 0.39140137405E+01
 0.39863481380E+01 0.38575713769E+01 0.38434137062E+01 0.39411694537E+01 0.41483195394E+01
 0.44656573422E+01 0.48986522479E+01 0.54549826505E+01 0.61382999792E+01 0.69403530171E+01
 0.78339057562E+01 0.87681843141E+01 0.96687578095E+01 0.10444533872E+02 0.11003407627E+02
 0.11273778629E+02 0.11224136404E+02 0.10871640270E+02 0.10275220860E+02 0.95166614852E+01
 0.86788769066E+01 0.78303139434E+01 0.70191201477E+01 0.62751340786E+01 0.56154551095E+01
 0.50501585560E+01 0.45863753770E+01 0.42301506203E+01 0.43794704511E+01 0.40572697204E+01
 0.38575324155E+01 0.37778545913E+01 0.38149143293E+01 0.39675825442E+01 0.42397193065E+01
 0.46407402448E+01 0.51823690953E+01 0.58719390533E+01 0.67042086592E+01 0.76535853676E+01
 0.86682516998E+01 0.96687578095E+01 0.10555031187E+02 0.11224120307E+02 0.11595196152E+02
 0.11631958424E+02 0.11351321425E+02 0.10813594685E+02 0.10099651463E+02 0.92873504694E+01
 0.84378148223E+01 0.75941044722E+01 0.67872145649E+01 0.60423501187E+01 0.53815649070E+01
 0.48230526695E+01 0.50564021589E+01 0.45228330477E+01 0.41235675977E+01 0.38575074445E+01
 0.37204670361E+01 0.37091392435E+01 0.38240796253E+01 0.40716722806E+01 0.44640149942E+01
 0.50155641580E+01 0.57365702795E+01 0.66243356625E+01 0.76535853676E+01 0.87681843141E+01
 0.98787227134E+01 0.10871632898E+02 0.11631938658E+02 0.12073542361E+02 0.12162800671E+02
 0.11923062101E+02 0.11426851879E+02 0.10754178669E+02 0.99656376853E+01 0.91090691372E+01
 0.82206762903E+01 0.73340999564E+01 0.64869827493E+01 0.57174074760E+01 0.60400864681E+01
 0.52746698513E+01 0.46532039120E+01 0.41819830989E+01 0.38575345244E+01 0.36742762896E+01
 0.36292504707E+01 0.37245075595E+01 0.39682151458E+01 0.43742983536E+01 0.49594618194E+01
 0.57365702795E+01 0.67042086592E+01 0.78339057562E+01 0.90594041308E+01 0.10275236175E+02
 0.11351308828E+02 0.12162781695E+02 0.12607065132E+02 0.12660305887E+02 0.12405034203E+02
 0.11951960519E+02 0.11365532494E+02 0.10650716274E+02 0.98028248218E+01 0.88634201225E+01
 0.78857295009E+01 0.69253320515E+01 0.73331904879E+01 0.63322644765E+01 0.54663579349E+01
 0.47636731433E+01 0.42293240461E+01 0.38576114309E+01 0.36418809447E+01 0.35794988935E+01
 0.36735258906E+01 0.39332955411E+01 0.43742983536E+01 0.50155641580E+01 0.58719390533E+01
 0.69403530171E+01 0.81832164343E+01 0.95166832847E+01 0.10813604777E+02 0.11923047724E+02
 0.12660296625E+02 0.12930660216E+02 0.12821606519E+02 0.12516901500E+02 0.12158935824E+02
 0.11760578932E+02 0.11226799742E+02 0.10463148299E+02 0.94851690054E+01 0.84109877095E+01
 0.88807337640E+01 0.76881817896E+01 0.65780255630E+01 0.56208837743E+01 0.48478993430E+01
 0.42627310643E+01 0.38576945429E+01 0.36251824107E+01 0.35626033186E+01 0.36735258906E+01
 0.39682151458E+01 0.44640149942E+01 0.51823690953E+01 0.61382999792E+01 0.73219968195E+01
 0.86788820375E+01 0.10099673797E+02 0.11426850554E+02 0.12405024612E+02 0.12821617666E+02
 0.12717190864E+02 0.12349573860E+02 0.12018306633E+02 0.11869026115E+02 0.11810309122E+02
 0.11597082923E+02 0.11017233122E+02 0.10049791902E+02 0.10519698243E+02 0.92703133794E+01
 0.79713690818E+01 0.67638987941E+01 0.57293438968E+01 0.49007110658E+01 0.42800254869E+01
 0.38577301985E+01 0.36251824107E+01 0.35794988935E+01 0.37245075595E+01 0.40716722806E+01
 0.46407402448E+01 0.54549826505E+01 0.65260413761E+01 0.78302950394E+01 0.92873686301E+01
 0.10754190410E+02 0.11951941840E+02 0.12516904432E+02 0.12349613144E+02 0.11703566921E+02
 0.11046615225E+02 0.10783304660E+02 0.11011448075E+02 0.11472199899E+02 0.11724373727E+02
 0.11422856946E+02 0.11677806962E+02 0.10871769803E+02 0.95609705402E+01 0.81682338620E+01
 0.68796733231E+01 0.57852759099E+01 0.49187102518E+01 0.42800254869E+01 0.38576945429E+01
 0.36418809447E+01 0.36292504707E+01 0.38240796253E+01 0.42397193065E+01 0.48986522479E+01
 0.58241387311E+01 0.70190876774E+01 0.84378134821E+01 0.99656666584E+01 0.11365521556E+02
 0.12158897543E+02 0.12018327617E+02 0.11046681921E+02 0.97716720649E+01 0.88829401624E+01
 0.88499625573E+01 0.96539539635E+01 0.10806160894E+02 0.11638703873E+02 0.11424961612E+02
 0.11811395373E+02 0.11101291184E+02 0.97400689115E+01 0.82690784100E+01 0.69189852431E+01
 0.57852759099E+01 0.49007110658E+01 0.42627310643E+01 0.38576114309E+01 0.36742762896E+01
 0.37091392435E+01 0.39675825442E+01 0.44656573422E+01 0.52281820560E+01 0.62751146880E+01
 0.75940719837E+01 0.91090958949E+01 0.10650749782E+02 0.11760538162E+02 0.11868972684E+02
 0.10783343056E+02 0.88830213138E+01 0.70026646112E+01 0.60300039063E+01 0.64322658144E+01
 0.79985431313E+01 0.99624510727E+01 0.91439940194E+01 0.11194417804E+02 0.11866756356E+02
 0.11213313696E+02 0.98005211644E+01 0.82690784100E+01 0.68796733231E+01 0.57293438968E+01
 0.48478993430E+01 0.42293240461E+01 0.38575345244E+01 0.37204670361E+01 0.38149143293E+01
 0.41483195394E+01 0.47399409591E+01 0.56154775821E+01 0.67871695408E+01 0.82206572319E+01
 0.98028824637E+01 0.11226828735E+02 0.11810242193E+02 0.11011391385E+02 0.88500090339E+01
 0.60300753070E+01 0.36868867812E+01 0.28459440431E+01 0.38872757084E+01 0.63409895585E+01
 0.50034020022E+01 0.85532196379E+01 0.11048960445E+02 0.11880482286E+02 0.11213313696E+02
 0.97400689115E+01 0.81682338620E+01 0.67638987941E+01 0.56208837743E+01 0.47636731433E+01
 0.41819830989E+01 0.38575074445E+01 0.37778545913E+01 0.39411694537E+01 0.43578648941E+01
 0.50502153584E+01 0.60423446195E+01 0.73340353008E+01 0.88634246007E+01 0.10463227353E+02
 0.11597098991E+02 0.11472123898E+02 0.96539107410E+01 0.64323037664E+01 0.28459776346E+01
 0.28146011928E+00 -.18806939326E+00 0.16428168838E+01 0.10288209518E+00 0.42572529178E+01
 0.83382286560E+01 0.11048960445E+02 0.11866756356E+02 0.11101291184E+02 0.95609705402E+01
 0.79713690818E+01 0.65780255630E+01 0.54663579349E+01 0.46532039120E+01 0.41235675977E+01
 0.38575324155E+01 0.38434137062E+01 0.40817559697E+01 0.45864099180E+01 0.53816214235E+01
 0.64869439404E+01 0.78856599659E+01 0.94851979015E+01 0.11017312268E+02 0.11724372972E+02
 0.10806102594E+02 0.79985293972E+01 0.38872875636E+01 -.18809354117E+00 -.26780508057E+01
 -.25673614497E+01 -.38747419389E+01 -.44507381905E+00 0.42572529178E+01 0.85532196379E+01
 0.11194417804E+02 0.11811395373E+02 0.10871769803E+02 0.92703133794E+01 0.76881817896E+01
 0.63322644765E+01 0.52746698513E+01 0.45228330477E+01 0.40572697204E+01 0.38575713769E+01
 0.39139531193E+01 0.42301168256E+01 0.48231161129E+01 0.57174481165E+01 0.69252689738E+01
 0.84109324099E+01 0.10049834479E+02 0.11422909374E+02 0.11638688581E+02 0.99624366548E+01
 0.63410142485E+01 0.16427930084E+01 -.25674441547E+01 -.46915333443E+01 -.38747662819E+01
 -.27570506322E+01 0.71541269556E+00 0.51880255683E+01 0.90749597636E+01 0.11274497425E+02
 0.11547414854E+02 0.10427659323E+02 0.87973421079E+01 0.72395896766E+01 0.59259567485E+01
 0.49168042432E+01 0.42122515075E+01 0.37889671781E+01 0.36250470509E+01 0.37109511558E+01
 0.40523436166E+01 0.46691570082E+01 0.55872734127E+01 0.68162060871E+01 0.83132376061E+01
 0.99432911068E+01 0.11252354539E+02 0.11364111196E+02 0.96196077471E+01 0.60609847277E+01
 0.16140183738E+01 -.21883963951E+01 -.27571549794E+01 -.38748421201E+01 -.21884062754E+01
 0.16140347157E+01 0.60609739436E+01 0.96195762613E+01 0.11364117454E+02 0.11252428932E+02
 0.99433920206E+01 0.83133060844E+01 0.68162362203E+01 0.55872944548E+01 0.46691706139E+01
 0.40523297262E+01 0.37109247221E+01 0.36250500960E+01 0.37889995803E+01 0.42122652072E+01
 0.49167783058E+01 0.59259222311E+01 0.72395598207E+01 0.87972777318E+01 0.10427543792E+02
 0.11547315013E+02 0.11274493031E+02 0.90750332361E+01 0.51880736457E+01 0.71536639853E+00
 0.82117165281E+00 -.20729616633E+01 -.25674883582E+01 -.47347510686E+00 0.33393411436E+01
 0.73903372758E+01 0.10307728307E+02 0.11407005158E+02 0.10849779306E+02 0.93805475440E+01
 0.77860226223E+01 0.63737241605E+01 0.52476024496E+01 0.44316283049E+01 0.39079222994E+01
 0.36501474558E+01 0.36417931300E+01 0.38811823065E+01 0.43806952992E+01 0.51626109962E+01
 0.62463245553E+01 0.76220556492E+01 0.92146411624E+01 0.10815499386E+02 0.11764200068E+02
 0.11233891751E+02 0.88336029344E+01 0.49657072220E+01 0.54511074325E+01 0.19158977450E+01
 -.25953449919E+00 -.18817434840E+00 0.20749570063E+01 0.55619765730E+01 0.88935109247E+01
 0.10946362799E+02 0.11310323128E+02 0.10328116959E+02 0.87709691311E+01 0.72415787896E+01
 0.59343931416E+01 0.49232706642E+01 0.42146139289E+01 0.37846654871E+01 0.36086796156E+01
 0.36742622012E+01 0.39831710889E+01 0.45493103603E+01 0.53938202602E+01 0.65313703718E+01
 0.79436825081E+01 0.95450600965E+01 0.11100004445E+02 0.11931897930E+02 0.11307917835E+02
 0.89770373901E+01 0.94863800314E+01 0.65505926352E+01 0.37949071762E+01 0.23578622298E+01
 0.28458865802E+01 0.50096728411E+01 0.78785809638E+01 0.10269871928E+02 0.11362654920E+02
 0.11017118329E+02 0.97083526653E+01 0.81465436833E+01 0.67073868507E+01 0.55198517273E+01
 0.46290505754E+01 0.40269644219E+01 0.36870345375E+01 0.35876943593E+01 0.37205321619E+01
 0.40895908661E+01 0.47089124165E+01 0.55974525513E+01 0.67651234671E+01 0.81870044692E+01
 0.97715657573E+01 0.11276162566E+02 0.12061971500E+02 0.11509346611E+02 0.11792609407E+02
 0.10246784636E+02 0.80430274782E+01 0.61129214241E+01 0.53269197438E+01 0.60299920912E+01
 0.78503797052E+01 0.99052321818E+01 0.11274049164E+02 0.11451189905E+02 0.10528480806E+02
 0.90462634511E+01 0.75388962750E+01 0.62102307766E+01 0.51495918878E+01 0.43775101270E+01
 0.38759950361E+01 0.36186217278E+01 0.35877126890E+01 0.37779827096E+01 0.41944537169E+01
 0.48502183330E+01 0.57615019454E+01 0.69338984982E+01 0.83379212731E+01 0.98807026427E+01
 0.11335255264E+02 0.12140367498E+02 0.12130371378E+02 0.12066857808E+02 0.11078020460E+02
 0.96340467534E+01 0.84641395890E+01 0.81696951410E+01 0.88829561838E+01 0.10188639109E+02
 0.11362003897E+02 0.11771892852E+02 0.11200949328E+02 0.99075921521E+01 0.84000414139E+01
 0.69795964128E+01 0.57741659685E+01 0.48398934784E+01 0.41787944571E+01 0.37676550009E+01
 0.35823021420E+01 0.36087283410E+01 0.38435760344E+01 0.42917652617E+01 0.49647923773E+01
 0.58759971153E+01 0.70272709972E+01 0.83864732317E+01 0.98632812875E+01 0.11263818264E+02
 0.11048513276E+02 0.11985801354E+02 0.12223478303E+02 0.11782054172E+02 0.11026764743E+02
 0.10473621326E+02 0.10485304257E+02 0.11046639989E+02 0.11769450355E+02 0.12126782108E+02
 0.11764523876E+02 0.10694822076E+02 0.92607716767E+01 0.78080294119E+01 0.64972364318E+01
 0.54188841593E+01 0.46032804980E+01 0.40406554706E+01 0.37066137798E+01 0.35801974032E+01
 0.36502072547E+01 0.39141154997E+01 0.43761151811E+01 0.50458732841E+01 0.59338940742E+01
 0.70389201677E+01 0.83277333515E+01 0.97157544258E+01 0.94418770568E+01 0.10684992346E+02
 0.11669994409E+02 0.12169827157E+02 0.12194709315E+02 0.11990651752E+02 0.11876844054E+02
 0.12028290577E+02 0.12349595183E+02 0.12530088033E+02 0.12246274373E+02 0.11375856039E+02
 0.10082789452E+02 0.86660151315E+01 0.73046066330E+01 0.61152080635E+01 0.51589589731E+01
 0.44485694739E+01 0.39686122936E+01 0.36961786643E+01 0.36134375151E+01 0.37109660859E+01
 0.39864030887E+01 0.44430899972E+01 0.50889159249E+01 0.59316299178E+01 0.69672151193E+01
 0.81626874274E+01 0.78988810752E+01 0.90540054025E+01 0.10187159087E+02 0.11174137496E+02
 0.11859201756E+02 0.12227462022E+02 0.12411032065E+02 0.12568056147E+02 0.12744643722E+02
 0.12821619480E+02 0.12589976258E+02 0.11904980220E+02 0.10809625121E+02 0.95076205369E+01
 0.81669831347E+01 0.69184207401E+01 0.58506738679E+01 0.50040100511E+01 0.43813054200E+01
 0.39660591847E+01 0.37380152885E+01 0.36817828891E+01 0.37889633537E+01 0.40572661872E+01
 0.44894501329E+01 0.50917939131E+01 0.58692993925E+01 0.68154877158E+01 0.65919620783E+01
 0.75505462126E+01 0.85733367549E+01 0.95898144734E+01 0.10528491930E+02 0.11308120216E+02
 0.11888290396E+02 0.12307327416E+02 0.12607318301E+02 0.12760046174E+02 0.12660309793E+02
 0.12199011863E+02 0.11363984252E+02 0.10265915948E+02 0.90343968524E+01 0.77999405493E+01
 0.66707673541E+01 0.57147065819E+01 0.49594596479E+01 0.44042486189E+01 0.40341850947E+01
 0.38317249604E+01 0.37832137401E+01 0.38810809201E+01 0.41235066407E+01 0.45131213068E+01
 0.50547193569E+01 0.57505076711E+01 0.55819992592E+01 0.63093168865E+01 0.71379447418E+01
 0.80286411857E+01 0.89324829609E+01 0.98013329887E+01 0.10595632770E+02 0.11276476428E+02
 0.11817082635E+02 0.12187743959E+02 0.12327830449E+02 0.12162796657E+02 0.11660512878E+02
 0.10857161978E+02 0.98350860982E+01 0.87083828824E+01 0.75918473548E+01 0.65753061281E+01
 0.57131234773E+01 0.50273568911E+01 0.45176065065E+01 0.41716814355E+01 0.39744066167E+01
 0.39136325446E+01 0.39830199635E+01 0.41818810709E+01 0.45131041161E+01 0.49799931576E+01
 0.48717080933E+01 0.53731601238E+01 0.59838602951E+01 0.66858206032E+01 0.74535239940E+01
 0.82566022347E+01 0.90632475656E+01 0.98411363920E+01 0.10553456436E+02 0.11152033300E+02
 0.11574458994E+02 0.11752418761E+02 0.11631948178E+02 0.11196974246E+02 0.10482666679E+02
 0.95696995703E+01 0.85618877834E+01 0.75591823099E+01 0.66385052099E+01 0.58473180001E+01
 0.52067687024E+01 0.47188511571E+01 0.43743256080E+01 0.41603694164E+01 0.40668335191E+01
 0.40894341860E+01 0.42292087809E+01 0.44893995383E+01 0.44430077412E+01 0.47354961350E+01
 0.51354515693E+01 0.56343370353E+01 0.62211185123E+01 0.68827913702E+01 0.76035603770E+01
 0.83627847412E+01 0.91315820434E+01 0.98683403463E+01 0.10515470297E+02 0.11002019945E+02
 0.11255905706E+02 0.11224121479E+02 0.10892560306E+02 0.10294735407E+02 0.95038202517E+01
 0.86119740703E+01 0.77076034412E+01 0.68600638052E+01 0.61144652426E+01 0.54934550616E+01
 0.50021453358E+01 0.46345898145E+01 0.43811390489E+01 0.42348314083E+01 0.41943416056E+01
 0.42626308588E+01 0.42799579999E+01 0.43760034730E+01 0.45783447075E+01 0.48817848518E+01
 0.52804730875E+01 0.57704023904E+01 0.63488223678E+01 0.70103564723E+01 0.77415612558E+01
 0.85156710180E+01 0.92885817026E+01 0.99977782386E+01 0.10567333502E+02 0.10921313957E+02
 0.11003401981E+02 0.10795002879E+02 0.10322577366E+02 0.96499093735E+01 0.88594035198E+01
 0.80318712783E+01 0.72327575781E+01 0.65068341107E+01 0.58788766502E+01 0.53575655433E+01
 0.49414341918E+01 0.46258178536E+01 0.44085119448E+01 0.42917264144E+01 0.43761463632E+01
 0.42799949847E+01 0.42916319916E+01 0.44084196254E+01 0.46258126359E+01 0.49414562606E+01
 0.53575401056E+01 0.58788174934E+01 0.65067823121E+01 0.72327171239E+01 0.80318432118E+01
 0.88594051488E+01 0.96499307629E+01 0.10322583129E+02 0.10794990735E+02 0.11003399883E+02
 0.10921320193E+02 0.10567322923E+02 0.99977603823E+01 0.92885894571E+01 0.85157062367E+01
 0.77416114684E+01 0.70104333195E+01 0.63489144905E+01 0.57704384280E+01 0.52804232243E+01
 0.48817501922E+01 0.45784316580E+01 0.47355448998E+01 0.44431674187E+01 0.42627342982E+01
 0.41943195517E+01 0.42347724144E+01 0.43811215934E+01 0.46345899622E+01 0.50021256800E+01
 0.54934285885E+01 0.61144447096E+01 0.68600377990E+01 0.77075809978E+01 0.86119793753E+01
 0.95038383725E+01 0.10294730236E+02 0.10892538802E+02 0.11224115567E+02 0.11255909383E+02
 0.11002010415E+02 0.10515464591E+02 0.98683645274E+01 0.91316206399E+01 0.83628269172E+01
 0.76036413426E+01 0.68829074664E+01 0.62211695590E+01 0.56342620128E+01 0.51353618386E+01
 0.53730256370E+01 0.48717086978E+01 0.44895486825E+01 0.42293567038E+01 0.40894874946E+01
 0.40668308646E+01 0.41603612059E+01 0.43743108730E+01 0.47188339438E+01 0.52067692022E+01
 0.58473231799E+01 0.66384891373E+01 0.75591639143E+01 0.85618972535E+01 0.95697138266E+01
 0.10482648850E+02 0.11196942698E+02 0.11631937848E+02 0.11752417521E+02 0.11574449663E+02
 0.11152044121E+02 0.10553500621E+02 0.98411686166E+01 0.90632551723E+01 0.82566561045E+01
 0.74536451853E+01 0.66858880325E+01 0.59837749063E+01 0.63092437624E+01 0.55818539298E+01
 0.49799604505E+01 0.45132246744E+01 0.41820398083E+01 0.39831253734E+01 0.39136809561E+01
 0.39744112479E+01 0.41716554928E+01 0.45175916331E+01 0.50273780128E+01 0.57131439409E+01
 0.65752939852E+01 0.75918363364E+01 0.87084037872E+01 0.98351009700E+01 0.10857133633E+02
 0.11660472339E+02 0.12162777711E+02 0.12327813281E+02 0.12187724525E+02 0.11817106928E+02
 0.11276539464E+02 0.10595648436E+02 0.98012829407E+01 0.89324795465E+01 0.80287424411E+01
 0.71380239687E+01 0.75506252746E+01 0.65919209175E+01 0.57503927466E+01 0.50546801901E+01
 0.45132023640E+01 0.41236374137E+01 0.38811963949E+01 0.37832837920E+01 0.38317301203E+01
 0.40341495602E+01 0.44042404638E+01 0.49594976834E+01 0.57147335449E+01 0.66707576064E+01
 0.77999452556E+01 0.90344377692E+01 0.10265934837E+02 0.11363947549E+02 0.12198963587E+02
 0.12660275801E+02 0.12759997923E+02 0.12607273603E+02 0.12307356467E+02 0.11888368298E+02
 0.11308116450E+02 0.10528378405E+02 0.95897383627E+01 0.85733944834E+01 0.90540059784E+01
 0.78989427897E+01 0.68154851065E+01 0.58692432331E+01 0.50917692941E+01 0.44894840189E+01
 0.40573358322E+01 0.37890459799E+01 0.36818385907E+01 0.37380050570E+01 0.39660182897E+01
 0.43813123909E+01 0.50040641940E+01 0.58507029842E+01 0.69184169898E+01 0.81670117271E+01
 0.95076830984E+01 0.10809644041E+02 0.11904934773E+02 0.12589923484E+02 0.12821569372E+02
 0.12744557011E+02 0.12567976416E+02 0.12411056058E+02 0.12227549604E+02 0.11859186727E+02
 0.11173979181E+02 0.10187018910E+02 0.10684819982E+02 0.94418224836E+01 0.81627155688E+01
 0.69672419599E+01 0.59316362860E+01 0.50889103196E+01 0.44430721855E+01 0.39863957946E+01
 0.37109910066E+01 0.36134558405E+01 0.36961465048E+01 0.39685756897E+01 0.44486005021E+01
 0.51590282905E+01 0.61152379427E+01 0.73046137629E+01 0.86660688251E+01 0.10082863070E+02
 0.11375862512E+02 0.12246219287E+02 0.12530041097E+02 0.12349542928E+02 0.12028178108E+02
 0.11876734449E+02 0.11990663523E+02 0.12194799221E+02 0.12169816085E+02 0.11669829754E+02
 0.11985673608E+02 0.11048352582E+02 0.97156621841E+01 0.83277203286E+01 0.70389585167E+01
 0.59339450608E+01 0.50458767539E+01 0.43760484814E+01 0.39140397448E+01 0.36501773530E+01
 0.35801782009E+01 0.37065672212E+01 0.40406354008E+01 0.46033391602E+01 0.54189634017E+01
 0.64972650659E+01 0.78080485271E+01 0.92608413195E+01 0.10694886253E+02 0.11764503069E+02
 0.12126720970E+02 0.11769429553E+02 0.11046617483E+02 0.10485202006E+02 0.10473504171E+02
 0.11026760545E+02 0.11782134276E+02 0.12223483956E+02 0.12066882407E+02 0.12130311225E+02
 0.11263708520E+02 0.98631783825E+01 0.83864252206E+01 0.70273054709E+01 0.58760665542E+01
 0.49647915530E+01 0.42916638123E+01 0.38434617542E+01 0.36086693799E+01 0.35822637297E+01
 0.37676099301E+01 0.41787987527E+01 0.48399730323E+01 0.57742432560E+01 0.69796184784E+01
 0.84000672866E+01 0.99076611575E+01 0.11200983371E+02 0.11771837256E+02 0.11361947230E+02
 0.10188669148E+02 0.88830027965E+01 0.81696506937E+01 0.84640463438E+01 0.96340247498E+01
 0.11078073780E+02 0.10246794702E+02 0.11792643825E+02 0.12140382474E+02 0.11335217690E+02
 0.98806167419E+01 0.83378573054E+01 0.69339243092E+01 0.57615693678E+01 0.48502068494E+01
 0.41943410843E+01 0.37778682142E+01 0.35876572610E+01 0.36185870795E+01 0.38759649163E+01
 0.43775360583E+01 0.51496749799E+01 0.62102896133E+01 0.75389034489E+01 0.90462858932E+01
 0.10528532884E+02 0.11451184755E+02 0.11273965525E+02 0.99051934619E+01 0.78504750896E+01
 0.60301326287E+01 0.53269690470E+01 0.61128779657E+01 0.80429867107E+01 0.65505342227E+01
 0.94863401420E+01 0.11509377436E+02 0.12062046856E+02 0.11276195919E+02 0.97715171752E+01
 0.81869491671E+01 0.67651461402E+01 0.55975092366E+01 0.47088933534E+01 0.40894911127E+01
 0.37204470927E+01 0.35876646808E+01 0.36870178460E+01 0.40269522651E+01 0.46290845999E+01
 0.55199165429E+01 0.67074121643E+01 0.81465273638E+01 0.97083602901E+01 0.11017145422E+02
 0.11362620202E+02 0.10269780651E+02 0.78785674576E+01 0.50098219374E+01 0.28461095141E+01
 0.23580069139E+01 0.37949204218E+01 0.19159517109E+01 0.54510375523E+01 0.89769579006E+01
 0.11307936667E+02 0.11932006506E+02 0.11100090229E+02 0.95450572158E+01 0.79436554806E+01
 0.65313981164E+01 0.53938660759E+01 0.45492908339E+01 0.39830980854E+01 0.36742160863E+01
 0.36086792794E+01 0.37846672530E+01 0.42146121001E+01 0.49232950263E+01 0.59344233530E+01
 0.72415637537E+01 0.87709236197E+01 0.10328100801E+02 0.11310328525E+02 0.10946324108E+02
 0.88934378917E+01 0.55619818557E+01 0.20751170359E+01 -.18792331801E+00 -.25933511836E+00
 -.20727765023E+01 0.82123598468E+00 0.49656390699E+01 0.88335103498E+01 0.11233899713E+02
 0.11764314333E+02 0.10815611964E+02 0.92146795364E+01 0.76220625662E+01 0.62463594724E+01
 0.51626474063E+01 0.43806793287E+01 0.38811349793E+01 0.36417765045E+01 0.36501661980E+01
 0.39079341985E+01 0.44316249031E+01 0.52476046004E+01 0.63737173947E+01 0.77859726058E+01
 0.93804719973E+01 0.10849734413E+02 0.11406999653E+02 0.10307715356E+02 0.73903027980E+01
 0.33393461240E+01 -.47336476216E+00 -.25672892959E+01 0.10295985859E+00 0.82125330004E+00
 0.34827415544E+01 0.70023129539E+01 0.10049990213E+02 0.11673823824E+02 0.11653115641E+02
 0.10446272889E+02 0.88257679911E+01 0.72841566231E+01 0.59759219746E+01 0.49594805292E+01
 0.42359997581E+01 0.37832849894E+01 0.35794572084E+01 0.36135185358E+01 0.38885354128E+01
 0.44220734835E+01 0.52403489040E+01 0.63591657858E+01 0.77516732961E+01 0.93141927291E+01
 0.10762685632E+02 0.11383500071E+02 0.10521102400E+02 0.80716181296E+01 0.46916218886E+01
 0.16140924640E+01 0.71541219343E+00 -.44504654541E+00 0.71545063891E+00 0.37054845971E+01
 0.73085206659E+01 0.10195824620E+02 0.11530362784E+02 0.11245121613E+02 0.99101478617E+01
 0.83041620395E+01 0.68253052515E+01 0.56024500558E+01 0.46789876574E+01 0.40471372190E+01
 0.36818265646E+01 0.35625559378E+01 0.36818974173E+01 0.40471431491E+01 0.46789224870E+01
 0.56024481081E+01 0.68253751347E+01 0.83041631793E+01 0.99100608708E+01 0.11245096532E+02
 0.11530452720E+02 0.10195896489E+02 0.73084832076E+01 0.37054069826E+01 0.34827124259E+01
 0.82119776276E+00 0.10289613367E+00 0.16141007766E+01 0.46917250123E+01 0.80716866896E+01