       N       E                     dE             d eps       ncg     rms          rms(c)
DAV:   1    -0.120108030710E+02   -0.12011E+02   -0.23405E-05    24   0.392E-02    0.241E-03
DAV:   2    -0.120108028668E+02    0.20416E-06   -0.95171E-07    24   0.869E-03
   1 F= -.12010803E+02 E0= -.11982593E+02  d E =-.120108E+02
