 running on    8 total cores
 distrk:  each k-point on    8 cores,    1 groups
 distr:  one band on    1 cores,    8 groups
 using from now: INCAR     
 vasp.5.4.4.18Apr17-6-g9f103f2a35 (build Dec 09 2018 21:25:21) complex          
  
 POSCAR found type information on POSCAR  Si
 POSCAR found :  1 types and       2 ions
 scaLAPACK will be used

 ----------------------------------------------------------------------------- 
|                                                                             |
|           W    W    AA    RRRRR   N    N  II  N    N   GGGG   !!!           |
|           W    W   A  A   R    R  NN   N  II  NN   N  G    G  !!!           |
|           W    W  A    A  R    R  N N  N  II  N N  N  G       !!!           |
|           W WW W  AAAAAA  RRRRR   N  N N  II  N  N N  G  GGG   !            |
|           WW  WW  A    A  R   R   N   NN  II  N   NN  G    G                |
|           W    W  A    A  R    R  N    N  II  N    N   GGGG   !!!           |
|                                                                             |
|      For optimal performance we recommend to set                            |
|        NCORE= 4 - approx SQRT( number of cores)                             |
|      NCORE specifies how many cores store one orbital (NPAR=cpu/NCORE).     |
|      This setting can  greatly improve the performance of VASP for DFT.     |
|      The default,   NCORE=1            might be grossly inefficient         |
|      on modern multi-core architectures or massively parallel machines.     |
|      Do your own testing !!!!                                               |
|      Unfortunately you need to use the default for GW and RPA calculations. |
|      (for HF NCORE is supported but not extensively tested yet)             |
|                                                                             |
 ----------------------------------------------------------------------------- 

 LDA part: xc-table for Pade appr. of Perdew
 POSCAR, INCAR and KPOINTS ok, starting setup
 FFT: planning ...
 WAVECAR not read
 entering main loop
       N       E                     dE             d eps       ncg     rms          rms(c)
DAV:   1    -0.435027703536E+01   -0.43503E+01   -0.22549E+03    48   0.445E+02
DAV:   2    -0.119703542072E+02   -0.76201E+01   -0.73011E+01    64   0.538E+01
DAV:   3    -0.120302973002E+02   -0.59943E-01   -0.59943E-01    56   0.630E+00
DAV:   4    -0.120303597615E+02   -0.62461E-04   -0.62461E-04    88   0.212E-01
DAV:   5    -0.120303597646E+02   -0.30766E-08   -0.31677E-08    40   0.141E-03    0.139E+00
DAV:   6    -0.120185383909E+02    0.11821E-01   -0.45389E-03    64   0.428E-01    0.865E-01
DAV:   7    -0.120108428462E+02    0.76955E-02   -0.11013E-02    48   0.679E-01    0.441E-02
DAV:   8    -0.120108026855E+02    0.40161E-04   -0.14693E-04    56   0.914E-02
   1 F= -.12010803E+02 E0= -.11982593E+02  d E =-.120108E+02
 curvature:   0.00 expect dE= 0.000E+00 dE for cont linesearch  0.000E+00
 trial: gam= 0.00000 g(F)=  0.686E-45 g(S)=  0.149E+01 ort = 0.000E+00 (trialstep = 0.100E+01)
 search vector abs. value=  0.149E+01
 bond charge predicted
       N       E                     dE             d eps       ncg     rms          rms(c)
DAV:   1    -0.121334417775E+02   -0.12260E+00   -0.29602E+01    48   0.341E+01    0.330E+00
DAV:   2    -0.118639454711E+02    0.26950E+00   -0.47954E-01    72   0.529E+00    0.191E+00
DAV:   3    -0.117243793021E+02    0.13957E+00   -0.32494E-01    56   0.316E+00    0.185E-01
DAV:   4    -0.117251422994E+02   -0.76300E-03   -0.92025E-03    48   0.769E-01    0.184E-01
DAV:   5    -0.117249950188E+02    0.14728E-03   -0.61806E-05    48   0.509E-02
   2 F= -.11724995E+02 E0= -.11696786E+02  d E =0.285808E+00
 trial-energy change:    0.285808  1 .order    0.237941   -1.487145    1.963027
 step:   0.4109(harm=  0.4310)  dis= 0.00000  next Energy=   -12.313005 (dE=-0.302E+00)
 bond charge predicted
       N       E                     dE             d eps       ncg     rms          rms(c)
DAV:   1    -0.124574669010E+02   -0.73232E+00   -0.10092E+01    48   0.180E+01    0.181E+00
DAV:   2    -0.123758524978E+02    0.81614E-01   -0.14498E-01    56   0.285E+00    0.104E+00
DAV:   3    -0.123315631972E+02    0.44289E-01   -0.10261E-01    56   0.176E+00    0.101E-01
DAV:   4    -0.123317135797E+02   -0.15038E-03   -0.28134E-03    48   0.448E-01
   3 F= -.12331714E+02 E0= -.12303504E+02  d E =-.320911E+00
 curvature:  -0.22 expect dE=-0.255E-02 dE for cont linesearch -0.361E-03
 ZBRENT: interpolating
 opt :   0.4255  next Energy=   -12.332079 (dE=-0.321E+00)
 bond charge predicted
       N       E                     dE             d eps       ncg     rms          rms(c)
DAV:   1    -0.123322327401E+02   -0.66954E-03   -0.62231E-03    48   0.472E-01    0.508E-02
DAV:   2    -0.123321675924E+02    0.65148E-04   -0.97271E-05    24   0.769E-02
   4 F= -.12332168E+02 E0= -.12303958E+02  d E =-.321365E+00
 curvature:  -0.22 expect dE=-0.248E-02 dE for cont linesearch -0.297E-05
 ZBRENT: interpolating
 opt :   0.4270  next Energy=   -12.332171 (dE=-0.321E+00)
 bond charge predicted
       N       E                     dE             d eps       ncg     rms          rms(c)
DAV:   1    -0.123321350586E+02    0.97682E-04   -0.21941E-05    24   0.357E-02    0.502E-03
DAV:   2    -0.123321349390E+02    0.11957E-06   -0.18782E-06    24   0.120E-02
   5 F= -.12332135E+02 E0= -.12303925E+02  d E =-.321332E+00
 curvature:  -0.24 expect dE=-0.273E-02 dE for cont linesearch -0.108E-04
 ZBRENT: interpolating
 opt :   0.4260  next Energy=   -12.332169 (dE=-0.321E+00)
 bond charge predicted
       N       E                     dE             d eps       ncg     rms          rms(c)
DAV:   1    -0.123321367138E+02   -0.16553E-05   -0.29549E-05    24   0.323E-02    0.288E-03
DAV:   2    -0.123321364898E+02    0.22405E-06   -0.10715E-06    24   0.891E-03
   6 F= -.12332136E+02 E0= -.12303927E+02  d E =-.321334E+00
 curvature:  -0.03 expect dE=-0.293E-03 dE for cont linesearch -0.568E-06
 ZBRENT: interpolating
 opt :   0.4257  next Energy=   -12.332168 (dE=-0.321E+00)
 bond charge predicted
       N       E                     dE             d eps       ncg     rms          rms(c)
DAV:   1    -0.123321360757E+02    0.63811E-06   -0.14682E-06    24   0.773E-03    0.957E-04
DAV:   2    -0.123321360310E+02    0.44754E-07   -0.72697E-08    24   0.222E-03
   7 F= -.12332136E+02 E0= -.12303927E+02  d E =-.321333E+00
 curvature:  -0.02 expect dE=-0.262E-03 dE for cont linesearch -0.302E-06
 ZBRENT: interpolating
 opt :   0.4256  next Energy=   -12.332136 (dE=-0.321E+00)
 bond charge predicted
       N       E                     dE             d eps       ncg     rms          rms(c)
DAV:   1    -0.123321358179E+02    0.25786E-06   -0.25293E-07    24   0.322E-03    0.389E-04
DAV:   2    -0.123321358037E+02    0.14176E-07   -0.12399E-08    24   0.905E-04
   8 F= -.12332136E+02 E0= -.12303926E+02  d E =-.321333E+00
 curvature:  -0.02 expect dE=-0.214E-03 dE for cont linesearch -0.197E-06
 ZBRENT: bisectioning
 opt :   0.4256  next Energy=   -12.332136 (dE=-0.321E+00)
 bond charge predicted
       N       E                     dE             d eps       ncg     rms          rms(c)
DAV:   1    -0.123321356854E+02    0.13244E-06   -0.71728E-08    24   0.170E-03    0.199E-04
DAV:   2    -0.123321356788E+02    0.66458E-08   -0.30458E-09    24   0.452E-04
   9 F= -.12332136E+02 E0= -.12303926E+02  d E =-.321333E+00
 curvature:  -0.02 expect dE=-0.238E-03 dE for cont linesearch -0.194E-06
 ZBRENT: bisectioning
 opt :   0.4255  next Energy=   -12.332136 (dE=-0.321E+00)
 bond charge predicted
       N       E                     dE             d eps       ncg     rms          rms(c)
DAV:   1    -0.123321356138E+02    0.71662E-07   -0.17637E-08    24   0.848E-04    0.102E-04
DAV:   2    -0.123321356101E+02    0.36823E-08   -0.72906E-10    24   0.220E-04
  10 F= -.12332136E+02 E0= -.12303926E+02  d E =-.321333E+00
 curvature:  -0.01 expect dE=-0.128E-03 dE for cont linesearch -0.980E-07
 ZBRENT: bisectioning
 opt :   0.4255  next Energy=   -12.332136 (dE=-0.321E+00)
 bond charge predicted
       N       E                     dE             d eps       ncg     rms          rms(c)
DAV:   1    -0.123321355772E+02    0.36534E-07   -0.43933E-09    24   0.424E-04    0.580E-05
DAV:   2    -0.123321355756E+02    0.16257E-08   -0.19113E-10    24   0.113E-04
  11 F= -.12332136E+02 E0= -.12303926E+02  d E =-.321333E+00
 curvature:  -0.01 expect dE=-0.666E-04 dE for cont linesearch -0.493E-07
 ZBRENT: bisectioning
 opt :   0.4255  next Energy=   -12.332136 (dE=-0.321E+00)
 bond charge predicted
       N       E                     dE             d eps       ncg     rms          rms(c)
DAV:   1    -0.123321355592E+02    0.18039E-07   -0.11185E-09    24   0.214E-04    0.403E-05
DAV:   2    -0.123321355588E+02    0.42311E-09   -0.48679E-11    24   0.570E-05
  12 F= -.12332136E+02 E0= -.12303926E+02  d E =-.321333E+00
 curvature:  -0.00 expect dE=-0.339E-04 dE for cont linesearch -0.248E-07
 ZBRENT: bisectioning
 opt :   0.4255  next Energy=   -12.332136 (dE=-0.321E+00)
 bond charge predicted
       N       E                     dE             d eps       ncg     rms          rms(c)
DAV:   1    -0.123321355506E+02    0.85712E-08   -0.28119E-10    24   0.107E-04    0.342E-05
DAV:   2    -0.123321355501E+02    0.55181E-09   -0.12447E-11    24   0.284E-05
  13 F= -.12332136E+02 E0= -.12303926E+02  d E =-.321333E+00
 curvature:  -0.00 expect dE=-0.171E-04 dE for cont linesearch -0.124E-07
 ZBRENT: bisectioning
 opt :   0.4255  next Energy=   -12.332136 (dE=-0.321E+00)
 bond charge predicted
       N       E                     dE             d eps       ncg     rms          rms(c)
DAV:   1    -0.123321355466E+02    0.40273E-08   -0.69974E-11    24   0.533E-05    0.325E-05
DAV:   2    -0.123321355462E+02    0.44935E-09   -0.31047E-12    24   0.141E-05
  14 F= -.12332136E+02 E0= -.12303926E+02  d E =-.321333E+00
 curvature:  -0.00 expect dE=-0.862E-05 dE for cont linesearch -0.621E-08
 ZBRENT: bisectioning
 opt :   0.4255  next Energy=   -12.332136 (dE=-0.321E+00)
 bond charge predicted
       N       E                     dE             d eps       ncg     rms          rms(c)
DAV:   1    -0.123321355429E+02    0.37202E-08   -0.17202E-11    24   0.267E-05    0.321E-05
DAV:   2    -0.123321355437E+02   -0.76750E-09   -0.69778E-13    24   0.699E-06
  15 F= -.12332136E+02 E0= -.12303926E+02  d E =-.321333E+00
 curvature:  -0.00 expect dE=-0.432E-05 dE for cont linesearch -0.311E-08
 ZBRENT: bisectioning
 opt :   0.4255  next Energy=   -12.332136 (dE=-0.321E+00)
 writing wavefunctions
