<?xml version="1.0" encoding="ISO-8859-1"?>
<modeling>
 <generator>
  <i name="program" type="string">vasp </i>
  <i name="version" type="string">5.4.4.18Apr17-6-g9f103f2a35  </i>
  <i name="subversion" type="string">(build Dec 09 2018 21:25:21) complex            parallel </i>
  <i name="platform" type="string">IFC18.0.1.163_CrayMPICH7.7.0_MKL18.0.1.163 </i>
  <i name="date" type="string">2019 03 18 </i>
  <i name="time" type="string">04:36:09 </i>
 </generator>
 <incar>
  <i type="string" name="PREC">normal</i>
  <i type="int" name="IBRION">     2</i>
  <i name="EDIFF">      0.00040000</i>
  <i name="EDIFFG">     -0.01000000</i>
  <i type="int" name="NSW">    15</i>
  <i type="int" name="ISIF">     2</i>
  <i name="ENCUT">    250.00000000</i>
  <i type="int" name="NBANDS">     8</i>
  <i type="logical" name="LREAL"> F  </i>
  <i type="int" name="ISMEAR">     0</i>
  <i name="SIGMA">      0.20000000</i>
  <v type="int" name="KPOINT_BSE">    -1     0     0     0</v>
 </incar>
 <structure name="primitive_cell" >
  <crystal>
   <varray name="basis" >
    <v>      -2.45000000       2.45000000       1.27400000 </v>
    <v>       2.45000000      -2.45000000       1.27400000 </v>
    <v>       2.45000000       2.45000000      -1.27400000 </v>
   </varray>
   <i name="volume">     30.58874000 </i>
   <varray name="rec_basis" >
    <v>       0.00000000       0.20408163       0.39246468 </v>
    <v>       0.20408163       0.00000000       0.39246468 </v>
    <v>       0.20408163       0.20408163      -0.00000000 </v>
   </varray>
  </crystal>
  <varray name="positions" >
   <v>       0.25000000      -0.25000000      -0.50000000 </v>
   <v>       0.00000000       0.00000000       0.00000000 </v>
  </varray>
 </structure>
 <varray name="primitive_index" >
  <v type="int" >        1 </v>
  <v type="int" >        2 </v>
 </varray>
 <kpoints>
  <generation param="Monkhorst-Pack">
   <v type="int" name="divisions">       2        2        2 </v>
   <v name="usershift">      0.00000000       0.00000000       0.00000000 </v>
   <v name="genvec1">      0.50000000       0.00000000      -0.00000000 </v>
   <v name="genvec2">      0.00000000       0.50000000      -0.00000000 </v>
   <v name="genvec3">      0.00000000      -0.00000000       0.50000000 </v>
   <v name="shift">      0.50000000       0.50000000       0.50000000 </v>
  </generation>
  <varray name="kpointlist" >
   <v>       0.25000000       0.25000000       0.25000000 </v>
   <v>      -0.25000000       0.25000000       0.25000000 </v>
   <v>      -0.25000000      -0.25000000       0.25000000 </v>
  </varray>
  <varray name="weights" >
   <v>       0.25000000 </v>
   <v>       0.50000000 </v>
   <v>       0.25000000 </v>
  </varray>
 </kpoints>
 <parameters>
  <separator name="general" >
   <i type="string" name="SYSTEM">unknown system</i>
   <i type="logical" name="LCOMPAT"> F  </i>
  </separator>
  <separator name="electronic" >
   <i type="string" name="PREC">normal</i>
   <i name="ENMAX">    250.00000000</i>
   <i name="ENAUG">    322.06900000</i>
   <i name="EDIFF">      0.00040000</i>
   <i type="int" name="IALGO">    38</i>
   <i type="int" name="IWAVPR">    11</i>
   <i type="int" name="NBANDS">     8</i>
   <i name="NELECT">      8.00000000</i>
   <i type="int" name="TURBO">     0</i>
   <i type="int" name="IRESTART">     0</i>
   <i type="int" name="NREBOOT">     0</i>
   <i type="int" name="NMIN">     0</i>
   <i name="EREF">      0.00000000</i>
   <separator name="electronic smearing" >
    <i type="int" name="ISMEAR">     0</i>
    <i name="SIGMA">      0.20000000</i>
    <i name="KSPACING">      0.50000000</i>
    <i type="logical" name="KGAMMA"> T  </i>
   </separator>
   <separator name="electronic projectors" >
    <i type="logical" name="LREAL"> F  </i>
    <v name="ROPT">      0.00000000</v>
    <i type="int" name="LMAXPAW">  -100</i>
    <i type="int" name="LMAXMIX">     2</i>
    <i type="logical" name="NLSPLINE"> F  </i>
   </separator>
   <separator name="electronic startup" >
    <i type="int" name="ISTART">     1</i>
    <i type="int" name="ICHARG">     0</i>
    <i type="int" name="INIWAV">     1</i>
   </separator>
   <separator name="electronic spin" >
    <i type="int" name="ISPIN">     1</i>
    <i type="logical" name="LNONCOLLINEAR"> F  </i>
    <v name="MAGMOM">      1.00000000      1.00000000</v>
    <i name="NUPDOWN">     -1.00000000</i>
    <i type="logical" name="LSORBIT"> F  </i>
    <v name="SAXIS">      0.00000000      0.00000000      1.00000000</v>
    <i type="logical" name="LSPIRAL"> F  </i>
    <v name="QSPIRAL">      0.00000000      0.00000000      0.00000000</v>
    <i type="logical" name="LZEROZ"> F  </i>
   </separator>
   <separator name="electronic exchange-correlation" >
    <i type="logical" name="LASPH"> F  </i>
    <i type="logical" name="LMETAGGA"> F  </i>
   </separator>
   <separator name="electronic convergence" >
    <i type="int" name="NELM">    60</i>
    <i type="int" name="NELMDL">     0</i>
    <i type="int" name="NELMIN">     2</i>
    <i name="ENINI">    250.00000000</i>
    <separator name="electronic convergence detail" >
     <i type="logical" name="LDIAG"> T  </i>
     <i type="logical" name="LSUBROT"> F  </i>
     <i name="WEIMIN">      0.00100000</i>
     <i name="EBREAK">      0.00001250</i>
     <i name="DEPER">      0.30000000</i>
     <i type="int" name="NRMM">     4</i>
     <i name="TIME">      0.40000000</i>
    </separator>
   </separator>
   <separator name="electronic mixer" >
    <i name="AMIX">      0.40000000</i>
    <i name="BMIX">      1.00000000</i>
    <i name="AMIN">      0.10000000</i>
    <i name="AMIX_MAG">      1.60000000</i>
    <i name="BMIX_MAG">      1.00000000</i>
    <separator name="electronic mixer details" >
     <i type="int" name="IMIX">     4</i>
     <i type="logical" name="MIXFIRST"> F  </i>
     <i type="int" name="MAXMIX">   -45</i>
     <i name="WC">    100.00000000</i>
     <i type="int" name="INIMIX">     1</i>
     <i type="int" name="MIXPRE">     1</i>
     <i type="int" name="MREMOVE">     5</i>
    </separator>
   </separator>
   <separator name="electronic dipolcorrection" >
    <i type="logical" name="LDIPOL"> F  </i>
    <i type="logical" name="LMONO"> F  </i>
    <i type="int" name="IDIPOL">     0</i>
    <i name="EPSILON">      1.00000000</i>
    <v name="DIPOL">   -100.00000000   -100.00000000   -100.00000000</v>
    <i name="EFIELD">      0.00000000</i>
   </separator>
  </separator>
  <separator name="grids" >
   <i type="int" name="NGX">    14</i>
   <i type="int" name="NGY">    14</i>
   <i type="int" name="NGZ">    14</i>
   <i type="int" name="NGXF">    28</i>
   <i type="int" name="NGYF">    28</i>
   <i type="int" name="NGZF">    28</i>
   <i type="logical" name="ADDGRID"> F  </i>
  </separator>
  <separator name="ionic" >
   <i type="int" name="NSW">    15</i>
   <i type="int" name="IBRION">     2</i>
   <i type="int" name="MDALGO">     0</i>
   <i type="int" name="ISIF">     2</i>
   <i name="PSTRESS">      0.00000000</i>
   <i name="EDIFFG">     -0.01000000</i>
   <i type="int" name="NFREE">     1</i>
   <i name="POTIM">      0.50000000</i>
   <i name="SMASS">     -3.00000000</i>
   <i name="SCALEE">      1.00000000</i>
  </separator>
  <separator name="ionic md" >
   <i name="TEBEG">      0.00010000</i>
   <i name="TEEND">      0.00010000</i>
   <i type="int" name="NBLOCK">     1</i>
   <i type="int" name="KBLOCK">    15</i>
   <i type="int" name="NPACO">   256</i>
   <i name="APACO">     16.00000000</i>
  </separator>
  <separator name="symmetry" >
   <i type="int" name="ISYM">     2</i>
   <i name="SYMPREC">      0.00001000</i>
  </separator>
  <separator name="dos" >
   <i type="int" name="LORBIT">     0</i>
   <v name="RWIGS">     -1.00000000</v>
   <i type="int" name="NEDOS">   301</i>
   <i name="EMIN">     10.00000000</i>
   <i name="EMAX">    -10.00000000</i>
   <i name="EFERMI">      0.00000000</i>
  </separator>
  <separator name="writing" >
   <i type="int" name="NWRITE">     2</i>
   <i type="logical" name="LWAVE"> T  </i>
   <i type="logical" name="LDOWNSAMPLE"> F  </i>
   <i type="logical" name="LCHARG"> T  </i>
   <i type="logical" name="LPARD"> F  </i>
   <i type="logical" name="LVTOT"> F  </i>
   <i type="logical" name="LVHAR"> F  </i>
   <i type="logical" name="LELF"> F  </i>
   <i type="logical" name="LOPTICS"> F  </i>
   <v name="STM">      0.00000000      0.00000000      0.00000000      0.00000000      0.00000000      0.00000000      0.00000000</v>
  </separator>
  <separator name="performance" >
   <i type="int" name="NPAR">     8</i>
   <i type="int" name="NSIM">     4</i>
   <i type="int" name="NBLK">    -1</i>
   <i type="logical" name="LPLANE"> T  </i>
   <i type="logical" name="LSCALAPACK"> T  </i>
   <i type="logical" name="LSCAAWARE"> F  </i>
   <i type="logical" name="LSCALU"> F  </i>
   <i type="logical" name="LASYNC"> F  </i>
   <i type="logical" name="LORBITALREAL"> F  </i>
  </separator>
  <separator name="miscellaneous" >
   <i type="int" name="IDIOT">     3</i>
   <i type="int" name="ISPECIAL">     0</i>
   <i type="logical" name="LMUSIC"> F  </i>
   <v name="POMASS">     28.08500000</v>
   <v name="DARWINR">      0.00000000</v>
   <v name="DARWINV">      1.00000000</v>
   <i type="logical" name="LCORR"> T  </i>
  </separator>
  <i type="logical" name="GGA_COMPAT"> T  </i>
  <i type="logical" name="LBERRY"> F  </i>
  <i type="int" name="ICORELEVEL">     0</i>
  <i type="logical" name="LDAU"> F  </i>
  <i type="int" name="I_CONSTRAINED_M">     0</i>
  <separator name="electronic exchange-correlation" >
   <i type="string" name="GGA">--</i>
   <i type="int" name="VOSKOWN">     0</i>
   <i type="logical" name="LHFCALC"> F  </i>
   <i type="string" name="PRECFOCK"></i>
   <i type="logical" name="LSYMGRAD"> F  </i>
   <i type="logical" name="LHFONE"> F  </i>
   <i type="logical" name="LRHFCALC"> F  </i>
   <i type="logical" name="LTHOMAS"> F  </i>
   <i type="logical" name="LMODELHF"> F  </i>
   <i name="ENCUT4O">     -1.00000000</i>
   <i type="int" name="EXXOEP">     0</i>
   <i type="int" name="FOURORBIT">     0</i>
   <i name="AEXX">      0.00000000</i>
   <i name="HFALPHA">      0.00000000</i>
   <i name="MCALPHA">      0.00000000</i>
   <i name="ALDAX">      1.00000000</i>
   <i name="AGGAX">      1.00000000</i>
   <i name="ALDAC">      1.00000000</i>
   <i name="AGGAC">      1.00000000</i>
   <i type="int" name="NKREDX">     1</i>
   <i type="int" name="NKREDY">     1</i>
   <i type="int" name="NKREDZ">     1</i>
   <i type="logical" name="SHIFTRED"> F  </i>
   <i type="logical" name="ODDONLY"> F  </i>
   <i type="logical" name="EVENONLY"> F  </i>
   <i type="int" name="LMAXFOCK">     0</i>
   <i type="int" name="NMAXFOCKAE">     0</i>
   <i type="logical" name="LFOCKAEDFT"> F  </i>
   <i name="HFSCREEN">      0.00000000</i>
   <i name="HFSCREENC">      0.00000000</i>
   <i type="int" name="NBANDSGWLOW">     0</i>
  </separator>
  <separator name="vdW DFT" >
   <i type="logical" name="LUSE_VDW"> F  </i>
   <i name="Zab_VDW">     -0.84910000</i>
   <i name="PARAM1">      0.12340000</i>
   <i name="PARAM2">      1.00000000</i>
   <i name="PARAM3">      0.00000000</i>
  </separator>
  <separator name="model GW" >
   <i type="int" name="MODEL_GW">     0</i>
   <i name="MODEL_EPS0">      9.17662200</i>
   <i name="MODEL_ALPHA">      1.00000000</i>
  </separator>
  <separator name="linear response parameters" >
   <i type="logical" name="LEPSILON"> F  </i>
   <i type="logical" name="LRPA"> F  </i>
   <i type="logical" name="LNABLA"> F  </i>
   <i type="logical" name="LVEL"> F  </i>
   <i type="int" name="KINTER">     0</i>
   <i name="CSHIFT">      0.10000000</i>
   <i name="OMEGAMAX">     -1.00000000</i>
   <i name="DEG_THRESHOLD">      0.00200000</i>
   <i name="RTIME">     -0.10000000</i>
   <i name="WPLASMAI">      0.00000000</i>
   <v name="DFIELD">      0.00000000      0.00000000      0.00000000</v>
   <v name="WPLASMA">      0.00000000      0.00000000      0.00000000      0.00000000      0.00000000      0.00000000      0.00000000      0.00000000      0.00000000</v>
  </separator>
  <separator name="orbital magnetization" >
   <i type="logical" name="NUCIND"> F  </i>
   <v name="MAGPOS">      0.00000000      0.00000000      0.00000000</v>
   <i type="logical" name="LNICSALL"> T  </i>
   <i type="logical" name="ORBITALMAG"> F  </i>
   <i type="logical" name="LMAGBLOCH"> F  </i>
   <i type="logical" name="LCHIMAG"> F  </i>
   <i type="logical" name="LGAUGE"> T  </i>
   <i type="int" name="MAGATOM">     0</i>
   <v name="MAGDIPOL">      0.00000000      0.00000000      0.00000000</v>
   <v name="AVECCONST">      0.00000000      0.00000000      0.00000000</v>
  </separator>
  <separator name="response functions" >
   <i type="logical" name="LADDER"> F  </i>
   <i type="logical" name="LRPAFORCE"> F  </i>
   <i type="logical" name="LFXC"> F  </i>
   <i type="logical" name="LHARTREE"> T  </i>
   <i type="int" name="IBSE">     0</i>
   <v type="int" name="KPOINT">    -1     0     0     0</v>
   <i type="logical" name="LTCTE"> F  </i>
   <i type="logical" name="LTETE"> F  </i>
   <i type="logical" name="LTRIPLET"> F  </i>
   <i type="logical" name="LFXCEPS"> F  </i>
   <i type="logical" name="LFXHEG"> F  </i>
   <i type="int" name="NATURALO">     2</i>
   <i type="logical" name="L2ORDER"> F  </i>
   <i type="logical" name="LMP2LT"> F  </i>
   <i type="logical" name="LUSEW"> F  </i>
   <i name="ENCUTGW">     -2.00000000</i>
   <i name="ENCUTGWSOFT">     -2.00000000</i>
   <i name="ENCUTLF">     -1.00000000</i>
   <i type="int" name="LMAXMP2">    -1</i>
   <i name="SCISSOR">      0.00000000</i>
   <i type="int" name="NOMEGA">     0</i>
   <i type="int" name="NOMEGAR">     0</i>
   <i type="int" name="NBANDSGW">    -1</i>
   <i type="int" name="NBANDSO">    -1</i>
   <i type="int" name="NBANDSV">    -1</i>
   <i type="int" name="NELM">     1</i>
   <i type="int" name="NELMHF">     1</i>
   <i type="int" name="DIM">     3</i>
   <i type="int" name="ANTIRES">     0</i>
   <i name="OMEGAMAX">    -30.00000000</i>
   <i name="OMEGAMIN">    -30.00000000</i>
   <i name="OMEGATL">   -200.00000000</i>
   <i type="int" name="OMEGAGRID">   140</i>
   <i name="CSHIFT">     -0.10000000</i>
   <i type="logical" name="SELFENERGY"> F  </i>
   <i type="logical" name="LSPECTRAL"> F  </i>
   <i type="logical" name="LSPECTRALGW"> F  </i>
   <i type="logical" name="LSINGLES"> F  </i>
   <i type="logical" name="LFERMIGW"> F  </i>
   <i type="logical" name="ODDONLYGW"> F  </i>
   <i type="logical" name="EVENONLYGW"> F  </i>
   <i type="int" name="NKREDLFX">     1</i>
   <i type="int" name="NKREDLFY">     1</i>
   <i type="int" name="NKREDLFZ">     1</i>
   <i type="int" name="MAXMEM">  2800</i>
   <i type="int" name="TELESCOPE">     0</i>
   <i type="int" name="TAUPAR">     1</i>
   <i type="int" name="OMEGAPAR">    -1</i>
   <i name="LAMBDA">      1.00000000</i>
  </separator>
  <separator name="External order field" >
   <i name="OFIELD_KAPPA">      0.00000000</i>
   <v name="OFIELD_K">      0.00000000      0.00000000      0.00000000</v>
   <i name="OFIELD_Q6_NEAR">      0.00000000</i>
   <i name="OFIELD_Q6_FAR">      0.00000000</i>
   <i name="OFIELD_A">      0.00000000</i>
  </separator>
 </parameters>
 <atominfo>
  <atoms>       2 </atoms>
  <types>       1 </types>
  <array name="atoms" >
   <dimension dim="1">ion</dimension>
   <field type="string">element</field>
   <field type="int">atomtype</field>
   <set>
    <rc><c>Si</c><c>   1</c></rc>
    <rc><c>Si</c><c>   1</c></rc>
   </set>
  </array>
  <array name="atomtypes" >
   <dimension dim="1">type</dimension>
   <field type="int">atomspertype</field>
   <field type="string">element</field>
   <field>mass</field>
   <field>valence</field>
   <field type="string">pseudopotential</field>
   <set>
    <rc><c>   2</c><c>Si</c><c>     28.08500000</c><c>      4.00000000</c><c> PAW_PBE Si 05Jan2001                   </c></rc>
   </set>
  </array>
 </atominfo>
 <structure name="initialpos" >
  <crystal>
   <varray name="basis" >
    <v>      -2.45000000       2.45000000       1.27400000 </v>
    <v>       2.45000000      -2.45000000       1.27400000 </v>
    <v>       2.45000000       2.45000000      -1.27400000 </v>
   </varray>
   <i name="volume">     30.58874000 </i>
   <varray name="rec_basis" >
    <v>       0.00000000       0.20408163       0.39246468 </v>
    <v>       0.20408163       0.00000000       0.39246468 </v>
    <v>       0.20408163       0.20408163      -0.00000000 </v>
   </varray>
  </crystal>
  <varray name="positions" >
   <v>       0.25000000       0.75000000       0.50000000 </v>
   <v>       0.00000000       0.00000000       0.00000000 </v>
  </varray>
 </structure>
 <calculation>
  <scstep>
   <time name="dav">    0.03    0.04</time>
   <time name="total">    0.08    0.09</time>
   <energy>
    <i name="alphaZ">      4.40202223 </i>
    <i name="ewald">   -265.18101312 </i>
    <i name="hartreedc">     -2.03341709 </i>
    <i name="XCdc">    -17.60901040 </i>
    <i name="pawpsdc">     68.44880505 </i>
    <i name="pawaedc">    -33.27277155 </i>
    <i name="eentropy">     -0.05641896 </i>
    <i name="bandstr">     27.06791740 </i>
    <i name="atom">    206.12349923 </i>
    <i name="e_fr_energy">    -12.11038719 </i>
    <i name="e_wo_entrp">    -12.05396823 </i>
    <i name="e_0_energy">    -12.08217771 </i>
   </energy>
  </scstep>
  <scstep>
   <time name="dav">    0.04    0.04</time>
   <time name="total">    0.07    0.09</time>
   <energy>
    <i name="e_fr_energy">    -12.04375955 </i>
    <i name="e_wo_entrp">    -11.98734059 </i>
    <i name="e_0_energy">    -12.01555007 </i>
   </energy>
  </scstep>
  <scstep>
   <time name="dav">    0.03    0.03</time>
   <time name="total">    0.06    0.08</time>
   <energy>
    <i name="e_fr_energy">    -12.01066279 </i>
    <i name="e_wo_entrp">    -11.95424383 </i>
    <i name="e_0_energy">    -11.98245331 </i>
   </energy>
  </scstep>
  <scstep>
   <time name="dav">    0.03    0.03</time>
   <time name="total">    0.06    0.07</time>
   <energy>
    <i name="alphaZ">      4.40202223 </i>
    <i name="ewald">   -265.18101312 </i>
    <i name="hartreedc">     -2.24414605 </i>
    <i name="XCdc">    -17.61223483 </i>
    <i name="pawpsdc">     70.32635026 </i>
    <i name="pawaedc">    -35.22302933 </i>
    <i name="eentropy">     -0.05641896 </i>
    <i name="bandstr">     27.45417883 </i>
    <i name="atom">    206.12349923 </i>
    <i name="e_fr_energy">    -12.01079174 </i>
    <i name="e_wo_entrp">    -11.95437278 </i>
    <i name="e_0_energy">    -11.98258226 </i>
   </energy>
  </scstep>
  <structure>
   <crystal>
    <varray name="basis" >
     <v>      -2.45000000       2.45000000       1.27400000 </v>
     <v>       2.45000000      -2.45000000       1.27400000 </v>
     <v>       2.45000000       2.45000000      -1.27400000 </v>
    </varray>
    <i name="volume">     30.58874000 </i>
    <varray name="rec_basis" >
     <v>       0.00000000       0.20408163       0.39246468 </v>
     <v>       0.20408163       0.00000000       0.39246468 </v>
     <v>       0.20408163       0.20408163      -0.00000000 </v>
    </varray>
   </crystal>
   <varray name="positions" >
    <v>       0.25000000       0.75000000       0.50000000 </v>
    <v>       0.00000000       0.00000000       0.00000000 </v>
   </varray>
  </structure>
  <varray name="forces" >
   <v>      -0.00000000      -0.00000000       0.00000000 </v>
   <v>       0.00000000       0.00000000      -0.00000000 </v>
  </varray>
  <varray name="stress" >
   <v>    -237.42452671       0.00000000       0.00000000 </v>
   <v>       0.00000000    -237.42452671      -0.00000000 </v>
   <v>       0.00000000      -0.00000000     238.20849514 </v>
  </varray>
  <energy>
   <i name="e_fr_energy">    -12.01079174 </i>
   <i name="e_wo_entrp">    -11.98258226 </i>
   <i name="e_0_energy">     -0.05641896 </i>
  </energy>
  <time name="totalsc">    0.86    1.19</time>
  <eigenvalues>
   <array>
    <dimension dim="1">band</dimension>
    <dimension dim="2">kpoint</dimension>
    <dimension dim="3">spin</dimension>
    <field>eigene</field>
    <field>occ</field>
    <set>
     <set comment="spin 1">
      <set comment="kpoint 1">
       <r>    3.3741    1.0000 </r>
       <r>    3.3741    1.0000 </r>
       <r>    4.0272    1.0000 </r>
       <r>    4.0272    1.0000 </r>
       <r>   13.1965    0.0000 </r>
       <r>   13.1966    0.0000 </r>
       <r>   15.0066    0.0000 </r>
       <r>   15.0067    0.0000 </r>
      </set>
      <set comment="kpoint 2">
       <r>   -3.1658    1.0000 </r>
       <r>    1.8907    1.0000 </r>
       <r>    3.6178    1.0000 </r>
       <r>    8.5209    0.5000 </r>
       <r>   12.8542    0.0000 </r>
       <r>   16.0451    0.0000 </r>
       <r>   17.2462    0.0000 </r>
       <r>   18.2428    0.0000 </r>
      </set>
      <set comment="kpoint 3">
       <r>    0.8271    1.0000 </r>
       <r>    5.7339    1.0000 </r>
       <r>    5.8260    1.0000 </r>
       <r>    7.2562    1.0000 </r>
       <r>    7.2562    1.0000 </r>
       <r>   11.5245    0.0000 </r>
       <r>   12.2532    0.0000 </r>
       <r>   12.2532    0.0000 </r>
      </set>
     </set>
    </set>
   </array>
  </eigenvalues>
  <separator name="orbital magnetization" >
   <v name="MAGDIPOLOUT">      0.00000000      0.00000000      0.00000000</v>
  </separator>
  <dos>
   <i name="efermi">      8.52090647 </i>
   <total>
    <array>
     <dimension dim="1">gridpoints</dimension>
     <dimension dim="2">spin</dimension>
     <field>energy</field>
     <field>total</field>
     <field>integrated</field>
     <set>
      <set comment="spin 1">
       <r>    -5.1658     0.0000     0.0000 </r>
       <r>    -5.0811     0.0000     0.0000 </r>
       <r>    -4.9964     0.0000     0.0000 </r>
       <r>    -4.9117     0.0000     0.0000 </r>
       <r>    -4.8270     0.0000     0.0000 </r>
       <r>    -4.7423     0.0000     0.0000 </r>
       <r>    -4.6576     0.0000     0.0000 </r>
       <r>    -4.5729     0.0000     0.0000 </r>
       <r>    -4.4882     0.0000     0.0000 </r>
       <r>    -4.4035     0.0000     0.0000 </r>
       <r>    -4.3188     0.0000     0.0000 </r>
       <r>    -4.2342     0.0000     0.0000 </r>
       <r>    -4.1495     0.0000     0.0000 </r>
       <r>    -4.0648     0.0000     0.0000 </r>
       <r>    -3.9801     0.0000     0.0000 </r>
       <r>    -3.8954     0.0000     0.0000 </r>
       <r>    -3.8107     0.0000     0.0000 </r>
       <r>    -3.7260     0.0004     0.0000 </r>
       <r>    -3.6413     0.0041     0.0004 </r>
       <r>    -3.5566     0.0292     0.0029 </r>
       <r>    -3.4719     0.1459     0.0152 </r>
       <r>    -3.3872     0.5138     0.0587 </r>
       <r>    -3.3025     1.2768     0.1669 </r>
       <r>    -3.2178     2.2394     0.3565 </r>
       <r>    -3.1331     2.7731     0.5914 </r>
       <r>    -3.0484     2.4244     0.7967 </r>
       <r>    -2.9637     1.4965     0.9235 </r>
       <r>    -2.8790     0.6520     0.9787 </r>
       <r>    -2.7943     0.2005     0.9957 </r>
       <r>    -2.7096     0.0435     0.9994 </r>
       <r>    -2.6249     0.0066     0.9999 </r>
       <r>    -2.5402     0.0007     1.0000 </r>
       <r>    -2.4555     0.0001     1.0000 </r>
       <r>    -2.3709     0.0000     1.0000 </r>
       <r>    -2.2862     0.0000     1.0000 </r>
       <r>    -2.2015     0.0000     1.0000 </r>
       <r>    -2.1168     0.0000     1.0000 </r>
       <r>    -2.0321     0.0000     1.0000 </r>
       <r>    -1.9474     0.0000     1.0000 </r>
       <r>    -1.8627     0.0000     1.0000 </r>
       <r>    -1.7780     0.0000     1.0000 </r>
       <r>    -1.6933     0.0000     1.0000 </r>
       <r>    -1.6086     0.0000     1.0000 </r>
       <r>    -1.5239     0.0000     1.0000 </r>
       <r>    -1.4392     0.0000     1.0000 </r>
       <r>    -1.3545     0.0000     1.0000 </r>
       <r>    -1.2698     0.0000     1.0000 </r>
       <r>    -1.1851     0.0000     1.0000 </r>
       <r>    -1.1004     0.0000     1.0000 </r>
       <r>    -1.0157     0.0000     1.0000 </r>
       <r>    -0.9310     0.0000     1.0000 </r>
       <r>    -0.8463     0.0000     1.0000 </r>
       <r>    -0.7616     0.0000     1.0000 </r>
       <r>    -0.6769     0.0000     1.0000 </r>
       <r>    -0.5922     0.0000     1.0000 </r>
       <r>    -0.5076     0.0000     1.0000 </r>
       <r>    -0.4229     0.0000     1.0000 </r>
       <r>    -0.3382     0.0000     1.0000 </r>
       <r>    -0.2535     0.0000     1.0000 </r>
       <r>    -0.1688     0.0000     1.0000 </r>
       <r>    -0.0841     0.0000     1.0000 </r>
       <r>     0.0006     0.0000     1.0000 </r>
       <r>     0.0853     0.0000     1.0000 </r>
       <r>     0.1700     0.0000     1.0000 </r>
       <r>     0.2547     0.0001     1.0000 </r>
       <r>     0.3394     0.0015     1.0001 </r>
       <r>     0.4241     0.0113     1.0011 </r>
       <r>     0.5088     0.0591     1.0061 </r>
       <r>     0.5935     0.2190     1.0247 </r>
       <r>     0.6782     0.5722     1.0731 </r>
       <r>     0.7629     1.0552     1.1625 </r>
       <r>     0.8476     1.3737     1.2788 </r>
       <r>     0.9323     1.2626     1.3858 </r>
       <r>     1.0170     0.8194     1.4552 </r>
       <r>     1.1017     0.3754     1.4870 </r>
       <r>     1.1864     0.1213     1.4972 </r>
       <r>     1.2711     0.0277     1.4996 </r>
       <r>     1.3558     0.0053     1.5000 </r>
       <r>     1.4404     0.0082     1.5007 </r>
       <r>     1.5251     0.0490     1.5049 </r>
       <r>     1.6098     0.2202     1.5235 </r>
       <r>     1.6945     0.6990     1.5827 </r>
       <r>     1.7792     1.5656     1.7153 </r>
       <r>     1.8639     2.4753     1.9250 </r>
       <r>     1.9486     2.7630     2.1590 </r>
       <r>     2.0333     2.1775     2.3434 </r>
       <r>     2.1180     1.2115     2.4460 </r>
       <r>     2.2027     0.4757     2.4863 </r>
       <r>     2.2874     0.1318     2.4975 </r>
       <r>     2.3721     0.0258     2.4997 </r>
       <r>     2.4568     0.0035     2.5000 </r>
       <r>     2.5415     0.0003     2.5000 </r>
       <r>     2.6262     0.0000     2.5000 </r>
       <r>     2.7109     0.0000     2.5000 </r>
       <r>     2.7956     0.0002     2.5000 </r>
       <r>     2.8803     0.0026     2.5002 </r>
       <r>     2.9650     0.0197     2.5019 </r>
       <r>     3.0497     0.1064     2.5109 </r>
       <r>     3.1344     0.4062     2.5453 </r>
       <r>     3.2191     1.1042     2.6388 </r>
       <r>     3.3037     2.1693     2.8226 </r>
       <r>     3.3884     3.1901     3.0928 </r>
       <r>     3.4731     3.7608     3.4113 </r>
       <r>     3.5578     3.8719     3.7392 </r>
       <r>     3.6425     3.5958     4.0438 </r>
       <r>     3.7272     2.9203     4.2911 </r>
       <r>     3.8119     2.2068     4.4780 </r>
       <r>     3.8966     2.0707     4.6534 </r>
       <r>     3.9813     2.5291     4.8676 </r>
       <r>     4.0660     2.8296     5.1072 </r>
       <r>     4.1507     2.3773     5.3086 </r>
       <r>     4.2354     1.4272     5.4295 </r>
       <r>     4.3201     0.6062     5.4808 </r>
       <r>     4.4048     0.1818     5.4962 </r>
       <r>     4.4895     0.0384     5.4995 </r>
       <r>     4.5742     0.0057     5.4999 </r>
       <r>     4.6589     0.0006     5.5000 </r>
       <r>     4.7436     0.0000     5.5000 </r>
       <r>     4.8283     0.0000     5.5000 </r>
       <r>     4.9130     0.0000     5.5000 </r>
       <r>     4.9977     0.0000     5.5000 </r>
       <r>     5.0824     0.0000     5.5000 </r>
       <r>     5.1670     0.0002     5.5000 </r>
       <r>     5.2517     0.0019     5.5002 </r>
       <r>     5.3364     0.0141     5.5014 </r>
       <r>     5.4211     0.0759     5.5078 </r>
       <r>     5.5058     0.2930     5.5326 </r>
       <r>     5.5905     0.8156     5.6017 </r>
       <r>     5.6752     1.6474     5.7412 </r>
       <r>     5.7599     2.4258     5.9467 </r>
       <r>     5.8446     2.6114     6.1678 </r>
       <r>     5.9293     2.0566     6.3420 </r>
       <r>     6.0140     1.1826     6.4422 </r>
       <r>     6.0987     0.4946     6.4841 </r>
       <r>     6.1834     0.1497     6.4968 </r>
       <r>     6.2681     0.0326     6.4995 </r>
       <r>     6.3528     0.0051     6.4999 </r>
       <r>     6.4375     0.0006     6.5000 </r>
       <r>     6.5222     0.0000     6.5000 </r>
       <r>     6.6069     0.0000     6.5000 </r>
       <r>     6.6916     0.0004     6.5000 </r>
       <r>     6.7763     0.0037     6.5003 </r>
       <r>     6.8610     0.0266     6.5026 </r>
       <r>     6.9457     0.1351     6.5140 </r>
       <r>     7.0303     0.4848     6.5551 </r>
       <r>     7.1150     1.2273     6.6591 </r>
       <r>     7.1997     2.1928     6.8448 </r>
       <r>     7.2844     2.7659     7.0790 </r>
       <r>     7.3691     2.4632     7.2877 </r>
       <r>     7.4538     1.5487     7.4188 </r>
       <r>     7.5385     0.6874     7.4770 </r>
       <r>     7.6232     0.2153     7.4953 </r>
       <r>     7.7079     0.0476     7.4993 </r>
       <r>     7.7926     0.0074     7.4999 </r>
       <r>     7.8773     0.0008     7.5000 </r>
       <r>     7.9620     0.0005     7.5000 </r>
       <r>     8.0467     0.0043     7.5004 </r>
       <r>     8.1314     0.0300     7.5029 </r>
       <r>     8.2161     0.1491     7.5156 </r>
       <r>     8.3008     0.5222     7.5598 </r>
       <r>     8.3855     1.2909     7.6691 </r>
       <r>     8.4702     2.2524     7.8599 </r>
       <r>     8.5549     2.7746     8.0949 </r>
       <r>     8.6396     2.4132     8.2993 </r>
       <r>     8.7243     1.4817     8.4248 </r>
       <r>     8.8090     0.6422     8.4792 </r>
       <r>     8.8937     0.1964     8.4958 </r>
       <r>     8.9783     0.0424     8.4994 </r>
       <r>     9.0630     0.0064     8.4999 </r>
       <r>     9.1477     0.0007     8.5000 </r>
       <r>     9.2324     0.0001     8.5000 </r>
       <r>     9.3171     0.0000     8.5000 </r>
       <r>     9.4018     0.0000     8.5000 </r>
       <r>     9.4865     0.0000     8.5000 </r>
       <r>     9.5712     0.0000     8.5000 </r>
       <r>     9.6559     0.0000     8.5000 </r>
       <r>     9.7406     0.0000     8.5000 </r>
       <r>     9.8253     0.0000     8.5000 </r>
       <r>     9.9100     0.0000     8.5000 </r>
       <r>     9.9947     0.0000     8.5000 </r>
       <r>    10.0794     0.0000     8.5000 </r>
       <r>    10.1641     0.0000     8.5000 </r>
       <r>    10.2488     0.0000     8.5000 </r>
       <r>    10.3335     0.0000     8.5000 </r>
       <r>    10.4182     0.0000     8.5000 </r>
       <r>    10.5029     0.0000     8.5000 </r>
       <r>    10.5876     0.0000     8.5000 </r>
       <r>    10.6723     0.0000     8.5000 </r>
       <r>    10.7570     0.0000     8.5000 </r>
       <r>    10.8416     0.0000     8.5000 </r>
       <r>    10.9263     0.0001     8.5000 </r>
       <r>    11.0110     0.0008     8.5001 </r>
       <r>    11.0957     0.0063     8.5006 </r>
       <r>    11.1804     0.0370     8.5037 </r>
       <r>    11.2651     0.1524     8.5167 </r>
       <r>    11.3498     0.4430     8.5542 </r>
       <r>    11.4345     0.9084     8.6311 </r>
       <r>    11.5192     1.3151     8.7425 </r>
       <r>    11.6039     1.3442     8.8563 </r>
       <r>    11.6886     0.9704     8.9385 </r>
       <r>    11.7733     0.4979     8.9807 </r>
       <r>    11.8580     0.2043     8.9980 </r>
       <r>    11.9427     0.1804     9.0133 </r>
       <r>    12.0274     0.4934     9.0551 </r>
       <r>    12.1121     1.2291     9.1592 </r>
       <r>    12.1968     2.1937     9.3450 </r>
       <r>    12.2815     2.7663     9.5793 </r>
       <r>    12.3662     2.4656     9.7881 </r>
       <r>    12.4509     1.5702     9.9211 </r>
       <r>    12.5356     0.8042     9.9892 </r>
       <r>    12.6203     0.6509    10.0443 </r>
       <r>    12.7049     1.1904    10.1451 </r>
       <r>    12.7896     2.1340    10.3259 </r>
       <r>    12.8743     2.8574    10.5679 </r>
       <r>    12.9590     2.9438    10.8172 </r>
       <r>    13.0437     2.7464    11.0498 </r>
       <r>    13.1284     2.8211    11.2887 </r>
       <r>    13.2131     2.9791    11.5411 </r>
       <r>    13.2978     2.6106    11.7622 </r>
       <r>    13.3825     1.6940    11.9056 </r>
       <r>    13.4672     0.7855    11.9722 </r>
       <r>    13.5519     0.2578    11.9940 </r>
       <r>    13.6366     0.0597    11.9991 </r>
       <r>    13.7213     0.0098    11.9999 </r>
       <r>    13.8060     0.0011    12.0000 </r>
       <r>    13.8907     0.0001    12.0000 </r>
       <r>    13.9754     0.0000    12.0000 </r>
       <r>    14.0601     0.0000    12.0000 </r>
       <r>    14.1448     0.0000    12.0000 </r>
       <r>    14.2295     0.0000    12.0000 </r>
       <r>    14.3142     0.0000    12.0000 </r>
       <r>    14.3989     0.0001    12.0000 </r>
       <r>    14.4836     0.0012    12.0001 </r>
       <r>    14.5682     0.0101    12.0010 </r>
       <r>    14.6529     0.0617    12.0062 </r>
       <r>    14.7376     0.2643    12.0286 </r>
       <r>    14.8223     0.7989    12.0962 </r>
       <r>    14.9070     1.7043    12.2406 </r>
       <r>    14.9917     2.5667    12.4580 </r>
       <r>    15.0764     2.7291    12.6891 </r>
       <r>    15.1611     2.0487    12.8626 </r>
       <r>    15.2458     1.0857    12.9546 </r>
       <r>    15.3305     0.4061    12.9890 </r>
       <r>    15.4152     0.1072    12.9981 </r>
       <r>    15.4999     0.0206    12.9998 </r>
       <r>    15.5846     0.0086    13.0005 </r>
       <r>    15.6693     0.0401    13.0039 </r>
       <r>    15.7540     0.1871    13.0198 </r>
       <r>    15.8387     0.6193    13.0722 </r>
       <r>    15.9234     1.4468    13.1948 </r>
       <r>    16.0081     2.3857    13.3968 </r>
       <r>    16.0928     2.7774    13.6321 </r>
       <r>    16.1775     2.2829    13.8254 </r>
       <r>    16.2622     1.3248    13.9376 </r>
       <r>    16.3469     0.5426    13.9836 </r>
       <r>    16.4316     0.1568    13.9969 </r>
       <r>    16.5162     0.0320    13.9996 </r>
       <r>    16.6009     0.0046    14.0000 </r>
       <r>    16.6856     0.0009    14.0000 </r>
       <r>    16.7703     0.0041    14.0004 </r>
       <r>    16.8550     0.0290    14.0028 </r>
       <r>    16.9397     0.1449    14.0151 </r>
       <r>    17.0244     0.5112    14.0584 </r>
       <r>    17.1091     1.2724    14.1662 </r>
       <r>    17.1938     2.2354    14.3555 </r>
       <r>    17.2785     2.7725    14.5903 </r>
       <r>    17.3632     2.4279    14.7959 </r>
       <r>    17.4479     1.5011    14.9231 </r>
       <r>    17.5326     0.6551    14.9786 </r>
       <r>    17.6173     0.2018    14.9957 </r>
       <r>    17.7020     0.0445    14.9994 </r>
       <r>    17.7867     0.0134    15.0006 </r>
       <r>    17.8714     0.0442    15.0043 </r>
       <r>    17.9561     0.2005    15.0213 </r>
       <r>    18.0408     0.6520    15.0765 </r>
       <r>    18.1255     1.4965    15.2033 </r>
       <r>    18.2102     2.4244    15.4086 </r>
       <r>    18.2949     2.7731    15.6435 </r>
       <r>    18.3795     2.2394    15.8331 </r>
       <r>    18.4642     1.2768    15.9413 </r>
       <r>    18.5489     0.5138    15.9848 </r>
       <r>    18.6336     0.1459    15.9971 </r>
       <r>    18.7183     0.0292    15.9996 </r>
       <r>    18.8030     0.0041    16.0000 </r>
       <r>    18.8877     0.0004    16.0000 </r>
       <r>    18.9724     0.0000    16.0000 </r>
       <r>    19.0571     0.0000    16.0000 </r>
       <r>    19.1418     0.0000    16.0000 </r>
       <r>    19.2265     0.0000    16.0000 </r>
       <r>    19.3112     0.0000    16.0000 </r>
       <r>    19.3959     0.0000    16.0000 </r>
       <r>    19.4806     0.0000    16.0000 </r>
       <r>    19.5653     0.0000    16.0000 </r>
       <r>    19.6500     0.0000    16.0000 </r>
       <r>    19.7347     0.0000    16.0000 </r>
       <r>    19.8194     0.0000    16.0000 </r>
       <r>    19.9041     0.0000    16.0000 </r>
       <r>    19.9888     0.0000    16.0000 </r>
       <r>    20.0735     0.0000    16.0000 </r>
       <r>    20.1582     0.0000    16.0000 </r>
       <r>    20.2428     0.0000    16.0000 </r>
      </set>
     </set>
    </array>
   </total>
  </dos>
 </calculation>
 <structure name="finalpos" >
  <crystal>
   <varray name="basis" >
    <v>      -2.45000000       2.45000000       1.27400000 </v>
    <v>       2.45000000      -2.45000000       1.27400000 </v>
    <v>       2.45000000       2.45000000      -1.27400000 </v>
   </varray>
   <i name="volume">     30.58874000 </i>
   <varray name="rec_basis" >
    <v>       0.00000000       0.20408163       0.39246468 </v>
    <v>       0.20408163       0.00000000       0.39246468 </v>
    <v>       0.20408163       0.20408163      -0.00000000 </v>
   </varray>
  </crystal>
  <varray name="positions" >
   <v>       0.25000000       0.75000000       0.50000000 </v>
   <v>       0.00000000       0.00000000       0.00000000 </v>
  </varray>
 </structure>
</modeling>
